                  Welcome to Q-Chem
     A Quantum Leap Into The Future Of Chemistry


 Q-Chem 5.2 (devel), Q-Chem, Inc., Pleasanton, CA (2019)

 Yihan Shao,  Zhengting Gan,  E. Epifanovsky,  A. T. B. Gilbert,  M. Wormit,  
 J. Kussmann,  A. W. Lange,  A. Behn,  Jia Deng,  Xintian Feng,  D. Ghosh,  
 M. Goldey,  P. R. Horn,  L. D. Jacobson,  I. Kaliman,  T. Kus,  A. Landau,  
 Jie Liu,  E. I. Proynov,  R. M. Richard,  R. P. Steele,  E. J. Sundstrom,  
 H. L. Woodcock III,  P. M. Zimmerman,  D. Zuev,  B. Albrecht,  E. Alguire,  
 S. A. Baeppler,  D. Barton,  Z. Benda,  Y. A. Bernard,  E. J. Berquist,  
 K. B. Bravaya,  H. Burton,  D. Casanova,  Chun-Min Chang,  Yunqing Chen,  
 A. Chien,  K. D. Closser,  M. P. Coons,  S. Coriani,  S. Dasgupta,  
 A. L. Dempwolff,  M. Diedenhofen,  Hainam Do,  R. G. Edgar,  Po-Tung Fang,  
 S. Faraji,  S. Fatehi,  Qingguo Feng,  K. D. Fenk,  J. Fosso-Tande,  
 J. Gayvert,  Qinghui Ge,  A. Ghysels,  G. Gidofalvi,  J. Gomes,  
 J. Gonthier,  A. Gunina,  D. Hait,  M. W. D. Hanson-Heine,  
 P. H. P. Harbach,  A. W. Hauser,  M. F. Herbst,  J. E. Herr,  
 E. G. Hohenstein,  Z. C. Holden,  Kerwin Hui,  B. C. Huynh,  T.-C. Jagau,  
 Hyunjun Ji,  B. Kaduk,  K. Khistyaev,  Jaehoon Kim,  P. Klunzinger,  K. Koh,  
 D. Kosenkov,  L. Koulias,  T. Kowalczyk,  C. M. Krauter,  A. Kunitsa,  
 Ka Un Lao,  A. Laurent,  K. V. Lawler,  Joonho Lee,  D. Lefrancois,  
 S. Lehtola,  D. S. Levine,  Yi-Pei Li,  You-Sheng Lin,  Fenglai Liu,  
 E. Livshits,  A. Luenser,  P. Manohar,  E. Mansoor,  S. F. Manzer,  
 Shan-Ping Mao,  Yuezhi Mao,  N. Mardirossian,  A. V. Marenich,  
 T. Markovich,  L. A. Martinez-Martinez,  S. A. Maurer,  N. J. Mayhall,  
 S. C. McKenzie,  J.-M. Mewes,  P. Morgante,  A. F. Morrison,  
 J. W. Mullinax,  K. Nanda,  T. S. Nguyen-Beck,  R. Olivares-Amaya,  
 J. A. Parkhill,  Zheng Pei,  T. M. Perrine,  F. Plasser,  P. Pokhilko,  
 S. Prager,  A. Prociuk,  E. Ramos,  D. R. Rehn,  F. Rob,  M. Scheurer,  
 M. Schneider,  N. Sergueev,  S. M. Sharada,  S. Sharma,  D. W. Small,  
 T. Stauch,  T. Stein,  Yu-Chuan Su,  A. J. W. Thom,  A. Tkatchenko,  
 T. Tsuchimochi,  N. M. Tubman,  L. Vogt,  M. L. Vidal,  O. Vydrov,  
 M. A. Watson,  J. Wenzel,  M. de Wergifosse,  T. A. Wesolowski,  A. White,  
 J. Witte,  A. Yamada,  Jun Yang,  K. Yao,  S. Yeganeh,  S. R. Yost,  
 Zhi-Qiang You,  A. Zech,  Igor Ying Zhang,  Xing Zhang,  Yan Zhao,  
 Ying Zhu,  B. R. Brooks,  G. K. L. Chan,  C. J. Cramer,  M. S. Gordon,  
 W. J. Hehre,  A. Klamt,  M. W. Schmidt,  C. D. Sherrill,  D. G. Truhlar,  
 A. Aspuru-Guzik,  R. Baer,  A. T. Bell,  N. A. Besley,  Jeng-Da Chai,  
 A. E. DePrince, III,  R. A. DiStasio Jr.,  A. Dreuw,  B. D. Dunietz,  
 T. R. Furlani,  Chao-Ping Hsu,  Yousung Jung,  Jing Kong,  D. S. Lambrecht,  
 WanZhen Liang,  C. Ochsenfeld,  V. A. Rassolov,  L. V. Slipchenko,  
 J. E. Subotnik,  T. Van Voorhis,  J. M. Herbert,  A. I. Krylov,  
 P. M. W. Gill,  M. Head-Gordon

 Contributors to earlier versions of Q-Chem not listed above: 
 R. D. Adamson,  B. Austin,  J. Baker,  G. J. O. Beran,  K. Brandhorst,  
 S. T. Brown,  E. F. C. Byrd,  A. K. Chakraborty,  C.-L. Cheng,  
 Siu Hung Chien,  D. M. Chipman,  D. L. Crittenden,  H. Dachsel,  
 R. J. Doerksen,  A. D. Dutoi,  L. Fusti-Molnar,  W. A. Goddard III,  
 A. Golubeva-Zadorozhnaya,  S. R. Gwaltney,  G. Hawkins,  A. Heyden,  
 S. Hirata,  G. Kedziora,  F. J. Keil,  C. Kelley,  Jihan Kim,  R. A. King,  
 R. Z. Khaliullin,  P. P. Korambath,  W. Kurlancheek,  A. M. Lee,  M. S. Lee,  
 S. V. Levchenko,  Ching Yeh Lin,  D. Liotard,  R. C. Lochan,  I. Lotan,  
 P. E. Maslen,  N. Nair,  D. P. O'Neill,  D. Neuhauser,  E. Neuscamman,  
 C. M. Oana,  R. Olson,  B. Peters,  R. Peverati,  P. A. Pieniazek,  
 Y. M. Rhee,  J. Ritchie,  M. A. Rohrdanz,  E. Rosta,  N. J. Russ,  
 H. F. Schaefer III,  N. E. Schultz,  N. Shenvi,  A. C. Simmonett,  A. Sodt,  
 D. Stuck,  K. S. Thanthiriwatte,  V. Vanovschi,  Tao Wang,  A. Warshel,  
 C. F. Williams,  Q. Wu,  X. Xu,  W. Zhang

 Please cite Q-Chem as follows:
 Y. Shao et al., Mol. Phys. 113, 184-215 (2015)
 DOI: 10.1080/00268976.2014.952696

 Q-Chem 5.2.1 for Intel X86 EM64T Linux

 Parts of Q-Chem use Armadillo 8.300.2 (Tropical Shenanigans).
 http://arma.sourceforge.net/

 Q-Chem begins on Tue Sep 21 13:24:59 2021  

compute-0-8.local
Host: 0

     Scratch files written to /home/meili/scratch/qchem22175//
NAlpha2: 112
NElect   112
Mult     1
Symmetry turned off for PCM/SM12/SMD calculation

 Q-Chem warning in module libgen/rem_setup.C, line 2813:

 Neither GIA nor STOLL is specified by user. Use STOLL as the default


Checking the input file for inconsistencies... 	...done.

--------------------------------------------------------------
User input:
--------------------------------------------------------------
$comment
methyl_capped_1arb_ff99sb_tip3p_ARG81_ARG156_100ns_model_18.pdb
$end

$molecule
2 1
--
1 1
C              2.999  48.762  47.826
C              2.904  47.472  48.596
C              1.525  47.121  48.987
N              1.061  47.985  50.093
C              0.036  47.700  50.919
N             -0.945  46.968  50.604
N             -0.015  48.309  52.040
H              4.031  48.778  47.474
H              2.283  48.780  47.019
H              2.814  49.706  48.442
H              3.434  47.380  49.482
H              3.285  46.714  47.905
H              1.530  46.120  49.402
H              0.908  47.253  48.111
H              1.652  48.705  50.309
H             -1.785  46.988  51.088
H             -0.990  46.560  49.692
H             -0.874  48.330  52.641
H              0.747  48.850  52.407
--
1 1
C              0.338  55.313  54.186
C             -0.500  54.051  53.801
C              0.223  52.895  52.975
N             -0.865  52.251  52.190
C             -0.908  52.032  50.912
N              0.147  51.865  50.252
N             -2.054  51.960  50.266
H              1.143  55.160  54.905
H              0.626  55.648  53.155
H             -0.343  56.036  54.546
H             -1.303  54.356  53.131
H             -1.026  53.806  54.706
H              0.753  52.211  53.745
H              0.962  53.335  52.324
H             -1.712  52.297  52.675
H              0.076  52.011  49.253
H              1.010  51.549  50.678
H             -2.126  51.616  49.290
H             -2.936  52.265  50.625
$end

$rem
JOBTYPE			EDA
EDA2			1
method			wB97X-V
BASIS			def2-TZVPD
XC_GRID			000099000590
NL_GRID			1
UNRESTRICTED		FALSE
MAX_SCF_CYCLES		200
SYMMETRY		FALSE
SYM_IGNORE		TRUE
MEM_STATIC		2000
BASIS_LIN_DEP_THRESH 	6
THRESH 			14
SCF_CONVERGENCE 	8
SCF_PRINT_FRGM 		TRUE
SOLVENT_METHOD          SMD
$end

$SMX
SOLVENT			WATER
$END
--------------------------------------------------------------
 ----------------------------------------------------------------
             Standard Nuclear Orientation (Angstroms)
    I     Atom           X                Y                Z
 ----------------------------------------------------------------
    1      C       2.9990000000    48.7620000000    47.8260000000
    2      C       2.9040000000    47.4720000000    48.5960000000
    3      C       1.5250000000    47.1210000000    48.9870000000
    4      N       1.0610000000    47.9850000000    50.0930000000
    5      C       0.0360000000    47.7000000000    50.9190000000
    6      N      -0.9450000000    46.9680000000    50.6040000000
    7      N      -0.0150000000    48.3090000000    52.0400000000
    8      H       4.0310000000    48.7780000000    47.4740000000
    9      H       2.2830000000    48.7800000000    47.0190000000
   10      H       2.8140000000    49.7060000000    48.4420000000
   11      H       3.4340000000    47.3800000000    49.4820000000
   12      H       3.2850000000    46.7140000000    47.9050000000
   13      H       1.5300000000    46.1200000000    49.4020000000
   14      H       0.9080000000    47.2530000000    48.1110000000
   15      H       1.6520000000    48.7050000000    50.3090000000
   16      H      -1.7850000000    46.9880000000    51.0880000000
   17      H      -0.9900000000    46.5600000000    49.6920000000
   18      H      -0.8740000000    48.3300000000    52.6410000000
   19      H       0.7470000000    48.8500000000    52.4070000000
   20      C       0.3380000000    55.3130000000    54.1860000000
   21      C      -0.5000000000    54.0510000000    53.8010000000
   22      C       0.2230000000    52.8950000000    52.9750000000
   23      N      -0.8650000000    52.2510000000    52.1900000000
   24      C      -0.9080000000    52.0320000000    50.9120000000
   25      N       0.1470000000    51.8650000000    50.2520000000
   26      N      -2.0540000000    51.9600000000    50.2660000000
   27      H       1.1430000000    55.1600000000    54.9050000000
   28      H       0.6260000000    55.6480000000    53.1550000000
   29      H      -0.3430000000    56.0360000000    54.5460000000
   30      H      -1.3030000000    54.3560000000    53.1310000000
   31      H      -1.0260000000    53.8060000000    54.7060000000
   32      H       0.7530000000    52.2110000000    53.7450000000
   33      H       0.9620000000    53.3350000000    52.3240000000
   34      H      -1.7120000000    52.2970000000    52.6750000000
   35      H       0.0760000000    52.0110000000    49.2530000000
   36      H       1.0100000000    51.5490000000    50.6780000000
   37      H      -2.1260000000    51.6160000000    49.2900000000
   38      H      -2.9360000000    52.2650000000    50.6250000000
 ----------------------------------------------------------------
 Nuclear Repulsion Energy =         940.70950193 hartrees
 There are       56 alpha and       56 beta electrons
 Requested basis set is def2-TZVPD
 There are 302 shells and 734 basis functions

 Total QAlloc Memory Limit   2000 MB
 Mega-Array Size      1956 MB
 MEM_STATIC part      2000 MB

 Citation of the SMD model:
 Marenich, A.V.; Cramer, C.J.; Truhlar, D.G.
 J. Phys. Chem. B 2009, 113, 6378-6396.
 iSolventCode=           1
 Solvent: water                                                           

 vradii
            1           2           3           4           5           6
    1   1.8500000   1.8500000   1.8500000   1.8900000   1.8500000   1.8900000
            7           8           9          10          11          12
    1   1.8900000   1.2000000   1.2000000   1.2000000   1.2000000   1.2000000
           13          14          15          16          17          18
    1   1.2000000   1.2000000   1.2000000   1.2000000   1.2000000   1.2000000
           19          20          21          22          23          24
    1   1.2000000   1.8500000   1.8500000   1.8500000   1.8900000   1.8500000
           25          26          27          28          29          30
    1   1.8900000   1.8900000   1.2000000   1.2000000   1.2000000   1.2000000
           31          32          33          34          35          36
    1   1.2000000   1.2000000   1.2000000   1.2000000   1.2000000   1.2000000
           37          38
    1   1.2000000   1.2000000
 Changing PCM_VDW_RADII to SMD_RADIUS
 Discretize the solute cavity surface with Lebedev spheres
	Using 110 Lebedev grid points for each H atom
	Using 194 Lebedev grid points for other atoms
	Atomic van der Waals radii will be scaled by 1.20
 Remove points where switching function is < 1.0e-08
 Keep 2610 surface tesserae and discard 2746 interior tesserae
 Molecular Surface Area = 306.420 Angst**2
 A cutoff of  1.0D-14 yielded  36473 shell pairs
 There are    214679 function pairs (    263937 Cartesian)
 Smallest overlap matrix eigenvalue = 3.21E-06

 Scale SEOQF with 1.000000e-01/1.000000e-04/1.000000e-04

 Standard Electronic Orientation quadrupole field applied
 Nucleus-field energy     =    -0.0000000017 hartrees

 -----------------------------------------------------------------------
  General SCF calculation program by
  Eric Jon Sundstrom, Paul Horn, Yuezhi Mao, Dmitri Zuev, Alec White,
  David Stuck, Shaama M.S., Shane Yost, Joonho Lee, David Small,
  Daniel Levine, Susi Lehtola, Hugh Burton, Evgeny Epifanovsky,
  Bang C. Huynh
 -----------------------------------------------------------------------
================================================================
                 ALMO-EDA with the EDA2 driver                  
================================================================
 The second-generation ALMO-EDA (for DFT):                      
 P. R. Horn, Y. Mao and M. Head-Gordon, PCCP, 18, 23067 (2016)  
 Decomposition of the frozen energy:                            
 P. R. Horn, Y. Mao and M. Head-Gordon, JCP, 144, 114107 (2016) 
 FERF model for polarization:                                   
 P. R. Horn and M. Head-Gordon, JCP, 143, 114111 (2015)         
Using eda2 option set 1
Option set summary: Frozen orbital wavefunction, initial wavefunction decomposition, and nDQ polarization.
--------------------------------
Printing EDA Options
--------------------------------
eda_child_super_basis      0
fragmo_guess_mode          0
child_mp                   1
child_mp_orders            232
cls_elec                   1
cls_disp                   0
scfmi_mode                 1
scfmi_occs                 0
scfmi_virts                0
frz_relax                  0
frz_relax_method           0
dc_pen_start               0
dc_pen_conv                0
dc_pen_increment           0
dc_pen_steps               0
dc_pen_thresh_factor       0
dc_pen_pre_newton_thresh   0
frz_ortho_decomp           1
frz_ortho_decomp_conv      6
frgm_method                2
scfmi_freeze_ss            0
separate_rehyb             0
plot_diff_den              0
eda_nocv                   0
eda_vct_relax              1
disp_free_x                0
disp_free_c                0
eda_bsse                   0
eda_pct_a                  0
eda_covp                   0
--------------------------------
Attempting to make child job directory: /home/meili/scratch/qchem22175//Frg1/
Attempting to make child job directory: /home/meili/scratch/qchem22175//Frg2/
Creating input file /home/meili/scratch/qchem22175/Frg1.input
using default PutDataFrgm: nothing
calling putenv with: QCSCRATCH=/home/meili/scratch/qchem22175/ 
Spawning Job For Fragment 0
                  Welcome to Q-Chem
     A Quantum Leap Into The Future Of Chemistry


 Q-Chem 5.2 (devel), Q-Chem, Inc., Pleasanton, CA (2019)

 Yihan Shao,  Zhengting Gan,  E. Epifanovsky,  A. T. B. Gilbert,  M. Wormit,  
 J. Kussmann,  A. W. Lange,  A. Behn,  Jia Deng,  Xintian Feng,  D. Ghosh,  
 M. Goldey,  P. R. Horn,  L. D. Jacobson,  I. Kaliman,  T. Kus,  A. Landau,  
 Jie Liu,  E. I. Proynov,  R. M. Richard,  R. P. Steele,  E. J. Sundstrom,  
 H. L. Woodcock III,  P. M. Zimmerman,  D. Zuev,  B. Albrecht,  E. Alguire,  
 S. A. Baeppler,  D. Barton,  Z. Benda,  Y. A. Bernard,  E. J. Berquist,  
 K. B. Bravaya,  H. Burton,  D. Casanova,  Chun-Min Chang,  Yunqing Chen,  
 A. Chien,  K. D. Closser,  M. P. Coons,  S. Coriani,  S. Dasgupta,  
 A. L. Dempwolff,  M. Diedenhofen,  Hainam Do,  R. G. Edgar,  Po-Tung Fang,  
 S. Faraji,  S. Fatehi,  Qingguo Feng,  K. D. Fenk,  J. Fosso-Tande,  
 J. Gayvert,  Qinghui Ge,  A. Ghysels,  G. Gidofalvi,  J. Gomes,  
 J. Gonthier,  A. Gunina,  D. Hait,  M. W. D. Hanson-Heine,  
 P. H. P. Harbach,  A. W. Hauser,  M. F. Herbst,  J. E. Herr,  
 E. G. Hohenstein,  Z. C. Holden,  Kerwin Hui,  B. C. Huynh,  T.-C. Jagau,  
 Hyunjun Ji,  B. Kaduk,  K. Khistyaev,  Jaehoon Kim,  P. Klunzinger,  K. Koh,  
 D. Kosenkov,  L. Koulias,  T. Kowalczyk,  C. M. Krauter,  A. Kunitsa,  
 Ka Un Lao,  A. Laurent,  K. V. Lawler,  Joonho Lee,  D. Lefrancois,  
 S. Lehtola,  D. S. Levine,  Yi-Pei Li,  You-Sheng Lin,  Fenglai Liu,  
 E. Livshits,  A. Luenser,  P. Manohar,  E. Mansoor,  S. F. Manzer,  
 Shan-Ping Mao,  Yuezhi Mao,  N. Mardirossian,  A. V. Marenich,  
 T. Markovich,  L. A. Martinez-Martinez,  S. A. Maurer,  N. J. Mayhall,  
 S. C. McKenzie,  J.-M. Mewes,  P. Morgante,  A. F. Morrison,  
 J. W. Mullinax,  K. Nanda,  T. S. Nguyen-Beck,  R. Olivares-Amaya,  
 J. A. Parkhill,  Zheng Pei,  T. M. Perrine,  F. Plasser,  P. Pokhilko,  
 S. Prager,  A. Prociuk,  E. Ramos,  D. R. Rehn,  F. Rob,  M. Scheurer,  
 M. Schneider,  N. Sergueev,  S. M. Sharada,  S. Sharma,  D. W. Small,  
 T. Stauch,  T. Stein,  Yu-Chuan Su,  A. J. W. Thom,  A. Tkatchenko,  
 T. Tsuchimochi,  N. M. Tubman,  L. Vogt,  M. L. Vidal,  O. Vydrov,  
 M. A. Watson,  J. Wenzel,  M. de Wergifosse,  T. A. Wesolowski,  A. White,  
 J. Witte,  A. Yamada,  Jun Yang,  K. Yao,  S. Yeganeh,  S. R. Yost,  
 Zhi-Qiang You,  A. Zech,  Igor Ying Zhang,  Xing Zhang,  Yan Zhao,  
 Ying Zhu,  B. R. Brooks,  G. K. L. Chan,  C. J. Cramer,  M. S. Gordon,  
 W. J. Hehre,  A. Klamt,  M. W. Schmidt,  C. D. Sherrill,  D. G. Truhlar,  
 A. Aspuru-Guzik,  R. Baer,  A. T. Bell,  N. A. Besley,  Jeng-Da Chai,  
 A. E. DePrince, III,  R. A. DiStasio Jr.,  A. Dreuw,  B. D. Dunietz,  
 T. R. Furlani,  Chao-Ping Hsu,  Yousung Jung,  Jing Kong,  D. S. Lambrecht,  
 WanZhen Liang,  C. Ochsenfeld,  V. A. Rassolov,  L. V. Slipchenko,  
 J. E. Subotnik,  T. Van Voorhis,  J. M. Herbert,  A. I. Krylov,  
 P. M. W. Gill,  M. Head-Gordon

 Contributors to earlier versions of Q-Chem not listed above: 
 R. D. Adamson,  B. Austin,  J. Baker,  G. J. O. Beran,  K. Brandhorst,  
 S. T. Brown,  E. F. C. Byrd,  A. K. Chakraborty,  C.-L. Cheng,  
 Siu Hung Chien,  D. M. Chipman,  D. L. Crittenden,  H. Dachsel,  
 R. J. Doerksen,  A. D. Dutoi,  L. Fusti-Molnar,  W. A. Goddard III,  
 A. Golubeva-Zadorozhnaya,  S. R. Gwaltney,  G. Hawkins,  A. Heyden,  
 S. Hirata,  G. Kedziora,  F. J. Keil,  C. Kelley,  Jihan Kim,  R. A. King,  
 R. Z. Khaliullin,  P. P. Korambath,  W. Kurlancheek,  A. M. Lee,  M. S. Lee,  
 S. V. Levchenko,  Ching Yeh Lin,  D. Liotard,  R. C. Lochan,  I. Lotan,  
 P. E. Maslen,  N. Nair,  D. P. O'Neill,  D. Neuhauser,  E. Neuscamman,  
 C. M. Oana,  R. Olson,  B. Peters,  R. Peverati,  P. A. Pieniazek,  
 Y. M. Rhee,  J. Ritchie,  M. A. Rohrdanz,  E. Rosta,  N. J. Russ,  
 H. F. Schaefer III,  N. E. Schultz,  N. Shenvi,  A. C. Simmonett,  A. Sodt,  
 D. Stuck,  K. S. Thanthiriwatte,  V. Vanovschi,  Tao Wang,  A. Warshel,  
 C. F. Williams,  Q. Wu,  X. Xu,  W. Zhang

 Please cite Q-Chem as follows:
 Y. Shao et al., Mol. Phys. 113, 184-215 (2015)
 DOI: 10.1080/00268976.2014.952696

 Q-Chem 5.2.1 for Intel X86 EM64T Linux

 Parts of Q-Chem use Armadillo 8.300.2 (Tropical Shenanigans).
 http://arma.sourceforge.net/

 Q-Chem begins on Tue Sep 21 13:26:45 2021  

compute-0-8.local
Host: 0

     Scratch files written to /home/meili/scratch/qchem22175//Frg1//
NAlpha2: 56
NElect   56
Mult     1
Symmetry turned off for PCM/SM12/SMD calculation

Checking the input file for inconsistencies... 	...done.

--------------------------------------------------------------
User input:
--------------------------------------------------------------
$molecule
1 1
 6	2.9990000000	48.7620000000	47.8260000000
 6	2.9040000000	47.4720000000	48.5960000000
 6	1.5250000000	47.1210000000	48.9870000000
 7	1.0610000000	47.9850000000	50.0930000000
 6	0.0360000000	47.7000000000	50.9190000000
 7	-0.9450000000	46.9680000000	50.6040000000
 7	-0.0150000000	48.3090000000	52.0400000000
 1	4.0310000000	48.7780000000	47.4740000000
 1	2.2830000000	48.7800000000	47.0190000000
 1	2.8140000000	49.7060000000	48.4420000000
 1	3.4340000000	47.3800000000	49.4820000000
 1	3.2850000000	46.7140000000	47.9050000000
 1	1.5300000000	46.1200000000	49.4020000000
 1	0.9080000000	47.2530000000	48.1110000000
 1	1.6520000000	48.7050000000	50.3090000000
 1	-1.7850000000	46.9880000000	51.0880000000
 1	-0.9900000000	46.5600000000	49.6920000000
 1	-0.8740000000	48.3300000000	52.6410000000
 1	0.7470000000	48.8500000000	52.4070000000
$end
$rem
EDA2		1
METHOD		WB97X-V
BASIS		DEF2-TZVPD
XC_GRID		000099000590
NL_GRID		1
UNRESTRICTED		FALSE
MAX_SCF_CYCLES		200
SYMMETRY		FALSE
SYM_IGNORE		TRUE
BASIS_LIN_DEP_THRESH		6
THRESH		14
SCF_CONVERGENCE		8
SCF_PRINT_FRGM		TRUE
SOLVENT_METHOD		SMD
!required keywords
JOBTYPE		SP
SYM_IGNORE		TRUE
SUBSYSTEM		TRUE
GEN_SCFMAN		TRUE
CHILD_INSTRUCTION		2
SYM_IGNORE		TRUE
SCFMI		0
RI_K 0		
PARI_K 0		
MIN_PARI_K 0		
IARI_K 0		
OCC_RI_K 0		
PURECART		1111
MEM_STATIC		2000
MEM_TOTAL		2000
GUI		0
CHILD_MP		1
CHILD_MP_ORDERS		232
FRZ_RELAX		0
FRZ_RELAX_METHOD		0
EDA_CLS_ELEC		1
EDA_CLS_DISP		0
FRZ_ORTHO_DECOMP		1
EDA2		FALSE
FRGM_METHOD		FALSE
CIS_N_ROOTS  0
LOCAL_CIS    0
CIS_RLX_DNS  1
$end
$smx
SOLVENT			WATER
$end
--------------------------------------------------------------
 ----------------------------------------------------------------
             Standard Nuclear Orientation (Angstroms)
    I     Atom           X                Y                Z
 ----------------------------------------------------------------
    1      C       2.9990000000    48.7620000000    47.8260000000
    2      C       2.9040000000    47.4720000000    48.5960000000
    3      C       1.5250000000    47.1210000000    48.9870000000
    4      N       1.0610000000    47.9850000000    50.0930000000
    5      C       0.0360000000    47.7000000000    50.9190000000
    6      N      -0.9450000000    46.9680000000    50.6040000000
    7      N      -0.0150000000    48.3090000000    52.0400000000
    8      H       4.0310000000    48.7780000000    47.4740000000
    9      H       2.2830000000    48.7800000000    47.0190000000
   10      H       2.8140000000    49.7060000000    48.4420000000
   11      H       3.4340000000    47.3800000000    49.4820000000
   12      H       3.2850000000    46.7140000000    47.9050000000
   13      H       1.5300000000    46.1200000000    49.4020000000
   14      H       0.9080000000    47.2530000000    48.1110000000
   15      H       1.6520000000    48.7050000000    50.3090000000
   16      H      -1.7850000000    46.9880000000    51.0880000000
   17      H      -0.9900000000    46.5600000000    49.6920000000
   18      H      -0.8740000000    48.3300000000    52.6410000000
   19      H       0.7470000000    48.8500000000    52.4070000000
 ----------------------------------------------------------------
 Nuclear Repulsion Energy =         329.39268678 hartrees
 There are       28 alpha and       28 beta electrons
 Requested basis set is def2-TZVPD
 There are 151 shells and 367 basis functions

 Total QAlloc Memory Limit   2000 MB
 Mega-Array Size      1956 MB
 MEM_STATIC part      2000 MB

 Citation of the SMD model:
 Marenich, A.V.; Cramer, C.J.; Truhlar, D.G.
 J. Phys. Chem. B 2009, 113, 6378-6396.
 iSolventCode=           1
 Solvent: water                                                           

 vradii
            1           2           3           4           5           6
    1   1.8500000   1.8500000   1.8500000   1.8900000   1.8500000   1.8900000
            7           8           9          10          11          12
    1   1.8900000   1.2000000   1.2000000   1.2000000   1.2000000   1.2000000
           13          14          15          16          17          18
    1   1.2000000   1.2000000   1.2000000   1.2000000   1.2000000   1.2000000
           19
    1   1.2000000
 Changing PCM_VDW_RADII to SMD_RADIUS
 Discretize the solute cavity surface with Lebedev spheres
	Using 110 Lebedev grid points for each H atom
	Using 194 Lebedev grid points for other atoms
	Atomic van der Waals radii will be scaled by 1.20
 Remove points where switching function is < 1.0e-08
 Keep 1306 surface tesserae and discard 1372 interior tesserae
 Molecular Surface Area = 151.701 Angst**2
 A cutoff of  1.0D-14 yielded  10790 shell pairs
 There are     64522 function pairs (     80155 Cartesian)
 Smallest overlap matrix eigenvalue = 3.81E-06

 Scale SEOQF with 1.000000e-01/1.000000e-03/1.000000e-03

 Standard Electronic Orientation quadrupole field applied
 Nucleus-field energy     =    -0.0000000519 hartrees
 Guess from superposition of atomic densities
 Warning:  Energy on first SCF cycle will be non-variational
 SAD guess density has 57.000000 electrons

 -----------------------------------------------------------------------
  General SCF calculation program by
  Eric Jon Sundstrom, Paul Horn, Yuezhi Mao, Dmitri Zuev, Alec White,
  David Stuck, Shaama M.S., Shane Yost, Joonho Lee, David Small,
  Daniel Levine, Susi Lehtola, Hugh Burton, Evgeny Epifanovsky,
  Bang C. Huynh
 -----------------------------------------------------------------------
 Exchange:     0.1670 Hartree-Fock + 1.0000 wB97X-V + LR-HF
 Correlation:  1.0000 wB97X-V
 Using Euler-Maclaurin-Lebedev (99,590) quadrature formula
 Nonlocal Correlation:  VV10 with C = 0.0100 and b = 6.00 and scale = 1.00000
 Grid used for NLC:  SG-1 standard quadrature
Energy prior to optimization (guess energy) = -323.632369834399
Begin Timing: Total SCF Calculation
begin iterations for algorithm: DIIS         
the SCF tolerance is set to 1.00e-08
    1    -323.6323698344      2.17e-03     00000 
    2    -323.7805019082      1.48e-03     00000 
    3    -323.8091424204      2.07e-04     00000 
    4    -323.8102750021      5.68e-05     00000 
    5    -323.8103730511      2.75e-05     00000 
    6    -323.8103871439      7.29e-06     00000 
    7    -323.8103885135      2.92e-06     00000 
    8    -323.8103886969      9.24e-07     00000 
    9    -323.8103887277      2.45e-07     00000 
   10    -323.8103887306      8.66e-08     00000 
   11    -323.8103887310      3.07e-08     00000 
   12    -323.8103887310      9.29e-09     00000 Convergence criterion met
Timing for Total SCF: 610.00s (wall), 4070.16s (cpu)
(3)  G-ENP(liq) elect-nuc-pol free energy of system     -323.810388731 a.u.
(4)  G-CDS(liq) cavity-dispersion-solvent structure 
     free energy                                                2.9972 kcal/mol
(6)  G-S(liq) free energy of system                     -323.805612311 a.u.
E_pcm = -0.1063100982
E_cds = 0.0047764199
Multipole orders to be included
        2
        3
computing dipole RHS
computing quadrupole RHS
total number of RHS in solve_reponses: 8
RHS batch sizes
        8
Beginning Block Conjugate Gradient Iterations. Batch Number: 0
computing hessian-vector products by finite difference
              1      4.44e-01     00000 Conjugate Gradient Iteration
computing hessian-vector products by finite difference
              2      1.53e-01     00000 Conjugate Gradient Iteration
computing hessian-vector products by finite difference
              3      4.73e-02     00000 Conjugate Gradient Iteration
computing hessian-vector products by finite difference
              4      1.29e-02     00000 Conjugate Gradient Iteration
computing hessian-vector products by finite difference
              5      1.92e-03     00000 Conjugate Gradient Iteration
computing hessian-vector products by finite difference
              6      4.09e-04     00000 Conjugate Gradient Iteration
computing hessian-vector products by finite difference
              7      7.15e-05     00000 Conjugate Gradient Iteration
computing hessian-vector products by finite difference
              8      1.39e-05     00000 Conjugate Gradient Iteration
computing hessian-vector products by finite difference
              9      2.23e-06     00000 Conjugate Gradient Iteration
computing hessian-vector products by finite difference
             10      3.49e-07     00000 Conjugate Gradient Iteration
computing hessian-vector products by finite difference
             11      4.39e-08     00000 Conjugate Gradient Iteration
computing hessian-vector products by finite difference
             12      5.86e-09     00000 CG Converged
batch 0 complete
Done Calculating Responses
TESTING ORTHOGONALIZATION OF MULTIPOLE BASIS
Multipole virts passed orthogonality test
Virts Per Order
           84
          140

 --------------------------------------------------------------

                    Orbital Energies (a.u.)
 --------------------------------------------------------------

 Alpha MOs
 -- Occupied --
-14.4433 -14.4425 -14.4381 -10.4138 -10.2962 -10.2530 -10.2525  -1.1872
 -1.0655  -1.0485  -0.9289  -0.8254  -0.7841  -0.7373  -0.7225  -0.6860
 -0.6242  -0.6181  -0.6032  -0.5680  -0.5581  -0.5394  -0.5077  -0.4624
 -0.4426  -0.4324  -0.4015  -0.3711
 -- Virtual --
  0.0600   0.0829   0.0871   0.0922   0.1024   0.1139   0.1217   0.1289
  0.1468   0.1525   0.1583   0.1701   0.1813   0.1871   0.1944   0.2015
  0.2070   0.2107   0.2229   0.2271   0.2337   0.2382   0.2492   0.2552
  0.2582   0.2626   0.2784   0.2856   0.2881   0.2924   0.2966   0.3048
  0.3158   0.3185   0.3231   0.3253   0.3328   0.3391   0.3463   0.3510
  0.3592   0.3632   0.3642   0.3713   0.3785   0.3799   0.3830   0.3885
  0.3974   0.4021   0.4090   0.4188   0.4225   0.4257   0.4345   0.4399
  0.4430   0.4478   0.4600   0.4707   0.4764   0.4813   0.4827   0.4888
  0.4948   0.4984   0.5069   0.5194   0.5203   0.5243   0.5296   0.5326
  0.5338   0.5387   0.5488   0.5559   0.5661   0.5679   0.5704   0.5752
  0.5852   0.5968   0.6018   0.6039   0.6204   0.6267   0.6333   0.6495
  0.6531   0.6565   0.6720   0.6813   0.6907   0.6988   0.7062   0.7149
  0.7293   0.7330   0.7499   0.7569   0.7587   0.7646   0.7764   0.7861
  0.7913   0.7944   0.8118   0.8156   0.8218   0.8326   0.8398   0.8465
  0.8593   0.8669   0.8778   0.8843   0.8905   0.9015   0.9240   0.9279
  0.9410   0.9552   0.9565   0.9630   0.9841   0.9881   1.0130   1.0254
  1.0293   1.0563   1.0778   1.0857   1.0990   1.1034   1.1066   1.1239
  1.1538   1.1854   1.1927   1.2040   1.2351   1.2410   1.2662   1.2874
  1.3117   1.3205   1.3409   1.3693   1.3865   1.4020   1.4153   1.4526
  1.4676   1.4750   1.4825   1.4996   1.5049   1.5387   1.5589   1.5923
  1.6051   1.6743   1.6843   1.7117   1.7313   1.7648   1.7999   1.8263
  1.8505   1.8774   1.9032   1.9154   1.9180   1.9344   1.9476   1.9541
  1.9610   1.9795   1.9907   2.0021   2.0155   2.0208   2.0334   2.0635
  2.0972   2.1227   2.1335   2.1448   2.1729   2.1756   2.1889   2.2003
  2.2309   2.2674   2.2709   2.3000   2.3111   2.3476   2.3816   2.4264
  2.4426   2.4613   2.4831   2.5002   2.5099   2.5228   2.5483   2.5606
  2.5852   2.6044   2.6163   2.6406   2.6510   2.6763   2.6874   2.6966
  2.6990   2.7403   2.7635   2.7887   2.8142   2.8190   2.8610   2.8753
  2.9000   2.9132   2.9211   2.9279   2.9488   2.9542   2.9726   2.9930
  3.0109   3.0494   3.0908   3.1033   3.1231   3.1513   3.1618   3.1786
  3.2053   3.2304   3.2428   3.2746   3.2904   3.3220   3.3237   3.3512
  3.3662   3.3732   3.3782   3.4051   3.4225   3.4635   3.4897   3.5076
  3.5269   3.5446   3.5598   3.5646   3.6084   3.6147   3.6190   3.6358
  3.6695   3.7030   3.7166   3.7576   3.8107   3.8130   3.8401   3.8667
  3.9281   3.9605   3.9837   3.9912   4.0275   4.0648   4.1175   4.1443
  4.1635   4.1749   4.2228   4.2554   4.2770   4.3206   4.3456   4.4093
  4.4252   4.4577   4.5447   4.5846   4.6590   4.6925   4.7157   4.7562
  4.7653   4.8485   4.8766   4.8875   4.9262   4.9778   5.0000   5.0108
  5.0340   5.0724   5.0987   5.1109   5.1263   5.1595   5.1781   5.2357
  5.2523   5.3072   5.3743   5.4141   5.4570   5.4923   5.5320   5.5674
  5.5894   5.6290   5.6738   5.6895   5.7286   5.8729   5.8843   5.9467
  6.2328   6.3141   6.4879   6.5996  22.6630  22.9176  22.9432  23.9183
 32.3952  32.5689  32.9699
 --------------------------------------------------------------

          Ground-State Mulliken Net Atomic Charges

     Atom                 Charge (a.u.)
  ----------------------------------------
      1 C                    -0.913428
      2 C                    -0.465263
      3 C                    -0.469722
      4 N                    -0.089456
      5 C                     0.351779
      6 N                    -0.233189
      7 N                    -0.326170
      8 H                     0.228466
      9 H                     0.256966
     10 H                     0.271515
     11 H                     0.293384
     12 H                     0.241262
     13 H                     0.320221
     14 H                     0.313102
     15 H                     0.239795
     16 H                     0.236098
     17 H                     0.233135
     18 H                     0.270327
     19 H                     0.241180
  ----------------------------------------
  Sum of atomic charges =     1.000000

 -----------------------------------------------------------------
                    Cartesian Multipole Moments
 -----------------------------------------------------------------
    Charge (ESU x 10^10)
                 4.8032
    Dipole Moment (Debye)
         X       0.3304      Y     229.3643      Z     244.1664
       Tot     335.0005
    Quadrupole Moments (Debye-Ang)
        XX     -29.6147     XY      19.0109     YY   10912.8162
        XZ      11.7050     YZ   11665.8554     ZZ   12380.7383
    Octopole Moments (Debye-Ang^2)
       XXX    -146.8756    XXY   -1419.6396    XYY    1012.6301
       YYY  517301.0523    XXZ   -1466.1858    XYZ     726.5452
       YYZ  555395.5845    XZZ     290.7395    YZZ  591851.4726
       ZZZ  626322.6473
    Hexadecapole Moments (Debye-Ang^3)
      XXXX    -909.5332   XXXY   -7066.6430   XXYY  -68238.5699
      XYYY   50939.6247   YYYY ************   XXXZ   -7108.8161
      XXYZ  -70269.5684   XYYZ   40316.2137   YYYZ ************
      XXZZ  -72811.9935   XYZZ   22539.9918   YYZZ ************
      XZZZ   -2628.8188   YZZZ ************   ZZZZ ************
 -----------------------------------------------------------------
Archival summary:
1\1\compute-0-8.local\SP\ProcedureUnspecified\BasisUnspecified\3412(1+,1)\meili\TueSep2117:06:262021TueSep2117:06:262021\0\\#,ProcedureUnspecified,BasisUnspecified,\\1,1\N\H,1,0.95621\C,1,1.34689,2,119.416\N,3,1.26389,1,124.082,2,165.006,0\H,4,0.969668,3,122.414,1,-160.875,0\H,4,1.00012,3,119.899,1,0.0842486,0\N,3,1.27676,1,117.899,2,-7.84963,0\H,7,1.004,3,123.206,1,-11.8582,0\H,7,1.04858,3,123.059,1,164.991,0\C,1,1.47818,2,114.527,3,-169.009,0\H,10,1.07958,1,110.87,2,-110.419,0\H,10,1.08363,1,104.764,2,124.668,0\C,10,1.47571,1,110.643,2,7.95895,0\H,13,1.03651,10,103.31,1,56.0672,0\H,13,1.09417,10,109.144,1,170.195,0\C,13,1.50533,10,113.474,1,-73.8476,0\H,16,1.07899,13,110.793,10,-49.2836,0\H,16,1.0905,13,103.734,10,-170.495,0\H,16,1.14229,13,114.969,10,71.357,0\\\@

 Total job time:  13180.43s(wall), 82991.88s(cpu) 
 Tue Sep 21 17:06:26 2021

        *************************************************************
        *                                                           *
        *  Thank you very much for using Q-Chem.  Have a nice day.  *
        *                                                           *
        *************************************************************


Done Job For Fragment 0
calling putenv with: QCSCRATCH=/home/meili/scratch 
calling putenv with: QCTHREADS=8 
Creating input file /home/meili/scratch/qchem22175/Frg2.input
using default PutDataFrgm: nothing
calling putenv with: QCSCRATCH=/home/meili/scratch/qchem22175/ 
Spawning Job For Fragment 1
                  Welcome to Q-Chem
     A Quantum Leap Into The Future Of Chemistry


 Q-Chem 5.2 (devel), Q-Chem, Inc., Pleasanton, CA (2019)

 Yihan Shao,  Zhengting Gan,  E. Epifanovsky,  A. T. B. Gilbert,  M. Wormit,  
 J. Kussmann,  A. W. Lange,  A. Behn,  Jia Deng,  Xintian Feng,  D. Ghosh,  
 M. Goldey,  P. R. Horn,  L. D. Jacobson,  I. Kaliman,  T. Kus,  A. Landau,  
 Jie Liu,  E. I. Proynov,  R. M. Richard,  R. P. Steele,  E. J. Sundstrom,  
 H. L. Woodcock III,  P. M. Zimmerman,  D. Zuev,  B. Albrecht,  E. Alguire,  
 S. A. Baeppler,  D. Barton,  Z. Benda,  Y. A. Bernard,  E. J. Berquist,  
 K. B. Bravaya,  H. Burton,  D. Casanova,  Chun-Min Chang,  Yunqing Chen,  
 A. Chien,  K. D. Closser,  M. P. Coons,  S. Coriani,  S. Dasgupta,  
 A. L. Dempwolff,  M. Diedenhofen,  Hainam Do,  R. G. Edgar,  Po-Tung Fang,  
 S. Faraji,  S. Fatehi,  Qingguo Feng,  K. D. Fenk,  J. Fosso-Tande,  
 J. Gayvert,  Qinghui Ge,  A. Ghysels,  G. Gidofalvi,  J. Gomes,  
 J. Gonthier,  A. Gunina,  D. Hait,  M. W. D. Hanson-Heine,  
 P. H. P. Harbach,  A. W. Hauser,  M. F. Herbst,  J. E. Herr,  
 E. G. Hohenstein,  Z. C. Holden,  Kerwin Hui,  B. C. Huynh,  T.-C. Jagau,  
 Hyunjun Ji,  B. Kaduk,  K. Khistyaev,  Jaehoon Kim,  P. Klunzinger,  K. Koh,  
 D. Kosenkov,  L. Koulias,  T. Kowalczyk,  C. M. Krauter,  A. Kunitsa,  
 Ka Un Lao,  A. Laurent,  K. V. Lawler,  Joonho Lee,  D. Lefrancois,  
 S. Lehtola,  D. S. Levine,  Yi-Pei Li,  You-Sheng Lin,  Fenglai Liu,  
 E. Livshits,  A. Luenser,  P. Manohar,  E. Mansoor,  S. F. Manzer,  
 Shan-Ping Mao,  Yuezhi Mao,  N. Mardirossian,  A. V. Marenich,  
 T. Markovich,  L. A. Martinez-Martinez,  S. A. Maurer,  N. J. Mayhall,  
 S. C. McKenzie,  J.-M. Mewes,  P. Morgante,  A. F. Morrison,  
 J. W. Mullinax,  K. Nanda,  T. S. Nguyen-Beck,  R. Olivares-Amaya,  
 J. A. Parkhill,  Zheng Pei,  T. M. Perrine,  F. Plasser,  P. Pokhilko,  
 S. Prager,  A. Prociuk,  E. Ramos,  D. R. Rehn,  F. Rob,  M. Scheurer,  
 M. Schneider,  N. Sergueev,  S. M. Sharada,  S. Sharma,  D. W. Small,  
 T. Stauch,  T. Stein,  Yu-Chuan Su,  A. J. W. Thom,  A. Tkatchenko,  
 T. Tsuchimochi,  N. M. Tubman,  L. Vogt,  M. L. Vidal,  O. Vydrov,  
 M. A. Watson,  J. Wenzel,  M. de Wergifosse,  T. A. Wesolowski,  A. White,  
 J. Witte,  A. Yamada,  Jun Yang,  K. Yao,  S. Yeganeh,  S. R. Yost,  
 Zhi-Qiang You,  A. Zech,  Igor Ying Zhang,  Xing Zhang,  Yan Zhao,  
 Ying Zhu,  B. R. Brooks,  G. K. L. Chan,  C. J. Cramer,  M. S. Gordon,  
 W. J. Hehre,  A. Klamt,  M. W. Schmidt,  C. D. Sherrill,  D. G. Truhlar,  
 A. Aspuru-Guzik,  R. Baer,  A. T. Bell,  N. A. Besley,  Jeng-Da Chai,  
 A. E. DePrince, III,  R. A. DiStasio Jr.,  A. Dreuw,  B. D. Dunietz,  
 T. R. Furlani,  Chao-Ping Hsu,  Yousung Jung,  Jing Kong,  D. S. Lambrecht,  
 WanZhen Liang,  C. Ochsenfeld,  V. A. Rassolov,  L. V. Slipchenko,  
 J. E. Subotnik,  T. Van Voorhis,  J. M. Herbert,  A. I. Krylov,  
 P. M. W. Gill,  M. Head-Gordon

 Contributors to earlier versions of Q-Chem not listed above: 
 R. D. Adamson,  B. Austin,  J. Baker,  G. J. O. Beran,  K. Brandhorst,  
 S. T. Brown,  E. F. C. Byrd,  A. K. Chakraborty,  C.-L. Cheng,  
 Siu Hung Chien,  D. M. Chipman,  D. L. Crittenden,  H. Dachsel,  
 R. J. Doerksen,  A. D. Dutoi,  L. Fusti-Molnar,  W. A. Goddard III,  
 A. Golubeva-Zadorozhnaya,  S. R. Gwaltney,  G. Hawkins,  A. Heyden,  
 S. Hirata,  G. Kedziora,  F. J. Keil,  C. Kelley,  Jihan Kim,  R. A. King,  
 R. Z. Khaliullin,  P. P. Korambath,  W. Kurlancheek,  A. M. Lee,  M. S. Lee,  
 S. V. Levchenko,  Ching Yeh Lin,  D. Liotard,  R. C. Lochan,  I. Lotan,  
 P. E. Maslen,  N. Nair,  D. P. O'Neill,  D. Neuhauser,  E. Neuscamman,  
 C. M. Oana,  R. Olson,  B. Peters,  R. Peverati,  P. A. Pieniazek,  
 Y. M. Rhee,  J. Ritchie,  M. A. Rohrdanz,  E. Rosta,  N. J. Russ,  
 H. F. Schaefer III,  N. E. Schultz,  N. Shenvi,  A. C. Simmonett,  A. Sodt,  
 D. Stuck,  K. S. Thanthiriwatte,  V. Vanovschi,  Tao Wang,  A. Warshel,  
 C. F. Williams,  Q. Wu,  X. Xu,  W. Zhang

 Please cite Q-Chem as follows:
 Y. Shao et al., Mol. Phys. 113, 184-215 (2015)
 DOI: 10.1080/00268976.2014.952696

 Q-Chem 5.2.1 for Intel X86 EM64T Linux

 Parts of Q-Chem use Armadillo 8.300.2 (Tropical Shenanigans).
 http://arma.sourceforge.net/

 Q-Chem begins on Tue Sep 21 17:06:26 2021  

compute-0-8.local
Host: 0

     Scratch files written to /home/meili/scratch/qchem22175//Frg2//
NAlpha2: 56
NElect   56
Mult     1
Symmetry turned off for PCM/SM12/SMD calculation

Checking the input file for inconsistencies... 	...done.

--------------------------------------------------------------
User input:
--------------------------------------------------------------
$molecule
1 1
 6	0.3380000000	55.3130000000	54.1860000000
 6	-0.5000000000	54.0510000000	53.8010000000
 6	0.2230000000	52.8950000000	52.9750000000
 7	-0.8650000000	52.2510000000	52.1900000000
 6	-0.9080000000	52.0320000000	50.9120000000
 7	0.1470000000	51.8650000000	50.2520000000
 7	-2.0540000000	51.9600000000	50.2660000000
 1	1.1430000000	55.1600000000	54.9050000000
 1	0.6260000000	55.6480000000	53.1550000000
 1	-0.3430000000	56.0360000000	54.5460000000
 1	-1.3030000000	54.3560000000	53.1310000000
 1	-1.0260000000	53.8060000000	54.7060000000
 1	0.7530000000	52.2110000000	53.7450000000
 1	0.9620000000	53.3350000000	52.3240000000
 1	-1.7120000000	52.2970000000	52.6750000000
 1	0.0760000000	52.0110000000	49.2530000000
 1	1.0100000000	51.5490000000	50.6780000000
 1	-2.1260000000	51.6160000000	49.2900000000
 1	-2.9360000000	52.2650000000	50.6250000000
$end
$rem
EDA2		1
METHOD		WB97X-V
BASIS		DEF2-TZVPD
XC_GRID		000099000590
NL_GRID		1
UNRESTRICTED		FALSE
MAX_SCF_CYCLES		200
SYMMETRY		FALSE
SYM_IGNORE		TRUE
BASIS_LIN_DEP_THRESH		6
THRESH		14
SCF_CONVERGENCE		8
SCF_PRINT_FRGM		TRUE
SOLVENT_METHOD		SMD
!required keywords
JOBTYPE		SP
SYM_IGNORE		TRUE
SUBSYSTEM		TRUE
GEN_SCFMAN		TRUE
CHILD_INSTRUCTION		2
SYM_IGNORE		TRUE
SCFMI		0
RI_K 0		
PARI_K 0		
MIN_PARI_K 0		
IARI_K 0		
OCC_RI_K 0		
PURECART		1111
MEM_STATIC		2000
MEM_TOTAL		2000
GUI		0
CHILD_MP		1
CHILD_MP_ORDERS		232
FRZ_RELAX		0
FRZ_RELAX_METHOD		0
EDA_CLS_ELEC		1
EDA_CLS_DISP		0
FRZ_ORTHO_DECOMP		1
EDA2		FALSE
FRGM_METHOD		FALSE
CIS_N_ROOTS  0
LOCAL_CIS    0
CIS_RLX_DNS  1
$end
$smx
SOLVENT			WATER
$end
--------------------------------------------------------------
 ----------------------------------------------------------------
             Standard Nuclear Orientation (Angstroms)
    I     Atom           X                Y                Z
 ----------------------------------------------------------------
    1      C       0.3380000000    55.3130000000    54.1860000000
    2      C      -0.5000000000    54.0510000000    53.8010000000
    3      C       0.2230000000    52.8950000000    52.9750000000
    4      N      -0.8650000000    52.2510000000    52.1900000000
    5      C      -0.9080000000    52.0320000000    50.9120000000
    6      N       0.1470000000    51.8650000000    50.2520000000
    7      N      -2.0540000000    51.9600000000    50.2660000000
    8      H       1.1430000000    55.1600000000    54.9050000000
    9      H       0.6260000000    55.6480000000    53.1550000000
   10      H      -0.3430000000    56.0360000000    54.5460000000
   11      H      -1.3030000000    54.3560000000    53.1310000000
   12      H      -1.0260000000    53.8060000000    54.7060000000
   13      H       0.7530000000    52.2110000000    53.7450000000
   14      H       0.9620000000    53.3350000000    52.3240000000
   15      H      -1.7120000000    52.2970000000    52.6750000000
   16      H       0.0760000000    52.0110000000    49.2530000000
   17      H       1.0100000000    51.5490000000    50.6780000000
   18      H      -2.1260000000    51.6160000000    49.2900000000
   19      H      -2.9360000000    52.2650000000    50.6250000000
 ----------------------------------------------------------------
 Nuclear Repulsion Energy =         323.68656533 hartrees
 There are       28 alpha and       28 beta electrons
 Requested basis set is def2-TZVPD
 There are 151 shells and 367 basis functions

 Total QAlloc Memory Limit   2000 MB
 Mega-Array Size      1956 MB
 MEM_STATIC part      2000 MB

 Citation of the SMD model:
 Marenich, A.V.; Cramer, C.J.; Truhlar, D.G.
 J. Phys. Chem. B 2009, 113, 6378-6396.
 iSolventCode=           1
 Solvent: water                                                           

 vradii
            1           2           3           4           5           6
    1   1.8500000   1.8500000   1.8500000   1.8900000   1.8500000   1.8900000
            7           8           9          10          11          12
    1   1.8900000   1.2000000   1.2000000   1.2000000   1.2000000   1.2000000
           13          14          15          16          17          18
    1   1.2000000   1.2000000   1.2000000   1.2000000   1.2000000   1.2000000
           19
    1   1.2000000
 Changing PCM_VDW_RADII to SMD_RADIUS
 Discretize the solute cavity surface with Lebedev spheres
	Using 110 Lebedev grid points for each H atom
	Using 194 Lebedev grid points for other atoms
	Atomic van der Waals radii will be scaled by 1.20
 Remove points where switching function is < 1.0e-08
 Keep 1304 surface tesserae and discard 1374 interior tesserae
 Molecular Surface Area = 154.720 Angst**2
 A cutoff of  1.0D-14 yielded  10720 shell pairs
 There are     64122 function pairs (     79686 Cartesian)
 Smallest overlap matrix eigenvalue = 6.58E-06

 Scale SEOQF with 1.000000e-01/1.000000e-04/1.000000e-04

 Standard Electronic Orientation quadrupole field applied
 Nucleus-field energy     =    -0.0000000028 hartrees
 Guess from superposition of atomic densities
 Warning:  Energy on first SCF cycle will be non-variational
 SAD guess density has 57.000000 electrons

 -----------------------------------------------------------------------
  General SCF calculation program by
  Eric Jon Sundstrom, Paul Horn, Yuezhi Mao, Dmitri Zuev, Alec White,
  David Stuck, Shaama M.S., Shane Yost, Joonho Lee, David Small,
  Daniel Levine, Susi Lehtola, Hugh Burton, Evgeny Epifanovsky,
  Bang C. Huynh
 -----------------------------------------------------------------------
 Exchange:     0.1670 Hartree-Fock + 1.0000 wB97X-V + LR-HF
 Correlation:  1.0000 wB97X-V
 Using Euler-Maclaurin-Lebedev (99,590) quadrature formula
 Nonlocal Correlation:  VV10 with C = 0.0100 and b = 6.00 and scale = 1.00000
 Grid used for NLC:  SG-1 standard quadrature
Energy prior to optimization (guess energy) = -323.628915651360
Begin Timing: Total SCF Calculation
begin iterations for algorithm: DIIS         
the SCF tolerance is set to 1.00e-08
    1    -323.6289156514      2.08e-03     00000 
    2    -323.7748395868      1.41e-03     00000 
    3    -323.8016258691      2.03e-04     00000 
    4    -323.8027442647      6.34e-05     00000 
    5    -323.8028447207      3.49e-05     00000 
    6    -323.8028665974      8.73e-06     00000 
    7    -323.8028682730      3.29e-06     00000 
    8    -323.8028685284      8.90e-07     00000 
    9    -323.8028685575      2.19e-07     00000 
   10    -323.8028685599      9.72e-08     00000 
   11    -323.8028685602      2.71e-08     00000 
   12    -323.8028685603      9.97e-09     00000 Convergence criterion met
Timing for Total SCF: 759.00s (wall), 4545.86s (cpu)
(3)  G-ENP(liq) elect-nuc-pol free energy of system     -323.802868560 a.u.
(4)  G-CDS(liq) cavity-dispersion-solvent structure 
     free energy                                                3.7819 kcal/mol
(6)  G-S(liq) free energy of system                     -323.796841731 a.u.
E_pcm = -0.1058496195
E_cds = 0.0060268292
Multipole orders to be included
        2
        3
computing dipole RHS
computing quadrupole RHS
total number of RHS in solve_reponses: 8
RHS batch sizes
        8
Beginning Block Conjugate Gradient Iterations. Batch Number: 0
computing hessian-vector products by finite difference
              1      4.65e-01     00000 Conjugate Gradient Iteration
computing hessian-vector products by finite difference
              2      1.73e-01     00000 Conjugate Gradient Iteration
computing hessian-vector products by finite difference
              3      5.22e-02     00000 Conjugate Gradient Iteration
computing hessian-vector products by finite difference
              4      1.39e-02     00000 Conjugate Gradient Iteration
computing hessian-vector products by finite difference
              5      2.26e-03     00000 Conjugate Gradient Iteration
computing hessian-vector products by finite difference
              6      4.83e-04     00000 Conjugate Gradient Iteration
computing hessian-vector products by finite difference
              7      8.39e-05     00000 Conjugate Gradient Iteration
computing hessian-vector products by finite difference
              8      1.41e-05     00000 Conjugate Gradient Iteration
computing hessian-vector products by finite difference
              9      2.92e-06     00000 Conjugate Gradient Iteration
computing hessian-vector products by finite difference
             10      5.02e-07     00000 Conjugate Gradient Iteration
computing hessian-vector products by finite difference
             11      7.42e-08     00000 Conjugate Gradient Iteration
computing hessian-vector products by finite difference
             12      1.83e-08     00000 Conjugate Gradient Iteration
computing hessian-vector products by finite difference
             13      3.46e-09     00000 CG Converged
batch 0 complete
Done Calculating Responses
TESTING ORTHOGONALIZATION OF MULTIPOLE BASIS
Multipole virts passed orthogonality test
Virts Per Order
           84
          140

 --------------------------------------------------------------

                    Orbital Energies (a.u.)
 --------------------------------------------------------------

 Alpha MOs
 -- Occupied --
-14.4479 -14.4426 -14.4418 -10.4114 -10.3218 -10.2664 -10.2526  -1.1877
 -1.0659  -1.0411  -0.9084  -0.8315  -0.7675  -0.7410  -0.7127  -0.6820
 -0.6381  -0.6106  -0.5902  -0.5710  -0.5477  -0.5175  -0.5013  -0.4752
 -0.4405  -0.4222  -0.4006  -0.3750
 -- Virtual --
  0.0600   0.0796   0.0857   0.0974   0.1012   0.1168   0.1229   0.1304
  0.1363   0.1504   0.1579   0.1633   0.1692   0.1850   0.1897   0.1987
  0.2027   0.2078   0.2161   0.2291   0.2338   0.2398   0.2418   0.2494
  0.2546   0.2602   0.2688   0.2759   0.2850   0.2869   0.2936   0.3048
  0.3070   0.3151   0.3224   0.3262   0.3305   0.3376   0.3445   0.3519
  0.3530   0.3593   0.3641   0.3685   0.3717   0.3769   0.3819   0.3866
  0.3911   0.3965   0.4002   0.4091   0.4143   0.4204   0.4210   0.4291
  0.4320   0.4512   0.4544   0.4552   0.4639   0.4650   0.4729   0.4781
  0.4886   0.4913   0.4968   0.5060   0.5091   0.5164   0.5233   0.5236
  0.5299   0.5400   0.5441   0.5497   0.5556   0.5611   0.5687   0.5730
  0.5804   0.5931   0.6000   0.6031   0.6121   0.6201   0.6238   0.6350
  0.6423   0.6529   0.6640   0.6707   0.6763   0.6968   0.7042   0.7124
  0.7154   0.7233   0.7452   0.7520   0.7598   0.7640   0.7830   0.7891
  0.7981   0.8007   0.8065   0.8143   0.8226   0.8319   0.8366   0.8465
  0.8543   0.8556   0.8587   0.8791   0.8919   0.8980   0.9062   0.9145
  0.9242   0.9435   0.9617   0.9717   0.9827   0.9899   1.0004   1.0141
  1.0200   1.0376   1.0479   1.0640   1.0750   1.0767   1.0965   1.1118
  1.1202   1.1320   1.1725   1.1844   1.1982   1.2188   1.2351   1.2739
  1.2873   1.3087   1.3282   1.3379   1.3568   1.3856   1.4101   1.4267
  1.4544   1.4769   1.4846   1.4987   1.5129   1.5325   1.5642   1.5768
  1.5940   1.6633   1.6862   1.7193   1.7612   1.7921   1.8001   1.8496
  1.8615   1.8738   1.8936   1.9038   1.9239   1.9268   1.9335   1.9499
  1.9565   1.9759   1.9873   1.9982   2.0064   2.0199   2.0350   2.0459
  2.0642   2.0745   2.0916   2.1061   2.1341   2.1397   2.1744   2.1981
  2.2209   2.2328   2.2469   2.2650   2.3049   2.3071   2.3502   2.3734
  2.3935   2.4176   2.4381   2.4555   2.4839   2.4918   2.5140   2.5256
  2.5424   2.5706   2.6011   2.6187   2.6366   2.6532   2.6803   2.6908
  2.7023   2.7352   2.7457   2.7593   2.7624   2.7994   2.8349   2.8539
  2.8780   2.8802   2.9011   2.9143   2.9313   2.9393   2.9628   2.9807
  3.0289   3.0365   3.0564   3.0784   3.1082   3.1223   3.1404   3.1899
  3.1931   3.2107   3.2268   3.2570   3.2733   3.2893   3.3066   3.3277
  3.3310   3.3688   3.3815   3.4001   3.4199   3.4404   3.4627   3.4727
  3.4809   3.5072   3.5315   3.5563   3.5685   3.5863   3.5994   3.6157
  3.6308   3.6652   3.6890   3.7060   3.7431   3.7656   3.8077   3.8197
  3.9025   3.9253   3.9558   3.9595   3.9787   4.0576   4.0708   4.0937
  4.1463   4.1619   4.1756   4.2101   4.2288   4.2639   4.3277   4.3400
  4.3962   4.4252   4.4467   4.5416   4.5728   4.6297   4.6616   4.7228
  4.7355   4.7686   4.8195   4.8800   4.8849   4.9248   4.9644   5.0036
  5.0209   5.0415   5.0736   5.0962   5.0997   5.1327   5.1674   5.2043
  5.2409   5.2932   5.3611   5.3831   5.4182   5.4711   5.4887   5.5109
  5.5465   5.6141   5.6278   5.6962   5.7548   5.8219   5.8831   5.9733
  6.2254   6.2338   6.3824   6.6322  22.6165  22.6983  22.7959  23.9198
 32.3646  32.5480  32.9778
 --------------------------------------------------------------

          Ground-State Mulliken Net Atomic Charges

     Atom                 Charge (a.u.)
  ----------------------------------------
      1 C                    -0.993752
      2 C                    -0.370474
      3 C                    -0.530411
      4 N                    -0.130247
      5 C                     0.432063
      6 N                    -0.301087
      7 N                    -0.342416
      8 H                     0.254359
      9 H                     0.222494
     10 H                     0.303951
     11 H                     0.260850
     12 H                     0.327076
     13 H                     0.232506
     14 H                     0.299255
     15 H                     0.272926
     16 H                     0.261265
     17 H                     0.287336
     18 H                     0.268452
     19 H                     0.245853
  ----------------------------------------
  Sum of atomic charges =     1.000000

 -----------------------------------------------------------------
                    Cartesian Multipole Moments
 -----------------------------------------------------------------
    Charge (ESU x 10^10)
                 4.8032
    Dipole Moment (Debye)
         X      -4.3939      Y     251.0031      Z     244.7228
       Tot     350.5868
    Quadrupole Moments (Debye-Ang)
        XX     -26.6776     XY    -231.0769     YY   13073.6011
        XZ    -222.9384     YZ   12793.6692     ZZ   12440.9274
    Octopole Moments (Debye-Ang^2)
       XXX      22.7252    XXY   -1429.6098    XYY  -12132.7242
       YYY  678580.4678    XXZ   -1415.3935    XYZ  -11730.8804
       YYZ  666580.1780    XZZ  -11302.4190    YZZ  650622.6862
       ZZZ  630894.9508
    Hexadecapole Moments (Debye-Ang^3)
      XXXX    -193.7608   XXXY    1164.0228   XXYY  -76727.9742
      XYYY -636051.0280   YYYY ************   XXXZ    1156.2778
      XXYZ  -75885.0464   XYYZ -616277.3965   YYYZ ************
      XXZZ  -75181.1560   XYZZ -595067.8096   YYZZ ************
      XZZZ -572541.9499   YZZZ ************   ZZZZ ************
 -----------------------------------------------------------------
Archival summary:
1\1\compute-0-8.local\SP\ProcedureUnspecified\BasisUnspecified\3412(1+,1)\meili\TueSep2121:33:032021TueSep2121:33:032021\0\\#,ProcedureUnspecified,BasisUnspecified,\\1,1\N\H,1,0.977113\C,1,1.29734,2,117.916\N,3,1.25559,1,120.825,2,-174.748,0\H,4,1.01211,3,116.149,1,-160.027,0\H,4,1.01297,3,122.431,1,23.5088,0\N,3,1.3175,1,121.404,2,4.37183,0\H,7,0.999915,3,125.068,1,14.8312,0\H,7,1.03735,3,122.671,1,-168.412,0\C,1,1.48819,2,110.582,3,160.856,0\H,10,1.07867,1,111.041,2,-148.882,0\H,10,1.1583,1,115.445,2,86.1636,0\C,10,1.59416,1,104.806,2,-31.1861,0\H,13,1.07505,10,119.527,1,80.5433,0\H,13,1.08937,10,102.63,1,-32.2295,0\C,13,1.56305,10,118.031,1,-151.672,0\H,16,1.05645,13,106.911,10,168.814,0\H,16,1.09014,13,116.426,10,-67.375,0\H,16,1.12166,13,98.7657,10,59.1192,0\\\@

 Total job time:  15996.52s(wall), 96486.40s(cpu) 
 Tue Sep 21 21:33:03 2021

        *************************************************************
        *                                                           *
        *  Thank you very much for using Q-Chem.  Have a nice day.  *
        *                                                           *
        *************************************************************


Done Job For Fragment 1
calling putenv with: QCSCRATCH=/home/meili/scratch 
calling putenv with: QCTHREADS=8 
Doing General SCFMI
 Exchange:     0.1670 Hartree-Fock + 1.0000 wB97X-V + LR-HF
 Correlation:  1.0000 wB97X-V
 Using Euler-Maclaurin-Lebedev (99,590) quadrature formula
 Nonlocal Correlation:  VV10 with C = 0.0100 and b = 6.00 and scale = 1.00000
 Grid used for NLC:  SG-1 standard quadrature
performing fock build before subrot guess so that all methods have access
Printing subrot_rss_gen Method Specification:
Occupied Subspace Method is 0
Virtual Subspace Method is 0
Energy of the unrelaxed supersystem initial determinant -647.306120928799
performing fock build before subrot guess so that all methods have access
Printing subrot_rss_gen Method Specification:
Occupied Subspace Method is 0
Virtual Subspace Method is 0
Energy of the unrelaxed supersystem initial determinant w/ solvent -647.614424670766
write pseudocanon occs and virts to disk
write pseudocanon orbital energies to disk
Tolerance of ortho_decomp_scf: 1.00e-06
GDM subspace size: 20
Beginning the Orthogonal Decomposition of the Initial Supersystem Wavefunction
    1    -647.3989588449      5.68e-03     ortho_decomp Preconditoned Steepest Descent
    2    -647.3991002731      1.04e-04     ortho_decomp BFGS Step
    3    -647.3991005048      5.13e-06     ortho_decomp BFGS Step
    4    -647.3991005050      1.28e-07     ortho_decomp 00000 Convergence criterion met
 Hartree-Fock
 Hartree-Fock
 Hartree-Fock
Doing General SCFMI
 Exchange:     0.1670 Hartree-Fock + 1.0000 wB97X-V + LR-HF
 Correlation:  1.0000 wB97X-V
 Using Euler-Maclaurin-Lebedev (99,590) quadrature formula
 Nonlocal Correlation:  VV10 with C = 0.0100 and b = 6.00 and scale = 1.00000
 Grid used for NLC:  SG-1 standard quadrature
performing fock build at end of subrot_r(subrot) constructor so that all methods have access
<S^2> of initial wavefunction before polarization iterations 0.0000000000
Beginning iterations for the determination of the polarized wavefunction
Energy prior to optimization (guess energy) = -647.614424670766
Begin Timing: Total SCF Calculation
begin iterations for algorithm: DIIS         
the SCF tolerance is set to 1.00e-08
    1    -647.6144246708      1.60e-05     00000 
    2    -647.6144638965      6.10e-06     00000 
    3    -647.6144685378      3.79e-06     00000 
    4    -647.6144696318      6.63e-07     00000 
    5    -647.6144697067      3.68e-07     00000 
    6    -647.6144697182      5.84e-08     00000 
    7    -647.6144697189      2.88e-08     00000 
    8    -647.6144697190      7.14e-09     00000 Convergence criterion met
write pseudocanon occs and virts to disk
write pseudocanon orbital energies to disk
Timing for Total SCF: 4348.00s (wall), 27653.99s (cpu)
<S^2> of polarized wavefunction after polarization iterations 0.0000000000
relaxing scfmi constraint to allow all rotations in the entire AO span
Doing General SCFMI
 Exchange:     0.1670 Hartree-Fock + 1.0000 wB97X-V + LR-HF
 Correlation:  1.0000 wB97X-V
 Using Euler-Maclaurin-Lebedev (99,590) quadrature formula
 Nonlocal Correlation:  VV10 with C = 0.0100 and b = 6.00 and scale = 1.00000
 Grid used for NLC:  SG-1 standard quadrature
performing fock build at end of subrot_r(subrot) constructor so that all methods have access
<S^2> of polarized wavefunction before ct-allowed iterations 0.0000000000
Beginning iterations for the determination of the CT-Allowed wavefunction
Energy prior to optimization (guess energy) = -647.614469718992
Begin Timing: Total SCF Calculation
begin iterations for algorithm: DIIS         
the SCF tolerance is set to 1.00e-08
    1    -647.6144697190      3.99e-05     00000 
    2    -647.6147491695      2.78e-06     00000 
    3    -647.6147541112      3.96e-07     00000 
    4    -647.6147542384      1.78e-07     00000 
    5    -647.6147542461      4.78e-08     00000 
    6    -647.6147542473      1.40e-08     00000 
    7    -647.6147542474      5.65e-09     00000 Convergence criterion met
write pseudocanon occs and virts to disk
write pseudocanon orbital energies to disk
Timing for Total SCF: 3762.00s (wall), 24107.94s (cpu)
<S^2> of ct_allowed wavefunction after ct-allowed iterations 0.0000000000

================================
        Results of EDA2         
================================
Basic EDA Quantities
--------------------
Fragment Energies (Ha):
1 -323.8056123111
2 -323.7968417311
--------------------
  E_prp (kJ/mol) = 0.0000
  E_sol (kJ/mol) = -253.0478
  E_frz (kJ/mol) = 249.3641
  E_pol (kJ/mol) = -0.1183
  E_vct (kJ/mol) = -0.7470
  E_int (kJ/mol) = -4.5489
--------------------


Initial Wavefunction Decomposition
--------------------
  --------------------
  Orthogonal Fragment Subspace Decomposition:
  --------------------
     E_elec   (ELEC)   (kJ/mol) = 252.8390
     E_pauli  (PAULI)  (kJ/mol) = 3.8722
     E_disp   (DISP)   (kJ/mol) = -7.3470
     --------------------
     Terms summing to E_pauli:
     --------------------
        E_kep_pauli       (kJ/mol) = 5.2434
        E_disp_free_pauli (kJ/mol) = -1.3712
  --------------------
  Classical Frozen Decomposition:
  --------------------
     E_cls_elec  (CLS ELEC)  (kJ/mol) = 255.0083
     E_cls_pauli (CLS PAULI) (kJ/mol) = -5.6442
    [E_mod_pauli (MOD PAULI) (kJ/mol) = 1.7029 (CLS PAULI - DISP from orthogonal decomposition) ]
  --------------------
--------------------

Simplified EDA Summary (kJ/mol)
--------------------
 PREPARATION     0.0000
 SOLVATION       -253.0478
 FROZEN          256.7112      (does not include dispersion)
[PAULI           3.8722]     (if this is negligible, then frozen describes electrostatics)
 DISPERSION      -7.3470
 POLARIZATION    -0.1183
 CHARGE TRANSFER -0.7470
 TOTAL           -4.5489     (PRP + SOL + FRZ + DISP + POL + CT)
--------------------

 --------------------------------------------------------------

                    Orbital Energies (a.u.)
 --------------------------------------------------------------

 Alpha MOs
 -- Occupied --
-14.4495 -14.4451 -14.4445 -14.4439 -14.4434 -14.4397 -10.4153 -10.4130
-10.3231 -10.2974 -10.2675 -10.2543 -10.2536 -10.2535  -1.1894  -1.1886
 -1.0675  -1.0669  -1.0500  -1.0426  -0.9301  -0.9095  -0.8327  -0.8267
 -0.7856  -0.7690  -0.7424  -0.7388  -0.7238  -0.7139  -0.6874  -0.6834
 -0.6399  -0.6256  -0.6195  -0.6121  -0.6047  -0.5916  -0.5722  -0.5693
 -0.5594  -0.5490  -0.5406  -0.5186  -0.5090  -0.5025  -0.4762  -0.4636
 -0.4438  -0.4415  -0.4336  -0.4232  -0.4042  -0.4011  -0.3769  -0.3720
 -- Virtual --
  0.0511   0.0700   0.0741   0.0759   0.0812   0.0885   0.0934   0.0963
  0.1024   0.1069   0.1117   0.1161   0.1183   0.1270   0.1329   0.1343
  0.1460   0.1467   0.1520   0.1551   0.1595   0.1667   0.1714   0.1726
  0.1769   0.1811   0.1829   0.1905   0.1956   0.1986   0.2013   0.2027
  0.2063   0.2154   0.2187   0.2211   0.2265   0.2289   0.2322   0.2352
  0.2392   0.2429   0.2455   0.2511   0.2562   0.2596   0.2614   0.2642
  0.2665   0.2723   0.2790   0.2818   0.2838   0.2869   0.2915   0.2929
  0.2949   0.2986   0.3003   0.3043   0.3071   0.3102   0.3114   0.3176
  0.3191   0.3263   0.3295   0.3295   0.3321   0.3364   0.3399   0.3415
  0.3448   0.3480   0.3495   0.3520   0.3587   0.3592   0.3620   0.3662
  0.3672   0.3686   0.3704   0.3736   0.3752   0.3776   0.3794   0.3831
  0.3857   0.3885   0.3912   0.3932   0.3970   0.4017   0.4052   0.4094
  0.4108   0.4134   0.4151   0.4185   0.4215   0.4233   0.4264   0.4303
  0.4376   0.4394   0.4414   0.4451   0.4506   0.4539   0.4560   0.4592
  0.4625   0.4670   0.4675   0.4703   0.4723   0.4803   0.4826   0.4867
  0.4881   0.4910   0.4947   0.4967   0.4983   0.5018   0.5044   0.5066
  0.5115   0.5123   0.5163   0.5200   0.5232   0.5238   0.5269   0.5307
  0.5348   0.5357   0.5417   0.5447   0.5465   0.5505   0.5521   0.5559
  0.5577   0.5619   0.5642   0.5729   0.5768   0.5798   0.5842   0.5889
  0.5905   0.5931   0.5961   0.6042   0.6082   0.6102   0.6130   0.6149
  0.6226   0.6261   0.6296   0.6343   0.6382   0.6409   0.6436   0.6463
  0.6488   0.6543   0.6580   0.6615   0.6636   0.6749   0.6788   0.6833
  0.6852   0.6925   0.6973   0.7054   0.7064   0.7112   0.7158   0.7200
  0.7215   0.7292   0.7335   0.7352   0.7367   0.7428   0.7475   0.7498
  0.7581   0.7642   0.7661   0.7678   0.7699   0.7754   0.7799   0.7816
  0.7884   0.7909   0.7919   0.7963   0.8011   0.8033   0.8081   0.8141
  0.8191   0.8196   0.8203   0.8253   0.8299   0.8334   0.8365   0.8435
  0.8467   0.8540   0.8593   0.8633   0.8709   0.8765   0.8835   0.8840
  0.8906   0.8941   0.8967   0.9024   0.9032   0.9148   0.9159   0.9205
  0.9242   0.9306   0.9383   0.9421   0.9471   0.9531   0.9608   0.9633
  0.9675   0.9723   0.9791   0.9854   0.9889   0.9918   1.0029   1.0063
  1.0131   1.0189   1.0269   1.0385   1.0435   1.0534   1.0583   1.0631
  1.0671   1.0819   1.0832   1.0937   1.0964   1.1019   1.1110   1.1142
  1.1154   1.1174   1.1272   1.1315   1.1366   1.1504   1.1590   1.1672
  1.1813   1.1932   1.1993   1.2056   1.2130   1.2284   1.2350   1.2367
  1.2495   1.2541   1.2627   1.2781   1.2870   1.3058   1.3086   1.3196
  1.3265   1.3363   1.3425   1.3464   1.3544   1.3658   1.3741   1.3836
  1.3975   1.4112   1.4149   1.4214   1.4307   1.4425   1.4543   1.4728
  1.4810   1.4868   1.4999   1.5099   1.5115   1.5243   1.5279   1.5366
  1.5394   1.5440   1.5640   1.5749   1.5810   1.5991   1.6085   1.6221
  1.6470   1.6592   1.6815   1.6989   1.7140   1.7375   1.7401   1.7650
  1.7665   1.7708   1.8054   1.8139   1.8183   1.8318   1.8526   1.8577
  1.8765   1.8792   1.8892   1.9109   1.9132   1.9209   1.9240   1.9292
  1.9333   1.9401   1.9436   1.9472   1.9536   1.9629   1.9654   1.9743
  1.9799   1.9862   1.9911   1.9964   1.9985   2.0063   2.0131   2.0230
  2.0327   2.0446   2.0455   2.0536   2.0685   2.0733   2.0810   2.0853
  2.0980   2.1110   2.1173   2.1240   2.1336   2.1437   2.1539   2.1630
  2.1741   2.1762   2.1911   2.1957   2.2099   2.2149   2.2271   2.2339
  2.2516   2.2591   2.2617   2.2775   2.2796   2.2984   2.3157   2.3175
  2.3293   2.3389   2.3531   2.3664   2.3808   2.3902   2.3943   2.4125
  2.4404   2.4470   2.4546   2.4655   2.4811   2.4913   2.5001   2.5107
  2.5174   2.5264   2.5358   2.5444   2.5491   2.5575   2.5604   2.5727
  2.5890   2.5975   2.6127   2.6202   2.6275   2.6448   2.6511   2.6605
  2.6650   2.6705   2.6873   2.6956   2.7028   2.7113   2.7121   2.7234
  2.7345   2.7455   2.7505   2.7577   2.7690   2.7742   2.7963   2.8058
  2.8094   2.8199   2.8354   2.8386   2.8656   2.8749   2.8775   2.8868
  2.8955   2.9077   2.9112   2.9215   2.9299   2.9403   2.9468   2.9528
  2.9588   2.9656   2.9703   2.9801   2.9929   2.9992   3.0138   3.0297
  3.0394   3.0552   3.0591   3.0671   3.0839   3.0934   3.1030   3.1156
  3.1252   3.1285   3.1466   3.1604   3.1755   3.1909   3.2017   3.2117
  3.2228   3.2327   3.2379   3.2485   3.2576   3.2674   3.2743   3.2905
  3.3010   3.3048   3.3117   3.3204   3.3338   3.3415   3.3486   3.3549
  3.3671   3.3733   3.3862   3.3884   3.3958   3.4043   3.4114   3.4212
  3.4256   3.4281   3.4587   3.4702   3.4783   3.4851   3.4900   3.4961
  3.5157   3.5209   3.5388   3.5495   3.5554   3.5600   3.5718   3.5760
  3.5855   3.6015   3.6095   3.6189   3.6303   3.6330   3.6356   3.6421
  3.6462   3.6742   3.6795   3.6989   3.7190   3.7206   3.7318   3.7495
  3.7655   3.7767   3.8133   3.8163   3.8223   3.8373   3.8460   3.8804
  3.9173   3.9367   3.9539   3.9638   3.9677   3.9705   3.9886   3.9909
  4.0033   4.0326   4.0684   4.0716   4.0851   4.1030   4.1233   4.1518
  4.1539   4.1696   4.1757   4.1824   4.1891   4.2199   4.2331   4.2353
  4.2632   4.2783   4.2842   4.3319   4.3422   4.3478   4.3582   4.4006
  4.4249   4.4264   4.4307   4.4549   4.4629   4.5475   4.5498   4.5755
  4.5919   4.6387   4.6632   4.6691   4.6965   4.7263   4.7332   4.7411
  4.7621   4.7717   4.7738   4.8278   4.8578   4.8885   4.8938   4.9030
  4.9205   4.9349   4.9472   4.9729   4.9897   5.0116   5.0250   5.0323
  5.0377   5.0458   5.0542   5.0834   5.0901   5.1096   5.1117   5.1172
  5.1286   5.1371   5.1435   5.1756   5.1818   5.1979   5.2247   5.2401
  5.2498   5.2724   5.3044   5.3241   5.3857   5.3924   5.4005   5.4331
  5.4354   5.4650   5.4839   5.5005   5.5134   5.5320   5.5406   5.5645
  5.5804   5.6076   5.6213   5.6360   5.6443   5.6814   5.7021   5.7062
  5.7465   5.7756   5.8359   5.8848   5.8917   5.8962   5.9546   5.9890
  6.2377   6.2397   6.2414   6.3381   6.4003   6.4973   6.6123   6.6416
 22.6239  22.6857  22.7316  22.8074  22.9395  22.9598  23.9244  23.9393
 32.4413  32.4659  32.6113  32.6315  32.9983  33.0034
 --------------------------------------------------------------

          Ground-State Mulliken Net Atomic Charges

     Atom                 Charge (a.u.)
  ----------------------------------------
      1 C                    -0.857720
      2 C                    -0.485698
      3 C                    -0.529486
      4 N                    -0.025966
      5 C                     0.313191
      6 N                    -0.232434
      7 N                    -0.307955
      8 H                     0.227843
      9 H                     0.256380
     10 H                     0.226701
     11 H                     0.298839
     12 H                     0.242776
     13 H                     0.331225
     14 H                     0.321930
     15 H                     0.232506
     16 H                     0.247804
     17 H                     0.226702
     18 H                     0.275899
     19 H                     0.230933
     20 C                    -1.016351
     21 C                    -0.392165
     22 C                    -0.547110
     23 N                    -0.077926
     24 C                     0.390265
     25 N                    -0.275015
     26 N                    -0.357833
     27 H                     0.256754
     28 H                     0.224885
     29 H                     0.305793
     30 H                     0.264831
     31 H                     0.339111
     32 H                     0.250080
     33 H                     0.318326
     34 H                     0.290572
     35 H                     0.255876
     36 H                     0.263723
     37 H                     0.269746
     38 H                     0.242966
  ----------------------------------------
  Sum of atomic charges =     2.000000

 -----------------------------------------------------------------
                    Cartesian Multipole Moments
 -----------------------------------------------------------------
    Charge (ESU x 10^10)
                 9.6064
    Dipole Moment (Debye)
         X      -4.0610      Y     480.3652      Z     488.8835
       Tot     685.4009
    Quadrupole Moments (Debye-Ang)
        XX     -56.2200     XY    -212.0369     YY   23986.5475
        XZ    -211.1567     YZ   24459.2479     ZZ   24821.1545
    Octopole Moments (Debye-Ang^2)
       XXX    -123.9400    XXY   -2845.7533    XYY  -11123.3192
       YYY 1195917.1001    XXZ   -2878.1284    XYZ  -11005.1380
       YYZ 1221979.9025    XZZ  -11010.1076    YZZ 1242455.0526
       ZZZ 1257183.9244
    Hexadecapole Moments (Debye-Ang^3)
      XXXX   -1101.9196   XXXY   -5893.0418   XXYY -144796.8523
      XYYY -585504.1496   YYYY ************   XXXZ   -5942.7591
      XXYZ -145987.5806   XYYZ -576230.5389   YYYZ ************
      XXZZ -147828.4214   XYZZ -572676.3924   YYZZ ************
      XZZZ -575201.1763   YZZZ ************   ZZZZ ************
 -----------------------------------------------------------------
Archival summary:
1\1\compute-0-8.local\SP\ProcedureUnspecified\BasisUnspecified\6824(2+,1)\meili\WedSep2202:00:122021WedSep2202:00:122021\0\\#,ProcedureUnspecified,BasisUnspecified,\\2,1\N\H,1,0.95621\C,1,1.34689,2,119.416\N,3,1.26389,1,124.082,2,165.006,0\H,4,0.969668,3,122.414,1,-160.875,0\H,4,1.00012,3,119.899,1,0.0842486,0\N,3,1.27676,1,117.899,2,-7.84963,0\H,7,1.004,3,123.206,1,-11.8582,0\H,7,1.04858,3,123.059,1,164.991,0\C,1,1.47818,2,114.527,3,-169.009,0\H,10,1.07958,1,110.87,2,-110.419,0\H,10,1.08363,1,104.764,2,124.668,0\C,10,1.47571,1,110.643,2,7.95895,0\H,13,1.03651,10,103.31,1,56.0672,0\H,13,1.09417,10,109.144,1,170.195,0\C,13,1.50533,10,113.474,1,-73.8476,0\H,16,1.07899,13,110.793,10,-49.2836,0\H,16,1.0905,13,103.734,10,-170.495,0\H,16,1.14229,13,114.969,10,71.357,0\H,2,2.93882,1,128.464,3,-59.7127,0\N,20,1.01297,2,115.798,1,-21.1733,0\H,21,1.01211,20,121.323,2,-75.2931,0\C,21,1.25559,20,122.431,2,100.991,0\N,23,1.29734,21,120.825,20,23.5088,0\H,24,0.977113,23,117.916,21,-174.748,0\N,23,1.3175,21,117.766,20,-155.642,0\H,26,0.999915,23,125.068,21,-166.023,0\H,26,1.03735,23,122.671,21,10.7335,0\C,24,1.48819,23,128.09,21,28.2116,0\H,29,1.07867,24,111.041,23,9.5144,0\H,29,1.1583,24,115.445,23,-115.44,0\C,29,1.59416,24,104.806,23,127.21,0\H,32,1.07505,29,119.527,24,80.5433,0\H,32,1.08937,29,102.63,24,-32.2295,0\C,32,1.56305,29,118.031,24,-151.672,0\H,35,1.05645,32,106.911,29,168.814,0\H,35,1.09014,32,116.426,29,-67.375,0\H,35,1.12166,32,98.7657,29,59.1192,0\\\@

 Total job time:  45312.89s(wall), 103971.25s(cpu) 
 Wed Sep 22 02:00:12 2021

        *************************************************************
        *                                                           *
        *  Thank you very much for using Q-Chem.  Have a nice day.  *
        *                                                           *
        *************************************************************


