                  Welcome to Q-Chem
     A Quantum Leap Into The Future Of Chemistry


 Q-Chem 5.2 (devel), Q-Chem, Inc., Pleasanton, CA (2019)

 Yihan Shao,  Zhengting Gan,  E. Epifanovsky,  A. T. B. Gilbert,  M. Wormit,  
 J. Kussmann,  A. W. Lange,  A. Behn,  Jia Deng,  Xintian Feng,  D. Ghosh,  
 M. Goldey,  P. R. Horn,  L. D. Jacobson,  I. Kaliman,  T. Kus,  A. Landau,  
 Jie Liu,  E. I. Proynov,  R. M. Richard,  R. P. Steele,  E. J. Sundstrom,  
 H. L. Woodcock III,  P. M. Zimmerman,  D. Zuev,  B. Albrecht,  E. Alguire,  
 S. A. Baeppler,  D. Barton,  Z. Benda,  Y. A. Bernard,  E. J. Berquist,  
 K. B. Bravaya,  H. Burton,  D. Casanova,  Chun-Min Chang,  Yunqing Chen,  
 A. Chien,  K. D. Closser,  M. P. Coons,  S. Coriani,  S. Dasgupta,  
 A. L. Dempwolff,  M. Diedenhofen,  Hainam Do,  R. G. Edgar,  Po-Tung Fang,  
 S. Faraji,  S. Fatehi,  Qingguo Feng,  K. D. Fenk,  J. Fosso-Tande,  
 J. Gayvert,  Qinghui Ge,  A. Ghysels,  G. Gidofalvi,  J. Gomes,  
 J. Gonthier,  A. Gunina,  D. Hait,  M. W. D. Hanson-Heine,  
 P. H. P. Harbach,  A. W. Hauser,  M. F. Herbst,  J. E. Herr,  
 E. G. Hohenstein,  Z. C. Holden,  Kerwin Hui,  B. C. Huynh,  T.-C. Jagau,  
 Hyunjun Ji,  B. Kaduk,  K. Khistyaev,  Jaehoon Kim,  P. Klunzinger,  K. Koh,  
 D. Kosenkov,  L. Koulias,  T. Kowalczyk,  C. M. Krauter,  A. Kunitsa,  
 Ka Un Lao,  A. Laurent,  K. V. Lawler,  Joonho Lee,  D. Lefrancois,  
 S. Lehtola,  D. S. Levine,  Yi-Pei Li,  You-Sheng Lin,  Fenglai Liu,  
 E. Livshits,  A. Luenser,  P. Manohar,  E. Mansoor,  S. F. Manzer,  
 Shan-Ping Mao,  Yuezhi Mao,  N. Mardirossian,  A. V. Marenich,  
 T. Markovich,  L. A. Martinez-Martinez,  S. A. Maurer,  N. J. Mayhall,  
 S. C. McKenzie,  J.-M. Mewes,  P. Morgante,  A. F. Morrison,  
 J. W. Mullinax,  K. Nanda,  T. S. Nguyen-Beck,  R. Olivares-Amaya,  
 J. A. Parkhill,  Zheng Pei,  T. M. Perrine,  F. Plasser,  P. Pokhilko,  
 S. Prager,  A. Prociuk,  E. Ramos,  D. R. Rehn,  F. Rob,  M. Scheurer,  
 M. Schneider,  N. Sergueev,  S. M. Sharada,  S. Sharma,  D. W. Small,  
 T. Stauch,  T. Stein,  Yu-Chuan Su,  A. J. W. Thom,  A. Tkatchenko,  
 T. Tsuchimochi,  N. M. Tubman,  L. Vogt,  M. L. Vidal,  O. Vydrov,  
 M. A. Watson,  J. Wenzel,  M. de Wergifosse,  T. A. Wesolowski,  A. White,  
 J. Witte,  A. Yamada,  Jun Yang,  K. Yao,  S. Yeganeh,  S. R. Yost,  
 Zhi-Qiang You,  A. Zech,  Igor Ying Zhang,  Xing Zhang,  Yan Zhao,  
 Ying Zhu,  B. R. Brooks,  G. K. L. Chan,  C. J. Cramer,  M. S. Gordon,  
 W. J. Hehre,  A. Klamt,  M. W. Schmidt,  C. D. Sherrill,  D. G. Truhlar,  
 A. Aspuru-Guzik,  R. Baer,  A. T. Bell,  N. A. Besley,  Jeng-Da Chai,  
 A. E. DePrince, III,  R. A. DiStasio Jr.,  A. Dreuw,  B. D. Dunietz,  
 T. R. Furlani,  Chao-Ping Hsu,  Yousung Jung,  Jing Kong,  D. S. Lambrecht,  
 WanZhen Liang,  C. Ochsenfeld,  V. A. Rassolov,  L. V. Slipchenko,  
 J. E. Subotnik,  T. Van Voorhis,  J. M. Herbert,  A. I. Krylov,  
 P. M. W. Gill,  M. Head-Gordon

 Contributors to earlier versions of Q-Chem not listed above: 
 R. D. Adamson,  B. Austin,  J. Baker,  G. J. O. Beran,  K. Brandhorst,  
 S. T. Brown,  E. F. C. Byrd,  A. K. Chakraborty,  C.-L. Cheng,  
 Siu Hung Chien,  D. M. Chipman,  D. L. Crittenden,  H. Dachsel,  
 R. J. Doerksen,  A. D. Dutoi,  L. Fusti-Molnar,  W. A. Goddard III,  
 A. Golubeva-Zadorozhnaya,  S. R. Gwaltney,  G. Hawkins,  A. Heyden,  
 S. Hirata,  G. Kedziora,  F. J. Keil,  C. Kelley,  Jihan Kim,  R. A. King,  
 R. Z. Khaliullin,  P. P. Korambath,  W. Kurlancheek,  A. M. Lee,  M. S. Lee,  
 S. V. Levchenko,  Ching Yeh Lin,  D. Liotard,  R. C. Lochan,  I. Lotan,  
 P. E. Maslen,  N. Nair,  D. P. O'Neill,  D. Neuhauser,  E. Neuscamman,  
 C. M. Oana,  R. Olson,  B. Peters,  R. Peverati,  P. A. Pieniazek,  
 Y. M. Rhee,  J. Ritchie,  M. A. Rohrdanz,  E. Rosta,  N. J. Russ,  
 H. F. Schaefer III,  N. E. Schultz,  N. Shenvi,  A. C. Simmonett,  A. Sodt,  
 D. Stuck,  K. S. Thanthiriwatte,  V. Vanovschi,  Tao Wang,  A. Warshel,  
 C. F. Williams,  Q. Wu,  X. Xu,  W. Zhang

 Please cite Q-Chem as follows:
 Y. Shao et al., Mol. Phys. 113, 184-215 (2015)
 DOI: 10.1080/00268976.2014.952696

 Q-Chem 5.2.1 for Intel X86 EM64T Linux

 Parts of Q-Chem use Armadillo 8.300.2 (Tropical Shenanigans).
 http://arma.sourceforge.net/

 Q-Chem begins on Tue Sep 21 13:24:59 2021  

compute-0-8.local
Host: 0

     Scratch files written to /home/meili/scratch/qchem22177//
NAlpha2: 112
NElect   112
Mult     1
Symmetry turned off for PCM/SM12/SMD calculation

 Q-Chem warning in module libgen/rem_setup.C, line 2813:

 Neither GIA nor STOLL is specified by user. Use STOLL as the default


Checking the input file for inconsistencies... 	...done.

--------------------------------------------------------------
User input:
--------------------------------------------------------------
$comment
methyl_capped_crystal_1arb_ARG81_ARG156.pdb
$end

$molecule
2 1
--
1 1
C             7.575 -10.439  21.408
C             8.567 -11.430  20.820
C             9.308 -10.896  19.634
N             8.298 -10.733  18.545
C             8.598 -10.222  17.355
N             9.790  -9.751  17.091
N             7.643 -10.239  16.376
H             6.643 -10.954  21.642
H             7.989 -10.007  22.319
H             7.380  -9.647  20.685
H             7.996 -12.294  20.480
H             9.291 -11.694  21.591
H            10.109 -11.570  19.332
H             9.763  -9.935  19.874
H             7.347 -11.023  18.720
H             9.996  -9.385  16.172
H            10.504  -9.753  17.806
H             6.727 -10.618  16.570
H             7.854  -9.872  15.459
--
1 1
C             0.989  -8.792  13.732
C             2.491  -8.581  13.770
C             3.263  -9.152  15.016
N             4.520  -8.384  15.069
C             5.111  -7.855  16.173
N             4.769  -8.283  17.389
N             6.053  -6.900  15.965
H             0.758  -9.648  13.098
H             0.622  -8.978  14.741
H             2.623  -7.501  13.828
H             2.912  -9.048  12.880
H             3.441 -10.224  14.932
H             2.684  -9.004  15.928
H             4.994  -8.235  14.190
H             5.214  -7.890  18.206
H             4.065  -9.000  17.493
H             6.281  -6.612  15.024
H             6.526  -6.477  16.751
H             0.508  -7.901  13.329
$end

$rem
JOBTYPE			EDA
EDA2			1
method			wB97X-V
BASIS			def2-TZVPD
XC_GRID			000099000590
NL_GRID			1
UNRESTRICTED		FALSE
MAX_SCF_CYCLES		200
SYMMETRY		FALSE
SYM_IGNORE		TRUE
MEM_STATIC		2000
BASIS_LIN_DEP_THRESH 	6
THRESH 			14
SCF_CONVERGENCE 	8
SCF_PRINT_FRGM 		TRUE
SOLVENT_METHOD          SMD
$end

$SMX
SOLVENT			WATER
$END
--------------------------------------------------------------
 ----------------------------------------------------------------
             Standard Nuclear Orientation (Angstroms)
    I     Atom           X                Y                Z
 ----------------------------------------------------------------
    1      C       7.5750000000   -10.4390000000    21.4080000000
    2      C       8.5670000000   -11.4300000000    20.8200000000
    3      C       9.3080000000   -10.8960000000    19.6340000000
    4      N       8.2980000000   -10.7330000000    18.5450000000
    5      C       8.5980000000   -10.2220000000    17.3550000000
    6      N       9.7900000000    -9.7510000000    17.0910000000
    7      N       7.6430000000   -10.2390000000    16.3760000000
    8      H       6.6430000000   -10.9540000000    21.6420000000
    9      H       7.9890000000   -10.0070000000    22.3190000000
   10      H       7.3800000000    -9.6470000000    20.6850000000
   11      H       7.9960000000   -12.2940000000    20.4800000000
   12      H       9.2910000000   -11.6940000000    21.5910000000
   13      H      10.1090000000   -11.5700000000    19.3320000000
   14      H       9.7630000000    -9.9350000000    19.8740000000
   15      H       7.3470000000   -11.0230000000    18.7200000000
   16      H       9.9960000000    -9.3850000000    16.1720000000
   17      H      10.5040000000    -9.7530000000    17.8060000000
   18      H       6.7270000000   -10.6180000000    16.5700000000
   19      H       7.8540000000    -9.8720000000    15.4590000000
   20      C       0.9890000000    -8.7920000000    13.7320000000
   21      C       2.4910000000    -8.5810000000    13.7700000000
   22      C       3.2630000000    -9.1520000000    15.0160000000
   23      N       4.5200000000    -8.3840000000    15.0690000000
   24      C       5.1110000000    -7.8550000000    16.1730000000
   25      N       4.7690000000    -8.2830000000    17.3890000000
   26      N       6.0530000000    -6.9000000000    15.9650000000
   27      H       0.7580000000    -9.6480000000    13.0980000000
   28      H       0.6220000000    -8.9780000000    14.7410000000
   29      H       2.6230000000    -7.5010000000    13.8280000000
   30      H       2.9120000000    -9.0480000000    12.8800000000
   31      H       3.4410000000   -10.2240000000    14.9320000000
   32      H       2.6840000000    -9.0040000000    15.9280000000
   33      H       4.9940000000    -8.2350000000    14.1900000000
   34      H       5.2140000000    -7.8900000000    18.2060000000
   35      H       4.0650000000    -9.0000000000    17.4930000000
   36      H       6.2810000000    -6.6120000000    15.0240000000
   37      H       6.5260000000    -6.4770000000    16.7510000000
   38      H       0.5080000000    -7.9010000000    13.3290000000
 ----------------------------------------------------------------
 Nuclear Repulsion Energy =         927.25746461 hartrees
 There are       56 alpha and       56 beta electrons
 Requested basis set is def2-TZVPD
 There are 302 shells and 734 basis functions

 Total QAlloc Memory Limit   2000 MB
 Mega-Array Size      1956 MB
 MEM_STATIC part      2000 MB

 Citation of the SMD model:
 Marenich, A.V.; Cramer, C.J.; Truhlar, D.G.
 J. Phys. Chem. B 2009, 113, 6378-6396.
 iSolventCode=           1
 Solvent: water                                                           

 vradii
            1           2           3           4           5           6
    1   1.8500000   1.8500000   1.8500000   1.8900000   1.8500000   1.8900000
            7           8           9          10          11          12
    1   1.8900000   1.2000000   1.2000000   1.2000000   1.2000000   1.2000000
           13          14          15          16          17          18
    1   1.2000000   1.2000000   1.2000000   1.2000000   1.2000000   1.2000000
           19          20          21          22          23          24
    1   1.2000000   1.8500000   1.8500000   1.8500000   1.8900000   1.8500000
           25          26          27          28          29          30
    1   1.8900000   1.8900000   1.2000000   1.2000000   1.2000000   1.2000000
           31          32          33          34          35          36
    1   1.2000000   1.2000000   1.2000000   1.2000000   1.2000000   1.2000000
           37          38
    1   1.2000000   1.2000000
 Changing PCM_VDW_RADII to SMD_RADIUS
 Discretize the solute cavity surface with Lebedev spheres
	Using 110 Lebedev grid points for each H atom
	Using 194 Lebedev grid points for other atoms
	Atomic van der Waals radii will be scaled by 1.20
 Remove points where switching function is < 1.0e-08
 Keep 2594 surface tesserae and discard 2762 interior tesserae
 Molecular Surface Area = 303.020 Angst**2
 A cutoff of  1.0D-14 yielded  35680 shell pairs
 There are    209832 function pairs (    257909 Cartesian)
 Smallest overlap matrix eigenvalue = 3.10E-06

 Scale SEOQF with 1.000000e-02/1.000000e-02/1.000000e-03

 Standard Electronic Orientation quadrupole field applied
 Nucleus-field energy     =     0.0000000558 hartrees

 -----------------------------------------------------------------------
  General SCF calculation program by
  Eric Jon Sundstrom, Paul Horn, Yuezhi Mao, Dmitri Zuev, Alec White,
  David Stuck, Shaama M.S., Shane Yost, Joonho Lee, David Small,
  Daniel Levine, Susi Lehtola, Hugh Burton, Evgeny Epifanovsky,
  Bang C. Huynh
 -----------------------------------------------------------------------
================================================================
                 ALMO-EDA with the EDA2 driver                  
================================================================
 The second-generation ALMO-EDA (for DFT):                      
 P. R. Horn, Y. Mao and M. Head-Gordon, PCCP, 18, 23067 (2016)  
 Decomposition of the frozen energy:                            
 P. R. Horn, Y. Mao and M. Head-Gordon, JCP, 144, 114107 (2016) 
 FERF model for polarization:                                   
 P. R. Horn and M. Head-Gordon, JCP, 143, 114111 (2015)         
Using eda2 option set 1
Option set summary: Frozen orbital wavefunction, initial wavefunction decomposition, and nDQ polarization.
--------------------------------
Printing EDA Options
--------------------------------
eda_child_super_basis      0
fragmo_guess_mode          0
child_mp                   1
child_mp_orders            232
cls_elec                   1
cls_disp                   0
scfmi_mode                 1
scfmi_occs                 0
scfmi_virts                0
frz_relax                  0
frz_relax_method           0
dc_pen_start               0
dc_pen_conv                0
dc_pen_increment           0
dc_pen_steps               0
dc_pen_thresh_factor       0
dc_pen_pre_newton_thresh   0
frz_ortho_decomp           1
frz_ortho_decomp_conv      6
frgm_method                2
scfmi_freeze_ss            0
separate_rehyb             0
plot_diff_den              0
eda_nocv                   0
eda_vct_relax              1
disp_free_x                0
disp_free_c                0
eda_bsse                   0
eda_pct_a                  0
eda_covp                   0
--------------------------------
Attempting to make child job directory: /home/meili/scratch/qchem22177//Frg1/
Attempting to make child job directory: /home/meili/scratch/qchem22177//Frg2/
Creating input file /home/meili/scratch/qchem22177/Frg1.input
using default PutDataFrgm: nothing
calling putenv with: QCSCRATCH=/home/meili/scratch/qchem22177/ 
Spawning Job For Fragment 0
                  Welcome to Q-Chem
     A Quantum Leap Into The Future Of Chemistry


 Q-Chem 5.2 (devel), Q-Chem, Inc., Pleasanton, CA (2019)

 Yihan Shao,  Zhengting Gan,  E. Epifanovsky,  A. T. B. Gilbert,  M. Wormit,  
 J. Kussmann,  A. W. Lange,  A. Behn,  Jia Deng,  Xintian Feng,  D. Ghosh,  
 M. Goldey,  P. R. Horn,  L. D. Jacobson,  I. Kaliman,  T. Kus,  A. Landau,  
 Jie Liu,  E. I. Proynov,  R. M. Richard,  R. P. Steele,  E. J. Sundstrom,  
 H. L. Woodcock III,  P. M. Zimmerman,  D. Zuev,  B. Albrecht,  E. Alguire,  
 S. A. Baeppler,  D. Barton,  Z. Benda,  Y. A. Bernard,  E. J. Berquist,  
 K. B. Bravaya,  H. Burton,  D. Casanova,  Chun-Min Chang,  Yunqing Chen,  
 A. Chien,  K. D. Closser,  M. P. Coons,  S. Coriani,  S. Dasgupta,  
 A. L. Dempwolff,  M. Diedenhofen,  Hainam Do,  R. G. Edgar,  Po-Tung Fang,  
 S. Faraji,  S. Fatehi,  Qingguo Feng,  K. D. Fenk,  J. Fosso-Tande,  
 J. Gayvert,  Qinghui Ge,  A. Ghysels,  G. Gidofalvi,  J. Gomes,  
 J. Gonthier,  A. Gunina,  D. Hait,  M. W. D. Hanson-Heine,  
 P. H. P. Harbach,  A. W. Hauser,  M. F. Herbst,  J. E. Herr,  
 E. G. Hohenstein,  Z. C. Holden,  Kerwin Hui,  B. C. Huynh,  T.-C. Jagau,  
 Hyunjun Ji,  B. Kaduk,  K. Khistyaev,  Jaehoon Kim,  P. Klunzinger,  K. Koh,  
 D. Kosenkov,  L. Koulias,  T. Kowalczyk,  C. M. Krauter,  A. Kunitsa,  
 Ka Un Lao,  A. Laurent,  K. V. Lawler,  Joonho Lee,  D. Lefrancois,  
 S. Lehtola,  D. S. Levine,  Yi-Pei Li,  You-Sheng Lin,  Fenglai Liu,  
 E. Livshits,  A. Luenser,  P. Manohar,  E. Mansoor,  S. F. Manzer,  
 Shan-Ping Mao,  Yuezhi Mao,  N. Mardirossian,  A. V. Marenich,  
 T. Markovich,  L. A. Martinez-Martinez,  S. A. Maurer,  N. J. Mayhall,  
 S. C. McKenzie,  J.-M. Mewes,  P. Morgante,  A. F. Morrison,  
 J. W. Mullinax,  K. Nanda,  T. S. Nguyen-Beck,  R. Olivares-Amaya,  
 J. A. Parkhill,  Zheng Pei,  T. M. Perrine,  F. Plasser,  P. Pokhilko,  
 S. Prager,  A. Prociuk,  E. Ramos,  D. R. Rehn,  F. Rob,  M. Scheurer,  
 M. Schneider,  N. Sergueev,  S. M. Sharada,  S. Sharma,  D. W. Small,  
 T. Stauch,  T. Stein,  Yu-Chuan Su,  A. J. W. Thom,  A. Tkatchenko,  
 T. Tsuchimochi,  N. M. Tubman,  L. Vogt,  M. L. Vidal,  O. Vydrov,  
 M. A. Watson,  J. Wenzel,  M. de Wergifosse,  T. A. Wesolowski,  A. White,  
 J. Witte,  A. Yamada,  Jun Yang,  K. Yao,  S. Yeganeh,  S. R. Yost,  
 Zhi-Qiang You,  A. Zech,  Igor Ying Zhang,  Xing Zhang,  Yan Zhao,  
 Ying Zhu,  B. R. Brooks,  G. K. L. Chan,  C. J. Cramer,  M. S. Gordon,  
 W. J. Hehre,  A. Klamt,  M. W. Schmidt,  C. D. Sherrill,  D. G. Truhlar,  
 A. Aspuru-Guzik,  R. Baer,  A. T. Bell,  N. A. Besley,  Jeng-Da Chai,  
 A. E. DePrince, III,  R. A. DiStasio Jr.,  A. Dreuw,  B. D. Dunietz,  
 T. R. Furlani,  Chao-Ping Hsu,  Yousung Jung,  Jing Kong,  D. S. Lambrecht,  
 WanZhen Liang,  C. Ochsenfeld,  V. A. Rassolov,  L. V. Slipchenko,  
 J. E. Subotnik,  T. Van Voorhis,  J. M. Herbert,  A. I. Krylov,  
 P. M. W. Gill,  M. Head-Gordon

 Contributors to earlier versions of Q-Chem not listed above: 
 R. D. Adamson,  B. Austin,  J. Baker,  G. J. O. Beran,  K. Brandhorst,  
 S. T. Brown,  E. F. C. Byrd,  A. K. Chakraborty,  C.-L. Cheng,  
 Siu Hung Chien,  D. M. Chipman,  D. L. Crittenden,  H. Dachsel,  
 R. J. Doerksen,  A. D. Dutoi,  L. Fusti-Molnar,  W. A. Goddard III,  
 A. Golubeva-Zadorozhnaya,  S. R. Gwaltney,  G. Hawkins,  A. Heyden,  
 S. Hirata,  G. Kedziora,  F. J. Keil,  C. Kelley,  Jihan Kim,  R. A. King,  
 R. Z. Khaliullin,  P. P. Korambath,  W. Kurlancheek,  A. M. Lee,  M. S. Lee,  
 S. V. Levchenko,  Ching Yeh Lin,  D. Liotard,  R. C. Lochan,  I. Lotan,  
 P. E. Maslen,  N. Nair,  D. P. O'Neill,  D. Neuhauser,  E. Neuscamman,  
 C. M. Oana,  R. Olson,  B. Peters,  R. Peverati,  P. A. Pieniazek,  
 Y. M. Rhee,  J. Ritchie,  M. A. Rohrdanz,  E. Rosta,  N. J. Russ,  
 H. F. Schaefer III,  N. E. Schultz,  N. Shenvi,  A. C. Simmonett,  A. Sodt,  
 D. Stuck,  K. S. Thanthiriwatte,  V. Vanovschi,  Tao Wang,  A. Warshel,  
 C. F. Williams,  Q. Wu,  X. Xu,  W. Zhang

 Please cite Q-Chem as follows:
 Y. Shao et al., Mol. Phys. 113, 184-215 (2015)
 DOI: 10.1080/00268976.2014.952696

 Q-Chem 5.2.1 for Intel X86 EM64T Linux

 Parts of Q-Chem use Armadillo 8.300.2 (Tropical Shenanigans).
 http://arma.sourceforge.net/

 Q-Chem begins on Tue Sep 21 13:26:45 2021  

compute-0-8.local
Host: 0

     Scratch files written to /home/meili/scratch/qchem22177//Frg1//
NAlpha2: 56
NElect   56
Mult     1
Symmetry turned off for PCM/SM12/SMD calculation

Checking the input file for inconsistencies... 	...done.

--------------------------------------------------------------
User input:
--------------------------------------------------------------
$molecule
1 1
 6	7.5750000000	-10.4390000000	21.4080000000
 6	8.5670000000	-11.4300000000	20.8200000000
 6	9.3080000000	-10.8960000000	19.6340000000
 7	8.2980000000	-10.7330000000	18.5450000000
 6	8.5980000000	-10.2220000000	17.3550000000
 7	9.7900000000	-9.7510000000	17.0910000000
 7	7.6430000000	-10.2390000000	16.3760000000
 1	6.6430000000	-10.9540000000	21.6420000000
 1	7.9890000000	-10.0070000000	22.3190000000
 1	7.3800000000	-9.6470000000	20.6850000000
 1	7.9960000000	-12.2940000000	20.4800000000
 1	9.2910000000	-11.6940000000	21.5910000000
 1	10.1090000000	-11.5700000000	19.3320000000
 1	9.7630000000	-9.9350000000	19.8740000000
 1	7.3470000000	-11.0230000000	18.7200000000
 1	9.9960000000	-9.3850000000	16.1720000000
 1	10.5040000000	-9.7530000000	17.8060000000
 1	6.7270000000	-10.6180000000	16.5700000000
 1	7.8540000000	-9.8720000000	15.4590000000
$end
$rem
EDA2		1
METHOD		WB97X-V
BASIS		DEF2-TZVPD
XC_GRID		000099000590
NL_GRID		1
UNRESTRICTED		FALSE
MAX_SCF_CYCLES		200
SYMMETRY		FALSE
SYM_IGNORE		TRUE
BASIS_LIN_DEP_THRESH		6
THRESH		14
SCF_CONVERGENCE		8
SCF_PRINT_FRGM		TRUE
SOLVENT_METHOD		SMD
!required keywords
JOBTYPE		SP
SYM_IGNORE		TRUE
SUBSYSTEM		TRUE
GEN_SCFMAN		TRUE
CHILD_INSTRUCTION		2
SYM_IGNORE		TRUE
SCFMI		0
RI_K 0		
PARI_K 0		
MIN_PARI_K 0		
IARI_K 0		
OCC_RI_K 0		
PURECART		1111
MEM_STATIC		2000
MEM_TOTAL		2000
GUI		0
CHILD_MP		1
CHILD_MP_ORDERS		232
FRZ_RELAX		0
FRZ_RELAX_METHOD		0
EDA_CLS_ELEC		1
EDA_CLS_DISP		0
FRZ_ORTHO_DECOMP		1
EDA2		FALSE
FRGM_METHOD		FALSE
CIS_N_ROOTS  0
LOCAL_CIS    0
CIS_RLX_DNS  1
$end
$smx
SOLVENT			WATER
$end
--------------------------------------------------------------
 ----------------------------------------------------------------
             Standard Nuclear Orientation (Angstroms)
    I     Atom           X                Y                Z
 ----------------------------------------------------------------
    1      C       7.5750000000   -10.4390000000    21.4080000000
    2      C       8.5670000000   -11.4300000000    20.8200000000
    3      C       9.3080000000   -10.8960000000    19.6340000000
    4      N       8.2980000000   -10.7330000000    18.5450000000
    5      C       8.5980000000   -10.2220000000    17.3550000000
    6      N       9.7900000000    -9.7510000000    17.0910000000
    7      N       7.6430000000   -10.2390000000    16.3760000000
    8      H       6.6430000000   -10.9540000000    21.6420000000
    9      H       7.9890000000   -10.0070000000    22.3190000000
   10      H       7.3800000000    -9.6470000000    20.6850000000
   11      H       7.9960000000   -12.2940000000    20.4800000000
   12      H       9.2910000000   -11.6940000000    21.5910000000
   13      H      10.1090000000   -11.5700000000    19.3320000000
   14      H       9.7630000000    -9.9350000000    19.8740000000
   15      H       7.3470000000   -11.0230000000    18.7200000000
   16      H       9.9960000000    -9.3850000000    16.1720000000
   17      H      10.5040000000    -9.7530000000    17.8060000000
   18      H       6.7270000000   -10.6180000000    16.5700000000
   19      H       7.8540000000    -9.8720000000    15.4590000000
 ----------------------------------------------------------------
 Nuclear Repulsion Energy =         327.18519358 hartrees
 There are       28 alpha and       28 beta electrons
 Requested basis set is def2-TZVPD
 There are 151 shells and 367 basis functions

 Total QAlloc Memory Limit   2000 MB
 Mega-Array Size      1956 MB
 MEM_STATIC part      2000 MB

 Citation of the SMD model:
 Marenich, A.V.; Cramer, C.J.; Truhlar, D.G.
 J. Phys. Chem. B 2009, 113, 6378-6396.
 iSolventCode=           1
 Solvent: water                                                           

 vradii
            1           2           3           4           5           6
    1   1.8500000   1.8500000   1.8500000   1.8900000   1.8500000   1.8900000
            7           8           9          10          11          12
    1   1.8900000   1.2000000   1.2000000   1.2000000   1.2000000   1.2000000
           13          14          15          16          17          18
    1   1.2000000   1.2000000   1.2000000   1.2000000   1.2000000   1.2000000
           19
    1   1.2000000
 Changing PCM_VDW_RADII to SMD_RADIUS
 Discretize the solute cavity surface with Lebedev spheres
	Using 110 Lebedev grid points for each H atom
	Using 194 Lebedev grid points for other atoms
	Atomic van der Waals radii will be scaled by 1.20
 Remove points where switching function is < 1.0e-08
 Keep 1287 surface tesserae and discard 1391 interior tesserae
 Molecular Surface Area = 152.116 Angst**2
 A cutoff of  1.0D-14 yielded  10820 shell pairs
 There are     64686 function pairs (     80354 Cartesian)
 Smallest overlap matrix eigenvalue = 3.74E-06

 Scale SEOQF with 1.000000e-02/1.000000e-02/1.000000e-03

 Standard Electronic Orientation quadrupole field applied
 Nucleus-field energy     =     0.0000000384 hartrees
 Guess from superposition of atomic densities
 Warning:  Energy on first SCF cycle will be non-variational
 SAD guess density has 57.000000 electrons

 -----------------------------------------------------------------------
  General SCF calculation program by
  Eric Jon Sundstrom, Paul Horn, Yuezhi Mao, Dmitri Zuev, Alec White,
  David Stuck, Shaama M.S., Shane Yost, Joonho Lee, David Small,
  Daniel Levine, Susi Lehtola, Hugh Burton, Evgeny Epifanovsky,
  Bang C. Huynh
 -----------------------------------------------------------------------
 Exchange:     0.1670 Hartree-Fock + 1.0000 wB97X-V + LR-HF
 Correlation:  1.0000 wB97X-V
 Using Euler-Maclaurin-Lebedev (99,590) quadrature formula
 Nonlocal Correlation:  VV10 with C = 0.0100 and b = 6.00 and scale = 1.00000
 Grid used for NLC:  SG-1 standard quadrature
Energy prior to optimization (guess energy) = -323.657655738574
Begin Timing: Total SCF Calculation
begin iterations for algorithm: DIIS         
the SCF tolerance is set to 1.00e-08
    1    -323.6576557386      2.15e-03     00000 
    2    -323.8030214292      1.55e-03     00000 
    3    -323.8351383032      2.20e-04     00000 
    4    -323.8363716195      6.82e-05     00000 
    5    -323.8364889753      3.22e-05     00000 
    6    -323.8365083392      8.01e-06     00000 
    7    -323.8365096905      3.26e-06     00000 
    8    -323.8365098857      9.99e-07     00000 
    9    -323.8365099101      1.71e-07     00000 
   10    -323.8365099113      9.59e-08     00000 
   11    -323.8365099115      2.40e-08     00000 
   12    -323.8365099115      1.11e-08     00000 
   13    -323.8365099115      2.66e-09     00000 Convergence criterion met
Timing for Total SCF: 644.00s (wall), 4298.06s (cpu)
(3)  G-ENP(liq) elect-nuc-pol free energy of system     -323.836509912 a.u.
(4)  G-CDS(liq) cavity-dispersion-solvent structure 
     free energy                                                3.3076 kcal/mol
(6)  G-S(liq) free energy of system                     -323.831238985 a.u.
E_pcm = -0.1068150548
E_cds = 0.0052709265
Multipole orders to be included
        2
        3
computing dipole RHS
computing quadrupole RHS
total number of RHS in solve_reponses: 8
RHS batch sizes
        8
Beginning Block Conjugate Gradient Iterations. Batch Number: 0
computing hessian-vector products by finite difference
              1      4.76e-01     00000 Conjugate Gradient Iteration
computing hessian-vector products by finite difference
              2      1.75e-01     00000 Conjugate Gradient Iteration
computing hessian-vector products by finite difference
              3      4.99e-02     00000 Conjugate Gradient Iteration
computing hessian-vector products by finite difference
              4      1.46e-02     00000 Conjugate Gradient Iteration
computing hessian-vector products by finite difference
              5      2.32e-03     00000 Conjugate Gradient Iteration
computing hessian-vector products by finite difference
              6      4.55e-04     00000 Conjugate Gradient Iteration
computing hessian-vector products by finite difference
              7      7.50e-05     00000 Conjugate Gradient Iteration
computing hessian-vector products by finite difference
              8      1.43e-05     00000 Conjugate Gradient Iteration
computing hessian-vector products by finite difference
              9      2.24e-06     00000 Conjugate Gradient Iteration
computing hessian-vector products by finite difference
             10      3.32e-07     00000 Conjugate Gradient Iteration
computing hessian-vector products by finite difference
             11      4.66e-08     00000 Conjugate Gradient Iteration
computing hessian-vector products by finite difference
             12      5.66e-09     00000 CG Converged
batch 0 complete
Done Calculating Responses
TESTING ORTHOGONALIZATION OF MULTIPOLE BASIS
Multipole virts passed orthogonality test
Virts Per Order
           84
          140

 --------------------------------------------------------------

                    Orbital Energies (a.u.)
 --------------------------------------------------------------

 Alpha MOs
 -- Occupied --
-14.4538 -14.4530 -14.4437 -10.4261 -10.3083 -10.2612 -10.2474  -1.1669
 -1.0555  -1.0357  -0.9248  -0.8268  -0.7704  -0.7314  -0.7108  -0.6745
 -0.6201  -0.6101  -0.6023  -0.5772  -0.5512  -0.5336  -0.5131  -0.4512
 -0.4478  -0.4375  -0.3992  -0.3752
 -- Virtual --
  0.0601   0.0823   0.0851   0.0923   0.1003   0.1147   0.1182   0.1239
  0.1437   0.1496   0.1542   0.1693   0.1782   0.1895   0.1977   0.1984
  0.2029   0.2127   0.2199   0.2270   0.2347   0.2400   0.2492   0.2495
  0.2589   0.2607   0.2664   0.2838   0.2846   0.2919   0.2971   0.3033
  0.3087   0.3166   0.3215   0.3274   0.3320   0.3356   0.3429   0.3496
  0.3510   0.3569   0.3584   0.3704   0.3761   0.3767   0.3852   0.3958
  0.4008   0.4062   0.4138   0.4146   0.4257   0.4282   0.4317   0.4345
  0.4431   0.4525   0.4583   0.4656   0.4720   0.4784   0.4826   0.4856
  0.4916   0.4947   0.5031   0.5105   0.5144   0.5174   0.5202   0.5253
  0.5270   0.5279   0.5388   0.5469   0.5530   0.5582   0.5685   0.5733
  0.5867   0.5937   0.5953   0.6027   0.6125   0.6162   0.6204   0.6359
  0.6465   0.6578   0.6724   0.6828   0.6879   0.6964   0.7016   0.7110
  0.7185   0.7267   0.7375   0.7475   0.7603   0.7703   0.7742   0.7881
  0.7945   0.8066   0.8090   0.8123   0.8282   0.8338   0.8392   0.8464
  0.8551   0.8694   0.8852   0.8896   0.8968   0.9015   0.9141   0.9235
  0.9308   0.9401   0.9500   0.9555   0.9792   0.9829   1.0130   1.0190
  1.0338   1.0563   1.0715   1.0871   1.0956   1.1093   1.1335   1.1421
  1.1573   1.1778   1.1904   1.2048   1.2121   1.2373   1.2513   1.2794
  1.3079   1.3223   1.3379   1.3536   1.3832   1.4159   1.4401   1.4491
  1.4521   1.4542   1.4699   1.4920   1.5161   1.5426   1.5486   1.5659
  1.5769   1.6074   1.6712   1.6917   1.7037   1.7179   1.7603   1.8253
  1.8501   1.8913   1.9050   1.9128   1.9207   1.9337   1.9415   1.9496
  1.9654   1.9709   1.9942   2.0082   2.0100   2.0246   2.0446   2.0548
  2.1104   2.1217   2.1317   2.1581   2.1690   2.1828   2.1950   2.2322
  2.2406   2.2467   2.2799   2.2808   2.3081   2.3157   2.3468   2.3545
  2.3842   2.4292   2.4399   2.4786   2.4970   2.5200   2.5267   2.5479
  2.5626   2.5850   2.6025   2.6383   2.6507   2.6578   2.6669   2.6925
  2.7073   2.7313   2.7574   2.7830   2.7936   2.8081   2.8503   2.8618
  2.8818   2.8986   2.9105   2.9254   2.9325   2.9368   2.9938   3.0206
  3.0264   3.0580   3.0964   3.1289   3.1482   3.1573   3.1667   3.1744
  3.2118   3.2250   3.2343   3.2514   3.2662   3.2820   3.3009   3.3116
  3.3359   3.3461   3.3822   3.4092   3.4317   3.4385   3.4721   3.4780
  3.4970   3.5058   3.5220   3.5478   3.5623   3.5891   3.6039   3.6274
  3.6470   3.6640   3.6895   3.7182   3.7507   3.8166   3.8616   3.8719
  3.9110   3.9493   3.9654   4.0169   4.0408   4.0701   4.0998   4.1518
  4.1686   4.2022   4.2315   4.2801   4.3072   4.3124   4.3371   4.3418
  4.3663   4.4156   4.4515   4.5408   4.5706   4.6032   4.6438   4.7210
  4.7453   4.8511   4.8527   4.8576   4.8718   4.9122   4.9499   5.0103
  5.0233   5.0489   5.0694   5.1091   5.1235   5.1335   5.1477   5.2081
  5.2349   5.2588   5.3330   5.3761   5.3917   5.3982   5.4481   5.4534
  5.5123   5.5642   5.6045   5.6769   5.7333   5.8210   5.8449   5.9221
  6.1559   6.1772   6.4003   6.4591  22.6588  22.8375  22.8742  23.5761
 32.3403  32.5203  32.9040
 --------------------------------------------------------------

          Ground-State Mulliken Net Atomic Charges

     Atom                 Charge (a.u.)
  ----------------------------------------
      1 C                    -0.966173
      2 C                    -0.389338
      3 C                    -0.587018
      4 N                    -0.093858
      5 C                     0.332305
      6 N                    -0.246688
      7 N                    -0.325087
      8 H                     0.240710
      9 H                     0.266845
     10 H                     0.300740
     11 H                     0.249452
     12 H                     0.234187
     13 H                     0.392828
     14 H                     0.325135
     15 H                     0.312910
     16 H                     0.241529
     17 H                     0.227625
     18 H                     0.244845
     19 H                     0.239051
  ----------------------------------------
  Sum of atomic charges =     1.000000

 -----------------------------------------------------------------
                    Cartesian Multipole Moments
 -----------------------------------------------------------------
    Charge (ESU x 10^10)
                 4.8032
    Dipole Moment (Debye)
         X      41.7312      Y     -49.4270      Z      84.3503
       Tot     106.2991
    Quadrupole Moments (Debye-Ang)
        XX     332.0059     XY    -424.7932     YY     465.8073
        XZ     734.8692     YZ    -873.7227     ZZ    1453.9864
    Octopole Moments (Debye-Ang^2)
       XXX    2372.8618    XXY   -3327.8169    XYY    3960.1388
       YYY   -3880.0235    XXZ    5807.6104    XYZ   -7529.9265
       YYZ    8241.0978    XZZ   12714.0264    YZZ  -15153.4233
       ZZZ   24410.4784
    Hexadecapole Moments (Debye-Ang^3)
      XXXX   13997.2852   XXXY  -23151.6745   XXYY   30188.1218
      XYYY  -32513.2535   YYYY   25174.2935   XXXZ   40697.4235
      XXYZ  -58598.7022   XYYZ   70298.8470   YYYZ  -68077.3820
      XXZZ   99451.1499   XYZZ -131043.6001   YYZZ  142442.8765
      XZZZ  214610.3093   YZZZ -255886.6708   ZZZZ  393457.2384
 -----------------------------------------------------------------
Archival summary:
1\1\compute-0-8.local\SP\ProcedureUnspecified\BasisUnspecified\3412(1+,1)\meili\TueSep2117:04:562021TueSep2117:04:562021\0\\#,ProcedureUnspecified,BasisUnspecified,\\1,1\N\H,1,1.00952\C,1,1.32937,2,118.567\N,3,1.30859,1,121.635,2,175.711,0\H,4,1.01042,3,119.972,1,178.788,0\H,4,1.01046,3,120.013,1,-1.23533,0\N,3,1.36776,1,118.58,2,-6.68344,0\H,7,1.01,3,119.966,1,-178.86,0\H,7,1.01012,3,120.024,1,1.16672,0\C,1,1.49419,2,118.626,3,179.988,0\H,10,1.08953,1,111.248,2,118.414,0\H,10,1.09002,1,110.271,2,-122.494,0\C,10,1.49694,1,106.365,2,-2.91433,0\H,13,1.09002,10,107.154,1,50.912,0\H,13,1.0901,10,108.541,1,172.191,0\C,13,1.52049,10,113.381,1,-67.1449,0\H,16,1.08993,13,109.496,10,-103.389,0\H,16,1.08996,13,109.499,10,16.7219,0\H,16,1.09023,13,109.442,10,136.672,0\\\@

 Total job time:  13090.60s(wall), 83343.05s(cpu) 
 Tue Sep 21 17:04:56 2021

        *************************************************************
        *                                                           *
        *  Thank you very much for using Q-Chem.  Have a nice day.  *
        *                                                           *
        *************************************************************


Done Job For Fragment 0
calling putenv with: QCSCRATCH=/home/meili/scratch 
calling putenv with: QCTHREADS=8 
Creating input file /home/meili/scratch/qchem22177/Frg2.input
using default PutDataFrgm: nothing
calling putenv with: QCSCRATCH=/home/meili/scratch/qchem22177/ 
Spawning Job For Fragment 1
                  Welcome to Q-Chem
     A Quantum Leap Into The Future Of Chemistry


 Q-Chem 5.2 (devel), Q-Chem, Inc., Pleasanton, CA (2019)

 Yihan Shao,  Zhengting Gan,  E. Epifanovsky,  A. T. B. Gilbert,  M. Wormit,  
 J. Kussmann,  A. W. Lange,  A. Behn,  Jia Deng,  Xintian Feng,  D. Ghosh,  
 M. Goldey,  P. R. Horn,  L. D. Jacobson,  I. Kaliman,  T. Kus,  A. Landau,  
 Jie Liu,  E. I. Proynov,  R. M. Richard,  R. P. Steele,  E. J. Sundstrom,  
 H. L. Woodcock III,  P. M. Zimmerman,  D. Zuev,  B. Albrecht,  E. Alguire,  
 S. A. Baeppler,  D. Barton,  Z. Benda,  Y. A. Bernard,  E. J. Berquist,  
 K. B. Bravaya,  H. Burton,  D. Casanova,  Chun-Min Chang,  Yunqing Chen,  
 A. Chien,  K. D. Closser,  M. P. Coons,  S. Coriani,  S. Dasgupta,  
 A. L. Dempwolff,  M. Diedenhofen,  Hainam Do,  R. G. Edgar,  Po-Tung Fang,  
 S. Faraji,  S. Fatehi,  Qingguo Feng,  K. D. Fenk,  J. Fosso-Tande,  
 J. Gayvert,  Qinghui Ge,  A. Ghysels,  G. Gidofalvi,  J. Gomes,  
 J. Gonthier,  A. Gunina,  D. Hait,  M. W. D. Hanson-Heine,  
 P. H. P. Harbach,  A. W. Hauser,  M. F. Herbst,  J. E. Herr,  
 E. G. Hohenstein,  Z. C. Holden,  Kerwin Hui,  B. C. Huynh,  T.-C. Jagau,  
 Hyunjun Ji,  B. Kaduk,  K. Khistyaev,  Jaehoon Kim,  P. Klunzinger,  K. Koh,  
 D. Kosenkov,  L. Koulias,  T. Kowalczyk,  C. M. Krauter,  A. Kunitsa,  
 Ka Un Lao,  A. Laurent,  K. V. Lawler,  Joonho Lee,  D. Lefrancois,  
 S. Lehtola,  D. S. Levine,  Yi-Pei Li,  You-Sheng Lin,  Fenglai Liu,  
 E. Livshits,  A. Luenser,  P. Manohar,  E. Mansoor,  S. F. Manzer,  
 Shan-Ping Mao,  Yuezhi Mao,  N. Mardirossian,  A. V. Marenich,  
 T. Markovich,  L. A. Martinez-Martinez,  S. A. Maurer,  N. J. Mayhall,  
 S. C. McKenzie,  J.-M. Mewes,  P. Morgante,  A. F. Morrison,  
 J. W. Mullinax,  K. Nanda,  T. S. Nguyen-Beck,  R. Olivares-Amaya,  
 J. A. Parkhill,  Zheng Pei,  T. M. Perrine,  F. Plasser,  P. Pokhilko,  
 S. Prager,  A. Prociuk,  E. Ramos,  D. R. Rehn,  F. Rob,  M. Scheurer,  
 M. Schneider,  N. Sergueev,  S. M. Sharada,  S. Sharma,  D. W. Small,  
 T. Stauch,  T. Stein,  Yu-Chuan Su,  A. J. W. Thom,  A. Tkatchenko,  
 T. Tsuchimochi,  N. M. Tubman,  L. Vogt,  M. L. Vidal,  O. Vydrov,  
 M. A. Watson,  J. Wenzel,  M. de Wergifosse,  T. A. Wesolowski,  A. White,  
 J. Witte,  A. Yamada,  Jun Yang,  K. Yao,  S. Yeganeh,  S. R. Yost,  
 Zhi-Qiang You,  A. Zech,  Igor Ying Zhang,  Xing Zhang,  Yan Zhao,  
 Ying Zhu,  B. R. Brooks,  G. K. L. Chan,  C. J. Cramer,  M. S. Gordon,  
 W. J. Hehre,  A. Klamt,  M. W. Schmidt,  C. D. Sherrill,  D. G. Truhlar,  
 A. Aspuru-Guzik,  R. Baer,  A. T. Bell,  N. A. Besley,  Jeng-Da Chai,  
 A. E. DePrince, III,  R. A. DiStasio Jr.,  A. Dreuw,  B. D. Dunietz,  
 T. R. Furlani,  Chao-Ping Hsu,  Yousung Jung,  Jing Kong,  D. S. Lambrecht,  
 WanZhen Liang,  C. Ochsenfeld,  V. A. Rassolov,  L. V. Slipchenko,  
 J. E. Subotnik,  T. Van Voorhis,  J. M. Herbert,  A. I. Krylov,  
 P. M. W. Gill,  M. Head-Gordon

 Contributors to earlier versions of Q-Chem not listed above: 
 R. D. Adamson,  B. Austin,  J. Baker,  G. J. O. Beran,  K. Brandhorst,  
 S. T. Brown,  E. F. C. Byrd,  A. K. Chakraborty,  C.-L. Cheng,  
 Siu Hung Chien,  D. M. Chipman,  D. L. Crittenden,  H. Dachsel,  
 R. J. Doerksen,  A. D. Dutoi,  L. Fusti-Molnar,  W. A. Goddard III,  
 A. Golubeva-Zadorozhnaya,  S. R. Gwaltney,  G. Hawkins,  A. Heyden,  
 S. Hirata,  G. Kedziora,  F. J. Keil,  C. Kelley,  Jihan Kim,  R. A. King,  
 R. Z. Khaliullin,  P. P. Korambath,  W. Kurlancheek,  A. M. Lee,  M. S. Lee,  
 S. V. Levchenko,  Ching Yeh Lin,  D. Liotard,  R. C. Lochan,  I. Lotan,  
 P. E. Maslen,  N. Nair,  D. P. O'Neill,  D. Neuhauser,  E. Neuscamman,  
 C. M. Oana,  R. Olson,  B. Peters,  R. Peverati,  P. A. Pieniazek,  
 Y. M. Rhee,  J. Ritchie,  M. A. Rohrdanz,  E. Rosta,  N. J. Russ,  
 H. F. Schaefer III,  N. E. Schultz,  N. Shenvi,  A. C. Simmonett,  A. Sodt,  
 D. Stuck,  K. S. Thanthiriwatte,  V. Vanovschi,  Tao Wang,  A. Warshel,  
 C. F. Williams,  Q. Wu,  X. Xu,  W. Zhang

 Please cite Q-Chem as follows:
 Y. Shao et al., Mol. Phys. 113, 184-215 (2015)
 DOI: 10.1080/00268976.2014.952696

 Q-Chem 5.2.1 for Intel X86 EM64T Linux

 Parts of Q-Chem use Armadillo 8.300.2 (Tropical Shenanigans).
 http://arma.sourceforge.net/

 Q-Chem begins on Tue Sep 21 17:04:59 2021  

compute-0-8.local
Host: 0

     Scratch files written to /home/meili/scratch/qchem22177//Frg2//
NAlpha2: 56
NElect   56
Mult     1
Symmetry turned off for PCM/SM12/SMD calculation

Checking the input file for inconsistencies... 	...done.

--------------------------------------------------------------
User input:
--------------------------------------------------------------
$molecule
1 1
 6	0.9890000000	-8.7920000000	13.7320000000
 6	2.4910000000	-8.5810000000	13.7700000000
 6	3.2630000000	-9.1520000000	15.0160000000
 7	4.5200000000	-8.3840000000	15.0690000000
 6	5.1110000000	-7.8550000000	16.1730000000
 7	4.7690000000	-8.2830000000	17.3890000000
 7	6.0530000000	-6.9000000000	15.9650000000
 1	0.7580000000	-9.6480000000	13.0980000000
 1	0.6220000000	-8.9780000000	14.7410000000
 1	2.6230000000	-7.5010000000	13.8280000000
 1	2.9120000000	-9.0480000000	12.8800000000
 1	3.4410000000	-10.2240000000	14.9320000000
 1	2.6840000000	-9.0040000000	15.9280000000
 1	4.9940000000	-8.2350000000	14.1900000000
 1	5.2140000000	-7.8900000000	18.2060000000
 1	4.0650000000	-9.0000000000	17.4930000000
 1	6.2810000000	-6.6120000000	15.0240000000
 1	6.5260000000	-6.4770000000	16.7510000000
 1	0.5080000000	-7.9010000000	13.3290000000
$end
$rem
EDA2		1
METHOD		WB97X-V
BASIS		DEF2-TZVPD
XC_GRID		000099000590
NL_GRID		1
UNRESTRICTED		FALSE
MAX_SCF_CYCLES		200
SYMMETRY		FALSE
SYM_IGNORE		TRUE
BASIS_LIN_DEP_THRESH		6
THRESH		14
SCF_CONVERGENCE		8
SCF_PRINT_FRGM		TRUE
SOLVENT_METHOD		SMD
!required keywords
JOBTYPE		SP
SYM_IGNORE		TRUE
SUBSYSTEM		TRUE
GEN_SCFMAN		TRUE
CHILD_INSTRUCTION		2
SYM_IGNORE		TRUE
SCFMI		0
RI_K 0		
PARI_K 0		
MIN_PARI_K 0		
IARI_K 0		
OCC_RI_K 0		
PURECART		1111
MEM_STATIC		2000
MEM_TOTAL		2000
GUI		0
CHILD_MP		1
CHILD_MP_ORDERS		232
FRZ_RELAX		0
FRZ_RELAX_METHOD		0
EDA_CLS_ELEC		1
EDA_CLS_DISP		0
FRZ_ORTHO_DECOMP		1
EDA2		FALSE
FRGM_METHOD		FALSE
CIS_N_ROOTS  0
LOCAL_CIS    0
CIS_RLX_DNS  1
$end
$smx
SOLVENT			WATER
$end
--------------------------------------------------------------
 ----------------------------------------------------------------
             Standard Nuclear Orientation (Angstroms)
    I     Atom           X                Y                Z
 ----------------------------------------------------------------
    1      C       0.9890000000    -8.7920000000    13.7320000000
    2      C       2.4910000000    -8.5810000000    13.7700000000
    3      C       3.2630000000    -9.1520000000    15.0160000000
    4      N       4.5200000000    -8.3840000000    15.0690000000
    5      C       5.1110000000    -7.8550000000    16.1730000000
    6      N       4.7690000000    -8.2830000000    17.3890000000
    7      N       6.0530000000    -6.9000000000    15.9650000000
    8      H       0.7580000000    -9.6480000000    13.0980000000
    9      H       0.6220000000    -8.9780000000    14.7410000000
   10      H       2.6230000000    -7.5010000000    13.8280000000
   11      H       2.9120000000    -9.0480000000    12.8800000000
   12      H       3.4410000000   -10.2240000000    14.9320000000
   13      H       2.6840000000    -9.0040000000    15.9280000000
   14      H       4.9940000000    -8.2350000000    14.1900000000
   15      H       5.2140000000    -7.8900000000    18.2060000000
   16      H       4.0650000000    -9.0000000000    17.4930000000
   17      H       6.2810000000    -6.6120000000    15.0240000000
   18      H       6.5260000000    -6.4770000000    16.7510000000
   19      H       0.5080000000    -7.9010000000    13.3290000000
 ----------------------------------------------------------------
 Nuclear Repulsion Energy =         319.51683965 hartrees
 There are       28 alpha and       28 beta electrons
 Requested basis set is def2-TZVPD
 There are 151 shells and 367 basis functions

 Total QAlloc Memory Limit   2000 MB
 Mega-Array Size      1956 MB
 MEM_STATIC part      2000 MB

 Citation of the SMD model:
 Marenich, A.V.; Cramer, C.J.; Truhlar, D.G.
 J. Phys. Chem. B 2009, 113, 6378-6396.
 iSolventCode=           1
 Solvent: water                                                           

 vradii
            1           2           3           4           5           6
    1   1.8500000   1.8500000   1.8500000   1.8900000   1.8500000   1.8900000
            7           8           9          10          11          12
    1   1.8900000   1.2000000   1.2000000   1.2000000   1.2000000   1.2000000
           13          14          15          16          17          18
    1   1.2000000   1.2000000   1.2000000   1.2000000   1.2000000   1.2000000
           19
    1   1.2000000
 Changing PCM_VDW_RADII to SMD_RADIUS
 Discretize the solute cavity surface with Lebedev spheres
	Using 110 Lebedev grid points for each H atom
	Using 194 Lebedev grid points for other atoms
	Atomic van der Waals radii will be scaled by 1.20
 Remove points where switching function is < 1.0e-08
 Keep 1307 surface tesserae and discard 1371 interior tesserae
 Molecular Surface Area = 155.427 Angst**2
 A cutoff of  1.0D-14 yielded  10678 shell pairs
 There are     63848 function pairs (     79284 Cartesian)
 Smallest overlap matrix eigenvalue = 5.64E-06

 Scale SEOQF with 1.000000e-02/1.000000e-02/1.000000e-03

 Standard Electronic Orientation quadrupole field applied
 Nucleus-field energy     =     0.0000000174 hartrees
 Guess from superposition of atomic densities
 Warning:  Energy on first SCF cycle will be non-variational
 SAD guess density has 57.000000 electrons

 -----------------------------------------------------------------------
  General SCF calculation program by
  Eric Jon Sundstrom, Paul Horn, Yuezhi Mao, Dmitri Zuev, Alec White,
  David Stuck, Shaama M.S., Shane Yost, Joonho Lee, David Small,
  Daniel Levine, Susi Lehtola, Hugh Burton, Evgeny Epifanovsky,
  Bang C. Huynh
 -----------------------------------------------------------------------
 Exchange:     0.1670 Hartree-Fock + 1.0000 wB97X-V + LR-HF
 Correlation:  1.0000 wB97X-V
 Using Euler-Maclaurin-Lebedev (99,590) quadrature formula
 Nonlocal Correlation:  VV10 with C = 0.0100 and b = 6.00 and scale = 1.00000
 Grid used for NLC:  SG-1 standard quadrature
Energy prior to optimization (guess energy) = -323.648054226846
Begin Timing: Total SCF Calculation
begin iterations for algorithm: DIIS         
the SCF tolerance is set to 1.00e-08
    1    -323.6480542268      2.16e-03     00000 
    2    -323.7930817561      1.61e-03     00000 
    3    -323.8282214322      2.14e-04     00000 
    4    -323.8294371974      7.00e-05     00000 
    5    -323.8295603400      3.38e-05     00000 
    6    -323.8295833093      5.20e-06     00000 
    7    -323.8295843016      2.26e-06     00000 
    8    -323.8295844081      8.88e-07     00000 
    9    -323.8295844259      2.21e-07     00000 
   10    -323.8295844274      8.82e-08     00000 
   11    -323.8295844277      2.11e-08     00000 
   12    -323.8295844277      1.23e-08     00000 
   13    -323.8295844277      3.08e-09     00000 Convergence criterion met
Timing for Total SCF: 793.00s (wall), 4782.58s (cpu)
(3)  G-ENP(liq) elect-nuc-pol free energy of system     -323.829584428 a.u.
(4)  G-CDS(liq) cavity-dispersion-solvent structure 
     free energy                                                3.7323 kcal/mol
(6)  G-S(liq) free energy of system                     -323.823636621 a.u.
E_pcm = -0.1068011105
E_cds = 0.0059478062
Multipole orders to be included
        2
        3
computing dipole RHS
computing quadrupole RHS
total number of RHS in solve_reponses: 8
RHS batch sizes
        8
Beginning Block Conjugate Gradient Iterations. Batch Number: 0
computing hessian-vector products by finite difference
              1      4.87e-01     00000 Conjugate Gradient Iteration
computing hessian-vector products by finite difference
              2      1.81e-01     00000 Conjugate Gradient Iteration
computing hessian-vector products by finite difference
              3      5.24e-02     00000 Conjugate Gradient Iteration
computing hessian-vector products by finite difference
              4      1.48e-02     00000 Conjugate Gradient Iteration
computing hessian-vector products by finite difference
              5      2.17e-03     00000 Conjugate Gradient Iteration
computing hessian-vector products by finite difference
              6      4.22e-04     00000 Conjugate Gradient Iteration
computing hessian-vector products by finite difference
              7      7.65e-05     00000 Conjugate Gradient Iteration
computing hessian-vector products by finite difference
              8      1.43e-05     00000 Conjugate Gradient Iteration
computing hessian-vector products by finite difference
              9      2.43e-06     00000 Conjugate Gradient Iteration
computing hessian-vector products by finite difference
             10      3.76e-07     00000 Conjugate Gradient Iteration
computing hessian-vector products by finite difference
             11      9.63e-08     00000 Conjugate Gradient Iteration
computing hessian-vector products by finite difference
             12      2.17e-08     00000 Conjugate Gradient Iteration
computing hessian-vector products by finite difference
             13      3.92e-09     00000 CG Converged
batch 0 complete
Done Calculating Responses
TESTING ORTHOGONALIZATION OF MULTIPOLE BASIS
Multipole virts passed orthogonality test
Virts Per Order
           84
          140

 --------------------------------------------------------------

                    Orbital Energies (a.u.)
 --------------------------------------------------------------

 Alpha MOs
 -- Occupied --
-14.4547 -14.4510 -14.4494 -10.4341 -10.3101 -10.2630 -10.2471  -1.1591
 -1.0486  -1.0395  -0.9118  -0.8298  -0.7637  -0.7283  -0.7032  -0.6789
 -0.6180  -0.6155  -0.5967  -0.5701  -0.5577  -0.5224  -0.4998  -0.4688
 -0.4372  -0.4325  -0.4002  -0.3677
 -- Virtual --
  0.0605   0.0804   0.0853   0.0896   0.1004   0.1146   0.1240   0.1286
  0.1355   0.1485   0.1600   0.1632   0.1711   0.1855   0.1952   0.1983
  0.2047   0.2131   0.2198   0.2266   0.2347   0.2376   0.2440   0.2494
  0.2525   0.2596   0.2660   0.2821   0.2827   0.2920   0.2970   0.2998
  0.3030   0.3116   0.3146   0.3207   0.3289   0.3318   0.3401   0.3441
  0.3496   0.3560   0.3635   0.3658   0.3809   0.3838   0.3842   0.3904
  0.3947   0.3995   0.4030   0.4060   0.4150   0.4194   0.4309   0.4336
  0.4389   0.4487   0.4511   0.4587   0.4656   0.4693   0.4755   0.4836
  0.4874   0.4937   0.4980   0.5016   0.5026   0.5081   0.5166   0.5217
  0.5242   0.5251   0.5348   0.5460   0.5526   0.5612   0.5728   0.5797
  0.5877   0.5894   0.5919   0.6043   0.6088   0.6146   0.6243   0.6289
  0.6359   0.6431   0.6581   0.6647   0.6720   0.6829   0.6876   0.7064
  0.7180   0.7270   0.7350   0.7405   0.7514   0.7636   0.7695   0.7816
  0.7950   0.7965   0.8100   0.8160   0.8227   0.8291   0.8352   0.8387
  0.8485   0.8579   0.8602   0.8770   0.8972   0.9068   0.9136   0.9222
  0.9355   0.9376   0.9605   0.9708   0.9895   0.9986   1.0016   1.0153
  1.0224   1.0445   1.0524   1.0723   1.0861   1.0981   1.1087   1.1194
  1.1333   1.1541   1.1647   1.1963   1.2109   1.2308   1.2381   1.2721
  1.2977   1.3127   1.3155   1.3430   1.3918   1.3928   1.4133   1.4337
  1.4418   1.4549   1.4649   1.4898   1.5078   1.5321   1.5484   1.5714
  1.5955   1.6011   1.6565   1.6705   1.7259   1.7419   1.7622   1.8266
  1.8505   1.8637   1.8873   1.8919   1.9083   1.9162   1.9291   1.9420
  1.9632   1.9679   1.9822   2.0064   2.0130   2.0244   2.0391   2.0483
  2.0559   2.0764   2.1081   2.1142   2.1400   2.1849   2.2065   2.2161
  2.2349   2.2536   2.2559   2.2762   2.2892   2.3108   2.3461   2.3705
  2.4081   2.4178   2.4323   2.4566   2.4606   2.4932   2.5144   2.5206
  2.5460   2.5525   2.5986   2.6202   2.6253   2.6303   2.6518   2.6675
  2.6898   2.7038   2.7217   2.7809   2.7921   2.8064   2.8234   2.8541
  2.8643   2.8914   2.9101   2.9151   2.9431   2.9528   2.9652   2.9973
  3.0195   3.0600   3.0845   3.0886   3.1139   3.1269   3.1415   3.1486
  3.1723   3.1773   3.2087   3.2656   3.2732   3.2785   3.2973   3.3106
  3.3268   3.3392   3.3589   3.3656   3.4038   3.4075   3.4658   3.4730
  3.4922   3.5149   3.5339   3.5443   3.5614   3.5849   3.5917   3.6084
  3.6458   3.6680   3.6801   3.7006   3.7343   3.7816   3.8079   3.8559
  3.8829   3.9174   3.9350   3.9627   4.0068   4.0608   4.0973   4.1216
  4.1406   4.1470   4.1962   4.2068   4.2313   4.2889   4.3183   4.3434
  4.3536   4.4131   4.4404   4.4944   4.5678   4.6048   4.6342   4.7196
  4.7264   4.8007   4.8494   4.8591   4.8657   4.9011   4.9234   4.9814
  4.9943   5.0113   5.0446   5.0709   5.1066   5.1393   5.1670   5.1829
  5.2154   5.2665   5.3105   5.3597   5.3839   5.3913   5.4244   5.4481
  5.4953   5.5428   5.6026   5.6492   5.6889   5.7715   5.7940   5.8549
  6.1407   6.1541   6.3448   6.4127  22.6316  22.7806  22.8086  23.4320
 32.3262  32.4853  32.9017
 --------------------------------------------------------------

          Ground-State Mulliken Net Atomic Charges

     Atom                 Charge (a.u.)
  ----------------------------------------
      1 C                    -1.036393
      2 C                    -0.072456
      3 C                    -0.693985
      4 N                    -0.103056
      5 C                     0.394073
      6 N                    -0.264995
      7 N                    -0.310834
      8 H                     0.242790
      9 H                     0.274258
     10 H                     0.230778
     11 H                     0.261084
     12 H                     0.206252
     13 H                     0.332997
     14 H                     0.294243
     15 H                     0.250874
     16 H                     0.239043
     17 H                     0.256915
     18 H                     0.247600
     19 H                     0.250813
  ----------------------------------------
  Sum of atomic charges =     1.000000

 -----------------------------------------------------------------
                    Cartesian Multipole Moments
 -----------------------------------------------------------------
    Charge (ESU x 10^10)
                 4.8032
    Dipole Moment (Debye)
         X      23.8817      Y     -37.9778      Z      77.2894
       Tot      89.3661
    Quadrupole Moments (Debye-Ang)
        XX      83.0942     XY    -180.5186     YY     262.6591
        XZ     385.7713     YZ    -610.5651     ZZ    1215.6440
    Octopole Moments (Debye-Ang^2)
       XXX     218.8683    XXY    -553.5705    XYY    1228.0136
       YYY   -1430.7334    XXZ    1386.7333    XYZ   -2913.6294
       YYZ    4253.1720    XZZ    6144.0873    YZZ   -9580.4069
       ZZZ   18771.0193
    Hexadecapole Moments (Debye-Ang^3)
      XXXX    -395.3792   XXXY    -983.6976   XXYY    2938.7159
      XYYY   -6989.2171   YYYY    2818.3061   XXXZ    3789.7441
      XXYZ   -9320.9813   XYYZ   19868.5767   YYYZ  -23850.7977
      XXZZ   22642.1744   XYZZ  -46310.6471   YYZZ   66758.3378
      XZZZ   96649.1029   YZZZ -147411.0295   ZZZZ  285060.5049
 -----------------------------------------------------------------
Archival summary:
1\1\compute-0-8.local\SP\ProcedureUnspecified\BasisUnspecified\3412(1+,1)\meili\TueSep2121:29:222021TueSep2121:29:222021\0\\#,ProcedureUnspecified,BasisUnspecified,\\1,1\N\H,1,1.00971\C,1,1.35939,2,116.454\N,3,1.33372,1,120.271,2,-162.364,0\H,4,1.00993,3,119.98,1,179.713,0\H,4,1.01021,3,120.022,1,-0.29304,0\N,3,1.35744,1,116.81,2,17.0578,0\H,7,1.01015,3,119.997,1,0.288461,0\H,7,1.01018,3,120.02,1,-179.726,0\C,1,1.474,2,116.482,3,-179.966,0\H,10,1.08992,1,112.084,2,78.4359,0\H,10,1.09036,1,110.612,2,-162.823,0\C,10,1.57307,1,104.943,2,-43.461,0\H,13,1.08958,10,104.962,1,-42.4949,0\H,13,1.08969,10,107.564,1,80.3365,0\C,13,1.51722,10,117.077,1,-158.461,0\H,16,1.08966,13,109.51,10,21.2624,0\H,16,1.08979,13,109.421,10,141.254,0\H,16,1.08998,13,109.487,10,-98.7589,0\\\@

 Total job time:  15862.40s(wall), 96656.62s(cpu) 
 Tue Sep 21 21:29:22 2021

        *************************************************************
        *                                                           *
        *  Thank you very much for using Q-Chem.  Have a nice day.  *
        *                                                           *
        *************************************************************


Done Job For Fragment 1
calling putenv with: QCSCRATCH=/home/meili/scratch 
calling putenv with: QCTHREADS=8 
Doing General SCFMI
 Exchange:     0.1670 Hartree-Fock + 1.0000 wB97X-V + LR-HF
 Correlation:  1.0000 wB97X-V
 Using Euler-Maclaurin-Lebedev (99,590) quadrature formula
 Nonlocal Correlation:  VV10 with C = 0.0100 and b = 6.00 and scale = 1.00000
 Grid used for NLC:  SG-1 standard quadrature
performing fock build before subrot guess so that all methods have access
Printing subrot_rss_gen Method Specification:
Occupied Subspace Method is 0
Virtual Subspace Method is 0
Energy of the unrelaxed supersystem initial determinant -647.357403638985
performing fock build before subrot guess so that all methods have access
Printing subrot_rss_gen Method Specification:
Occupied Subspace Method is 0
Virtual Subspace Method is 0
Energy of the unrelaxed supersystem initial determinant w/ solvent -647.667181850836
write pseudocanon occs and virts to disk
write pseudocanon orbital energies to disk
Tolerance of ortho_decomp_scf: 1.00e-06
GDM subspace size: 20
Beginning the Orthogonal Decomposition of the Initial Supersystem Wavefunction
    1    -647.4466176063      1.01e-02     ortho_decomp Preconditoned Steepest Descent
    2    -647.4470707900      2.14e-04     ortho_decomp BFGS Step
    3    -647.4470717754      1.24e-05     ortho_decomp BFGS Step
    4    -647.4470717764      3.78e-07     ortho_decomp 00000 Convergence criterion met
 Hartree-Fock
 Hartree-Fock
 Hartree-Fock
Doing General SCFMI
 Exchange:     0.1670 Hartree-Fock + 1.0000 wB97X-V + LR-HF
 Correlation:  1.0000 wB97X-V
 Using Euler-Maclaurin-Lebedev (99,590) quadrature formula
 Nonlocal Correlation:  VV10 with C = 0.0100 and b = 6.00 and scale = 1.00000
 Grid used for NLC:  SG-1 standard quadrature
performing fock build at end of subrot_r(subrot) constructor so that all methods have access
<S^2> of initial wavefunction before polarization iterations 0.0000000000
Beginning iterations for the determination of the polarized wavefunction
Energy prior to optimization (guess energy) = -647.667181850836
Begin Timing: Total SCF Calculation
begin iterations for algorithm: DIIS         
the SCF tolerance is set to 1.00e-08
    1    -647.6671818508      2.05e-05     00000 
    2    -647.6672370294      9.57e-06     00000 
    3    -647.6672438369      5.34e-06     00000 
    4    -647.6672462129      1.14e-06     00000 
    5    -647.6672463731      5.89e-07     00000 
    6    -647.6672464120      1.13e-07     00000 
    7    -647.6672464138      5.84e-08     00000 
    8    -647.6672464141      1.36e-08     00000 
    9    -647.6672464141      6.56e-09     00000 Convergence criterion met
write pseudocanon occs and virts to disk
write pseudocanon orbital energies to disk
Timing for Total SCF: 4728.00s (wall), 29174.52s (cpu)
<S^2> of polarized wavefunction after polarization iterations 0.0000000000
relaxing scfmi constraint to allow all rotations in the entire AO span
Doing General SCFMI
 Exchange:     0.1670 Hartree-Fock + 1.0000 wB97X-V + LR-HF
 Correlation:  1.0000 wB97X-V
 Using Euler-Maclaurin-Lebedev (99,590) quadrature formula
 Nonlocal Correlation:  VV10 with C = 0.0100 and b = 6.00 and scale = 1.00000
 Grid used for NLC:  SG-1 standard quadrature
performing fock build at end of subrot_r(subrot) constructor so that all methods have access
<S^2> of polarized wavefunction before ct-allowed iterations 0.0000000000
Beginning iterations for the determination of the CT-Allowed wavefunction
Energy prior to optimization (guess energy) = -647.667246414130
Begin Timing: Total SCF Calculation
begin iterations for algorithm: DIIS         
the SCF tolerance is set to 1.00e-08
    1    -647.6672464141      4.20e-05     00000 
    2    -647.6676401169      3.59e-06     00000 
    3    -647.6676489105      5.31e-07     00000 
    4    -647.6676491659      2.39e-07     00000 
    5    -647.6676491813      7.66e-08     00000 
    6    -647.6676491843      2.15e-08     00000 
    7    -647.6676491846      9.22e-09     00000 Convergence criterion met
write pseudocanon occs and virts to disk
write pseudocanon orbital energies to disk
Timing for Total SCF: 3703.00s (wall), 23532.76s (cpu)
<S^2> of ct_allowed wavefunction after ct-allowed iterations 0.0000000000

================================
        Results of EDA2         
================================
Basic EDA Quantities
--------------------
Fragment Energies (Ha):
1 -323.8312389851
2 -323.8236366214
--------------------
  E_prp (kJ/mol) = 0.0000
  E_sol (kJ/mol) = -253.5969
  E_frz (kJ/mol) = 249.6212
  E_pol (kJ/mol) = -0.1695
  E_vct (kJ/mol) = -1.0575
  E_int (kJ/mol) = -5.2027
--------------------


Initial Wavefunction Decomposition
--------------------
  --------------------
  Orthogonal Fragment Subspace Decomposition:
  --------------------
     E_elec   (ELEC)   (kJ/mol) = 248.2126
     E_pauli  (PAULI)  (kJ/mol) = 10.8407
     E_disp   (DISP)   (kJ/mol) = -9.4321
     --------------------
     Terms summing to E_pauli:
     --------------------
        E_kep_pauli       (kJ/mol) = 14.1947
        E_disp_free_pauli (kJ/mol) = -3.3539
  --------------------
  Classical Frozen Decomposition:
  --------------------
     E_cls_elec  (CLS ELEC)  (kJ/mol) = 253.6818
     E_cls_pauli (CLS PAULI) (kJ/mol) = -4.0606
    [E_mod_pauli (MOD PAULI) (kJ/mol) = 5.3715 (CLS PAULI - DISP from orthogonal decomposition) ]
  --------------------
--------------------

Simplified EDA Summary (kJ/mol)
--------------------
 PREPARATION     0.0000
 SOLVATION       -253.5969
 FROZEN          259.0533      (does not include dispersion)
[PAULI           10.8407]     (if this is negligible, then frozen describes electrostatics)
 DISPERSION      -9.4321
 POLARIZATION    -0.1695
 CHARGE TRANSFER -1.0575
 TOTAL           -5.2027     (PRP + SOL + FRZ + DISP + POL + CT)
--------------------

 --------------------------------------------------------------

                    Orbital Energies (a.u.)
 --------------------------------------------------------------

 Alpha MOs
 -- Occupied --
-14.4562 -14.4552 -14.4543 -14.4527 -14.4509 -14.4451 -10.4355 -10.4275
-10.3114 -10.3094 -10.2640 -10.2622 -10.2485 -10.2479  -1.1683  -1.1605
 -1.0567  -1.0501  -1.0409  -1.0371  -0.9259  -0.9129  -0.8310  -0.8279
 -0.7717  -0.7651  -0.7326  -0.7295  -0.7121  -0.7045  -0.6802  -0.6758
 -0.6215  -0.6195  -0.6170  -0.6114  -0.6039  -0.5977  -0.5784  -0.5713
 -0.5598  -0.5516  -0.5347  -0.5235  -0.5141  -0.5009  -0.4698  -0.4523
 -0.4489  -0.4386  -0.4382  -0.4334  -0.4022  -0.3999  -0.3765  -0.3690
 -- Virtual --
  0.0515   0.0695   0.0751   0.0762   0.0790   0.0872   0.0881   0.0968
  0.0979   0.1038   0.1098   0.1145   0.1211   0.1240   0.1294   0.1342
  0.1380   0.1445   0.1462   0.1552   0.1572   0.1637   0.1688   0.1715
  0.1746   0.1818   0.1860   0.1909   0.1946   0.1974   0.2003   0.2106
  0.2118   0.2166   0.2174   0.2210   0.2230   0.2275   0.2297   0.2353
  0.2374   0.2425   0.2445   0.2486   0.2528   0.2610   0.2620   0.2633
  0.2653   0.2696   0.2771   0.2799   0.2827   0.2860   0.2887   0.2911
  0.2934   0.2968   0.3004   0.3031   0.3049   0.3052   0.3101   0.3151
  0.3177   0.3229   0.3253   0.3284   0.3292   0.3305   0.3363   0.3403
  0.3440   0.3446   0.3477   0.3494   0.3521   0.3548   0.3582   0.3592
  0.3625   0.3633   0.3671   0.3759   0.3784   0.3799   0.3835   0.3877
  0.3893   0.3915   0.3927   0.3969   0.4002   0.4045   0.4059   0.4104
  0.4121   0.4140   0.4158   0.4170   0.4200   0.4245   0.4276   0.4289
  0.4358   0.4387   0.4414   0.4449   0.4457   0.4507   0.4537   0.4587
  0.4613   0.4654   0.4670   0.4684   0.4738   0.4746   0.4776   0.4791
  0.4852   0.4863   0.4891   0.4942   0.4950   0.4979   0.4996   0.5024
  0.5026   0.5081   0.5107   0.5150   0.5166   0.5197   0.5220   0.5224
  0.5265   0.5301   0.5311   0.5346   0.5371   0.5419   0.5471   0.5534
  0.5550   0.5576   0.5601   0.5633   0.5659   0.5662   0.5736   0.5789
  0.5802   0.5878   0.5927   0.5957   0.5996   0.6006   0.6023   0.6126
  0.6133   0.6138   0.6150   0.6208   0.6238   0.6282   0.6357   0.6391
  0.6444   0.6466   0.6585   0.6599   0.6620   0.6700   0.6738   0.6776
  0.6831   0.6845   0.6920   0.6948   0.7003   0.7073   0.7078   0.7103
  0.7175   0.7184   0.7288   0.7303   0.7317   0.7376   0.7417   0.7495
  0.7517   0.7534   0.7626   0.7647   0.7686   0.7728   0.7754   0.7804
  0.7864   0.7881   0.7935   0.7965   0.8009   0.8024   0.8036   0.8088
  0.8169   0.8210   0.8223   0.8285   0.8294   0.8309   0.8408   0.8463
  0.8494   0.8504   0.8556   0.8615   0.8648   0.8683   0.8761   0.8816
  0.8832   0.8895   0.8934   0.8963   0.9059   0.9077   0.9131   0.9170
  0.9274   0.9304   0.9366   0.9406   0.9449   0.9525   0.9589   0.9630
  0.9700   0.9751   0.9802   0.9851   0.9922   0.9996   1.0022   1.0059
  1.0164   1.0224   1.0244   1.0338   1.0459   1.0579   1.0598   1.0639
  1.0695   1.0735   1.0767   1.0902   1.0961   1.0997   1.1040   1.1107
  1.1263   1.1282   1.1358   1.1448   1.1489   1.1539   1.1656   1.1726
  1.1831   1.1904   1.1981   1.2116   1.2129   1.2196   1.2294   1.2391
  1.2468   1.2514   1.2641   1.2724   1.2754   1.2838   1.3141   1.3149
  1.3305   1.3383   1.3404   1.3473   1.3523   1.3686   1.3888   1.3917
  1.4033   1.4101   1.4183   1.4326   1.4411   1.4516   1.4615   1.4652
  1.4690   1.4831   1.4908   1.5009   1.5047   1.5251   1.5319   1.5340
  1.5406   1.5476   1.5523   1.5603   1.5663   1.5759   1.5918   1.6124
  1.6148   1.6266   1.6388   1.6638   1.6757   1.7001   1.7047   1.7155
  1.7397   1.7472   1.7665   1.7690   1.7834   1.8066   1.8357   1.8462
  1.8651   1.8745   1.8882   1.9017   1.9103   1.9162   1.9199   1.9246
  1.9291   1.9378   1.9425   1.9437   1.9548   1.9551   1.9665   1.9760
  1.9773   1.9838   1.9919   1.9970   2.0019   2.0051   2.0125   2.0192
  2.0287   2.0330   2.0433   2.0471   2.0583   2.0669   2.0742   2.0868
  2.1068   2.1259   2.1288   2.1383   2.1401   2.1534   2.1633   2.1660
  2.1750   2.1900   2.1923   2.2063   2.2184   2.2220   2.2321   2.2454
  2.2623   2.2699   2.2715   2.2785   2.2881   2.2950   2.3013   2.3132
  2.3237   2.3322   2.3347   2.3448   2.3596   2.3734   2.3809   2.3865
  2.4155   2.4251   2.4445   2.4592   2.4653   2.4711   2.4745   2.4891
  2.5108   2.5139   2.5236   2.5268   2.5364   2.5431   2.5517   2.5814
  2.5868   2.5920   2.6087   2.6120   2.6249   2.6384   2.6397   2.6463
  2.6582   2.6643   2.6746   2.6863   2.6890   2.7010   2.7063   2.7148
  2.7220   2.7259   2.7345   2.7506   2.7622   2.7703   2.7904   2.7989
  2.8013   2.8142   2.8185   2.8352   2.8461   2.8678   2.8715   2.8805
  2.8925   2.9002   2.9051   2.9067   2.9238   2.9299   2.9383   2.9501
  2.9560   2.9642   2.9708   3.0016   3.0034   3.0189   3.0268   3.0361
  3.0391   3.0478   3.0622   3.0675   3.0971   3.1026   3.1197   3.1323
  3.1412   3.1548   3.1573   3.1645   3.1758   3.1801   3.1913   3.1960
  3.2063   3.2123   3.2233   3.2378   3.2436   3.2536   3.2690   3.2776
  3.2898   3.2929   3.2935   3.3031   3.3067   3.3194   3.3238   3.3329
  3.3407   3.3543   3.3624   3.3754   3.3775   3.3877   3.3937   3.4089
  3.4279   3.4316   3.4423   3.4451   3.4776   3.4805   3.4893   3.4911
  3.5001   3.5027   3.5200   3.5276   3.5346   3.5403   3.5508   3.5628
  3.5782   3.5808   3.5953   3.6017   3.6087   3.6143   3.6180   3.6442
  3.6599   3.6718   3.6761   3.6862   3.6882   3.7004   3.7122   3.7309
  3.7423   3.7586   3.7860   3.8188   3.8228   3.8646   3.8679   3.8789
  3.8945   3.9153   3.9280   3.9456   3.9542   3.9702   3.9761   4.0113
  4.0196   4.0442   4.0710   4.0779   4.1038   4.1187   4.1252   4.1525
  4.1571   4.1606   4.1745   4.2066   4.2071   4.2217   4.2382   4.2442
  4.2822   4.2982   4.3118   4.3250   4.3298   4.3440   4.3470   4.3496
  4.3604   4.3895   4.4188   4.4226   4.4527   4.4585   4.4990   4.5441
  4.5734   4.5748   4.6089   4.6146   4.6386   4.6491   4.7252   4.7282
  4.7355   4.7482   4.8030   4.8522   4.8555   4.8574   4.8711   4.8858
  4.8942   4.9109   4.9154   4.9275   4.9384   4.9750   4.9925   5.0074
  5.0199   5.0241   5.0453   5.0570   5.0624   5.0774   5.0814   5.1209
  5.1232   5.1413   5.1462   5.1482   5.1636   5.1866   5.1934   5.2226
  5.2299   5.2508   5.2776   5.3030   5.3311   5.3475   5.3735   5.3921
  5.3951   5.3975   5.4120   5.4182   5.4332   5.4570   5.4665   5.4750
  5.5074   5.5281   5.5587   5.5773   5.6209   5.6257   5.6604   5.6948
  5.7027   5.7624   5.7859   5.8025   5.8354   5.8570   5.8648   5.9316
  6.1494   6.1599   6.1649   6.1906   6.3527   6.4086   6.4284   6.4726
 22.6379  22.6693  22.7897  22.8296  22.8460  22.8885  23.4423  23.5933
 32.3925  32.4263  32.5485  32.5771  32.9166  32.9384
 --------------------------------------------------------------

          Ground-State Mulliken Net Atomic Charges

     Atom                 Charge (a.u.)
  ----------------------------------------
      1 C                    -0.952841
      2 C                    -0.382029
      3 C                    -0.595018
      4 N                    -0.086180
      5 C                     0.331663
      6 N                    -0.257000
      7 N                    -0.302512
      8 H                     0.237794
      9 H                     0.266701
     10 H                     0.289510
     11 H                     0.246474
     12 H                     0.226001
     13 H                     0.393905
     14 H                     0.330243
     15 H                     0.321098
     16 H                     0.251089
     17 H                     0.219009
     18 H                     0.228096
     19 H                     0.220824
     20 C                    -1.053280
     21 C                    -0.054915
     22 C                    -0.724161
     23 N                    -0.096898
     24 C                     0.433354
     25 N                    -0.276527
     26 N                    -0.337991
     27 H                     0.245352
     28 H                     0.277788
     29 H                     0.234683
     30 H                     0.258423
     31 H                     0.202627
     32 H                     0.350798
     33 H                     0.308121
     34 H                     0.255969
     35 H                     0.226963
     36 H                     0.250018
     37 H                     0.260485
     38 H                     0.252363
  ----------------------------------------
  Sum of atomic charges =     2.000000

 -----------------------------------------------------------------
                    Cartesian Multipole Moments
 -----------------------------------------------------------------
    Charge (ESU x 10^10)
                 9.6064
    Dipole Moment (Debye)
         X      65.6027      Y     -87.4031      Z     161.6416
       Tot     195.1180
    Quadrupole Moments (Debye-Ang)
        XX     415.1714     XY    -605.2937     YY     728.4592
        XZ    1120.6368     YZ   -1484.3684     ZZ    2669.7979
    Octopole Moments (Debye-Ang^2)
       XXX    2593.9803    XXY   -3883.1874    XYY    5188.9269
       YYY   -5311.0821    XXZ    7197.4083    XYZ  -10445.4605
       YYZ   12496.1331    XZZ   18861.5192    YZZ  -24738.1686
       ZZZ   43188.6885
    Hexadecapole Moments (Debye-Ang^3)
      XXXX   13636.7208   XXXY  -24169.3998   XXYY   33156.5396
      XYYY  -39521.2317   YYYY   28002.5509   XXXZ   44543.9143
      XXYZ  -67972.8255   XYYZ   90208.3575   YYYZ  -91962.5504
      XXZZ  122182.6743   XYZZ -177431.4840   YYZZ  209278.6115
      XZZZ  311390.8695   YZZZ -403444.5653   ZZZZ  678757.0012
 -----------------------------------------------------------------
Archival summary:
1\1\compute-0-8.local\SP\ProcedureUnspecified\BasisUnspecified\6824(2+,1)\meili\WedSep2201:47:552021WedSep2201:47:552021\0\\#,ProcedureUnspecified,BasisUnspecified,\\2,1\N\H,1,1.00952\C,1,1.32937,2,118.567\N,3,1.30859,1,121.635,2,175.711,0\H,4,1.01042,3,119.972,1,178.788,0\H,4,1.01046,3,120.013,1,-1.23533,0\N,3,1.36776,1,118.58,2,-6.68344,0\H,7,1.01,3,119.966,1,-178.86,0\H,7,1.01012,3,120.024,1,1.16672,0\C,1,1.49419,2,118.626,3,179.988,0\H,10,1.08953,1,111.248,2,118.414,0\H,10,1.09002,1,110.271,2,-122.494,0\C,10,1.49694,1,106.365,2,-2.91433,0\H,13,1.09002,10,107.154,1,50.912,0\H,13,1.0901,10,108.541,1,172.191,0\C,13,1.52049,10,113.381,1,-67.1449,0\H,16,1.08993,13,109.496,10,-103.389,0\H,16,1.08996,13,109.499,10,16.7219,0\H,16,1.09023,13,109.442,10,136.672,0\N,9,3.15543,7,109.567,3,94.9723,0\H,20,1.00993,9,102.974,7,-59.5452,0\H,20,1.01021,9,86.2121,7,-179.475,0\C,20,1.33372,9,80.8923,7,59.2973,0\N,23,1.35744,20,122.917,9,-99.4608,0\H,24,1.01015,23,119.997,20,179.693,0\H,24,1.01018,23,120.02,20,-0.321021,0\N,23,1.35939,20,120.271,9,79.9243,0\H,27,1.00971,23,116.454,20,-162.364,0\C,27,1.474,23,127.064,20,17.5976,0\H,29,1.08992,27,112.084,23,-101.526,0\H,29,1.09036,27,110.612,23,17.215,0\C,29,1.57307,27,104.943,23,136.577,0\H,32,1.08958,29,104.962,27,-42.4949,0\H,32,1.08969,29,107.564,27,80.3365,0\C,32,1.51722,29,117.077,27,-158.461,0\H,35,1.08966,32,109.51,29,21.2624,0\H,35,1.08979,32,109.421,29,141.254,0\H,35,1.08998,32,109.487,29,-98.7589,0\\\@

 Total job time:  44576.13s(wall), 99990.54s(cpu) 
 Wed Sep 22 01:47:55 2021

        *************************************************************
        *                                                           *
        *  Thank you very much for using Q-Chem.  Have a nice day.  *
        *                                                           *
        *************************************************************


