
Running Job 1 of 1 qchem_eda_08_cation_anion_2.in
qchem qchem_eda_08_cation_anion_2.in_11628.0 /tmp/qchem11628/ 0
/global/common/cori/software/qchem/5.2/exe/qcprog.exe_s qchem_eda_08_cation_anion_2.in_11628.0 /tmp/qchem11628/
                  Welcome to Q-Chem
     A Quantum Leap Into The Future Of Chemistry


 Q-Chem 5.2, Q-Chem, Inc., Pleasanton, CA (2019)

 License issued to: National Energy Research Scientific Computing Center

 Yihan Shao,  Zhengting Gan,  E. Epifanovsky,  A. T. B. Gilbert,  M. Wormit,  
 J. Kussmann,  A. W. Lange,  A. Behn,  Jia Deng,  Xintian Feng,  D. Ghosh,  
 M. Goldey,  P. R. Horn,  L. D. Jacobson,  I. Kaliman,  T. Kus,  A. Landau,  
 Jie Liu,  E. I. Proynov,  R. M. Richard,  R. P. Steele,  E. J. Sundstrom,  
 H. L. Woodcock III,  P. M. Zimmerman,  D. Zuev,  B. Albrecht,  E. Alguire,  
 S. A. Baeppler,  D. Barton,  Z. Benda,  Y. A. Bernard,  E. J. Berquist,  
 K. B. Bravaya,  H. Burton,  D. Casanova,  Chun-Min Chang,  Yunqing Chen,  
 A. Chien,  K. D. Closser,  M. P. Coons,  S. Coriani,  S. Dasgupta,  
 A. L. Dempwolff,  M. Diedenhofen,  Hainam Do,  R. G. Edgar,  Po-Tung Fang,  
 S. Faraji,  S. Fatehi,  Qingguo Feng,  K. D. Fenk,  J. Fosso-Tande,  
 J. Gayvert,  Qinghui Ge,  A. Ghysels,  G. Gidofalvi,  J. Gomes,  
 J. Gonthier,  A. Gunina,  D. Hait,  M. W. D. Hanson-Heine,  
 P. H. P. Harbach,  A. W. Hauser,  M. F. Herbst,  J. E. Herr,  
 E. G. Hohenstein,  Z. C. Holden,  Kerwin Hui,  B. C. Huynh,  T.-C. Jagau,  
 Hyunjun Ji,  B. Kaduk,  K. Khistyaev,  Jaehoon Kim,  P. Klunzinger,  K. Koh,  
 D. Kosenkov,  L. Koulias,  T. Kowalczyk,  C. M. Krauter,  A. Kunitsa,  
 Ka Un Lao,  A. Laurent,  K. V. Lawler,  Joonho Lee,  D. Lefrancois,  
 S. Lehtola,  D. S. Levine,  Yi-Pei Li,  You-Sheng Lin,  Fenglai Liu,  
 E. Livshits,  A. Luenser,  P. Manohar,  E. Mansoor,  S. F. Manzer,  
 Shan-Ping Mao,  Yuezhi Mao,  N. Mardirossian,  A. V. Marenich,  
 T. Markovich,  L. A. Martinez-Martinez,  S. A. Maurer,  N. J. Mayhall,  
 S. C. McKenzie,  J.-M. Mewes,  P. Morgante,  A. F. Morrison,  
 J. W. Mullinax,  K. Nanda,  T. S. Nguyen-Beck,  R. Olivares-Amaya,  
 J. A. Parkhill,  Zheng Pei,  T. M. Perrine,  F. Plasser,  P. Pokhilko,  
 S. Prager,  A. Prociuk,  E. Ramos,  D. R. Rehn,  F. Rob,  M. Scheurer,  
 M. Schneider,  N. Sergueev,  S. M. Sharada,  S. Sharma,  D. W. Small,  
 T. Stauch,  T. Stein,  Yu-Chuan Su,  A. J. W. Thom,  A. Tkatchenko,  
 T. Tsuchimochi,  N. M. Tubman,  L. Vogt,  M. L. Vidal,  O. Vydrov,  
 M. A. Watson,  J. Wenzel,  M. de Wergifosse,  T. A. Wesolowski,  A. White,  
 J. Witte,  A. Yamada,  Jun Yang,  K. Yao,  S. Yeganeh,  S. R. Yost,  
 Zhi-Qiang You,  A. Zech,  Igor Ying Zhang,  Xing Zhang,  Yan Zhao,  
 Ying Zhu,  B. R. Brooks,  G. K. L. Chan,  C. J. Cramer,  M. S. Gordon,  
 W. J. Hehre,  A. Klamt,  M. W. Schmidt,  C. D. Sherrill,  D. G. Truhlar,  
 A. Aspuru-Guzik,  R. Baer,  A. T. Bell,  N. A. Besley,  Jeng-Da Chai,  
 A. E. DePrince, III,  R. A. DiStasio Jr.,  A. Dreuw,  B. D. Dunietz,  
 T. R. Furlani,  Chao-Ping Hsu,  Yousung Jung,  Jing Kong,  D. S. Lambrecht,  
 WanZhen Liang,  C. Ochsenfeld,  V. A. Rassolov,  L. V. Slipchenko,  
 J. E. Subotnik,  T. Van Voorhis,  J. M. Herbert,  A. I. Krylov,  
 P. M. W. Gill,  M. Head-Gordon

 Contributors to earlier versions of Q-Chem not listed above: 
 R. D. Adamson,  B. Austin,  J. Baker,  G. J. O. Beran,  K. Brandhorst,  
 S. T. Brown,  E. F. C. Byrd,  A. K. Chakraborty,  C.-L. Cheng,  
 Siu Hung Chien,  D. M. Chipman,  D. L. Crittenden,  H. Dachsel,  
 R. J. Doerksen,  A. D. Dutoi,  L. Fusti-Molnar,  W. A. Goddard III,  
 A. Golubeva-Zadorozhnaya,  S. R. Gwaltney,  G. Hawkins,  A. Heyden,  
 S. Hirata,  G. Kedziora,  F. J. Keil,  C. Kelley,  Jihan Kim,  R. A. King,  
 R. Z. Khaliullin,  P. P. Korambath,  W. Kurlancheek,  A. M. Lee,  M. S. Lee,  
 S. V. Levchenko,  Ching Yeh Lin,  D. Liotard,  R. C. Lochan,  I. Lotan,  
 P. E. Maslen,  N. Nair,  D. P. O'Neill,  D. Neuhauser,  E. Neuscamman,  
 C. M. Oana,  R. Olson,  B. Peters,  R. Peverati,  P. A. Pieniazek,  
 Y. M. Rhee,  J. Ritchie,  M. A. Rohrdanz,  E. Rosta,  N. J. Russ,  
 H. F. Schaefer III,  N. E. Schultz,  N. Shenvi,  A. C. Simmonett,  A. Sodt,  
 D. Stuck,  K. S. Thanthiriwatte,  V. Vanovschi,  Tao Wang,  A. Warshel,  
 C. F. Williams,  Q. Wu,  X. Xu,  W. Zhang

 Please cite Q-Chem as follows:
 Y. Shao et al., Mol. Phys. 113, 184-215 (2015)
 DOI: 10.1080/00268976.2014.952696

 Q-Chem 5.2.0 for Intel X86 EM64T Linux

 Parts of Q-Chem use Armadillo 8.300.2 (Tropical Shenanigans).
 http://arma.sourceforge.net/

 Q-Chem begins on Sun Aug 15 15:36:52 2021  

Host: cori11
0

     Scratch files written to /tmp/qchem11628//
 May1019 |scratch|qcdevops|jenkins|workspace|build_RNUM -1
Processing $rem in /global/common/cori/software/qchem/5.2/config/preferences:
	 MEM_TOTAL  96000 
NAlpha2: 94
NElect   94
Mult     1

 Q-Chem warning in module libgen/rem_setup.C, line 2803:

 Neither GIA nor STOLL is specified by user. Use STOLL as the default


Checking the input file for inconsistencies... 	...done.

--------------------------------------------------------------
User input:
--------------------------------------------------------------
$comment
IL16-152
$end

$molecule
0 1
--
-1 1
O         -2.11622       -0.99148        3.11186
Cl        -3.04985        0.18536        2.89080
O         -2.51683        0.95604        1.71473
O         -4.39202       -0.32144        2.59170
O         -3.04239        1.04017        4.08108
--
1 1
C          1.29137        0.23958       -0.37258
N          0.06441       -0.21103        0.11086
C          0.12791       -0.33417        1.44769
N          1.37449        0.01781        1.81527
C          2.12175        0.38925        0.70222
C         -1.14252       -0.48623       -0.69657
H          1.69219        0.01781        2.78160
H         -0.69597       -0.65558        2.11727
H          3.14463        0.72860        0.77021
H          1.45832        0.42226       -1.42441
H         -1.06564       -1.48704       -1.13386
H         -2.01311       -0.39977       -0.04122
H         -1.21192        0.26794       -1.48622
$end

$rem
JOBTYPE			EDA
EDA2			1
method			wB97X-V
BASIS			def2-TZVPD
XC_GRID			000099000590
NL_GRID			1
UNRESTRICTED		FALSE
MAX_SCF_CYCLES		200
SYMMETRY		FALSE
SYM_IGNORE		TRUE
MEM_STATIC		2000
BASIS_LIN_DEP_THRESH 	6
THRESH 			14
SCF_CONVERGENCE 	8
SCF_PRINT_FRGM 		TRUE
$end
--------------------------------------------------------------
 ----------------------------------------------------------------
             Standard Nuclear Orientation (Angstroms)
    I     Atom           X                Y                Z
 ----------------------------------------------------------------
    1      O      -2.1162200000    -0.9914800000     3.1118600000
    2      Cl     -3.0498500000     0.1853600000     2.8908000000
    3      O      -2.5168300000     0.9560400000     1.7147300000
    4      O      -4.3920200000    -0.3214400000     2.5917000000
    5      O      -3.0423900000     1.0401700000     4.0810800000
    6      C       1.2913700000     0.2395800000    -0.3725800000
    7      N       0.0644100000    -0.2110300000     0.1108600000
    8      C       0.1279100000    -0.3341700000     1.4476900000
    9      N       1.3744900000     0.0178100000     1.8152700000
   10      C       2.1217500000     0.3892500000     0.7022200000
   11      C      -1.1425200000    -0.4862300000    -0.6965700000
   12      H       1.6921900000     0.0178100000     2.7816000000
   13      H      -0.6959700000    -0.6555800000     2.1172700000
   14      H       3.1446300000     0.7286000000     0.7702100000
   15      H       1.4583200000     0.4222600000    -1.4244100000
   16      H      -1.0656400000    -1.4870400000    -1.1338600000
   17      H      -2.0131100000    -0.3997700000    -0.0412200000
   18      H      -1.2119200000     0.2679400000    -1.4862200000
 ----------------------------------------------------------------
 Nuclear Repulsion Energy =         776.67483941 hartrees
 There are       47 alpha and       47 beta electrons
 Requested basis set is def2-TZVPD
 There are 185 shells and 491 basis functions

 Total QAlloc Memory Limit  96000 MB
 Mega-Array Size      1956 MB
 MEM_STATIC part      2000 MB
 A cutoff of  1.0D-14 yielded  15223 shell pairs
 There are    107421 function pairs (    137293 Cartesian)
 Smallest overlap matrix eigenvalue = 1.64E-06

 Scale SEOQF with 1.000000e-01/1.000000e-01/1.000000e-01

 Standard Electronic Orientation quadrupole field applied
 Nucleus-field energy     =    -0.0000000305 hartrees

 -----------------------------------------------------------------------
  General SCF calculation program by
  Eric Jon Sundstrom, Paul Horn, Yuezhi Mao, Dmitri Zuev, Alec White,
  David Stuck, Shaama M.S., Shane Yost, Joonho Lee, David Small,
  Daniel Levine, Susi Lehtola, Hugh Burton, Evgeny Epifanovsky
 -----------------------------------------------------------------------
================================================================
                 ALMO-EDA with the EDA2 driver                  
================================================================
 The second-generation ALMO-EDA (for DFT):                      
 P. R. Horn, Y. Mao and M. Head-Gordon, PCCP, 18, 23067 (2016)  
 Decomposition of the frozen energy:                            
 P. R. Horn, Y. Mao and M. Head-Gordon, JCP, 144, 114107 (2016) 
 FERF model for polarization:                                   
 P. R. Horn and M. Head-Gordon, JCP, 143, 114111 (2015)         
Using eda2 option set 1
Option set summary: Frozen orbital wavefunction, initial wavefunction decomposition, and nDQ polarization.
--------------------------------
Printing EDA Options
--------------------------------
eda_child_super_basis      0
fragmo_guess_mode          0
child_mp                   1
child_mp_orders            232
cls_elec                   1
cls_disp                   0
scfmi_mode                 1
scfmi_occs                 0
scfmi_virts                0
frz_relax                  0
frz_relax_method           0
dc_pen_start               0
dc_pen_conv                0
dc_pen_increment           0
dc_pen_steps               0
dc_pen_thresh_factor       0
dc_pen_pre_newton_thresh   0
frz_ortho_decomp           1
frz_ortho_decomp_conv      6
frgm_method                2
scfmi_freeze_ss            0
separate_rehyb             0
plot_diff_den              0
eda_nocv                   0
eda_vct_relax              1
disp_free_x                0
disp_free_c                0
eda_bsse                   0
eda_pct_a                  0
eda_covp                   0
--------------------------------
Attempting to make child job directory: /tmp/qchem11628//Frg1/
Attempting to make child job directory: /tmp/qchem11628//Frg2/
Creating input file /tmp/qchem11628/Frg1.input
using default PutDataFrgm: nothing
calling putenv with: QCSCRATCH=/tmp/qchem11628/ 
calling putenv with: QCLOCALSCR=/tmp/qchem11628/ 
Spawning Job For Fragment 0
                  Welcome to Q-Chem
     A Quantum Leap Into The Future Of Chemistry


 Q-Chem 5.2, Q-Chem, Inc., Pleasanton, CA (2019)

 License issued to: National Energy Research Scientific Computing Center

 Yihan Shao,  Zhengting Gan,  E. Epifanovsky,  A. T. B. Gilbert,  M. Wormit,  
 J. Kussmann,  A. W. Lange,  A. Behn,  Jia Deng,  Xintian Feng,  D. Ghosh,  
 M. Goldey,  P. R. Horn,  L. D. Jacobson,  I. Kaliman,  T. Kus,  A. Landau,  
 Jie Liu,  E. I. Proynov,  R. M. Richard,  R. P. Steele,  E. J. Sundstrom,  
 H. L. Woodcock III,  P. M. Zimmerman,  D. Zuev,  B. Albrecht,  E. Alguire,  
 S. A. Baeppler,  D. Barton,  Z. Benda,  Y. A. Bernard,  E. J. Berquist,  
 K. B. Bravaya,  H. Burton,  D. Casanova,  Chun-Min Chang,  Yunqing Chen,  
 A. Chien,  K. D. Closser,  M. P. Coons,  S. Coriani,  S. Dasgupta,  
 A. L. Dempwolff,  M. Diedenhofen,  Hainam Do,  R. G. Edgar,  Po-Tung Fang,  
 S. Faraji,  S. Fatehi,  Qingguo Feng,  K. D. Fenk,  J. Fosso-Tande,  
 J. Gayvert,  Qinghui Ge,  A. Ghysels,  G. Gidofalvi,  J. Gomes,  
 J. Gonthier,  A. Gunina,  D. Hait,  M. W. D. Hanson-Heine,  
 P. H. P. Harbach,  A. W. Hauser,  M. F. Herbst,  J. E. Herr,  
 E. G. Hohenstein,  Z. C. Holden,  Kerwin Hui,  B. C. Huynh,  T.-C. Jagau,  
 Hyunjun Ji,  B. Kaduk,  K. Khistyaev,  Jaehoon Kim,  P. Klunzinger,  K. Koh,  
 D. Kosenkov,  L. Koulias,  T. Kowalczyk,  C. M. Krauter,  A. Kunitsa,  
 Ka Un Lao,  A. Laurent,  K. V. Lawler,  Joonho Lee,  D. Lefrancois,  
 S. Lehtola,  D. S. Levine,  Yi-Pei Li,  You-Sheng Lin,  Fenglai Liu,  
 E. Livshits,  A. Luenser,  P. Manohar,  E. Mansoor,  S. F. Manzer,  
 Shan-Ping Mao,  Yuezhi Mao,  N. Mardirossian,  A. V. Marenich,  
 T. Markovich,  L. A. Martinez-Martinez,  S. A. Maurer,  N. J. Mayhall,  
 S. C. McKenzie,  J.-M. Mewes,  P. Morgante,  A. F. Morrison,  
 J. W. Mullinax,  K. Nanda,  T. S. Nguyen-Beck,  R. Olivares-Amaya,  
 J. A. Parkhill,  Zheng Pei,  T. M. Perrine,  F. Plasser,  P. Pokhilko,  
 S. Prager,  A. Prociuk,  E. Ramos,  D. R. Rehn,  F. Rob,  M. Scheurer,  
 M. Schneider,  N. Sergueev,  S. M. Sharada,  S. Sharma,  D. W. Small,  
 T. Stauch,  T. Stein,  Yu-Chuan Su,  A. J. W. Thom,  A. Tkatchenko,  
 T. Tsuchimochi,  N. M. Tubman,  L. Vogt,  M. L. Vidal,  O. Vydrov,  
 M. A. Watson,  J. Wenzel,  M. de Wergifosse,  T. A. Wesolowski,  A. White,  
 J. Witte,  A. Yamada,  Jun Yang,  K. Yao,  S. Yeganeh,  S. R. Yost,  
 Zhi-Qiang You,  A. Zech,  Igor Ying Zhang,  Xing Zhang,  Yan Zhao,  
 Ying Zhu,  B. R. Brooks,  G. K. L. Chan,  C. J. Cramer,  M. S. Gordon,  
 W. J. Hehre,  A. Klamt,  M. W. Schmidt,  C. D. Sherrill,  D. G. Truhlar,  
 A. Aspuru-Guzik,  R. Baer,  A. T. Bell,  N. A. Besley,  Jeng-Da Chai,  
 A. E. DePrince, III,  R. A. DiStasio Jr.,  A. Dreuw,  B. D. Dunietz,  
 T. R. Furlani,  Chao-Ping Hsu,  Yousung Jung,  Jing Kong,  D. S. Lambrecht,  
 WanZhen Liang,  C. Ochsenfeld,  V. A. Rassolov,  L. V. Slipchenko,  
 J. E. Subotnik,  T. Van Voorhis,  J. M. Herbert,  A. I. Krylov,  
 P. M. W. Gill,  M. Head-Gordon

 Contributors to earlier versions of Q-Chem not listed above: 
 R. D. Adamson,  B. Austin,  J. Baker,  G. J. O. Beran,  K. Brandhorst,  
 S. T. Brown,  E. F. C. Byrd,  A. K. Chakraborty,  C.-L. Cheng,  
 Siu Hung Chien,  D. M. Chipman,  D. L. Crittenden,  H. Dachsel,  
 R. J. Doerksen,  A. D. Dutoi,  L. Fusti-Molnar,  W. A. Goddard III,  
 A. Golubeva-Zadorozhnaya,  S. R. Gwaltney,  G. Hawkins,  A. Heyden,  
 S. Hirata,  G. Kedziora,  F. J. Keil,  C. Kelley,  Jihan Kim,  R. A. King,  
 R. Z. Khaliullin,  P. P. Korambath,  W. Kurlancheek,  A. M. Lee,  M. S. Lee,  
 S. V. Levchenko,  Ching Yeh Lin,  D. Liotard,  R. C. Lochan,  I. Lotan,  
 P. E. Maslen,  N. Nair,  D. P. O'Neill,  D. Neuhauser,  E. Neuscamman,  
 C. M. Oana,  R. Olson,  B. Peters,  R. Peverati,  P. A. Pieniazek,  
 Y. M. Rhee,  J. Ritchie,  M. A. Rohrdanz,  E. Rosta,  N. J. Russ,  
 H. F. Schaefer III,  N. E. Schultz,  N. Shenvi,  A. C. Simmonett,  A. Sodt,  
 D. Stuck,  K. S. Thanthiriwatte,  V. Vanovschi,  Tao Wang,  A. Warshel,  
 C. F. Williams,  Q. Wu,  X. Xu,  W. Zhang

 Please cite Q-Chem as follows:
 Y. Shao et al., Mol. Phys. 113, 184-215 (2015)
 DOI: 10.1080/00268976.2014.952696

 Q-Chem 5.2.0 for Intel X86 EM64T Linux

 Parts of Q-Chem use Armadillo 8.300.2 (Tropical Shenanigans).
 http://arma.sourceforge.net/

 Q-Chem begins on Sun Aug 15 15:36:56 2021  

Host: cori11
0

     Scratch files written to /tmp/qchem11628//Frg1//
 May1019 |scratch|qcdevops|jenkins|workspace|build_RNUM -1
Processing $rem in /global/common/cori/software/qchem/5.2/config/preferences:
	 MEM_TOTAL  96000 
NAlpha2: 50
NElect   50
Mult     1

Checking the input file for inconsistencies... 	...done.

--------------------------------------------------------------
User input:
--------------------------------------------------------------
$molecule
-1 1
 8	-2.1162200000	-0.9914800000	3.1118600000
 17	-3.0498500000	0.1853600000	2.8908000000
 8	-2.5168300000	0.9560400000	1.7147300000
 8	-4.3920200000	-0.3214400000	2.5917000000
 8	-3.0423900000	1.0401700000	4.0810800000
$end
$rem
EDA2		1
METHOD		WB97X-V
BASIS		DEF2-TZVPD
XC_GRID		000099000590
NL_GRID		1
UNRESTRICTED		FALSE
MAX_SCF_CYCLES		200
SYMMETRY		FALSE
SYM_IGNORE		TRUE
BASIS_LIN_DEP_THRESH		6
THRESH		14
SCF_CONVERGENCE		8
SCF_PRINT_FRGM		TRUE
!required keywords
JOBTYPE		SP
SYM_IGNORE		TRUE
SUBSYSTEM		TRUE
GEN_SCFMAN		TRUE
CHILD_INSTRUCTION		2
SYM_IGNORE		TRUE
SCFMI		0
RI_K 0		
PARI_K 0		
MIN_PARI_K 0		
IARI_K 0		
OCC_RI_K 0		
PURECART		1111
MEM_STATIC		2000
MEM_TOTAL		96000
GUI		0
CHILD_MP		1
CHILD_MP_ORDERS		232
FRZ_RELAX		0
FRZ_RELAX_METHOD		0
EDA_CLS_ELEC		1
EDA_CLS_DISP		0
FRZ_ORTHO_DECOMP		1
EDA2		FALSE
FRGM_METHOD		FALSE
CIS_N_ROOTS  0
LOCAL_CIS    0
CIS_RLX_DNS  1
$end
--------------------------------------------------------------
 ----------------------------------------------------------------
             Standard Nuclear Orientation (Angstroms)
    I     Atom           X                Y                Z
 ----------------------------------------------------------------
    1      O      -2.1162200000    -0.9914800000     3.1118600000
    2      Cl     -3.0498500000     0.1853600000     2.8908000000
    3      O      -2.5168300000     0.9560400000     1.7147300000
    4      O      -4.3920200000    -0.3214400000     2.5917000000
    5      O      -3.0423900000     1.0401700000     4.0810800000
 ----------------------------------------------------------------
 Nuclear Repulsion Energy =         277.10655170 hartrees
 There are       25 alpha and       25 beta electrons
 Requested basis set is def2-TZVPD
 There are 72 shells and 206 basis functions

 Total QAlloc Memory Limit  96000 MB
 Mega-Array Size      1956 MB
 MEM_STATIC part      2000 MB

                       Distance Matrix (Angstroms)
             O (  1)   Cl(  2)   O (  3)   O (  4)
   Cl(  2)  1.518382
   O (  3)  2.430081  1.503728
   O (  4)  2.428742  1.465513  2.432564
   O (  5)  2.434087  1.465443  2.425470  2.427702
 
 A cutoff of  1.0D-14 yielded   2578 shell pairs
 There are     21536 function pairs (     28364 Cartesian)
 Smallest overlap matrix eigenvalue = 2.05E-04

 Scale SEOQF with 1.000000e-01/1.000000e-01/1.000000e-01

 Standard Electronic Orientation quadrupole field applied
 Nucleus-field energy     =    -0.0000000274 hartrees
 Guess from superposition of atomic densities
 Warning:  Energy on first SCF cycle will be non-variational
 SAD guess density has 48.018123 electrons

 -----------------------------------------------------------------------
  General SCF calculation program by
  Eric Jon Sundstrom, Paul Horn, Yuezhi Mao, Dmitri Zuev, Alec White,
  David Stuck, Shaama M.S., Shane Yost, Joonho Lee, David Small,
  Daniel Levine, Susi Lehtola, Hugh Burton, Evgeny Epifanovsky
 -----------------------------------------------------------------------
 Exchange:     0.1670 Hartree-Fock + 1.0000 wB97X-V + LR-HF
 Correlation:  1.0000 wB97X-V
 Using Euler-Maclaurin-Lebedev (99,590) quadrature formula
 Nonlocal Correlation:  VV10 with C = 0.0100 and b = 6.00 and scale = 1.00000
 Grid used for NLC:  SG-1 standard quadrature
Energy prior to optimization (guess energy) = -759.974506721743
Begin Timing: Total SCF Calculation
begin iterations for algorithm: DIIS         
the SCF tolerance is set to 1.00e-08
    1    -759.9745067217      2.46e-02     00000 
    2    -760.3748694988      1.31e-02     00000 
    3    -760.8031270111      5.25e-03     00000 
    4    -760.8838019882      5.34e-04     00000 
    5    -760.8849198784      1.34e-04     00000 
    6    -760.8849814968      7.07e-05     00000 
    7    -760.8850004748      1.24e-05     00000 
    8    -760.8850019244      1.85e-06     00000 
    9    -760.8850019701      6.78e-07     00000 
   10    -760.8850019719      4.42e-07     00000 
   11    -760.8850019727      4.93e-08     00000 
   12    -760.8850019727      9.79e-09     00000 Convergence criterion met
Timing for Total SCF: 250.00s (wall), 493.69s (cpu)
Multipole orders to be included
        2
        3
computing dipole RHS
computing quadrupole RHS
total number of RHS in solve_reponses: 8
RHS batch sizes
        8
Beginning Block Conjugate Gradient Iterations. Batch Number: 0
computing hessian-vector products by finite difference
              1      5.66e-01     00000 Conjugate Gradient Iteration
computing hessian-vector products by finite difference
              2      1.65e-01     00000 Conjugate Gradient Iteration
computing hessian-vector products by finite difference
              3      4.32e-02     00000 Conjugate Gradient Iteration
computing hessian-vector products by finite difference
              4      8.81e-03     00000 Conjugate Gradient Iteration
computing hessian-vector products by finite difference
              5      1.78e-03     00000 Conjugate Gradient Iteration
computing hessian-vector products by finite difference
              6      3.69e-04     00000 Conjugate Gradient Iteration
computing hessian-vector products by finite difference
              7      7.47e-05     00000 Conjugate Gradient Iteration
computing hessian-vector products by finite difference
              8      1.68e-05     00000 Conjugate Gradient Iteration
computing hessian-vector products by finite difference
              9      3.26e-06     00000 Conjugate Gradient Iteration
computing hessian-vector products by finite difference
             10      6.70e-07     00000 Conjugate Gradient Iteration
computing hessian-vector products by finite difference
             11      9.13e-08     00000 Conjugate Gradient Iteration
computing hessian-vector products by finite difference
             12      3.74e-08     00000 Conjugate Gradient Iteration
computing hessian-vector products by finite difference
             13      5.20e-09     00000 CG Converged
batch 0 complete
Done Calculating Responses
TESTING ORTHOGONALIZATION OF MULTIPOLE BASIS
Multipole virts passed orthogonality test
Virts Per Order
        75
        97
 
 --------------------------------------------------------------
 
                    Orbital Energies (a.u.)
 --------------------------------------------------------------
 
 Alpha MOs
 -- Occupied --
******** -19.0528 -19.0526 -19.0399 -19.0356  -9.6608  -7.4154  -7.4152
 -7.4150  -1.2082  -0.9895  -0.9701  -0.9509  -0.5914  -0.4711  -0.4703
 -0.4700  -0.3113  -0.3100  -0.2921  -0.2852  -0.2833  -0.2118  -0.2060
 -0.2014
 -- Virtual --
  0.1956   0.2015   0.2021   0.2025   0.2633   0.2640   0.2656   0.2734
  0.2741   0.3319   0.3337   0.3345   0.3348   0.3461   0.3534   0.3579
  0.3722   0.3739   0.3791   0.3832   0.4545   0.4563   0.4589   0.5235
  0.5391   0.5464   0.5525   0.5862   0.5867   0.6349   0.6369   0.6388
  0.6620   0.6636   0.7557   0.7590   0.7598   0.7719   0.7721   0.7732
  0.7834   0.7853   0.7892   0.8169   0.8175   0.8193   0.8468   0.8491
  0.8493   0.9059   0.9747   0.9761   0.9835   0.9841   0.9843   1.0520
  1.0626   1.0714   1.0968   1.2131   1.2209   1.2278   1.2304   1.2308
  1.2483   1.2499   1.2522   1.3407   1.3429   1.3448   1.4013   1.4151
  1.4267   1.8353   1.8373   1.8375   1.8593   1.9096   1.9101   1.9113
  1.9895   1.9913   2.0105   2.0184   2.0252   2.1758   2.1879   2.1996
  2.2022   2.2129   2.3705   2.3776   2.3884   2.4093   2.6120   2.6262
  2.6374   2.8365   2.8415   2.8540   2.8654   2.8750   2.8757   2.8833
  2.8909   3.1771   3.2562   3.2666   3.2767   3.3165   3.3365   3.3370
  3.3605   3.4609   3.4686   3.4829   3.4992   3.5059   3.6647   3.6768
  3.6839   4.3149   4.5241   4.5326   4.5451   5.3964   5.3982   5.4080
  5.4165   5.4172   5.4234   5.4310   5.4323   5.4338   5.4420   5.4483
  5.4486   5.4538   5.6528   5.6649   5.6769   5.6838   5.6851   5.6926
  5.7487   5.7547   5.9348   6.0025   6.0391   6.0449   6.0559   6.0823
  6.0926   6.6738   6.6776   6.6833   6.6940   6.6959   6.8102   6.8122
  6.8129   6.8756   6.8808   6.8881   7.0009   7.0087   7.0184   7.2030
  7.3164   7.3228   7.4158   7.4180   7.4254  11.4685  11.5139  11.5586
 28.9708  43.7658  44.0680  44.0971  44.1217
 --------------------------------------------------------------
 
          Ground-State Mulliken Net Atomic Charges

     Atom                 Charge (a.u.)
  ----------------------------------------
      1 O                    -0.605294
      2 Cl                    1.344156
      3 O                    -0.596324
      4 O                    -0.571160
      5 O                    -0.571377
  ----------------------------------------
  Sum of atomic charges =    -1.000000

 -----------------------------------------------------------------
                    Cartesian Multipole Moments
 -----------------------------------------------------------------
    Charge (ESU x 10^10)
                -4.8032
    Dipole Moment (Debye)
         X      14.1056      Y      -0.6445      Z     -13.6236
       Tot      19.6210
    Quadrupole Moments (Debye-Ang)
        XX     -83.4134     XY       2.0961     YY     -42.3786
        XZ      40.0585     YZ      -1.5380     ZZ     -80.6663
    Octopole Moments (Debye-Ang^2)
       XXX     505.5320    XXY     -10.6977    XYY     125.5835
       YYY     -20.6478    XXZ    -237.4462    XYZ       6.9824
       YYZ    -122.6472    XZZ     239.5784    YZZ     -15.1746
       ZZZ    -472.4753
    Hexadecapole Moments (Debye-Ang^3)
      XXXX   -2847.3943   XXXY      57.8803   XXYY    -422.5738
      XYYY      62.8836   YYYY    -157.3905   XXXZ    1439.8284
      XXYZ     -38.7312   XYYZ     364.2956   YYYZ     -58.6972
      XXZZ   -1101.4203   XYZZ      57.7705   YYZZ    -408.8684
      XZZZ    1410.6316   YZZZ    -107.6910   ZZZZ   -2549.1886
 -----------------------------------------------------------------
Archival summary:
1\1\nid00530\SP\ProcedureUnspecified\BasisUnspecified\l14(1-,1)\meili\SunAug1517:00:552021SunAug1517:00:552021\0\\#,ProcedureUnspecified,BasisUnspecified,\\-1,1\Cl\O,1,1.46544\O,1,1.46551,2,111.848\O,1,1.50373,2,109.542,3,122.248,0\O,1,1.51838,2,109.312,3,-120.752,0\\\@

 Total job time:  5040.48s(wall), 9988.91s(cpu) 
 Sun Aug 15 17:00:56 2021

        *************************************************************
        *                                                           *
        *  Thank you very much for using Q-Chem.  Have a nice day.  *
        *                                                           *
        *************************************************************


Done Job For Fragment 0
calling putenv with: QCSCRATCH=/global/cscratch1/sd/meili 
calling putenv with: QCLOCALSCR=/tmp 
calling putenv with: QCTHREADS=32 
Creating input file /tmp/qchem11628/Frg2.input
using default PutDataFrgm: nothing
calling putenv with: QCSCRATCH=/tmp/qchem11628/ 
calling putenv with: QCLOCALSCR=/tmp/qchem11628/ 
Spawning Job For Fragment 1
                  Welcome to Q-Chem
     A Quantum Leap Into The Future Of Chemistry


 Q-Chem 5.2, Q-Chem, Inc., Pleasanton, CA (2019)

 License issued to: National Energy Research Scientific Computing Center

 Yihan Shao,  Zhengting Gan,  E. Epifanovsky,  A. T. B. Gilbert,  M. Wormit,  
 J. Kussmann,  A. W. Lange,  A. Behn,  Jia Deng,  Xintian Feng,  D. Ghosh,  
 M. Goldey,  P. R. Horn,  L. D. Jacobson,  I. Kaliman,  T. Kus,  A. Landau,  
 Jie Liu,  E. I. Proynov,  R. M. Richard,  R. P. Steele,  E. J. Sundstrom,  
 H. L. Woodcock III,  P. M. Zimmerman,  D. Zuev,  B. Albrecht,  E. Alguire,  
 S. A. Baeppler,  D. Barton,  Z. Benda,  Y. A. Bernard,  E. J. Berquist,  
 K. B. Bravaya,  H. Burton,  D. Casanova,  Chun-Min Chang,  Yunqing Chen,  
 A. Chien,  K. D. Closser,  M. P. Coons,  S. Coriani,  S. Dasgupta,  
 A. L. Dempwolff,  M. Diedenhofen,  Hainam Do,  R. G. Edgar,  Po-Tung Fang,  
 S. Faraji,  S. Fatehi,  Qingguo Feng,  K. D. Fenk,  J. Fosso-Tande,  
 J. Gayvert,  Qinghui Ge,  A. Ghysels,  G. Gidofalvi,  J. Gomes,  
 J. Gonthier,  A. Gunina,  D. Hait,  M. W. D. Hanson-Heine,  
 P. H. P. Harbach,  A. W. Hauser,  M. F. Herbst,  J. E. Herr,  
 E. G. Hohenstein,  Z. C. Holden,  Kerwin Hui,  B. C. Huynh,  T.-C. Jagau,  
 Hyunjun Ji,  B. Kaduk,  K. Khistyaev,  Jaehoon Kim,  P. Klunzinger,  K. Koh,  
 D. Kosenkov,  L. Koulias,  T. Kowalczyk,  C. M. Krauter,  A. Kunitsa,  
 Ka Un Lao,  A. Laurent,  K. V. Lawler,  Joonho Lee,  D. Lefrancois,  
 S. Lehtola,  D. S. Levine,  Yi-Pei Li,  You-Sheng Lin,  Fenglai Liu,  
 E. Livshits,  A. Luenser,  P. Manohar,  E. Mansoor,  S. F. Manzer,  
 Shan-Ping Mao,  Yuezhi Mao,  N. Mardirossian,  A. V. Marenich,  
 T. Markovich,  L. A. Martinez-Martinez,  S. A. Maurer,  N. J. Mayhall,  
 S. C. McKenzie,  J.-M. Mewes,  P. Morgante,  A. F. Morrison,  
 J. W. Mullinax,  K. Nanda,  T. S. Nguyen-Beck,  R. Olivares-Amaya,  
 J. A. Parkhill,  Zheng Pei,  T. M. Perrine,  F. Plasser,  P. Pokhilko,  
 S. Prager,  A. Prociuk,  E. Ramos,  D. R. Rehn,  F. Rob,  M. Scheurer,  
 M. Schneider,  N. Sergueev,  S. M. Sharada,  S. Sharma,  D. W. Small,  
 T. Stauch,  T. Stein,  Yu-Chuan Su,  A. J. W. Thom,  A. Tkatchenko,  
 T. Tsuchimochi,  N. M. Tubman,  L. Vogt,  M. L. Vidal,  O. Vydrov,  
 M. A. Watson,  J. Wenzel,  M. de Wergifosse,  T. A. Wesolowski,  A. White,  
 J. Witte,  A. Yamada,  Jun Yang,  K. Yao,  S. Yeganeh,  S. R. Yost,  
 Zhi-Qiang You,  A. Zech,  Igor Ying Zhang,  Xing Zhang,  Yan Zhao,  
 Ying Zhu,  B. R. Brooks,  G. K. L. Chan,  C. J. Cramer,  M. S. Gordon,  
 W. J. Hehre,  A. Klamt,  M. W. Schmidt,  C. D. Sherrill,  D. G. Truhlar,  
 A. Aspuru-Guzik,  R. Baer,  A. T. Bell,  N. A. Besley,  Jeng-Da Chai,  
 A. E. DePrince, III,  R. A. DiStasio Jr.,  A. Dreuw,  B. D. Dunietz,  
 T. R. Furlani,  Chao-Ping Hsu,  Yousung Jung,  Jing Kong,  D. S. Lambrecht,  
 WanZhen Liang,  C. Ochsenfeld,  V. A. Rassolov,  L. V. Slipchenko,  
 J. E. Subotnik,  T. Van Voorhis,  J. M. Herbert,  A. I. Krylov,  
 P. M. W. Gill,  M. Head-Gordon

 Contributors to earlier versions of Q-Chem not listed above: 
 R. D. Adamson,  B. Austin,  J. Baker,  G. J. O. Beran,  K. Brandhorst,  
 S. T. Brown,  E. F. C. Byrd,  A. K. Chakraborty,  C.-L. Cheng,  
 Siu Hung Chien,  D. M. Chipman,  D. L. Crittenden,  H. Dachsel,  
 R. J. Doerksen,  A. D. Dutoi,  L. Fusti-Molnar,  W. A. Goddard III,  
 A. Golubeva-Zadorozhnaya,  S. R. Gwaltney,  G. Hawkins,  A. Heyden,  
 S. Hirata,  G. Kedziora,  F. J. Keil,  C. Kelley,  Jihan Kim,  R. A. King,  
 R. Z. Khaliullin,  P. P. Korambath,  W. Kurlancheek,  A. M. Lee,  M. S. Lee,  
 S. V. Levchenko,  Ching Yeh Lin,  D. Liotard,  R. C. Lochan,  I. Lotan,  
 P. E. Maslen,  N. Nair,  D. P. O'Neill,  D. Neuhauser,  E. Neuscamman,  
 C. M. Oana,  R. Olson,  B. Peters,  R. Peverati,  P. A. Pieniazek,  
 Y. M. Rhee,  J. Ritchie,  M. A. Rohrdanz,  E. Rosta,  N. J. Russ,  
 H. F. Schaefer III,  N. E. Schultz,  N. Shenvi,  A. C. Simmonett,  A. Sodt,  
 D. Stuck,  K. S. Thanthiriwatte,  V. Vanovschi,  Tao Wang,  A. Warshel,  
 C. F. Williams,  Q. Wu,  X. Xu,  W. Zhang

 Please cite Q-Chem as follows:
 Y. Shao et al., Mol. Phys. 113, 184-215 (2015)
 DOI: 10.1080/00268976.2014.952696

 Q-Chem 5.2.0 for Intel X86 EM64T Linux

 Parts of Q-Chem use Armadillo 8.300.2 (Tropical Shenanigans).
 http://arma.sourceforge.net/

 Q-Chem begins on Sun Aug 15 17:00:58 2021  

Host: cori11
0

     Scratch files written to /tmp/qchem11628//Frg2//
 May1019 |scratch|qcdevops|jenkins|workspace|build_RNUM -1
Processing $rem in /global/common/cori/software/qchem/5.2/config/preferences:
	 MEM_TOTAL  96000 
NAlpha2: 44
NElect   44
Mult     1

Checking the input file for inconsistencies... 	...done.

--------------------------------------------------------------
User input:
--------------------------------------------------------------
$molecule
1 1
 6	1.2913700000	0.2395800000	-0.3725800000
 7	0.0644100000	-0.2110300000	0.1108600000
 6	0.1279100000	-0.3341700000	1.4476900000
 7	1.3744900000	0.0178100000	1.8152700000
 6	2.1217500000	0.3892500000	0.7022200000
 6	-1.1425200000	-0.4862300000	-0.6965700000
 1	1.6921900000	0.0178100000	2.7816000000
 1	-0.6959700000	-0.6555800000	2.1172700000
 1	3.1446300000	0.7286000000	0.7702100000
 1	1.4583200000	0.4222600000	-1.4244100000
 1	-1.0656400000	-1.4870400000	-1.1338600000
 1	-2.0131100000	-0.3997700000	-0.0412200000
 1	-1.2119200000	0.2679400000	-1.4862200000
$end
$rem
EDA2		1
METHOD		WB97X-V
BASIS		DEF2-TZVPD
XC_GRID		000099000590
NL_GRID		1
UNRESTRICTED		FALSE
MAX_SCF_CYCLES		200
SYMMETRY		FALSE
SYM_IGNORE		TRUE
BASIS_LIN_DEP_THRESH		6
THRESH		14
SCF_CONVERGENCE		8
SCF_PRINT_FRGM		TRUE
!required keywords
JOBTYPE		SP
SYM_IGNORE		TRUE
SUBSYSTEM		TRUE
GEN_SCFMAN		TRUE
CHILD_INSTRUCTION		2
SYM_IGNORE		TRUE
SCFMI		0
RI_K 0		
PARI_K 0		
MIN_PARI_K 0		
IARI_K 0		
OCC_RI_K 0		
PURECART		1111
MEM_STATIC		2000
MEM_TOTAL		96000
GUI		0
CHILD_MP		1
CHILD_MP_ORDERS		232
FRZ_RELAX		0
FRZ_RELAX_METHOD		0
EDA_CLS_ELEC		1
EDA_CLS_DISP		0
FRZ_ORTHO_DECOMP		1
EDA2		FALSE
FRGM_METHOD		FALSE
CIS_N_ROOTS  0
LOCAL_CIS    0
CIS_RLX_DNS  1
$end
--------------------------------------------------------------
 ----------------------------------------------------------------
             Standard Nuclear Orientation (Angstroms)
    I     Atom           X                Y                Z
 ----------------------------------------------------------------
    1      C       1.2913700000     0.2395800000    -0.3725800000
    2      N       0.0644100000    -0.2110300000     0.1108600000
    3      C       0.1279100000    -0.3341700000     1.4476900000
    4      N       1.3744900000     0.0178100000     1.8152700000
    5      C       2.1217500000     0.3892500000     0.7022200000
    6      C      -1.1425200000    -0.4862300000    -0.6965700000
    7      H       1.6921900000     0.0178100000     2.7816000000
    8      H      -0.6959700000    -0.6555800000     2.1172700000
    9      H       3.1446300000     0.7286000000     0.7702100000
   10      H       1.4583200000     0.4222600000    -1.4244100000
   11      H      -1.0656400000    -1.4870400000    -1.1338600000
   12      H      -2.0131100000    -0.3997700000    -0.0412200000
   13      H      -1.2119200000     0.2679400000    -1.4862200000
 ----------------------------------------------------------------
 Nuclear Repulsion Energy =         235.32573026 hartrees
 There are       22 alpha and       22 beta electrons
 Requested basis set is def2-TZVPD
 There are 113 shells and 285 basis functions

 Total QAlloc Memory Limit  96000 MB
 Mega-Array Size      1956 MB
 MEM_STATIC part      2000 MB

                       Distance Matrix (Angstroms)
             C (  1)   N (  2)   C (  3)   N (  4)   C (  5)   C (  6)
   N (  2)  1.393626
   C (  3)  2.235221  1.343990
   N (  4)  2.200631  2.161872  1.346465
   C (  5)  1.366429  2.223216  2.248213  1.391131
   C (  6)  2.560389  1.477957  2.496991  3.591481  3.657668
   H (  7)  3.187270  3.136062  2.085708  1.017215  2.155530  4.515230
   H (  8)  3.309106  2.191229  1.109243  2.198059  3.321684  2.854082
   H (  9)  2.231520  3.287157  3.269413  2.175033  1.079845  4.691152
   H ( 10)  1.080551  2.168201  3.254402  3.265905  2.227955  2.849469
   H ( 11)  3.019314  2.110579  3.068888  4.112928  4.129299  1.094876
   H ( 12)  3.382034  2.091612  2.608663  3.885455  4.274614  1.093108
   H ( 13)  2.739974  2.099785  3.281083  4.201419  3.989654  1.094137
             H (  7)   H (  8)   H (  9)   H ( 10)   H ( 11)   H ( 12)
   H (  8)  2.568676
   H (  9)  2.580793  4.298922
   H ( 10)  4.231878  4.283247  2.784572
   H ( 11)  5.020062  3.376067  5.124541  3.178084
   H ( 12)  4.676744  2.541530  5.341715  3.826196  1.809342
   H ( 13)  5.168240  3.755560  4.927800  2.675410  1.795971  1.782068

 
 A cutoff of  1.0D-14 yielded   6294 shell pairs
 There are     40740 function pairs (     51849 Cartesian)
 Smallest overlap matrix eigenvalue = 1.85E-06

 Scale SEOQF with 1.000000e-01/1.000000e-01/1.000000e-01

 Standard Electronic Orientation quadrupole field applied
 Nucleus-field energy     =    -0.0000000031 hartrees
 Guess from superposition of atomic densities
 Warning:  Energy on first SCF cycle will be non-variational
 SAD guess density has 44.559167 electrons

 -----------------------------------------------------------------------
  General SCF calculation program by
  Eric Jon Sundstrom, Paul Horn, Yuezhi Mao, Dmitri Zuev, Alec White,
  David Stuck, Shaama M.S., Shane Yost, Joonho Lee, David Small,
  Daniel Levine, Susi Lehtola, Hugh Burton, Evgeny Epifanovsky
 -----------------------------------------------------------------------
 Exchange:     0.1670 Hartree-Fock + 1.0000 wB97X-V + LR-HF
 Correlation:  1.0000 wB97X-V
 Using Euler-Maclaurin-Lebedev (99,590) quadrature formula
 Nonlocal Correlation:  VV10 with C = 0.0100 and b = 6.00 and scale = 1.00000
 Grid used for NLC:  SG-1 standard quadrature
Energy prior to optimization (guess energy) = -265.693244498730
Begin Timing: Total SCF Calculation
begin iterations for algorithm: DIIS         
the SCF tolerance is set to 1.00e-08
    1    -265.6932444987      5.52e-03     00000 
    2    -265.7121302185      5.25e-03     00000 
    3    -265.9276895277      3.20e-04     00000 
    4    -265.9285164641      1.92e-04     00000 
    5    -265.9288072702      5.51e-05     00000 
    6    -265.9288368048      1.56e-05     00000 
    7    -265.9288411444      5.34e-06     00000 
    8    -265.9288419865      1.76e-06     00000 
    9    -265.9288421019      9.12e-07     00000 
   10    -265.9288421181      1.70e-07     00000 
   11    -265.9288421186      6.45e-08     00000 
   12    -265.9288421186      1.39e-08     00000 
   13    -265.9288421186      4.18e-09     00000 Convergence criterion met
Timing for Total SCF: 831.00s (wall), 1657.72s (cpu)
Multipole orders to be included
        2
        3
computing dipole RHS
computing quadrupole RHS
total number of RHS in solve_reponses: 8
RHS batch sizes
        8
Beginning Block Conjugate Gradient Iterations. Batch Number: 0
computing hessian-vector products by finite difference
              1      4.79e-01     00000 Conjugate Gradient Iteration
computing hessian-vector products by finite difference
              2      1.45e-01     00000 Conjugate Gradient Iteration
computing hessian-vector products by finite difference
              3      3.47e-02     00000 Conjugate Gradient Iteration
computing hessian-vector products by finite difference
              4      1.00e-02     00000 Conjugate Gradient Iteration
computing hessian-vector products by finite difference
              5      2.40e-03     00000 Conjugate Gradient Iteration
computing hessian-vector products by finite difference
              6      4.25e-04     00000 Conjugate Gradient Iteration
computing hessian-vector products by finite difference
              7      6.34e-05     00000 Conjugate Gradient Iteration
computing hessian-vector products by finite difference
              8      8.94e-06     00000 Conjugate Gradient Iteration
computing hessian-vector products by finite difference
              9      1.49e-06     00000 Conjugate Gradient Iteration
computing hessian-vector products by finite difference
             10      2.00e-07     00000 Conjugate Gradient Iteration
computing hessian-vector products by finite difference
             11      2.71e-08     00000 Conjugate Gradient Iteration
computing hessian-vector products by finite difference
             12      5.27e-09     00000 CG Converged
batch 0 complete
Done Calculating Responses
TESTING ORTHOGONALIZATION OF MULTIPOLE BASIS
Multipole virts passed orthogonality test
Virts Per Order
           66
          110
 
 --------------------------------------------------------------
 
                    Orbital Energies (a.u.)
 --------------------------------------------------------------
 
 Alpha MOs
 -- Occupied --
-14.6894 -14.6843 -10.5631 -10.5072 -10.5031 -10.4886  -1.3841  -1.2561
 -1.1039  -1.0512  -0.9533  -0.9183  -0.8889  -0.7938  -0.7828  -0.7585
 -0.7516  -0.7320  -0.7146  -0.6877  -0.6014  -0.5431
 -- Virtual --
 -0.1195  -0.0835  -0.0794  -0.0629  -0.0485  -0.0296  -0.0257  -0.0230
 -0.0038   0.0151   0.0212   0.0279   0.0441   0.0459   0.0612   0.0616
  0.0784   0.0854   0.0967   0.0994   0.1070   0.1143   0.1224   0.1234
  0.1428   0.1449   0.1543   0.1613   0.1675   0.1701   0.1752   0.1803
  0.1878   0.1966   0.2030   0.2109   0.2229   0.2272   0.2333   0.2480
  0.2496   0.2559   0.2665   0.2697   0.2778   0.2824   0.2986   0.3033
  0.3078   0.3092   0.3138   0.3208   0.3323   0.3452   0.3643   0.3660
  0.3788   0.3876   0.3926   0.3979   0.4059   0.4084   0.4238   0.4298
  0.4451   0.4532   0.4730   0.4842   0.4859   0.4951   0.5046   0.5121
  0.5218   0.5247   0.5337   0.5412   0.5475   0.5635   0.5809   0.5934
  0.5985   0.6151   0.6221   0.6301   0.6358   0.6429   0.6557   0.6674
  0.6800   0.6838   0.6990   0.7159   0.7450   0.7747   0.7963   0.8022
  0.8173   0.8408   0.8473   0.8816   0.8930   0.9273   0.9349   0.9525
  0.9595   0.9987   1.0131   1.0328   1.0461   1.0563   1.0702   1.0942
  1.1033   1.1349   1.1702   1.1828   1.1907   1.2413   1.2782   1.3029
  1.3244   1.3759   1.3846   1.4042   1.4318   1.4603   1.5566   1.5937
  1.6028   1.6285   1.6463   1.6760   1.6831   1.6990   1.7177   1.7350
  1.7434   1.7520   1.7790   1.7890   1.8232   1.8421   1.8589   1.8709
  1.9126   1.9428   1.9498   2.0031   2.0159   2.0395   2.1276   2.1674
  2.1881   2.2071   2.2346   2.2679   2.2867   2.3017   2.3412   2.3491
  2.3933   2.4001   2.4253   2.4588   2.4682   2.4870   2.5263   2.5378
  2.5411   2.5586   2.5958   2.6088   2.6553   2.7007   2.7230   2.7546
  2.7814   2.7966   2.8166   2.8386   2.8620   2.8832   2.8893   2.9242
  2.9557   2.9850   3.0234   3.0313   3.0615   3.0673   3.0827   3.0937
  3.1142   3.1296   3.1593   3.2176   3.2285   3.2505   3.2545   3.2786
  3.3074   3.3290   3.3671   3.3979   3.4142   3.4400   3.4463   3.4677
  3.4864   3.5125   3.5277   3.6006   3.6216   3.6659   3.7232   3.7735
  3.8140   3.8792   3.8980   4.0128   4.0898   4.1260   4.1973   4.2068
  4.2219   4.2302   4.3165   4.3968   4.4968   4.5173   4.6284   4.6405
  4.6840   4.7061   4.7698   4.7863   4.8274   4.9294   4.9374   4.9646
  5.0169   5.0604   5.0807   5.1999   5.2537   5.2671   5.3615   5.4199
  5.4521   5.4910   5.5535   5.5853   5.7366   5.8422   5.9213   6.0473
  6.0916  22.4958  22.5453  22.8391  22.9005  32.4467  32.8314
 --------------------------------------------------------------
 
          Ground-State Mulliken Net Atomic Charges

     Atom                 Charge (a.u.)
  ----------------------------------------
      1 C                     0.007384
      2 N                     0.251841
      3 C                    -0.006631
      4 N                     0.082209
      5 C                    -0.437074
      6 C                    -0.804959
      7 H                     0.186187
      8 H                     0.251829
      9 H                     0.266539
     10 H                     0.333021
     11 H                     0.277638
     12 H                     0.288179
     13 H                     0.303837
  ----------------------------------------
  Sum of atomic charges =     1.000000

 -----------------------------------------------------------------
                    Cartesian Multipole Moments
 -----------------------------------------------------------------
    Charge (ESU x 10^10)
                 4.8032
    Dipole Moment (Debye)
         X       2.5448      Y      -0.5433      Z       3.7747
       Tot       4.5847
    Quadrupole Moments (Debye-Ang)
        XX     -19.2553     XY       4.0522     YY     -34.3227
        XZ       6.1873     YZ      -0.9870     ZZ     -16.3189
    Octopole Moments (Debye-Ang^2)
       XXX     -32.7162    XXY       9.4931    XYY     -21.9187
       YYY       5.4080    XXZ      -1.0470    XYZ       1.5134
       YYZ     -17.4958    XZZ      -3.0583    YZZ       0.3896
       ZZZ     -11.3787
    Hexadecapole Moments (Debye-Ang^3)
      XXXX    -292.7501   XXXY      -7.0303   XXYY     -75.4457
      XYYY     -34.3992   YYYY     -65.6089   XXXZ     -42.3966
      XXYZ       3.6967   XYYZ     -25.8810   YYYZ       1.7939
      XXZZ     -69.2125   XYZZ      -5.5536   YYZZ     -57.7057
      XZZZ     -32.1775   YZZZ      -9.2042   ZZZZ    -170.6336
 -----------------------------------------------------------------
Archival summary:
1\1\nid00530\SP\ProcedureUnspecified\BasisUnspecified\247(1+,1)\meili\SunAug1521:09:172021SunAug1521:09:172021\0\\#,ProcedureUnspecified,BasisUnspecified,\\1,1\N\C,1,1.34399\H,2,1.10924,1,126.29\N,2,1.34646,1,106.938,3,-179.46,0\H,4,1.01722,2,123.264,1,179.764,0\C,4,1.39113,2,110.407,1,0.739972,0\H,6,1.07984,4,122.844,2,178.659,0\C,6,1.36643,4,105.882,2,-0.62219,0\H,8,1.08055,6,130.788,4,179.452,0\C,1,1.47796,2,124.397,3,0.229522,0\H,10,1.09311,1,107.946,2,22.4452,0\H,10,1.09414,1,108.526,2,140.594,0\H,10,1.09488,1,109.333,2,-99.1024,0\\\@

 Total job time:  14900.62s(wall), 29687.08s(cpu) 
 Sun Aug 15 21:09:18 2021

        *************************************************************
        *                                                           *
        *  Thank you very much for using Q-Chem.  Have a nice day.  *
        *                                                           *
        *************************************************************


Done Job For Fragment 1
calling putenv with: QCSCRATCH=/global/cscratch1/sd/meili 
calling putenv with: QCLOCALSCR=/tmp 
calling putenv with: QCTHREADS=32 
Doing General SCFMI
 Exchange:     0.1670 Hartree-Fock + 1.0000 wB97X-V + LR-HF
 Correlation:  1.0000 wB97X-V
 Using Euler-Maclaurin-Lebedev (99,590) quadrature formula
 Nonlocal Correlation:  VV10 with C = 0.0100 and b = 6.00 and scale = 1.00000
 Grid used for NLC:  SG-1 standard quadrature
performing fock build before subrot guess so that all methods have access
Printing subrot_rss_gen Method Specification:
Occupied Subspace Method is 0
Virtual Subspace Method is 0
Energy of the unrelaxed supersystem initial determinant -1026.924126651797
write pseudocanon occs and virts to disk
write pseudocanon orbital energies to disk
Tolerance of ortho_decomp_scf: 1.00e-06
GDM subspace size: 20
Beginning the Orthogonal Decomposition of the Initial Supersystem Wavefunction
    1   -1026.7163864886      8.54e-02     ortho_decomp Preconditoned Steepest Descent
    2   -1026.7379472167      2.60e-03     ortho_decomp BFGS Step
    3   -1026.7380573438      2.42e-04     ortho_decomp BFGS Step
    4   -1026.7380575873      1.16e-05     ortho_decomp BFGS Step
    5   -1026.7380575881      4.48e-07     ortho_decomp 00000 Convergence criterion met
 Hartree-Fock
 Hartree-Fock
 Hartree-Fock
Doing General SCFMI
 Exchange:     0.1670 Hartree-Fock + 1.0000 wB97X-V + LR-HF
 Correlation:  1.0000 wB97X-V
 Using Euler-Maclaurin-Lebedev (99,590) quadrature formula
 Nonlocal Correlation:  VV10 with C = 0.0100 and b = 6.00 and scale = 1.00000
 Grid used for NLC:  SG-1 standard quadrature
performing fock build at end of subrot_r(subrot) constructor so that all methods have access
<S^2> of initial wavefunction before polarization iterations 0.0000000000
Beginning iterations for the determination of the polarized wavefunction
Energy prior to optimization (guess energy) = -1026.924126651797
Begin Timing: Total SCF Calculation
begin iterations for algorithm: DIIS         
the SCF tolerance is set to 1.00e-08
    1   -1026.9241266518      4.45e-04     00000 
    2   -1026.9399506313      2.27e-04     00000 
    3   -1026.9416498746      1.38e-04     00000 
    4   -1026.9423540640      4.77e-05     00000 
    5   -1026.9424566200      2.15e-05     00000 
    6   -1026.9424821713      7.45e-06     00000 
    7   -1026.9424887285      3.08e-06     00000 
    8   -1026.9424897483      1.61e-06     00000 
    9   -1026.9424899066      7.61e-07     00000 
   10   -1026.9424899394      2.28e-07     00000 
   11   -1026.9424899438      1.17e-07     00000 
   12   -1026.9424899445      6.19e-08     00000 
   13   -1026.9424899446      2.21e-08     00000 
   14   -1026.9424899446      9.10e-09     00000 Convergence criterion met
write pseudocanon occs and virts to disk
write pseudocanon orbital energies to disk
Timing for Total SCF: 3857.00s (wall), 7688.38s (cpu)
<S^2> of polarized wavefunction after polarization iterations 0.0000000000
relaxing scfmi constraint to allow all rotations in the entire AO span
Doing General SCFMI
 Exchange:     0.1670 Hartree-Fock + 1.0000 wB97X-V + LR-HF
 Correlation:  1.0000 wB97X-V
 Using Euler-Maclaurin-Lebedev (99,590) quadrature formula
 Nonlocal Correlation:  VV10 with C = 0.0100 and b = 6.00 and scale = 1.00000
 Grid used for NLC:  SG-1 standard quadrature
performing fock build at end of subrot_r(subrot) constructor so that all methods have access
<S^2> of polarized wavefunction before ct-allowed iterations 0.0000000000
Beginning iterations for the determination of the CT-Allowed wavefunction
Energy prior to optimization (guess energy) = -1026.942489944649
Begin Timing: Total SCF Calculation
begin iterations for algorithm: DIIS         
the SCF tolerance is set to 1.00e-08
    1   -1026.9424899446      2.41e-04     00000 
    2   -1026.9512004941      4.11e-05     00000 
    3   -1026.9516116604      2.20e-05     00000 
    4   -1026.9516528838      1.12e-05     00000 
    5   -1026.9516662606      3.02e-06     00000 
    6   -1026.9516673288      7.37e-07     00000 
    7   -1026.9516674328      3.40e-07     00000 
    8   -1026.9516674506      1.07e-07     00000 
    9   -1026.9516674524      5.03e-08     00000 
   10   -1026.9516674529      1.18e-08     00000 
   11   -1026.9516674529      5.10e-09     00000 Convergence criterion met
write pseudocanon occs and virts to disk
write pseudocanon orbital energies to disk
Timing for Total SCF: 2977.00s (wall), 5939.13s (cpu)
<S^2> of ct_allowed wavefunction after ct-allowed iterations 0.0000000000

================================
        Results of EDA2         
================================
Basic EDA Quantities
--------------------
Fragment Energies (Ha):
1 -760.8850019727
2 -265.9288421186
--------------------
  E_prp (kJ/mol) = 0.0000
  E_frz (kJ/mol) = -289.5503
  E_pol (kJ/mol) = -48.2134
  E_vct (kJ/mol) = -24.0958
  E_int (kJ/mol) = -361.8595
--------------------


Initial Wavefunction Decomposition
--------------------
  --------------------
  Orthogonal Fragment Subspace Decomposition:
  --------------------
     E_elec   (ELEC)   (kJ/mol) = -424.6371
     E_pauli  (PAULI)  (kJ/mol) = 162.6494
     E_disp   (DISP)   (kJ/mol) = -27.5626
     --------------------
     Terms summing to E_pauli:
     --------------------
        E_kep_pauli       (kJ/mol) = 198.9798
        E_disp_free_pauli (kJ/mol) = -36.3304
  --------------------
  Classical Frozen Decomposition:
  --------------------
     E_cls_elec  (CLS ELEC)  (kJ/mol) = -376.5831
     E_cls_pauli (CLS PAULI) (kJ/mol) = 87.0328
    [E_mod_pauli (MOD PAULI) (kJ/mol) = 114.5954 (CLS PAULI - DISP from orthogonal decomposition) ]
  --------------------
--------------------

Simplified EDA Summary (kJ/mol)
--------------------
 PREPARATION     0.0000
 FROZEN          -261.9877      (does not include dispersion)
[PAULI           162.6494]     (if this is negligible, then frozen describes electrostatics)
 DISPERSION      -27.5626
 POLARIZATION    -48.2134
 CHARGE TRANSFER -24.0958
 TOTAL           -361.8595     (PRP + FRZ + DISP + POL + CT)
--------------------
 
 --------------------------------------------------------------
 
                    Orbital Energies (a.u.)
 --------------------------------------------------------------
 
 Alpha MOs
 -- Occupied --
******** -19.1917 -19.1903 -19.1902 -19.1900 -14.5498 -14.5492 -10.4102
-10.3818 -10.3777 -10.3500  -9.8052  -7.5599  -7.5596  -7.5592  -1.3528
 -1.2483  -1.1258  -1.1212  -1.1180  -1.1072  -0.9715  -0.9151  -0.8221
 -0.7843  -0.7570  -0.7347  -0.6590  -0.6498  -0.6321  -0.6280  -0.6143
 -0.6088  -0.6045  -0.6028  -0.5811  -0.5498  -0.4692  -0.4525  -0.4513
 -0.4363  -0.4305  -0.4269  -0.4115  -0.3574  -0.3529  -0.3512
 -- Virtual --
  0.0230   0.0274   0.0390   0.0416   0.0593   0.0768   0.0825   0.0901
  0.0957   0.1132   0.1149   0.1179   0.1308   0.1324   0.1465   0.1553
  0.1561   0.1600   0.1758   0.1767   0.1828   0.1857   0.1915   0.1954
  0.1992   0.2079   0.2103   0.2153   0.2159   0.2192   0.2264   0.2287
  0.2315   0.2386   0.2466   0.2492   0.2514   0.2545   0.2591   0.2630
  0.2667   0.2721   0.2750   0.2803   0.2844   0.2966   0.2977   0.3041
  0.3069   0.3137   0.3195   0.3276   0.3370   0.3402   0.3426   0.3488
  0.3514   0.3556   0.3615   0.3633   0.3780   0.3836   0.3866   0.4011
  0.4015   0.4077   0.4101   0.4195   0.4277   0.4357   0.4382   0.4454
  0.4488   0.4582   0.4598   0.4710   0.4762   0.4802   0.4895   0.4923
  0.5001   0.5065   0.5082   0.5150   0.5172   0.5306   0.5308   0.5402
  0.5418   0.5459   0.5476   0.5574   0.5598   0.5706   0.5711   0.5857
  0.5916   0.6014   0.6151   0.6244   0.6311   0.6368   0.6402   0.6456
  0.6472   0.6538   0.6602   0.6638   0.6708   0.6766   0.6795   0.6847
  0.6937   0.7048   0.7089   0.7163   0.7236   0.7304   0.7327   0.7376
  0.7455   0.7463   0.7567   0.7594   0.7654   0.7774   0.7825   0.7992
  0.8031   0.8072   0.8218   0.8303   0.8347   0.8445   0.8468   0.8560
  0.8726   0.8760   0.8833   0.8875   0.8925   0.8992   0.9167   0.9358
  0.9425   0.9503   0.9512   0.9627   0.9736   0.9837   0.9917   1.0022
  1.0083   1.0181   1.0296   1.0362   1.0447   1.0559   1.0680   1.0826
  1.0890   1.0981   1.1123   1.1168   1.1252   1.1427   1.1466   1.1514
  1.1621   1.1639   1.1748   1.1890   1.1961   1.2071   1.2257   1.2360
  1.2498   1.2599   1.2651   1.2744   1.2804   1.2945   1.3120   1.3270
  1.3429   1.3744   1.3756   1.3852   1.3969   1.4199   1.4257   1.4418
  1.4682   1.4923   1.5361   1.5621   1.5795   1.5937   1.6136   1.7055
  1.7175   1.7273   1.7403   1.7495   1.7690   1.7883   1.7964   1.8005
  1.8109   1.8242   1.8330   1.8386   1.8486   1.8646   1.8769   1.8822
  1.8954   1.9011   1.9202   1.9282   1.9349   1.9567   1.9713   1.9889
  1.9933   2.0111   2.0271   2.0285   2.0694   2.0779   2.0822   2.0930
  2.1053   2.1123   2.1255   2.1355   2.1609   2.1852   2.2127   2.2179
  2.2720   2.2871   2.3018   2.3274   2.3433   2.3447   2.3551   2.3732
  2.4017   2.4302   2.4504   2.4768   2.4921   2.5104   2.5185   2.5303
  2.5413   2.5563   2.5742   2.6146   2.6236   2.6470   2.6704   2.6783
  2.6878   2.7048   2.7109   2.7314   2.7416   2.7523   2.7640   2.7678
  2.7865   2.7998   2.8096   2.8295   2.8411   2.8509   2.8834   2.8964
  2.9202   2.9268   2.9517   2.9942   3.0058   3.0294   3.0356   3.0458
  3.0681   3.0984   3.1072   3.1346   3.1502   3.1663   3.1678   3.2028
  3.2123   3.2203   3.2211   3.2326   3.2411   3.2627   3.2787   3.2863
  3.2972   3.3239   3.3323   3.3628   3.3674   3.3742   3.3841   3.4065
  3.4126   3.4361   3.4474   3.4517   3.4726   3.4796   3.4950   3.5206
  3.5292   3.5427   3.5746   3.5828   3.5976   3.6218   3.6353   3.6546
  3.6590   3.6800   3.7302   3.7503   3.7594   3.7905   3.8208   3.8738
  3.9155   3.9756   4.0437   4.0593   4.1598   4.2391   4.2592   4.2883
  4.3233   4.3551   4.3674   4.3778   4.3990   4.4373   4.4685   4.4764
  4.5379   4.6509   4.6670   4.7661   4.7871   4.8300   4.8512   4.9178
  4.9551   4.9769   5.0732   5.0770   5.1077   5.1608   5.2065   5.2355
  5.2633   5.2655   5.2710   5.2746   5.2774   5.2857   5.2986   5.3019
  5.3058   5.3093   5.3154   5.3196   5.3631   5.3977   5.3997   5.4317
  5.5022   5.5240   5.5387   5.5468   5.5488   5.5561   5.5693   5.5817
  5.6112   5.6204   5.6446   5.6595   5.7018   5.7492   5.8219   5.8634
  5.9024   5.9039   5.9216   5.9483   5.9624   5.9716   5.9949   6.0687
  6.1956   6.2459   6.5482   6.5724   6.5819   6.6090   6.6393   6.6978
  6.7017   6.7516   6.7622   6.7677   6.8218   6.8801   6.9147   6.9363
  7.0973   7.1921   7.2060   7.3008   7.3069   7.3135  11.3618  11.4165
 11.4304  22.6633  22.7011  23.0170  23.1072  28.9083  32.6155  32.9882
 43.9076  44.0907  44.1293  44.1707
 --------------------------------------------------------------
 
          Ground-State Mulliken Net Atomic Charges

     Atom                 Charge (a.u.)
  ----------------------------------------
      1 O                    -0.688171
      2 Cl                    1.476785
      3 O                    -0.643957
      4 O                    -0.549465
      5 O                    -0.559391
      6 C                    -0.009076
      7 N                     0.361907
      8 C                    -0.527134
      9 N                     0.163656
     10 C                    -0.517775
     11 C                    -0.753795
     12 H                     0.198811
     13 H                     0.692596
     14 H                     0.233078
     15 H                     0.315761
     16 H                     0.221791
     17 H                     0.299573
     18 H                     0.284805
  ----------------------------------------
  Sum of atomic charges =     0.000000

 -----------------------------------------------------------------
                    Cartesian Multipole Moments
 -----------------------------------------------------------------
    Charge (ESU x 10^10)
                 0.0000
    Dipole Moment (Debye)
         X      12.8753      Y      -0.9393      Z      -7.3255
       Tot      14.8431
    Quadrupole Moments (Debye-Ang)
        XX     -95.6188     XY       4.8333     YY     -76.1945
        XZ      37.0381     YZ      -1.9741     ZZ     -90.2968
    Octopole Moments (Debye-Ang^2)
       XXX     414.3575    XXY      -0.0337    XYY      97.7907
       YYY     -13.9675    XXZ    -205.9723    XYZ       5.9772
       YYZ    -134.7286    XZZ     203.4246    YZZ     -10.9757
       ZZZ    -446.9710
    Hexadecapole Moments (Debye-Ang^3)
      XXXX   -2943.9271   XXXY      40.4610   XXYY    -484.0191
      XYYY      22.9729   YYYY    -219.2366   XXXZ    1241.8716
      XXYZ     -27.5246   XYYZ     321.1483   YYYZ     -54.8320
      XXZZ   -1054.3344   XYZZ      39.3179   YYZZ    -449.8712
      XZZZ    1244.4389   YZZZ    -100.5374   ZZZZ   -2565.9450
 -----------------------------------------------------------------
Archival summary:
1\1\nid00530\SP\ProcedureUnspecified\BasisUnspecified\l14247\meili\MonAug1600:18:482021MonAug1600:18:482021\0\\#,ProcedureUnspecified,BasisUnspecified,\\0,1\Cl\O,1,1.46544\O,1,1.46551,2,111.848\O,1,1.50373,2,109.542,3,122.248,0\O,1,1.51838,2,109.312,3,-120.752,0\H,5,1.76611,1,105.371,2,-106.255,0\C,6,1.10924,5,172.903,1,-4.30584,0\N,7,1.34399,6,126.29,5,-61.3447,0\N,7,1.34646,6,126.769,5,118.01,0\H,9,1.01722,7,123.264,6,0.307528,0\C,9,1.39113,7,110.407,6,-178.717,0\H,11,1.07984,9,122.844,7,178.659,0\C,11,1.36643,9,105.882,7,-0.62219,0\H,13,1.08055,11,130.788,9,179.452,0\C,8,1.47796,7,124.397,6,0.229522,0\H,15,1.09311,8,107.946,7,22.4452,0\H,15,1.09414,8,108.526,7,140.594,0\H,15,1.09488,8,109.333,7,-99.1024,0\\\@

 Total job time:  31317.16s(wall), 22669.97s(cpu) 
 Mon Aug 16 00:18:49 2021

        *************************************************************
        *                                                           *
        *  Thank you very much for using Q-Chem.  Have a nice day.  *
        *                                                           *
        *************************************************************


