
Running Job 1 of 1 SSI-103GLU-108TRP-1_SMD_TZVPD.in
qchem SSI-103GLU-108TRP-1_SMD_TZVPD.in_65443.0 /tmp/qchem65443/ 0
/global/common/cori/software/qchem/5.2/exe/qcprog.exe_s SSI-103GLU-108TRP-1_SMD_TZVPD.in_65443.0 /tmp/qchem65443/
                  Welcome to Q-Chem
     A Quantum Leap Into The Future Of Chemistry


 Q-Chem 5.2, Q-Chem, Inc., Pleasanton, CA (2019)

 License issued to: National Energy Research Scientific Computing Center

 Yihan Shao,  Zhengting Gan,  E. Epifanovsky,  A. T. B. Gilbert,  M. Wormit,  
 J. Kussmann,  A. W. Lange,  A. Behn,  Jia Deng,  Xintian Feng,  D. Ghosh,  
 M. Goldey,  P. R. Horn,  L. D. Jacobson,  I. Kaliman,  T. Kus,  A. Landau,  
 Jie Liu,  E. I. Proynov,  R. M. Richard,  R. P. Steele,  E. J. Sundstrom,  
 H. L. Woodcock III,  P. M. Zimmerman,  D. Zuev,  B. Albrecht,  E. Alguire,  
 S. A. Baeppler,  D. Barton,  Z. Benda,  Y. A. Bernard,  E. J. Berquist,  
 K. B. Bravaya,  H. Burton,  D. Casanova,  Chun-Min Chang,  Yunqing Chen,  
 A. Chien,  K. D. Closser,  M. P. Coons,  S. Coriani,  S. Dasgupta,  
 A. L. Dempwolff,  M. Diedenhofen,  Hainam Do,  R. G. Edgar,  Po-Tung Fang,  
 S. Faraji,  S. Fatehi,  Qingguo Feng,  K. D. Fenk,  J. Fosso-Tande,  
 J. Gayvert,  Qinghui Ge,  A. Ghysels,  G. Gidofalvi,  J. Gomes,  
 J. Gonthier,  A. Gunina,  D. Hait,  M. W. D. Hanson-Heine,  
 P. H. P. Harbach,  A. W. Hauser,  M. F. Herbst,  J. E. Herr,  
 E. G. Hohenstein,  Z. C. Holden,  Kerwin Hui,  B. C. Huynh,  T.-C. Jagau,  
 Hyunjun Ji,  B. Kaduk,  K. Khistyaev,  Jaehoon Kim,  P. Klunzinger,  K. Koh,  
 D. Kosenkov,  L. Koulias,  T. Kowalczyk,  C. M. Krauter,  A. Kunitsa,  
 Ka Un Lao,  A. Laurent,  K. V. Lawler,  Joonho Lee,  D. Lefrancois,  
 S. Lehtola,  D. S. Levine,  Yi-Pei Li,  You-Sheng Lin,  Fenglai Liu,  
 E. Livshits,  A. Luenser,  P. Manohar,  E. Mansoor,  S. F. Manzer,  
 Shan-Ping Mao,  Yuezhi Mao,  N. Mardirossian,  A. V. Marenich,  
 T. Markovich,  L. A. Martinez-Martinez,  S. A. Maurer,  N. J. Mayhall,  
 S. C. McKenzie,  J.-M. Mewes,  P. Morgante,  A. F. Morrison,  
 J. W. Mullinax,  K. Nanda,  T. S. Nguyen-Beck,  R. Olivares-Amaya,  
 J. A. Parkhill,  Zheng Pei,  T. M. Perrine,  F. Plasser,  P. Pokhilko,  
 S. Prager,  A. Prociuk,  E. Ramos,  D. R. Rehn,  F. Rob,  M. Scheurer,  
 M. Schneider,  N. Sergueev,  S. M. Sharada,  S. Sharma,  D. W. Small,  
 T. Stauch,  T. Stein,  Yu-Chuan Su,  A. J. W. Thom,  A. Tkatchenko,  
 T. Tsuchimochi,  N. M. Tubman,  L. Vogt,  M. L. Vidal,  O. Vydrov,  
 M. A. Watson,  J. Wenzel,  M. de Wergifosse,  T. A. Wesolowski,  A. White,  
 J. Witte,  A. Yamada,  Jun Yang,  K. Yao,  S. Yeganeh,  S. R. Yost,  
 Zhi-Qiang You,  A. Zech,  Igor Ying Zhang,  Xing Zhang,  Yan Zhao,  
 Ying Zhu,  B. R. Brooks,  G. K. L. Chan,  C. J. Cramer,  M. S. Gordon,  
 W. J. Hehre,  A. Klamt,  M. W. Schmidt,  C. D. Sherrill,  D. G. Truhlar,  
 A. Aspuru-Guzik,  R. Baer,  A. T. Bell,  N. A. Besley,  Jeng-Da Chai,  
 A. E. DePrince, III,  R. A. DiStasio Jr.,  A. Dreuw,  B. D. Dunietz,  
 T. R. Furlani,  Chao-Ping Hsu,  Yousung Jung,  Jing Kong,  D. S. Lambrecht,  
 WanZhen Liang,  C. Ochsenfeld,  V. A. Rassolov,  L. V. Slipchenko,  
 J. E. Subotnik,  T. Van Voorhis,  J. M. Herbert,  A. I. Krylov,  
 P. M. W. Gill,  M. Head-Gordon

 Contributors to earlier versions of Q-Chem not listed above: 
 R. D. Adamson,  B. Austin,  J. Baker,  G. J. O. Beran,  K. Brandhorst,  
 S. T. Brown,  E. F. C. Byrd,  A. K. Chakraborty,  C.-L. Cheng,  
 Siu Hung Chien,  D. M. Chipman,  D. L. Crittenden,  H. Dachsel,  
 R. J. Doerksen,  A. D. Dutoi,  L. Fusti-Molnar,  W. A. Goddard III,  
 A. Golubeva-Zadorozhnaya,  S. R. Gwaltney,  G. Hawkins,  A. Heyden,  
 S. Hirata,  G. Kedziora,  F. J. Keil,  C. Kelley,  Jihan Kim,  R. A. King,  
 R. Z. Khaliullin,  P. P. Korambath,  W. Kurlancheek,  A. M. Lee,  M. S. Lee,  
 S. V. Levchenko,  Ching Yeh Lin,  D. Liotard,  R. C. Lochan,  I. Lotan,  
 P. E. Maslen,  N. Nair,  D. P. O'Neill,  D. Neuhauser,  E. Neuscamman,  
 C. M. Oana,  R. Olson,  B. Peters,  R. Peverati,  P. A. Pieniazek,  
 Y. M. Rhee,  J. Ritchie,  M. A. Rohrdanz,  E. Rosta,  N. J. Russ,  
 H. F. Schaefer III,  N. E. Schultz,  N. Shenvi,  A. C. Simmonett,  A. Sodt,  
 D. Stuck,  K. S. Thanthiriwatte,  V. Vanovschi,  Tao Wang,  A. Warshel,  
 C. F. Williams,  Q. Wu,  X. Xu,  W. Zhang

 Please cite Q-Chem as follows:
 Y. Shao et al., Mol. Phys. 113, 184-215 (2015)
 DOI: 10.1080/00268976.2014.952696

 Q-Chem 5.2.0 for Intel X86 EM64T Linux

 Parts of Q-Chem use Armadillo 8.300.2 (Tropical Shenanigans).
 http://arma.sourceforge.net/

 Q-Chem begins on Sun Sep 26 13:08:56 2021  

Host: cori01
0

     Scratch files written to /tmp/qchem65443//
 May1019 |scratch|qcdevops|jenkins|workspace|build_RNUM -1
Processing $rem in /global/common/cori/software/qchem/5.2/config/preferences:
	 MEM_TOTAL  96000 
NAlpha2: 102
NElect   102
Mult     1
Symmetry turned off for PCM/SM12/SMD calculation

 Q-Chem warning in module libgen/rem_setup.C, line 2803:

 Neither GIA nor STOLL is specified by user. Use STOLL as the default


Checking the input file for inconsistencies... 	...done.

--------------------------------------------------------------
User input:
--------------------------------------------------------------
$comment
SSI-103GLU-108TRP-1.pdb
$end

$molecule
-1 1
--
-1 1
C   -1.456343793961    4.029744566509   -0.948699195458
C   -1.157343793961    3.566744566509    0.472300804542
O   -1.108343793961    2.350744566509    0.723300804542
O   -0.892343793961    4.401744566509    1.374300804542
H   -0.559343793961    4.487744566509   -1.375699195458
H   -2.240343793961    4.780744566509   -0.928699195458
H   -1.776603793961    3.209394566509   -1.607839195458
--
0 1
C   -0.839343793961   -4.150255433491    0.446300804542
C   -1.503343793961   -1.681255433491    0.566300804542
C    0.345656206039   -0.673255433491   -0.192699195458
C   -0.616343793961   -2.685255433491    0.319300804542
C    0.576656206039   -2.063255433491   -0.174699195458
C    1.316656206039    0.227744566509   -0.598699195458
C    2.536656206039   -0.279255433491   -1.009699195458
C    1.830656206039   -2.544255433491   -0.577699195458
C    2.785656206039   -1.652255433491   -1.005699195458
N   -0.929343793961   -0.476255433491    0.264300804542
H   -1.353343793961    0.440744566509    0.427300804542
H   -2.513343793961   -1.820255433491    0.934300804542
H    1.121656206039    1.288744566509   -0.587699195458
H   -1.436343793961   -4.345255433491    1.338300804542
H    0.128656206039   -4.624255433491    0.608300804542
H    3.318656206039    0.394744566509   -1.330699195458
H    2.044656206039   -3.599255433491   -0.521699195458
H    3.759656206039   -2.018255433491   -1.294699195458
H   -1.303743793961   -4.623267433491   -0.431529195458
$end

$rem
JOBTYPE			EDA
EDA2			1
method			wB97X-V
BASIS			def2-TZVPD
XC_GRID			000099000590
NL_GRID			1
UNRESTRICTED		FALSE
MAX_SCF_CYCLES		200
SYMMETRY		FALSE
SYM_IGNORE		TRUE
MEM_STATIC		2000
BASIS_LIN_DEP_THRESH 	6
THRESH 			14
SCF_CONVERGENCE 	8
SCF_PRINT_FRGM 		TRUE
SOLVENT_METHOD          SMD
$end

$SMX
SOLVENT			WATER
$END
--------------------------------------------------------------
 ----------------------------------------------------------------
             Standard Nuclear Orientation (Angstroms)
    I     Atom           X                Y                Z
 ----------------------------------------------------------------
    1      C      -1.4563437940     4.0297445665    -0.9486991955
    2      C      -1.1573437940     3.5667445665     0.4723008045
    3      O      -1.1083437940     2.3507445665     0.7233008045
    4      O      -0.8923437940     4.4017445665     1.3743008045
    5      H      -0.5593437940     4.4877445665    -1.3756991955
    6      H      -2.2403437940     4.7807445665    -0.9286991955
    7      H      -1.7766037940     3.2093945665    -1.6078391955
    8      C      -0.8393437940    -4.1502554335     0.4463008045
    9      C      -1.5033437940    -1.6812554335     0.5663008045
   10      C       0.3456562060    -0.6732554335    -0.1926991955
   11      C      -0.6163437940    -2.6852554335     0.3193008045
   12      C       0.5766562060    -2.0632554335    -0.1746991955
   13      C       1.3166562060     0.2277445665    -0.5986991955
   14      C       2.5366562060    -0.2792554335    -1.0096991955
   15      C       1.8306562060    -2.5442554335    -0.5776991955
   16      C       2.7856562060    -1.6522554335    -1.0056991955
   17      N      -0.9293437940    -0.4762554335     0.2643008045
   18      H      -1.3533437940     0.4407445665     0.4273008045
   19      H      -2.5133437940    -1.8202554335     0.9343008045
   20      H       1.1216562060     1.2887445665    -0.5876991955
   21      H      -1.4363437940    -4.3452554335     1.3383008045
   22      H       0.1286562060    -4.6242554335     0.6083008045
   23      H       3.3186562060     0.3947445665    -1.3306991955
   24      H       2.0446562060    -3.5992554335    -0.5216991955
   25      H       3.7596562060    -2.0182554335    -1.2946991955
   26      H      -1.3037437940    -4.6232674335    -0.4315291955
 ----------------------------------------------------------------
 Nuclear Repulsion Energy =         808.70925836 hartrees
 There are       51 alpha and       51 beta electrons
 Requested basis set is def2-TZVPD
 There are 244 shells and 632 basis functions

 Total QAlloc Memory Limit  96000 MB
 Mega-Array Size      1956 MB
 MEM_STATIC part      2000 MB
 
 Citation of the SMD model:
 Marenich, A.V.; Cramer, C.J.; Truhlar, D.G.
 J. Phys. Chem. B 2009, 113, 6378-6396.
 iSolventCode=           1
 Solvent: water                                                           
 
 vradii
            1           2           3           4           5           6
    1   1.8500000   1.8500000   1.5200000   1.5200000   1.2000000   1.2000000
            7           8           9          10          11          12
    1   1.2000000   1.8500000   1.8500000   1.8500000   1.8500000   1.8500000
           13          14          15          16          17          18
    1   1.8500000   1.8500000   1.8500000   1.8500000   1.8900000   1.2000000
           19          20          21          22          23          24
    1   1.2000000   1.2000000   1.2000000   1.2000000   1.2000000   1.2000000
           25          26
    1   1.2000000   1.2000000
 Changing PCM_VDW_RADII to SMD_RADIUS
 Discretize the solute cavity surface with Lebedev spheres
	Using 110 Lebedev grid points for each H atom
	Using 194 Lebedev grid points for other atoms
	Atomic van der Waals radii will be scaled by 1.20
 Remove points where switching function is < 1.0e-08
 Keep 1979 surface tesserae and discard 2057 interior tesserae
 Molecular Surface Area = 236.941 Angst**2
 A cutoff of  1.0D-14 yielded  25333 shell pairs
 There are    170737 function pairs (    217591 Cartesian)
 Smallest overlap matrix eigenvalue = 3.88E-07
 Linear dependence detected in AO basis
 Tighter screening thresholds may be required for diffuse basis sets
 Use S2THRESH > 14 and THRESH = 14 in case of SCF convergence issues
 Number of orthogonalized atomic orbitals = 628
 Maximum deviation from orthogonality = 1.710E-10

 Scale SEOQF with 1.000000e-01/1.000000e-01/1.000000e-01

 Standard Electronic Orientation quadrupole field applied
 Nucleus-field energy     =     0.0000000562 hartrees

 -----------------------------------------------------------------------
  General SCF calculation program by
  Eric Jon Sundstrom, Paul Horn, Yuezhi Mao, Dmitri Zuev, Alec White,
  David Stuck, Shaama M.S., Shane Yost, Joonho Lee, David Small,
  Daniel Levine, Susi Lehtola, Hugh Burton, Evgeny Epifanovsky
 -----------------------------------------------------------------------
================================================================
                 ALMO-EDA with the EDA2 driver                  
================================================================
 The second-generation ALMO-EDA (for DFT):                      
 P. R. Horn, Y. Mao and M. Head-Gordon, PCCP, 18, 23067 (2016)  
 Decomposition of the frozen energy:                            
 P. R. Horn, Y. Mao and M. Head-Gordon, JCP, 144, 114107 (2016) 
 FERF model for polarization:                                   
 P. R. Horn and M. Head-Gordon, JCP, 143, 114111 (2015)         
Using eda2 option set 1
Option set summary: Frozen orbital wavefunction, initial wavefunction decomposition, and nDQ polarization.
--------------------------------
Printing EDA Options
--------------------------------
eda_child_super_basis      0
fragmo_guess_mode          0
child_mp                   1
child_mp_orders            232
cls_elec                   1
cls_disp                   0
scfmi_mode                 1
scfmi_occs                 0
scfmi_virts                0
frz_relax                  0
frz_relax_method           0
dc_pen_start               0
dc_pen_conv                0
dc_pen_increment           0
dc_pen_steps               0
dc_pen_thresh_factor       0
dc_pen_pre_newton_thresh   0
frz_ortho_decomp           1
frz_ortho_decomp_conv      6
frgm_method                2
scfmi_freeze_ss            0
separate_rehyb             0
plot_diff_den              0
eda_nocv                   0
eda_vct_relax              1
disp_free_x                0
disp_free_c                0
eda_bsse                   0
eda_pct_a                  0
eda_covp                   0
--------------------------------
Attempting to make child job directory: /tmp/qchem65443//Frg1/
Attempting to make child job directory: /tmp/qchem65443//Frg2/
Creating input file /tmp/qchem65443/Frg1.input
using default PutDataFrgm: nothing
calling putenv with: QCSCRATCH=/tmp/qchem65443/ 
calling putenv with: QCLOCALSCR=/tmp/qchem65443/ 
Spawning Job For Fragment 0
                  Welcome to Q-Chem
     A Quantum Leap Into The Future Of Chemistry


 Q-Chem 5.2, Q-Chem, Inc., Pleasanton, CA (2019)

 License issued to: National Energy Research Scientific Computing Center

 Yihan Shao,  Zhengting Gan,  E. Epifanovsky,  A. T. B. Gilbert,  M. Wormit,  
 J. Kussmann,  A. W. Lange,  A. Behn,  Jia Deng,  Xintian Feng,  D. Ghosh,  
 M. Goldey,  P. R. Horn,  L. D. Jacobson,  I. Kaliman,  T. Kus,  A. Landau,  
 Jie Liu,  E. I. Proynov,  R. M. Richard,  R. P. Steele,  E. J. Sundstrom,  
 H. L. Woodcock III,  P. M. Zimmerman,  D. Zuev,  B. Albrecht,  E. Alguire,  
 S. A. Baeppler,  D. Barton,  Z. Benda,  Y. A. Bernard,  E. J. Berquist,  
 K. B. Bravaya,  H. Burton,  D. Casanova,  Chun-Min Chang,  Yunqing Chen,  
 A. Chien,  K. D. Closser,  M. P. Coons,  S. Coriani,  S. Dasgupta,  
 A. L. Dempwolff,  M. Diedenhofen,  Hainam Do,  R. G. Edgar,  Po-Tung Fang,  
 S. Faraji,  S. Fatehi,  Qingguo Feng,  K. D. Fenk,  J. Fosso-Tande,  
 J. Gayvert,  Qinghui Ge,  A. Ghysels,  G. Gidofalvi,  J. Gomes,  
 J. Gonthier,  A. Gunina,  D. Hait,  M. W. D. Hanson-Heine,  
 P. H. P. Harbach,  A. W. Hauser,  M. F. Herbst,  J. E. Herr,  
 E. G. Hohenstein,  Z. C. Holden,  Kerwin Hui,  B. C. Huynh,  T.-C. Jagau,  
 Hyunjun Ji,  B. Kaduk,  K. Khistyaev,  Jaehoon Kim,  P. Klunzinger,  K. Koh,  
 D. Kosenkov,  L. Koulias,  T. Kowalczyk,  C. M. Krauter,  A. Kunitsa,  
 Ka Un Lao,  A. Laurent,  K. V. Lawler,  Joonho Lee,  D. Lefrancois,  
 S. Lehtola,  D. S. Levine,  Yi-Pei Li,  You-Sheng Lin,  Fenglai Liu,  
 E. Livshits,  A. Luenser,  P. Manohar,  E. Mansoor,  S. F. Manzer,  
 Shan-Ping Mao,  Yuezhi Mao,  N. Mardirossian,  A. V. Marenich,  
 T. Markovich,  L. A. Martinez-Martinez,  S. A. Maurer,  N. J. Mayhall,  
 S. C. McKenzie,  J.-M. Mewes,  P. Morgante,  A. F. Morrison,  
 J. W. Mullinax,  K. Nanda,  T. S. Nguyen-Beck,  R. Olivares-Amaya,  
 J. A. Parkhill,  Zheng Pei,  T. M. Perrine,  F. Plasser,  P. Pokhilko,  
 S. Prager,  A. Prociuk,  E. Ramos,  D. R. Rehn,  F. Rob,  M. Scheurer,  
 M. Schneider,  N. Sergueev,  S. M. Sharada,  S. Sharma,  D. W. Small,  
 T. Stauch,  T. Stein,  Yu-Chuan Su,  A. J. W. Thom,  A. Tkatchenko,  
 T. Tsuchimochi,  N. M. Tubman,  L. Vogt,  M. L. Vidal,  O. Vydrov,  
 M. A. Watson,  J. Wenzel,  M. de Wergifosse,  T. A. Wesolowski,  A. White,  
 J. Witte,  A. Yamada,  Jun Yang,  K. Yao,  S. Yeganeh,  S. R. Yost,  
 Zhi-Qiang You,  A. Zech,  Igor Ying Zhang,  Xing Zhang,  Yan Zhao,  
 Ying Zhu,  B. R. Brooks,  G. K. L. Chan,  C. J. Cramer,  M. S. Gordon,  
 W. J. Hehre,  A. Klamt,  M. W. Schmidt,  C. D. Sherrill,  D. G. Truhlar,  
 A. Aspuru-Guzik,  R. Baer,  A. T. Bell,  N. A. Besley,  Jeng-Da Chai,  
 A. E. DePrince, III,  R. A. DiStasio Jr.,  A. Dreuw,  B. D. Dunietz,  
 T. R. Furlani,  Chao-Ping Hsu,  Yousung Jung,  Jing Kong,  D. S. Lambrecht,  
 WanZhen Liang,  C. Ochsenfeld,  V. A. Rassolov,  L. V. Slipchenko,  
 J. E. Subotnik,  T. Van Voorhis,  J. M. Herbert,  A. I. Krylov,  
 P. M. W. Gill,  M. Head-Gordon

 Contributors to earlier versions of Q-Chem not listed above: 
 R. D. Adamson,  B. Austin,  J. Baker,  G. J. O. Beran,  K. Brandhorst,  
 S. T. Brown,  E. F. C. Byrd,  A. K. Chakraborty,  C.-L. Cheng,  
 Siu Hung Chien,  D. M. Chipman,  D. L. Crittenden,  H. Dachsel,  
 R. J. Doerksen,  A. D. Dutoi,  L. Fusti-Molnar,  W. A. Goddard III,  
 A. Golubeva-Zadorozhnaya,  S. R. Gwaltney,  G. Hawkins,  A. Heyden,  
 S. Hirata,  G. Kedziora,  F. J. Keil,  C. Kelley,  Jihan Kim,  R. A. King,  
 R. Z. Khaliullin,  P. P. Korambath,  W. Kurlancheek,  A. M. Lee,  M. S. Lee,  
 S. V. Levchenko,  Ching Yeh Lin,  D. Liotard,  R. C. Lochan,  I. Lotan,  
 P. E. Maslen,  N. Nair,  D. P. O'Neill,  D. Neuhauser,  E. Neuscamman,  
 C. M. Oana,  R. Olson,  B. Peters,  R. Peverati,  P. A. Pieniazek,  
 Y. M. Rhee,  J. Ritchie,  M. A. Rohrdanz,  E. Rosta,  N. J. Russ,  
 H. F. Schaefer III,  N. E. Schultz,  N. Shenvi,  A. C. Simmonett,  A. Sodt,  
 D. Stuck,  K. S. Thanthiriwatte,  V. Vanovschi,  Tao Wang,  A. Warshel,  
 C. F. Williams,  Q. Wu,  X. Xu,  W. Zhang

 Please cite Q-Chem as follows:
 Y. Shao et al., Mol. Phys. 113, 184-215 (2015)
 DOI: 10.1080/00268976.2014.952696

 Q-Chem 5.2.0 for Intel X86 EM64T Linux

 Parts of Q-Chem use Armadillo 8.300.2 (Tropical Shenanigans).
 http://arma.sourceforge.net/

 Q-Chem begins on Sun Sep 26 13:09:02 2021  

Host: cori01
0

     Scratch files written to /tmp/qchem65443//Frg1//
 May1019 |scratch|qcdevops|jenkins|workspace|build_RNUM -1
Processing $rem in /global/common/cori/software/qchem/5.2/config/preferences:
	 MEM_TOTAL  96000 
NAlpha2: 32
NElect   32
Mult     1
Symmetry turned off for PCM/SM12/SMD calculation

Checking the input file for inconsistencies... 	...done.

--------------------------------------------------------------
User input:
--------------------------------------------------------------
$molecule
-1 1
 6	-1.4563437940	4.0297445665	-0.9486991955
 6	-1.1573437940	3.5667445665	0.4723008045
 8	-1.1083437940	2.3507445665	0.7233008045
 8	-0.8923437940	4.4017445665	1.3743008045
 1	-0.5593437940	4.4877445665	-1.3756991955
 1	-2.2403437940	4.7807445665	-0.9286991955
 1	-1.7766037940	3.2093945665	-1.6078391955
$end
$rem
EDA2		1
METHOD		WB97X-V
BASIS		DEF2-TZVPD
XC_GRID		000099000590
NL_GRID		1
UNRESTRICTED		FALSE
MAX_SCF_CYCLES		200
SYMMETRY		FALSE
SYM_IGNORE		TRUE
BASIS_LIN_DEP_THRESH		6
THRESH		14
SCF_CONVERGENCE		8
SCF_PRINT_FRGM		TRUE
SOLVENT_METHOD		SMD
!required keywords
JOBTYPE		SP
SYM_IGNORE		TRUE
SUBSYSTEM		TRUE
GEN_SCFMAN		TRUE
CHILD_INSTRUCTION		2
SYM_IGNORE		TRUE
SCFMI		0
RI_K 0		
PARI_K 0		
MIN_PARI_K 0		
IARI_K 0		
OCC_RI_K 0		
PURECART		1111
MEM_STATIC		2000
MEM_TOTAL		96000
GUI		0
CHILD_MP		1
CHILD_MP_ORDERS		232
FRZ_RELAX		0
FRZ_RELAX_METHOD		0
EDA_CLS_ELEC		1
EDA_CLS_DISP		0
FRZ_ORTHO_DECOMP		1
EDA2		FALSE
FRGM_METHOD		FALSE
CIS_N_ROOTS  0
LOCAL_CIS    0
CIS_RLX_DNS  1
$end
$smx
SOLVENT			WATER
$end
--------------------------------------------------------------
 ----------------------------------------------------------------
             Standard Nuclear Orientation (Angstroms)
    I     Atom           X                Y                Z
 ----------------------------------------------------------------
    1      C      -1.4563437940     4.0297445665    -0.9486991955
    2      C      -1.1573437940     3.5667445665     0.4723008045
    3      O      -1.1083437940     2.3507445665     0.7233008045
    4      O      -0.8923437940     4.4017445665     1.3743008045
    5      H      -0.5593437940     4.4877445665    -1.3756991955
    6      H      -2.2403437940     4.7807445665    -0.9286991955
    7      H      -1.7766037940     3.2093945665    -1.6078391955
 ----------------------------------------------------------------
 Nuclear Repulsion Energy =         112.66366656 hartrees
 There are       16 alpha and       16 beta electrons
 Requested basis set is def2-TZVPD
 There are 69 shells and 181 basis functions

 Total QAlloc Memory Limit  96000 MB
 Mega-Array Size      1956 MB
 MEM_STATIC part      2000 MB
 
 Citation of the SMD model:
 Marenich, A.V.; Cramer, C.J.; Truhlar, D.G.
 J. Phys. Chem. B 2009, 113, 6378-6396.
 iSolventCode=           1
 Solvent: water                                                           
 
 vradii
            1           2           3           4           5           6
    1   1.8500000   1.8500000   1.5200000   1.5200000   1.2000000   1.2000000
            7
    1   1.2000000
 Changing PCM_VDW_RADII to SMD_RADIUS
 Discretize the solute cavity surface with Lebedev spheres
	Using 110 Lebedev grid points for each H atom
	Using 194 Lebedev grid points for other atoms
	Atomic van der Waals radii will be scaled by 1.20
 Remove points where switching function is < 1.0e-08
 Keep 654 surface tesserae and discard 452 interior tesserae
 Molecular Surface Area = 79.935 Angst**2

                       Distance Matrix (Angstroms)
             C (  1)   C (  2)   O (  3)   O (  4)   H (  5)   H (  6)
   C (  2)  1.524143
   O (  3)  2.394938  1.242601
   O (  4)  2.419258  1.257400  2.162651
   H (  5)  1.093939  2.149639  3.045320  2.771423
   H (  6)  1.085844  2.146971  3.148877  2.695284  1.763921
   H (  7)  1.100003  2.199583  2.572560  3.331182  1.780390  1.773535

 
 A cutoff of  1.0D-14 yielded   2393 shell pairs
 There are     16705 function pairs (     21503 Cartesian)
 Smallest overlap matrix eigenvalue = 1.63E-05

 Scale SEOQF with 1.000000e-01/1.000000e-01/1.000000e-01

 Standard Electronic Orientation quadrupole field applied
 Nucleus-field energy     =     0.0000000287 hartrees
 Guess from superposition of atomic densities
 Warning:  Energy on first SCF cycle will be non-variational
 SAD guess density has 30.625312 electrons

 -----------------------------------------------------------------------
  General SCF calculation program by
  Eric Jon Sundstrom, Paul Horn, Yuezhi Mao, Dmitri Zuev, Alec White,
  David Stuck, Shaama M.S., Shane Yost, Joonho Lee, David Small,
  Daniel Levine, Susi Lehtola, Hugh Burton, Evgeny Epifanovsky
 -----------------------------------------------------------------------
 Exchange:     0.1670 Hartree-Fock + 1.0000 wB97X-V + LR-HF
 Correlation:  1.0000 wB97X-V
 Using Euler-Maclaurin-Lebedev (99,590) quadrature formula
 Nonlocal Correlation:  VV10 with C = 0.0100 and b = 6.00 and scale = 1.00000
 Grid used for NLC:  SG-1 standard quadrature
Energy prior to optimization (guess energy) = -227.750870626338
Begin Timing: Total SCF Calculation
begin iterations for algorithm: DIIS         
the SCF tolerance is set to 1.00e-08
    1    -227.7508706263      1.67e-02     00000 
    2    -225.5362865386      2.54e-02     00000 
    3    -228.6038864083      4.08e-03     00000 
    4    -228.6574938663      1.38e-03     00000 
    5    -228.6635675914      2.11e-04     00000 
    6    -228.6638317006      8.68e-05     00000 
    7    -228.6638532640      5.34e-05     00000 
    8    -228.6638619322      1.47e-05     00000 
    9    -228.6638631888      4.13e-06     00000 
   10    -228.6638633155      1.17e-06     00000 
   11    -228.6638633269      2.51e-07     00000 
   12    -228.6638633273      5.52e-08     00000 
   13    -228.6638633274      1.43e-08     00000 
   14    -228.6638633274      3.74e-09     00000 Convergence criterion met
Timing for Total SCF: 273.00s (wall), 535.03s (cpu)
(3)  G-ENP(liq) elect-nuc-pol free energy of system     -228.663863327 a.u.
(4)  G-CDS(liq) cavity-dispersion-solvent structure 
     free energy                                                3.9096 kcal/mol
(6)  G-S(liq) free energy of system                     -228.657632962 a.u.
E_pcm = -0.1330048297
E_cds = 0.0062303656
Multipole orders to be included
        2
        3
computing dipole RHS
computing quadrupole RHS
total number of RHS in solve_reponses: 8
RHS batch sizes
        8
Beginning Block Conjugate Gradient Iterations. Batch Number: 0
computing hessian-vector products by finite difference
              1      7.53e-01     00000 Conjugate Gradient Iteration
computing hessian-vector products by finite difference
              2      2.40e-01     00000 Conjugate Gradient Iteration
computing hessian-vector products by finite difference
              3      6.75e-02     00000 Conjugate Gradient Iteration
computing hessian-vector products by finite difference
              4      1.81e-02     00000 Conjugate Gradient Iteration
computing hessian-vector products by finite difference
              5      2.59e-03     00000 Conjugate Gradient Iteration
computing hessian-vector products by finite difference
              6      6.65e-04     00000 Conjugate Gradient Iteration
computing hessian-vector products by finite difference
              7      9.43e-05     00000 Conjugate Gradient Iteration
computing hessian-vector products by finite difference
              8      1.15e-05     00000 Conjugate Gradient Iteration
computing hessian-vector products by finite difference
              9      1.79e-06     00000 Conjugate Gradient Iteration
computing hessian-vector products by finite difference
             10      1.81e-07     00000 Conjugate Gradient Iteration
computing hessian-vector products by finite difference
             11      2.69e-08     00000 Conjugate Gradient Iteration
computing hessian-vector products by finite difference
             12      5.47e-09     00000 CG Converged
batch 0 complete
Done Calculating Responses
TESTING ORTHOGONALIZATION OF MULTIPOLE BASIS
Multipole virts passed orthogonality test
Virts Per Order
        48
        80
 
 --------------------------------------------------------------
 
                    Orbital Energies (a.u.)
 --------------------------------------------------------------
 
 Alpha MOs
 -- Occupied --
-19.1516 -19.1500 -10.3537 -10.2491  -1.1677  -1.0609  -0.8423  -0.6181
 -0.5476  -0.5475  -0.5405  -0.4812  -0.4646  -0.3632  -0.3617  -0.3401
 -- Virtual --
  0.0672   0.1000   0.1003   0.1074   0.1350   0.1438   0.1462   0.1507
  0.1568   0.1895   0.2022   0.2260   0.2323   0.2385   0.2610   0.2651
  0.2987   0.3150   0.3336   0.3472   0.3516   0.3612   0.3686   0.3845
  0.3872   0.3948   0.4181   0.4250   0.4274   0.4542   0.4670   0.4735
  0.4832   0.4910   0.5055   0.5088   0.5447   0.5646   0.5856   0.5985
  0.6109   0.6236   0.6279   0.6486   0.6578   0.6636   0.6817   0.6991
  0.7028   0.7239   0.7683   0.7913   0.8054   0.8109   0.8333   0.8493
  0.8589   0.9581   0.9691   0.9830   0.9864   1.0325   1.0355   1.1081
  1.1521   1.1829   1.2384   1.2672   1.2759   1.3002   1.3258   1.3471
  1.4411   1.5438   1.5818   1.7343   1.8017   1.8469   1.8534   1.9037
  1.9116   1.9348   1.9458   1.9565   2.0036   2.0958   2.1137   2.1412
  2.1864   2.2046   2.3066   2.3271   2.3966   2.4240   2.4598   2.4800
  2.5696   2.5820   2.6073   2.6590   2.7830   2.8055   2.8644   2.9269
  2.9423   2.9875   3.0062   3.1563   3.1869   3.2355   3.2638   3.2938
  3.3127   3.3323   3.3734   3.3977   3.4106   3.5221   3.5333   3.5561
  3.5960   3.6488   3.6779   3.7266   3.7541   3.8700   3.9366   4.0271
  4.0683   4.1866   4.3201   4.5476   4.5995   4.6566   4.7848   4.7995
  4.9770   5.2991   5.3229   5.3336   5.3409   5.4487   5.6714   5.7808
  5.7912   6.0308   6.1752   6.3289   6.3414   6.5717   6.5982   6.7097
  6.7174   6.7312   6.9204   6.9565   7.0025   7.2290   7.2772   7.3711
  7.3822  22.5812  23.7127  44.1932  44.3172
 --------------------------------------------------------------
 
          Ground-State Mulliken Net Atomic Charges

     Atom                 Charge (a.u.)
  ----------------------------------------
      1 C                    -0.591018
      2 C                     0.510114
      3 O                    -0.760716
      4 O                    -0.793744
      5 H                     0.202465
      6 H                     0.215485
      7 H                     0.217414
  ----------------------------------------
  Sum of atomic charges =    -1.000000

 -----------------------------------------------------------------
                    Cartesian Multipole Moments
 -----------------------------------------------------------------
    Charge (ESU x 10^10)
                -4.8032
    Dipole Moment (Debye)
         X       4.2544      Y     -15.5474      Z      -7.3623
       Tot      17.7208
    Quadrupole Moments (Debye-Ang)
        XX     -28.6840     XY      12.5822     YY     -85.0050
        XZ       6.7012     YZ     -27.7008     ZZ     -34.8847
    Octopole Moments (Debye-Ang^2)
       XXX      90.5966    XXY     -99.1070    XYY      75.1740
       YYY    -533.1834    XXZ     -15.0553    XYZ      24.2410
       YYZ    -121.7224    XZZ      38.1397    YZZ    -129.4439
       ZZZ     -39.6827
    Hexadecapole Moments (Debye-Ang^3)
      XXXX    -247.0499   XXXY     319.2289   XXYY    -415.3206
      XYYY     514.8350   YYYY   -3313.2491   XXXZ      20.5028
      XXYZ     -51.8805   XYYZ     102.0383   YYYZ    -573.2887
      XXZZ     -79.7772   XYZZ     141.7671   YYZZ    -542.1410
      XZZZ      26.2915   YZZZ    -140.6530   ZZZZ    -207.9664
 -----------------------------------------------------------------
Archival summary:
1\1\nid00541\SP\ProcedureUnspecified\BasisUnspecified\223(1-,1)\meili\SunSep2614:22:192021SunSep2614:22:192021\0\\#,ProcedureUnspecified,BasisUnspecified,\\-1,1\C\O,1,1.2426\O,1,1.2574,2,119.778\C,1,1.52414,2,119.56,3,176.33,0\H,4,1.08584,1,109.546,2,130.883,0\H,4,1.09394,1,109.283,2,-110.93,0\H,4,1.1,1,112.907,2,9.90128,0\\\@

 Total job time:  4397.94s(wall), 8624.80s(cpu) 
 Sun Sep 26 14:22:20 2021

        *************************************************************
        *                                                           *
        *  Thank you very much for using Q-Chem.  Have a nice day.  *
        *                                                           *
        *************************************************************


Done Job For Fragment 0
calling putenv with: QCSCRATCH=/global/cscratch1/sd/meili 
calling putenv with: QCLOCALSCR=/tmp 
calling putenv with: QCTHREADS=32 
Creating input file /tmp/qchem65443/Frg2.input
using default PutDataFrgm: nothing
calling putenv with: QCSCRATCH=/tmp/qchem65443/ 
calling putenv with: QCLOCALSCR=/tmp/qchem65443/ 
Spawning Job For Fragment 1
                  Welcome to Q-Chem
     A Quantum Leap Into The Future Of Chemistry


 Q-Chem 5.2, Q-Chem, Inc., Pleasanton, CA (2019)

 License issued to: National Energy Research Scientific Computing Center

 Yihan Shao,  Zhengting Gan,  E. Epifanovsky,  A. T. B. Gilbert,  M. Wormit,  
 J. Kussmann,  A. W. Lange,  A. Behn,  Jia Deng,  Xintian Feng,  D. Ghosh,  
 M. Goldey,  P. R. Horn,  L. D. Jacobson,  I. Kaliman,  T. Kus,  A. Landau,  
 Jie Liu,  E. I. Proynov,  R. M. Richard,  R. P. Steele,  E. J. Sundstrom,  
 H. L. Woodcock III,  P. M. Zimmerman,  D. Zuev,  B. Albrecht,  E. Alguire,  
 S. A. Baeppler,  D. Barton,  Z. Benda,  Y. A. Bernard,  E. J. Berquist,  
 K. B. Bravaya,  H. Burton,  D. Casanova,  Chun-Min Chang,  Yunqing Chen,  
 A. Chien,  K. D. Closser,  M. P. Coons,  S. Coriani,  S. Dasgupta,  
 A. L. Dempwolff,  M. Diedenhofen,  Hainam Do,  R. G. Edgar,  Po-Tung Fang,  
 S. Faraji,  S. Fatehi,  Qingguo Feng,  K. D. Fenk,  J. Fosso-Tande,  
 J. Gayvert,  Qinghui Ge,  A. Ghysels,  G. Gidofalvi,  J. Gomes,  
 J. Gonthier,  A. Gunina,  D. Hait,  M. W. D. Hanson-Heine,  
 P. H. P. Harbach,  A. W. Hauser,  M. F. Herbst,  J. E. Herr,  
 E. G. Hohenstein,  Z. C. Holden,  Kerwin Hui,  B. C. Huynh,  T.-C. Jagau,  
 Hyunjun Ji,  B. Kaduk,  K. Khistyaev,  Jaehoon Kim,  P. Klunzinger,  K. Koh,  
 D. Kosenkov,  L. Koulias,  T. Kowalczyk,  C. M. Krauter,  A. Kunitsa,  
 Ka Un Lao,  A. Laurent,  K. V. Lawler,  Joonho Lee,  D. Lefrancois,  
 S. Lehtola,  D. S. Levine,  Yi-Pei Li,  You-Sheng Lin,  Fenglai Liu,  
 E. Livshits,  A. Luenser,  P. Manohar,  E. Mansoor,  S. F. Manzer,  
 Shan-Ping Mao,  Yuezhi Mao,  N. Mardirossian,  A. V. Marenich,  
 T. Markovich,  L. A. Martinez-Martinez,  S. A. Maurer,  N. J. Mayhall,  
 S. C. McKenzie,  J.-M. Mewes,  P. Morgante,  A. F. Morrison,  
 J. W. Mullinax,  K. Nanda,  T. S. Nguyen-Beck,  R. Olivares-Amaya,  
 J. A. Parkhill,  Zheng Pei,  T. M. Perrine,  F. Plasser,  P. Pokhilko,  
 S. Prager,  A. Prociuk,  E. Ramos,  D. R. Rehn,  F. Rob,  M. Scheurer,  
 M. Schneider,  N. Sergueev,  S. M. Sharada,  S. Sharma,  D. W. Small,  
 T. Stauch,  T. Stein,  Yu-Chuan Su,  A. J. W. Thom,  A. Tkatchenko,  
 T. Tsuchimochi,  N. M. Tubman,  L. Vogt,  M. L. Vidal,  O. Vydrov,  
 M. A. Watson,  J. Wenzel,  M. de Wergifosse,  T. A. Wesolowski,  A. White,  
 J. Witte,  A. Yamada,  Jun Yang,  K. Yao,  S. Yeganeh,  S. R. Yost,  
 Zhi-Qiang You,  A. Zech,  Igor Ying Zhang,  Xing Zhang,  Yan Zhao,  
 Ying Zhu,  B. R. Brooks,  G. K. L. Chan,  C. J. Cramer,  M. S. Gordon,  
 W. J. Hehre,  A. Klamt,  M. W. Schmidt,  C. D. Sherrill,  D. G. Truhlar,  
 A. Aspuru-Guzik,  R. Baer,  A. T. Bell,  N. A. Besley,  Jeng-Da Chai,  
 A. E. DePrince, III,  R. A. DiStasio Jr.,  A. Dreuw,  B. D. Dunietz,  
 T. R. Furlani,  Chao-Ping Hsu,  Yousung Jung,  Jing Kong,  D. S. Lambrecht,  
 WanZhen Liang,  C. Ochsenfeld,  V. A. Rassolov,  L. V. Slipchenko,  
 J. E. Subotnik,  T. Van Voorhis,  J. M. Herbert,  A. I. Krylov,  
 P. M. W. Gill,  M. Head-Gordon

 Contributors to earlier versions of Q-Chem not listed above: 
 R. D. Adamson,  B. Austin,  J. Baker,  G. J. O. Beran,  K. Brandhorst,  
 S. T. Brown,  E. F. C. Byrd,  A. K. Chakraborty,  C.-L. Cheng,  
 Siu Hung Chien,  D. M. Chipman,  D. L. Crittenden,  H. Dachsel,  
 R. J. Doerksen,  A. D. Dutoi,  L. Fusti-Molnar,  W. A. Goddard III,  
 A. Golubeva-Zadorozhnaya,  S. R. Gwaltney,  G. Hawkins,  A. Heyden,  
 S. Hirata,  G. Kedziora,  F. J. Keil,  C. Kelley,  Jihan Kim,  R. A. King,  
 R. Z. Khaliullin,  P. P. Korambath,  W. Kurlancheek,  A. M. Lee,  M. S. Lee,  
 S. V. Levchenko,  Ching Yeh Lin,  D. Liotard,  R. C. Lochan,  I. Lotan,  
 P. E. Maslen,  N. Nair,  D. P. O'Neill,  D. Neuhauser,  E. Neuscamman,  
 C. M. Oana,  R. Olson,  B. Peters,  R. Peverati,  P. A. Pieniazek,  
 Y. M. Rhee,  J. Ritchie,  M. A. Rohrdanz,  E. Rosta,  N. J. Russ,  
 H. F. Schaefer III,  N. E. Schultz,  N. Shenvi,  A. C. Simmonett,  A. Sodt,  
 D. Stuck,  K. S. Thanthiriwatte,  V. Vanovschi,  Tao Wang,  A. Warshel,  
 C. F. Williams,  Q. Wu,  X. Xu,  W. Zhang

 Please cite Q-Chem as follows:
 Y. Shao et al., Mol. Phys. 113, 184-215 (2015)
 DOI: 10.1080/00268976.2014.952696

 Q-Chem 5.2.0 for Intel X86 EM64T Linux

 Parts of Q-Chem use Armadillo 8.300.2 (Tropical Shenanigans).
 http://arma.sourceforge.net/

 Q-Chem begins on Sun Sep 26 14:22:21 2021  

Host: cori01
0

     Scratch files written to /tmp/qchem65443//Frg2//
 May1019 |scratch|qcdevops|jenkins|workspace|build_RNUM -1
Processing $rem in /global/common/cori/software/qchem/5.2/config/preferences:
	 MEM_TOTAL  96000 
NAlpha2: 70
NElect   70
Mult     1
Symmetry turned off for PCM/SM12/SMD calculation

Checking the input file for inconsistencies... 	...done.

--------------------------------------------------------------
User input:
--------------------------------------------------------------
$molecule
0 1
 6	-0.8393437940	-4.1502554335	0.4463008045
 6	-1.5033437940	-1.6812554335	0.5663008045
 6	0.3456562060	-0.6732554335	-0.1926991955
 6	-0.6163437940	-2.6852554335	0.3193008045
 6	0.5766562060	-2.0632554335	-0.1746991955
 6	1.3166562060	0.2277445665	-0.5986991955
 6	2.5366562060	-0.2792554335	-1.0096991955
 6	1.8306562060	-2.5442554335	-0.5776991955
 6	2.7856562060	-1.6522554335	-1.0056991955
 7	-0.9293437940	-0.4762554335	0.2643008045
 1	-1.3533437940	0.4407445665	0.4273008045
 1	-2.5133437940	-1.8202554335	0.9343008045
 1	1.1216562060	1.2887445665	-0.5876991955
 1	-1.4363437940	-4.3452554335	1.3383008045
 1	0.1286562060	-4.6242554335	0.6083008045
 1	3.3186562060	0.3947445665	-1.3306991955
 1	2.0446562060	-3.5992554335	-0.5216991955
 1	3.7596562060	-2.0182554335	-1.2946991955
 1	-1.3037437940	-4.6232674335	-0.4315291955
$end
$rem
EDA2		1
METHOD		WB97X-V
BASIS		DEF2-TZVPD
XC_GRID		000099000590
NL_GRID		1
UNRESTRICTED		FALSE
MAX_SCF_CYCLES		200
SYMMETRY		FALSE
SYM_IGNORE		TRUE
BASIS_LIN_DEP_THRESH		6
THRESH		14
SCF_CONVERGENCE		8
SCF_PRINT_FRGM		TRUE
SOLVENT_METHOD		SMD
!required keywords
JOBTYPE		SP
SYM_IGNORE		TRUE
SUBSYSTEM		TRUE
GEN_SCFMAN		TRUE
CHILD_INSTRUCTION		2
SYM_IGNORE		TRUE
SCFMI		0
RI_K 0		
PARI_K 0		
MIN_PARI_K 0		
IARI_K 0		
OCC_RI_K 0		
PURECART		1111
MEM_STATIC		2000
MEM_TOTAL		96000
GUI		0
CHILD_MP		1
CHILD_MP_ORDERS		232
FRZ_RELAX		0
FRZ_RELAX_METHOD		0
EDA_CLS_ELEC		1
EDA_CLS_DISP		0
FRZ_ORTHO_DECOMP		1
EDA2		FALSE
FRGM_METHOD		FALSE
CIS_N_ROOTS  0
LOCAL_CIS    0
CIS_RLX_DNS  1
$end
$smx
SOLVENT			WATER
$end
--------------------------------------------------------------
 ----------------------------------------------------------------
             Standard Nuclear Orientation (Angstroms)
    I     Atom           X                Y                Z
 ----------------------------------------------------------------
    1      C      -0.8393437940    -4.1502554335     0.4463008045
    2      C      -1.5033437940    -1.6812554335     0.5663008045
    3      C       0.3456562060    -0.6732554335    -0.1926991955
    4      C      -0.6163437940    -2.6852554335     0.3193008045
    5      C       0.5766562060    -2.0632554335    -0.1746991955
    6      C       1.3166562060     0.2277445665    -0.5986991955
    7      C       2.5366562060    -0.2792554335    -1.0096991955
    8      C       1.8306562060    -2.5442554335    -0.5776991955
    9      C       2.7856562060    -1.6522554335    -1.0056991955
   10      N      -0.9293437940    -0.4762554335     0.2643008045
   11      H      -1.3533437940     0.4407445665     0.4273008045
   12      H      -2.5133437940    -1.8202554335     0.9343008045
   13      H       1.1216562060     1.2887445665    -0.5876991955
   14      H      -1.4363437940    -4.3452554335     1.3383008045
   15      H       0.1286562060    -4.6242554335     0.6083008045
   16      H       3.3186562060     0.3947445665    -1.3306991955
   17      H       2.0446562060    -3.5992554335    -0.5216991955
   18      H       3.7596562060    -2.0182554335    -1.2946991955
   19      H      -1.3037437940    -4.6232674335    -0.4315291955
 ----------------------------------------------------------------
 Nuclear Repulsion Energy =         486.64437574 hartrees
 There are       35 alpha and       35 beta electrons
 Requested basis set is def2-TZVPD
 There are 175 shells and 451 basis functions

 Total QAlloc Memory Limit  96000 MB
 Mega-Array Size      1956 MB
 MEM_STATIC part      2000 MB
 
 Citation of the SMD model:
 Marenich, A.V.; Cramer, C.J.; Truhlar, D.G.
 J. Phys. Chem. B 2009, 113, 6378-6396.
 iSolventCode=           1
 Solvent: water                                                           
 
 vradii
            1           2           3           4           5           6
    1   1.8500000   1.8500000   1.8500000   1.8500000   1.8500000   1.8500000
            7           8           9          10          11          12
    1   1.8500000   1.8500000   1.8500000   1.8900000   1.2000000   1.2000000
           13          14          15          16          17          18
    1   1.2000000   1.2000000   1.2000000   1.2000000   1.2000000   1.2000000
           19
    1   1.2000000
 Changing PCM_VDW_RADII to SMD_RADIUS
 Discretize the solute cavity surface with Lebedev spheres
	Using 110 Lebedev grid points for each H atom
	Using 194 Lebedev grid points for other atoms
	Atomic van der Waals radii will be scaled by 1.20
 Remove points where switching function is < 1.0e-08
 Keep 1361 surface tesserae and discard 1569 interior tesserae
 Molecular Surface Area = 164.189 Angst**2
 A cutoff of  1.0D-14 yielded  14480 shell pairs
 There are     98310 function pairs (    126491 Cartesian)
 Smallest overlap matrix eigenvalue = 4.88E-07
 Linear dependence detected in AO basis
 Tighter screening thresholds may be required for diffuse basis sets
 Use S2THRESH > 14 and THRESH = 14 in case of SCF convergence issues
 Number of orthogonalized atomic orbitals = 448
 Maximum deviation from orthogonality = 1.808E-10

 Scale SEOQF with 1.000000e-01/1.000000e-01/1.000000e-01

 Standard Electronic Orientation quadrupole field applied
 Nucleus-field energy     =     0.0000000274 hartrees
 Guess from superposition of atomic densities
 Warning:  Energy on first SCF cycle will be non-variational
 SAD guess density has 69.692991 electrons

 -----------------------------------------------------------------------
  General SCF calculation program by
  Eric Jon Sundstrom, Paul Horn, Yuezhi Mao, Dmitri Zuev, Alec White,
  David Stuck, Shaama M.S., Shane Yost, Joonho Lee, David Small,
  Daniel Levine, Susi Lehtola, Hugh Burton, Evgeny Epifanovsky
 -----------------------------------------------------------------------
 Exchange:     0.1670 Hartree-Fock + 1.0000 wB97X-V + LR-HF
 Correlation:  1.0000 wB97X-V
 Using Euler-Maclaurin-Lebedev (99,590) quadrature formula
 Nonlocal Correlation:  VV10 with C = 0.0100 and b = 6.00 and scale = 1.00000
 Grid used for NLC:  SG-1 standard quadrature
Energy prior to optimization (guess energy) = -402.924954425379
Begin Timing: Total SCF Calculation
begin iterations for algorithm: DIIS         
the SCF tolerance is set to 1.00e-08
    1    -402.9249544254      3.30e-03     00000 
    2    -402.9666508063      3.08e-03     00000 
    3    -403.1714141223      3.65e-04     00000 
    4    -403.1751478243      1.52e-04     00000 
    5    -403.1758507419      2.87e-05     00000 
    6    -403.1758915508      1.79e-05     00000 
    7    -403.1759011994      4.04e-06     00000 
    8    -403.1759027064      1.54e-06     00000 
    9    -403.1759029356      8.13e-07     00000 
   10    -403.1759030193      3.10e-07     00000 
   11    -403.1759030329      8.98e-08     00000 
   12    -403.1759030340      4.20e-08     00000 
   13    -403.1759030341      1.33e-08     00000 
   14    -403.1759030342      4.26e-09     00000 Convergence criterion met
Timing for Total SCF: 3874.00s (wall), 7710.74s (cpu)
(3)  G-ENP(liq) elect-nuc-pol free energy of system     -403.175903034 a.u.
(4)  G-CDS(liq) cavity-dispersion-solvent structure 
     free energy                                                3.7944 kcal/mol
(6)  G-S(liq) free energy of system                     -403.169856334 a.u.
E_pcm = -0.0161088661
E_cds = 0.0060466999
Multipole orders to be included
        2
        3
computing dipole RHS
computing quadrupole RHS
total number of RHS in solve_reponses: 8
RHS batch sizes
        8
Beginning Block Conjugate Gradient Iterations. Batch Number: 0
computing hessian-vector products by finite difference
              1      6.56e-01     00000 Conjugate Gradient Iteration
computing hessian-vector products by finite difference
              2      2.11e-01     00000 Conjugate Gradient Iteration
computing hessian-vector products by finite difference
              3      6.69e-02     00000 Conjugate Gradient Iteration
computing hessian-vector products by finite difference
              4      2.52e-02     00000 Conjugate Gradient Iteration
computing hessian-vector products by finite difference
              5      7.90e-03     00000 Conjugate Gradient Iteration
computing hessian-vector products by finite difference
              6      2.19e-03     00000 Conjugate Gradient Iteration
computing hessian-vector products by finite difference
              7      4.97e-04     00000 Conjugate Gradient Iteration
computing hessian-vector products by finite difference
              8      9.64e-05     00000 Conjugate Gradient Iteration
computing hessian-vector products by finite difference
              9      1.81e-05     00000 Conjugate Gradient Iteration
computing hessian-vector products by finite difference
             10      3.29e-06     00000 Conjugate Gradient Iteration
computing hessian-vector products by finite difference
             11      5.94e-07     00000 Conjugate Gradient Iteration
computing hessian-vector products by finite difference
             12      1.03e-07     00000 Conjugate Gradient Iteration
computing hessian-vector products by finite difference
             13      1.54e-08     00000 Conjugate Gradient Iteration
computing hessian-vector products by finite difference
             14      3.80e-09     00000 CG Converged
batch 0 complete
Done Calculating Responses
TESTING ORTHOGONALIZATION OF MULTIPOLE BASIS
Multipole virts passed orthogonality test
Virts Per Order
          105
          175
 
 --------------------------------------------------------------
 
                    Orbital Energies (a.u.)
 --------------------------------------------------------------
 
 Alpha MOs
 -- Occupied --
-14.4434 -10.2954 -10.2894 -10.2667 -10.2643 -10.2630 -10.2607 -10.2577
-10.2551 -10.2526  -1.1127  -0.9790  -0.9274  -0.8675  -0.8575  -0.8120
 -0.7422  -0.7096  -0.6733  -0.6451  -0.5940  -0.5804  -0.5529  -0.5456
 -0.5347  -0.5115  -0.5080  -0.4893  -0.4735  -0.4525  -0.4465  -0.4276
 -0.3757  -0.3156  -0.2879
 -- Virtual --
  0.0570   0.0643   0.0798   0.0825   0.0959   0.1026   0.1039   0.1107
  0.1314   0.1350   0.1399   0.1503   0.1610   0.1699   0.1788   0.1841
  0.1904   0.1978   0.2030   0.2134   0.2188   0.2258   0.2328   0.2500
  0.2517   0.2574   0.2607   0.2657   0.2703   0.2785   0.2810   0.2824
  0.2844   0.2899   0.2948   0.2973   0.3085   0.3107   0.3170   0.3279
  0.3280   0.3332   0.3388   0.3429   0.3451   0.3461   0.3534   0.3567
  0.3624   0.3712   0.3787   0.3814   0.3834   0.3907   0.3953   0.3977
  0.4033   0.4107   0.4160   0.4189   0.4242   0.4260   0.4310   0.4421
  0.4445   0.4513   0.4547   0.4609   0.4618   0.4648   0.4711   0.4736
  0.4864   0.4976   0.5027   0.5034   0.5054   0.5180   0.5234   0.5285
  0.5352   0.5398   0.5461   0.5492   0.5512   0.5567   0.5606   0.5684
  0.5766   0.5817   0.5912   0.5958   0.6049   0.6149   0.6258   0.6290
  0.6348   0.6439   0.6494   0.6538   0.6587   0.6801   0.6835   0.6846
  0.6939   0.6965   0.7006   0.7086   0.7142   0.7230   0.7281   0.7367
  0.7393   0.7499   0.7552   0.7582   0.7640   0.7691   0.7773   0.7808
  0.7843   0.7925   0.7944   0.7999   0.8043   0.8076   0.8156   0.8209
  0.8281   0.8340   0.8379   0.8433   0.8478   0.8540   0.8627   0.8658
  0.8732   0.8805   0.8935   0.8939   0.9062   0.9119   0.9201   0.9348
  0.9477   0.9555   0.9658   0.9854   0.9955   1.0050   1.0118   1.0164
  1.0434   1.0457   1.0551   1.0683   1.0743   1.0844   1.0936   1.1041
  1.1217   1.1302   1.1431   1.1488   1.1725   1.1886   1.2005   1.2256
  1.2393   1.2464   1.2678   1.2761   1.3086   1.3093   1.3457   1.3578
  1.3884   1.4005   1.4032   1.4197   1.4334   1.4559   1.4600   1.4740
  1.5214   1.5573   1.5651   1.5707   1.5834   1.5890   1.6174   1.6194
  1.6508   1.6652   1.7000   1.7092   1.7273   1.7453   1.7511   1.7780
  1.7996   1.8297   1.8484   1.8577   1.8693   1.8756   1.8904   1.8960
  1.9060   1.9258   1.9481   1.9515   1.9612   1.9715   1.9768   1.9878
  2.0004   2.0041   2.0123   2.0285   2.0404   2.0613   2.0699   2.0792
  2.0987   2.1279   2.1465   2.1778   2.1912   2.2035   2.2140   2.2266
  2.2645   2.2913   2.3033   2.3221   2.3259   2.3658   2.3719   2.3837
  2.4156   2.4382   2.4495   2.4629   2.4970   2.5103   2.5204   2.5571
  2.5589   2.5803   2.6034   2.6193   2.6330   2.6545   2.6775   2.6875
  2.7000   2.7259   2.7582   2.7627   2.7753   2.7922   2.8131   2.8203
  2.8246   2.8367   2.8552   2.8746   2.8861   2.8999   2.9046   2.9194
  2.9412   2.9516   2.9670   2.9846   2.9898   3.0179   3.0340   3.0402
  3.0433   3.0701   3.0934   3.0988   3.1073   3.1425   3.1575   3.1701
  3.1775   3.1928   3.2101   3.2291   3.2409   3.2589   3.2696   3.2718
  3.2907   3.3036   3.3174   3.3248   3.3606   3.3696   3.3838   3.3964
  3.4117   3.4223   3.4336   3.4434   3.4480   3.4569   3.4724   3.4837
  3.4990   3.5109   3.5187   3.5274   3.5375   3.5425   3.5641   3.5795
  3.5865   3.5962   3.6168   3.6372   3.6511   3.6621   3.6690   3.6896
  3.7074   3.7255   3.7272   3.7341   3.7607   3.7730   3.7922   3.8030
  3.8181   3.8629   3.8915   3.9362   3.9428   3.9563   3.9959   4.0305
  4.0606   4.0822   4.1140   4.1626   4.1775   4.2066   4.2299   4.2409
  4.2604   4.2749   4.2935   4.3051   4.3279   4.3696   4.3742   4.3794
  4.4235   4.4302   4.4474   4.4753   4.4932   4.5470   4.5727   4.5995
  4.6438   4.6517   4.6783   4.7766   4.7978   4.8299   4.8540   4.9287
  4.9456   4.9725   4.9875   4.9929   5.0279   5.0793   5.0810   5.1179
  5.1525   5.1680   5.2132   5.2322   5.2710   5.4050   5.4215   5.4660
  5.5237   5.5651   5.5972   5.6626   5.7200   5.8103   5.8371   5.9540
  5.9829   6.2727   6.3608  22.6756  22.7571  22.9457  22.9677  23.0021
 23.2313  23.2735  23.4960  23.8267  32.8460
 --------------------------------------------------------------
 
          Ground-State Mulliken Net Atomic Charges

     Atom                 Charge (a.u.)
  ----------------------------------------
      1 C                    -1.027530
      2 C                    -0.860113
      3 C                    -0.188289
      4 C                     0.766919
      5 C                     0.406311
      6 C                    -0.622838
      7 C                    -0.438271
      8 C                    -0.530119
      9 C                    -0.618929
     10 N                     0.123787
     11 H                     0.233420
     12 H                     0.318732
     13 H                     0.422100
     14 H                     0.290469
     15 H                     0.287383
     16 H                     0.401687
     17 H                     0.383050
     18 H                     0.415131
     19 H                     0.237100
  ----------------------------------------
  Sum of atomic charges =     0.000000

 -----------------------------------------------------------------
                    Cartesian Multipole Moments
 -----------------------------------------------------------------
    Charge (ESU x 10^10)
                -0.0000
    Dipole Moment (Debye)
         X      -2.3811      Y       1.5236      Z       0.9784
       Tot       2.9913
    Quadrupole Moments (Debye-Ang)
        XX     -53.8000     XY       0.9473     YY     -54.1151
        XZ      -3.6505     YZ      -1.3128     ZZ     -63.4963
    Octopole Moments (Debye-Ang^2)
       XXX     -97.4399    XXY      92.4479    XYY     -30.0927
       YYY     274.7485    XXZ       8.5693    XYZ       2.6053
       YYZ      12.7030    XZZ     -37.1606    YZZ     103.8961
       ZZZ      39.6017
    Hexadecapole Moments (Debye-Ang^3)
      XXXX    -923.3888   XXXY      39.3478   XXYY    -423.8266
      XYYY      21.8199   YYYY   -1652.4283   XXXZ     122.1842
      XXYZ       1.7400   XYYZ      47.3353   YYYZ       9.2766
      XXZZ    -200.2475   XYZZ      24.3255   YYZZ    -335.6256
      XZZZ     187.9829   YZZZ       3.5244   ZZZZ    -232.4229
 -----------------------------------------------------------------
Archival summary:
1\1\nid00541\SP\ProcedureUnspecified\BasisUnspecified\199\meili\MonSep2709:17:392021MonSep2709:17:392021\0\\#,ProcedureUnspecified,BasisUnspecified,\\0,1\C\C,1,1.40224\H,2,1.07794,1,119.89\C,2,1.37509,1,119.21,3,-178.209,0\H,4,1.07989,2,119.33,1,178.588,0\C,4,1.3954,2,121.013,1,1.74821,0\H,6,1.08113,4,119.025,2,178.564,0\C,6,1.38361,4,121.134,2,-0.776913,0\H,8,1.07883,6,121.519,4,179.232,0\C,8,1.38545,6,117.822,4,-0.500609,0\N,10,1.36868,8,131.081,6,179.617,0\H,11,1.02334,10,124.62,8,-3.70108,0\C,11,1.36847,10,109.736,8,-178.961,0\H,13,1.0839,11,125.359,10,-179.031,0\C,13,1.36228,11,109.624,10,0.268247,0\C,15,1.48731,13,127.795,11,-176.951,0\H,16,1.08993,15,107.933,13,-155.322,0\H,16,1.09092,15,109.144,13,-39.7662,0\H,16,1.1,15,114.754,13,84.4113,0\\\@

 Total job time:  68119.57s(wall), 135474.24s(cpu) 
 Mon Sep 27 09:17:41 2021

        *************************************************************
        *                                                           *
        *  Thank you very much for using Q-Chem.  Have a nice day.  *
        *                                                           *
        *************************************************************


Done Job For Fragment 1
calling putenv with: QCSCRATCH=/global/cscratch1/sd/meili 
calling putenv with: QCLOCALSCR=/tmp 
calling putenv with: QCTHREADS=32 
Doing General SCFMI
 Exchange:     0.1670 Hartree-Fock + 1.0000 wB97X-V + LR-HF
 Correlation:  1.0000 wB97X-V
 Using Euler-Maclaurin-Lebedev (99,590) quadrature formula
 Nonlocal Correlation:  VV10 with C = 0.0100 and b = 6.00 and scale = 1.00000
 Grid used for NLC:  SG-1 standard quadrature
performing fock build before subrot guess so that all methods have access
Printing subrot_rss_gen Method Specification:
Occupied Subspace Method is 0
Virtual Subspace Method is 0
Energy of the unrelaxed supersystem initial determinant -631.714844305304
performing fock build before subrot guess so that all methods have access
Printing subrot_rss_gen Method Specification:
Occupied Subspace Method is 0
Virtual Subspace Method is 0
Energy of the unrelaxed supersystem initial determinant w/ solvent -631.839796354801
write pseudocanon occs and virts to disk
write pseudocanon orbital energies to disk
Tolerance of ortho_decomp_scf: 1.00e-06
GDM subspace size: 20
Beginning the Orthogonal Decomposition of the Initial Supersystem Wavefunction
    1    -631.6445916612      5.99e-02     ortho_decomp Preconditoned Steepest Descent
    2    -631.6533276251      1.38e-03     ortho_decomp BFGS Step
    3    -631.6533559572      1.26e-04     ortho_decomp BFGS Step
    4    -631.6533560315      5.42e-06     ortho_decomp BFGS Step
    5    -631.6533560317      1.77e-07     ortho_decomp 00000 Convergence criterion met
 Hartree-Fock
 Hartree-Fock
 Hartree-Fock
Doing General SCFMI
 Exchange:     0.1670 Hartree-Fock + 1.0000 wB97X-V + LR-HF
 Correlation:  1.0000 wB97X-V
 Using Euler-Maclaurin-Lebedev (99,590) quadrature formula
 Nonlocal Correlation:  VV10 with C = 0.0100 and b = 6.00 and scale = 1.00000
 Grid used for NLC:  SG-1 standard quadrature
performing fock build at end of subrot_r(subrot) constructor so that all methods have access
<S^2> of initial wavefunction before polarization iterations 0.0000000000
Beginning iterations for the determination of the polarized wavefunction
Energy prior to optimization (guess energy) = -631.839796354801
Begin Timing: Total SCF Calculation
begin iterations for algorithm: DIIS         
the SCF tolerance is set to 1.00e-08
    1    -631.8397963548      8.78e-05     00000 
    2    -631.8406339225      5.06e-05     00000 
    3    -631.8407673619      2.76e-05     00000 
    4    -631.8408212292      8.40e-06     00000 
    5    -631.8408273627      3.76e-06     00000 
    6    -631.8408291455      1.73e-06     00000 
    7    -631.8408294764      6.05e-07     00000 
    8    -631.8408295273      1.71e-07     00000 
    9    -631.8408295310      8.86e-08     00000 
   10    -631.8408295316      2.88e-08     00000 
   11    -631.8408295317      1.34e-08     00000 
   12    -631.8408295317      5.62e-09     00000 Convergence criterion met
write pseudocanon occs and virts to disk
write pseudocanon orbital energies to disk
Timing for Total SCF: 7037.00s (wall), 14007.78s (cpu)
<S^2> of polarized wavefunction after polarization iterations 0.0000000000
relaxing scfmi constraint to allow all rotations in the entire AO span
Doing General SCFMI
 Exchange:     0.1670 Hartree-Fock + 1.0000 wB97X-V + LR-HF
 Correlation:  1.0000 wB97X-V
 Using Euler-Maclaurin-Lebedev (99,590) quadrature formula
 Nonlocal Correlation:  VV10 with C = 0.0100 and b = 6.00 and scale = 1.00000
 Grid used for NLC:  SG-1 standard quadrature
performing fock build at end of subrot_r(subrot) constructor so that all methods have access
<S^2> of polarized wavefunction before ct-allowed iterations 0.0000000000
Beginning iterations for the determination of the CT-Allowed wavefunction
Energy prior to optimization (guess energy) = -631.840829531680
Begin Timing: Total SCF Calculation
begin iterations for algorithm: DIIS         
the SCF tolerance is set to 1.00e-08
    1    -631.8408295317      1.13e-04     00000 
    2    -631.8435355175      1.62e-05     00000 
    3    -631.8436331682      7.18e-06     00000 
    4    -631.8436397747      3.96e-06     00000 
    5    -631.8436423642      7.17e-07     00000 
    6    -631.8436424661      3.17e-07     00000 
    7    -631.8436424944      1.04e-07     00000 
    8    -631.8436424977      2.90e-08     00000 
    9    -631.8436424982      9.81e-09     00000 Convergence criterion met
write pseudocanon occs and virts to disk
write pseudocanon orbital energies to disk
Timing for Total SCF: 5667.00s (wall), 11285.48s (cpu)
<S^2> of ct_allowed wavefunction after ct-allowed iterations 0.0000000000

================================
        Results of EDA2         
================================
Basic EDA Quantities
--------------------
Fragment Energies (Ha):
1 -228.6576329618
2 -403.1698563343
--------------------
  E_prp (kJ/mol) = 0.0000
  E_sol (kJ/mol) = 59.6626
  E_frz (kJ/mol) = -63.5159
  E_pol (kJ/mol) = -2.7126
  E_vct (kJ/mol) = -7.3855
  E_int (kJ/mol) = -13.9515
--------------------


Initial Wavefunction Decomposition
--------------------
  --------------------
  Orthogonal Fragment Subspace Decomposition:
  --------------------
     E_elec   (ELEC)   (kJ/mol) = -127.6128
     E_pauli  (PAULI)  (kJ/mol) = 79.9443
     E_disp   (DISP)   (kJ/mol) = -15.8474
     --------------------
     Terms summing to E_pauli:
     --------------------
        E_kep_pauli       (kJ/mol) = 97.9235
        E_disp_free_pauli (kJ/mol) = -17.9792
  --------------------
  Classical Frozen Decomposition:
  --------------------
     E_cls_elec  (CLS ELEC)  (kJ/mol) = -91.6156
     E_cls_pauli (CLS PAULI) (kJ/mol) = 28.0997
    [E_mod_pauli (MOD PAULI) (kJ/mol) = 43.9471 (CLS PAULI - DISP from orthogonal decomposition) ]
  --------------------
--------------------

Simplified EDA Summary (kJ/mol)
--------------------
 PREPARATION     0.0000
 SOLVATION       59.6626
 FROZEN          -47.6685      (does not include dispersion)
[PAULI           79.9443]     (if this is negligible, then frozen describes electrostatics)
 DISPERSION      -15.8474
 POLARIZATION    -2.7126
 CHARGE TRANSFER -7.3855
 TOTAL           -13.9515     (PRP + SOL + FRZ + DISP + POL + CT)
--------------------
 
 --------------------------------------------------------------
 
                    Orbital Energies (a.u.)
 --------------------------------------------------------------
 
 Alpha MOs
 -- Occupied --
-19.1552 -19.1519 -14.4325 -10.3566 -10.2912 -10.2851 -10.2634 -10.2620
-10.2605 -10.2575 -10.2554 -10.2513 -10.2508 -10.2501  -1.1707  -1.1065
 -1.0640  -0.9759  -0.9237  -0.8643  -0.8545  -0.8435  -0.8085  -0.7388
 -0.7065  -0.6707  -0.6461  -0.6171  -0.5903  -0.5778  -0.5552  -0.5500
 -0.5492  -0.5449  -0.5367  -0.5290  -0.5084  -0.5055  -0.4881  -0.4797
 -0.4704  -0.4662  -0.4491  -0.4439  -0.4243  -0.3734  -0.3657  -0.3637
 -0.3427  -0.3122  -0.2842
 -- Virtual --
  0.0586   0.0613   0.0730   0.0795   0.0919   0.0947   0.0983   0.1015
  0.1040   0.1183   0.1198   0.1292   0.1325   0.1328   0.1409   0.1470
  0.1500   0.1544   0.1599   0.1642   0.1676   0.1874   0.1920   0.1945
  0.1974   0.2015   0.2091   0.2105   0.2168   0.2189   0.2202   0.2293
  0.2374   0.2472   0.2502   0.2520   0.2572   0.2607   0.2666   0.2680
  0.2744   0.2772   0.2839   0.2846   0.2875   0.2940   0.2980   0.3032
  0.3066   0.3085   0.3142   0.3192   0.3215   0.3245   0.3300   0.3314
  0.3354   0.3394   0.3415   0.3443   0.3487   0.3533   0.3562   0.3596
  0.3600   0.3664   0.3695   0.3719   0.3731   0.3789   0.3857   0.3866
  0.3889   0.3946   0.3965   0.4007   0.4012   0.4042   0.4082   0.4096
  0.4187   0.4251   0.4269   0.4303   0.4347   0.4361   0.4376   0.4439
  0.4467   0.4541   0.4573   0.4607   0.4643   0.4665   0.4702   0.4770
  0.4800   0.4822   0.4882   0.4923   0.4950   0.5002   0.5033   0.5078
  0.5146   0.5158   0.5226   0.5263   0.5303   0.5337   0.5365   0.5412
  0.5462   0.5551   0.5561   0.5628   0.5689   0.5734   0.5753   0.5800
  0.5858   0.5874   0.5965   0.5981   0.6041   0.6066   0.6126   0.6141
  0.6182   0.6256   0.6363   0.6392   0.6438   0.6469   0.6513   0.6566
  0.6636   0.6668   0.6731   0.6773   0.6853   0.6863   0.6890   0.7001
  0.7012   0.7084   0.7103   0.7190   0.7214   0.7260   0.7347   0.7396
  0.7403   0.7451   0.7467   0.7506   0.7533   0.7598   0.7673   0.7733
  0.7760   0.7833   0.7845   0.7898   0.7920   0.7955   0.7967   0.7991
  0.8034   0.8080   0.8115   0.8123   0.8157   0.8217   0.8281   0.8303
  0.8343   0.8394   0.8413   0.8482   0.8559   0.8589   0.8626   0.8716
  0.8769   0.8812   0.8874   0.8962   0.9008   0.9064   0.9094   0.9101
  0.9157   0.9325   0.9412   0.9457   0.9571   0.9609   0.9715   0.9853
  0.9912   0.9960   1.0102   1.0140   1.0164   1.0217   1.0302   1.0418
  1.0574   1.0651   1.0684   1.0730   1.0768   1.0892   1.1019   1.1057
  1.1120   1.1194   1.1270   1.1361   1.1384   1.1505   1.1635   1.1647
  1.1767   1.1848   1.2013   1.2116   1.2242   1.2322   1.2392   1.2497
  1.2596   1.2607   1.2837   1.2963   1.3026   1.3162   1.3317   1.3452
  1.3540   1.3563   1.3664   1.3697   1.3815   1.3945   1.4108   1.4191
  1.4304   1.4375   1.4456   1.4512   1.4722   1.4861   1.4995   1.5162
  1.5398   1.5709   1.5780   1.5902   1.5988   1.6139   1.6297   1.6400
  1.6479   1.6653   1.6763   1.6874   1.7036   1.7265   1.7512   1.7606
  1.7644   1.7700   1.7910   1.8142   1.8511   1.8589   1.8752   1.8813
  1.8872   1.8974   1.9031   1.9077   1.9179   1.9224   1.9307   1.9498
  1.9563   1.9645   1.9694   1.9713   1.9757   1.9794   1.9879   1.9972
  1.9995   2.0041   2.0160   2.0196   2.0225   2.0369   2.0564   2.0711
  2.0758   2.0820   2.0981   2.1031   2.1267   2.1344   2.1394   2.1474
  2.1762   2.1919   2.1945   2.2059   2.2207   2.2249   2.2451   2.2578
  2.2694   2.2859   2.3140   2.3201   2.3218   2.3484   2.3595   2.3724
  2.3786   2.4038   2.4196   2.4386   2.4417   2.4684   2.4721   2.4821
  2.4973   2.5200   2.5264   2.5331   2.5432   2.5705   2.5839   2.5915
  2.6051   2.6138   2.6224   2.6316   2.6453   2.6523   2.6605   2.6822
  2.6828   2.6980   2.7115   2.7249   2.7403   2.7751   2.7834   2.7966
  2.8012   2.8105   2.8221   2.8338   2.8406   2.8458   2.8547   2.8656
  2.8862   2.8931   2.9028   2.9181   2.9312   2.9389   2.9489   2.9549
  2.9616   2.9782   2.9830   2.9970   3.0104   3.0228   3.0346   3.0476
  3.0543   3.0627   3.0850   3.0962   3.1102   3.1115   3.1391   3.1627
  3.1705   3.1781   3.1833   3.1880   3.2053   3.2176   3.2294   3.2422
  3.2525   3.2688   3.2747   3.2807   3.2870   3.3012   3.3093   3.3241
  3.3372   3.3414   3.3455   3.3545   3.3629   3.3765   3.3864   3.3953
  3.4103   3.4173   3.4211   3.4303   3.4345   3.4454   3.4532   3.4599
  3.4636   3.4779   3.4883   3.4961   3.5066   3.5266   3.5299   3.5360
  3.5506   3.5592   3.5675   3.5791   3.5792   3.5881   3.6049   3.6120
  3.6243   3.6337   3.6504   3.6631   3.6654   3.6761   3.6776   3.6926
  3.7086   3.7166   3.7320   3.7360   3.7428   3.7588   3.7628   3.7662
  3.7847   3.8047   3.8060   3.8262   3.8345   3.8651   3.8994   3.9123
  3.9417   3.9490   3.9534   3.9629   4.0044   4.0563   4.0618   4.0718
  4.0821   4.0988   4.1246   4.1751   4.1844   4.2239   4.2275   4.2403
  4.2614   4.2698   4.2974   4.3113   4.3183   4.3364   4.3510   4.3799
  4.3811   4.3874   4.4373   4.4413   4.4619   4.4849   4.4987   4.5567
  4.5780   4.5841   4.6095   4.6292   4.6575   4.6627   4.6818   4.6933
  4.7837   4.8075   4.8130   4.8371   4.8601   4.8955   4.9490   4.9637
  4.9935   4.9998   5.0018   5.0192   5.0378   5.0888   5.1004   5.1360
  5.1566   5.1804   5.2283   5.2437   5.2845   5.2994   5.3258   5.3382
  5.3464   5.4176   5.4315   5.4513   5.5233   5.5337   5.5751   5.6225
  5.6754   5.6781   5.7422   5.7879   5.7913   5.8501   5.8819   5.9766
  5.9885   6.0702   6.1997   6.3068   6.3532   6.3676   6.4070   6.6257
  6.6404   6.7365   6.7472   6.7776   6.9418   6.9928   7.0296   7.2407
  7.3121   7.3937   7.4468  22.6144  22.6806  22.7827  22.9556  22.9802
 23.0111  23.2536  23.2887  23.5067  23.7627  23.8400  32.9546  44.3291
 44.3913
 --------------------------------------------------------------
 
          Ground-State Mulliken Net Atomic Charges

     Atom                 Charge (a.u.)
  ----------------------------------------
      1 C                    -0.672297
      2 C                     0.474208
      3 O                    -0.744967
      4 O                    -0.812176
      5 H                     0.218096
      6 H                     0.266349
      7 H                     0.219688
      8 C                    -1.141430
      9 C                    -0.522986
     10 C                    -0.144753
     11 C                     0.560193
     12 C                     0.317619
     13 C                    -0.493007
     14 C                    -0.562741
     15 C                    -0.547312
     16 C                    -0.599644
     17 N                     0.236379
     18 H                     0.123954
     19 H                     0.346075
     20 H                     0.435579
     21 H                     0.291524
     22 H                     0.288066
     23 H                     0.410306
     24 H                     0.393767
     25 H                     0.419938
     26 H                     0.239569
  ----------------------------------------
  Sum of atomic charges =    -1.000000

 -----------------------------------------------------------------
                    Cartesian Multipole Moments
 -----------------------------------------------------------------
    Charge (ESU x 10^10)
                -4.8032
    Dipole Moment (Debye)
         X       1.6662      Y     -13.3833      Z      -6.2856
       Tot      14.8795
    Quadrupole Moments (Debye-Ang)
        XX     -82.9212     XY      13.1829     YY    -138.9074
        XZ       3.2011     YZ     -28.8216     ZZ     -98.4196
    Octopole Moments (Debye-Ang^2)
       XXX      -8.4738    XXY      -4.9255    XYY      43.6956
       YYY    -249.2059    XXZ      -6.0316    XYZ      26.4727
       YYZ    -108.3734    XZZ       0.5441    YZZ     -24.4524
       ZZZ       0.3060
    Hexadecapole Moments (Debye-Ang^3)
      XXXX   -1176.0914   XXXY     358.1076   XXYY    -839.7388
      XYYY     529.8934   YYYY   -4956.5061   XXXZ     144.4661
      XXYZ     -50.2953   XYYZ     149.7427   YYYZ    -560.3512
      XXZZ    -280.8672   XYZZ     165.4300   YYZZ    -876.1989
      XZZZ     214.8418   YZZZ    -136.4007   ZZZZ    -440.5519
 -----------------------------------------------------------------
Archival summary:
1\1\nid00541\SP\ProcedureUnspecified\BasisUnspecified\211112(1-,1)\meili\MonSep2715:44:032021MonSep2715:44:032021\0\\#,ProcedureUnspecified,BasisUnspecified,\\-1,1\N\H,1,1.02334\C,1,1.36847,2,125.458\H,3,1.0839,1,125.359,2,5.75764,0\C,3,1.36228,1,109.624,2,-174.943,0\C,1,1.36868,2,124.62,3,-174.52,0\C,6,1.38545,1,131.081,2,-3.70108,0\H,7,1.07883,6,120.658,1,-0.118236,0\C,7,1.38361,6,117.822,1,179.617,0\H,9,1.08113,7,119.838,6,-179.836,0\C,9,1.3954,7,121.134,6,-0.500609,0\H,11,1.07989,9,119.582,7,-177.609,0\C,11,1.37509,9,121.013,7,-0.776913,0\H,13,1.07794,11,120.875,9,-176.443,0\C,13,1.40224,11,119.21,9,1.74821,0\C,5,1.48731,3,127.795,1,-176.951,0\H,16,1.08993,5,107.933,3,-155.322,0\H,16,1.09092,5,109.144,3,-39.7662,0\H,16,1.1,5,114.754,3,84.4113,0\O,2,1.94827,1,148.275,3,155.271,0\C,20,1.2426,2,157.477,1,111.971,0\O,21,1.2574,20,119.778,2,170.333,0\C,21,1.52414,20,119.56,2,-13.3373,0\H,23,1.08584,21,109.546,20,130.883,0\H,23,1.09394,21,109.283,20,-110.93,0\H,23,1.1,21,112.907,20,9.90128,0\\\@

 Total job time:  95709.59s(wall), 46201.89s(cpu) 
 Mon Sep 27 15:44:05 2021

        *************************************************************
        *                                                           *
        *  Thank you very much for using Q-Chem.  Have a nice day.  *
        *                                                           *
        *************************************************************


