
Running Job 1 of 1 SSI-035ASP-046ARG-1_PCM_TZVPD.in
qchem SSI-035ASP-046ARG-1_PCM_TZVPD.in_41096.0 /tmp/qchem41096/ 0
/global/common/cori/software/qchem/5.2/exe/qcprog.exe_s SSI-035ASP-046ARG-1_PCM_TZVPD.in_41096.0 /tmp/qchem41096/
                  Welcome to Q-Chem
     A Quantum Leap Into The Future Of Chemistry


 Q-Chem 5.2, Q-Chem, Inc., Pleasanton, CA (2019)

 License issued to: National Energy Research Scientific Computing Center

 Yihan Shao,  Zhengting Gan,  E. Epifanovsky,  A. T. B. Gilbert,  M. Wormit,  
 J. Kussmann,  A. W. Lange,  A. Behn,  Jia Deng,  Xintian Feng,  D. Ghosh,  
 M. Goldey,  P. R. Horn,  L. D. Jacobson,  I. Kaliman,  T. Kus,  A. Landau,  
 Jie Liu,  E. I. Proynov,  R. M. Richard,  R. P. Steele,  E. J. Sundstrom,  
 H. L. Woodcock III,  P. M. Zimmerman,  D. Zuev,  B. Albrecht,  E. Alguire,  
 S. A. Baeppler,  D. Barton,  Z. Benda,  Y. A. Bernard,  E. J. Berquist,  
 K. B. Bravaya,  H. Burton,  D. Casanova,  Chun-Min Chang,  Yunqing Chen,  
 A. Chien,  K. D. Closser,  M. P. Coons,  S. Coriani,  S. Dasgupta,  
 A. L. Dempwolff,  M. Diedenhofen,  Hainam Do,  R. G. Edgar,  Po-Tung Fang,  
 S. Faraji,  S. Fatehi,  Qingguo Feng,  K. D. Fenk,  J. Fosso-Tande,  
 J. Gayvert,  Qinghui Ge,  A. Ghysels,  G. Gidofalvi,  J. Gomes,  
 J. Gonthier,  A. Gunina,  D. Hait,  M. W. D. Hanson-Heine,  
 P. H. P. Harbach,  A. W. Hauser,  M. F. Herbst,  J. E. Herr,  
 E. G. Hohenstein,  Z. C. Holden,  Kerwin Hui,  B. C. Huynh,  T.-C. Jagau,  
 Hyunjun Ji,  B. Kaduk,  K. Khistyaev,  Jaehoon Kim,  P. Klunzinger,  K. Koh,  
 D. Kosenkov,  L. Koulias,  T. Kowalczyk,  C. M. Krauter,  A. Kunitsa,  
 Ka Un Lao,  A. Laurent,  K. V. Lawler,  Joonho Lee,  D. Lefrancois,  
 S. Lehtola,  D. S. Levine,  Yi-Pei Li,  You-Sheng Lin,  Fenglai Liu,  
 E. Livshits,  A. Luenser,  P. Manohar,  E. Mansoor,  S. F. Manzer,  
 Shan-Ping Mao,  Yuezhi Mao,  N. Mardirossian,  A. V. Marenich,  
 T. Markovich,  L. A. Martinez-Martinez,  S. A. Maurer,  N. J. Mayhall,  
 S. C. McKenzie,  J.-M. Mewes,  P. Morgante,  A. F. Morrison,  
 J. W. Mullinax,  K. Nanda,  T. S. Nguyen-Beck,  R. Olivares-Amaya,  
 J. A. Parkhill,  Zheng Pei,  T. M. Perrine,  F. Plasser,  P. Pokhilko,  
 S. Prager,  A. Prociuk,  E. Ramos,  D. R. Rehn,  F. Rob,  M. Scheurer,  
 M. Schneider,  N. Sergueev,  S. M. Sharada,  S. Sharma,  D. W. Small,  
 T. Stauch,  T. Stein,  Yu-Chuan Su,  A. J. W. Thom,  A. Tkatchenko,  
 T. Tsuchimochi,  N. M. Tubman,  L. Vogt,  M. L. Vidal,  O. Vydrov,  
 M. A. Watson,  J. Wenzel,  M. de Wergifosse,  T. A. Wesolowski,  A. White,  
 J. Witte,  A. Yamada,  Jun Yang,  K. Yao,  S. Yeganeh,  S. R. Yost,  
 Zhi-Qiang You,  A. Zech,  Igor Ying Zhang,  Xing Zhang,  Yan Zhao,  
 Ying Zhu,  B. R. Brooks,  G. K. L. Chan,  C. J. Cramer,  M. S. Gordon,  
 W. J. Hehre,  A. Klamt,  M. W. Schmidt,  C. D. Sherrill,  D. G. Truhlar,  
 A. Aspuru-Guzik,  R. Baer,  A. T. Bell,  N. A. Besley,  Jeng-Da Chai,  
 A. E. DePrince, III,  R. A. DiStasio Jr.,  A. Dreuw,  B. D. Dunietz,  
 T. R. Furlani,  Chao-Ping Hsu,  Yousung Jung,  Jing Kong,  D. S. Lambrecht,  
 WanZhen Liang,  C. Ochsenfeld,  V. A. Rassolov,  L. V. Slipchenko,  
 J. E. Subotnik,  T. Van Voorhis,  J. M. Herbert,  A. I. Krylov,  
 P. M. W. Gill,  M. Head-Gordon

 Contributors to earlier versions of Q-Chem not listed above: 
 R. D. Adamson,  B. Austin,  J. Baker,  G. J. O. Beran,  K. Brandhorst,  
 S. T. Brown,  E. F. C. Byrd,  A. K. Chakraborty,  C.-L. Cheng,  
 Siu Hung Chien,  D. M. Chipman,  D. L. Crittenden,  H. Dachsel,  
 R. J. Doerksen,  A. D. Dutoi,  L. Fusti-Molnar,  W. A. Goddard III,  
 A. Golubeva-Zadorozhnaya,  S. R. Gwaltney,  G. Hawkins,  A. Heyden,  
 S. Hirata,  G. Kedziora,  F. J. Keil,  C. Kelley,  Jihan Kim,  R. A. King,  
 R. Z. Khaliullin,  P. P. Korambath,  W. Kurlancheek,  A. M. Lee,  M. S. Lee,  
 S. V. Levchenko,  Ching Yeh Lin,  D. Liotard,  R. C. Lochan,  I. Lotan,  
 P. E. Maslen,  N. Nair,  D. P. O'Neill,  D. Neuhauser,  E. Neuscamman,  
 C. M. Oana,  R. Olson,  B. Peters,  R. Peverati,  P. A. Pieniazek,  
 Y. M. Rhee,  J. Ritchie,  M. A. Rohrdanz,  E. Rosta,  N. J. Russ,  
 H. F. Schaefer III,  N. E. Schultz,  N. Shenvi,  A. C. Simmonett,  A. Sodt,  
 D. Stuck,  K. S. Thanthiriwatte,  V. Vanovschi,  Tao Wang,  A. Warshel,  
 C. F. Williams,  Q. Wu,  X. Xu,  W. Zhang

 Please cite Q-Chem as follows:
 Y. Shao et al., Mol. Phys. 113, 184-215 (2015)
 DOI: 10.1080/00268976.2014.952696

 Q-Chem 5.2.0 for Intel X86 EM64T Linux

 Parts of Q-Chem use Armadillo 8.300.2 (Tropical Shenanigans).
 http://arma.sourceforge.net/

 Q-Chem begins on Sun Sep 26 05:40:57 2021  

Host: cori01
0

     Scratch files written to /tmp/qchem41096//
 May1019 |scratch|qcdevops|jenkins|workspace|build_RNUM -1
Processing $rem in /global/common/cori/software/qchem/5.2/config/preferences:
	 MEM_TOTAL  96000 
NAlpha2: 72
NElect   72
Mult     1
Symmetry turned off for PCM/SM12/SMD calculation

 Q-Chem warning in module libgen/rem_setup.C, line 2803:

 Neither GIA nor STOLL is specified by user. Use STOLL as the default


Checking the input file for inconsistencies... 	...done.

--------------------------------------------------------------
User input:
--------------------------------------------------------------
$comment
SSI-035ASP-046ARG-1.pdb
$end

$molecule
0 1
--
-1 1
C   -1.087640224495    0.512654725158    3.052416309214
C   -0.396640224495    1.471654725158    2.104416309214
O   -0.332640224495    1.207654725158    0.880416309214
O    0.111359775505    2.500654725158    2.606416309214
H   -1.727640224495    1.067654725158    3.738416309214
H   -0.319640224495    0.007654725158    3.642416309214
H   -1.679080224495   -0.250755274842    2.525726309214
--
1 1
C    2.331359775505   -1.204345274842   -1.839583690786
C   -0.149640224495   -1.117345274842   -1.689583690786
N   -1.212640224495   -0.711345274842   -1.026583690786
N    1.056359775505   -0.832345274842   -1.215583690786
N   -0.295640224495   -1.800345274842   -2.808583690786
H   -1.058640224495   -0.051345274842   -0.262583690786
H   -2.145640224495   -0.839345274842   -1.404583690786
H    1.090359775505   -0.264345274842   -0.378583690786
H    0.519359775505   -2.137345274842   -3.291583690786
H   -1.212640224495   -2.078345274842   -3.125583690786
H    3.079359775505   -0.471345274842   -1.528583690786
H    2.266359775505   -1.153345274842   -2.927583690786
H    2.674579775505   -2.202355274842   -1.529463690786
$end

$rem
JOBTYPE			EDA
EDA2			1
method			wB97X-V
BASIS			def2-TZVPD
XC_GRID			000099000590
NL_GRID			1
UNRESTRICTED		FALSE
MAX_SCF_CYCLES		200
SYMMETRY		FALSE
SYM_IGNORE		TRUE
MEM_STATIC		2000
BASIS_LIN_DEP_THRESH 	6
THRESH 			14
SCF_CONVERGENCE 	8
SCF_PRINT_FRGM 		TRUE
SOLVENT_METHOD          PCM
$end

$PCM
THEORY                  CPCM
METHOD                  SWIG
SOLVER                  INVERSION
RADII                   UFF
HPOINTS                 302
HEAVYPOINTS             302
PRINTLEVEL              0
$END

$SOLVENT
DIELECTRIC              78.390000 ! water
$END
--------------------------------------------------------------
 ----------------------------------------------------------------
             Standard Nuclear Orientation (Angstroms)
    I     Atom           X                Y                Z
 ----------------------------------------------------------------
    1      C      -1.0876402245     0.5126547252     3.0524163092
    2      C      -0.3966402245     1.4716547252     2.1044163092
    3      O      -0.3326402245     1.2076547252     0.8804163092
    4      O       0.1113597755     2.5006547252     2.6064163092
    5      H      -1.7276402245     1.0676547252     3.7384163092
    6      H      -0.3196402245     0.0076547252     3.6424163092
    7      H      -1.6790802245    -0.2507552748     2.5257263092
    8      C       2.3313597755    -1.2043452748    -1.8395836908
    9      C      -0.1496402245    -1.1173452748    -1.6895836908
   10      N      -1.2126402245    -0.7113452748    -1.0265836908
   11      N       1.0563597755    -0.8323452748    -1.2155836908
   12      N      -0.2956402245    -1.8003452748    -2.8085836908
   13      H      -1.0586402245    -0.0513452748    -0.2625836908
   14      H      -2.1456402245    -0.8393452748    -1.4045836908
   15      H       1.0903597755    -0.2643452748    -0.3785836908
   16      H       0.5193597755    -2.1373452748    -3.2915836908
   17      H      -1.2126402245    -2.0783452748    -3.1255836908
   18      H       3.0793597755    -0.4713452748    -1.5285836908
   19      H       2.2663597755    -1.1533452748    -2.9275836908
   20      H       2.6745797755    -2.2023552748    -1.5294636908
 ----------------------------------------------------------------
 Nuclear Repulsion Energy =         449.54767124 hartrees
 There are       36 alpha and       36 beta electrons
 Requested basis set is def2-TZVPD
 There are 174 shells and 438 basis functions

 Total QAlloc Memory Limit  96000 MB
 Mega-Array Size      1956 MB
 MEM_STATIC part      2000 MB
 Discretize the solute cavity surface with Lebedev spheres
	Using 302 Lebedev grid points for each H atom
	Using 302 Lebedev grid points for other atoms
	Atomic van der Waals radii will be scaled by 1.20
 Remove points where switching function is < 1.0e-08
 Keep 2401 surface tesserae and discard 3639 interior tesserae
 Molecular Surface Area = 240.097 Angst**2
 A cutoff of  1.0D-14 yielded  13376 shell pairs
 There are     84890 function pairs (    106399 Cartesian)
 Smallest overlap matrix eigenvalue = 1.19E-05

 Scale SEOQF with 1.000000e-01/1.000000e-01/1.000000e-01

 Standard Electronic Orientation quadrupole field applied
 Nucleus-field energy     =    -0.0000000211 hartrees

 -----------------------------------------------------------------------
  General SCF calculation program by
  Eric Jon Sundstrom, Paul Horn, Yuezhi Mao, Dmitri Zuev, Alec White,
  David Stuck, Shaama M.S., Shane Yost, Joonho Lee, David Small,
  Daniel Levine, Susi Lehtola, Hugh Burton, Evgeny Epifanovsky
 -----------------------------------------------------------------------
================================================================
                 ALMO-EDA with the EDA2 driver                  
================================================================
 The second-generation ALMO-EDA (for DFT):                      
 P. R. Horn, Y. Mao and M. Head-Gordon, PCCP, 18, 23067 (2016)  
 Decomposition of the frozen energy:                            
 P. R. Horn, Y. Mao and M. Head-Gordon, JCP, 144, 114107 (2016) 
 FERF model for polarization:                                   
 P. R. Horn and M. Head-Gordon, JCP, 143, 114111 (2015)         
Using eda2 option set 1
Option set summary: Frozen orbital wavefunction, initial wavefunction decomposition, and nDQ polarization.
--------------------------------
Printing EDA Options
--------------------------------
eda_child_super_basis      0
fragmo_guess_mode          0
child_mp                   1
child_mp_orders            232
cls_elec                   1
cls_disp                   0
scfmi_mode                 1
scfmi_occs                 0
scfmi_virts                0
frz_relax                  0
frz_relax_method           0
dc_pen_start               0
dc_pen_conv                0
dc_pen_increment           0
dc_pen_steps               0
dc_pen_thresh_factor       0
dc_pen_pre_newton_thresh   0
frz_ortho_decomp           1
frz_ortho_decomp_conv      6
frgm_method                2
scfmi_freeze_ss            0
separate_rehyb             0
plot_diff_den              0
eda_nocv                   0
eda_vct_relax              1
disp_free_x                0
disp_free_c                0
eda_bsse                   0
eda_pct_a                  0
eda_covp                   0
--------------------------------
Attempting to make child job directory: /tmp/qchem41096//Frg1/
Attempting to make child job directory: /tmp/qchem41096//Frg2/
Creating input file /tmp/qchem41096/Frg1.input
using default PutDataFrgm: nothing
calling putenv with: QCSCRATCH=/tmp/qchem41096/ 
calling putenv with: QCLOCALSCR=/tmp/qchem41096/ 
Spawning Job For Fragment 0
                  Welcome to Q-Chem
     A Quantum Leap Into The Future Of Chemistry


 Q-Chem 5.2, Q-Chem, Inc., Pleasanton, CA (2019)

 License issued to: National Energy Research Scientific Computing Center

 Yihan Shao,  Zhengting Gan,  E. Epifanovsky,  A. T. B. Gilbert,  M. Wormit,  
 J. Kussmann,  A. W. Lange,  A. Behn,  Jia Deng,  Xintian Feng,  D. Ghosh,  
 M. Goldey,  P. R. Horn,  L. D. Jacobson,  I. Kaliman,  T. Kus,  A. Landau,  
 Jie Liu,  E. I. Proynov,  R. M. Richard,  R. P. Steele,  E. J. Sundstrom,  
 H. L. Woodcock III,  P. M. Zimmerman,  D. Zuev,  B. Albrecht,  E. Alguire,  
 S. A. Baeppler,  D. Barton,  Z. Benda,  Y. A. Bernard,  E. J. Berquist,  
 K. B. Bravaya,  H. Burton,  D. Casanova,  Chun-Min Chang,  Yunqing Chen,  
 A. Chien,  K. D. Closser,  M. P. Coons,  S. Coriani,  S. Dasgupta,  
 A. L. Dempwolff,  M. Diedenhofen,  Hainam Do,  R. G. Edgar,  Po-Tung Fang,  
 S. Faraji,  S. Fatehi,  Qingguo Feng,  K. D. Fenk,  J. Fosso-Tande,  
 J. Gayvert,  Qinghui Ge,  A. Ghysels,  G. Gidofalvi,  J. Gomes,  
 J. Gonthier,  A. Gunina,  D. Hait,  M. W. D. Hanson-Heine,  
 P. H. P. Harbach,  A. W. Hauser,  M. F. Herbst,  J. E. Herr,  
 E. G. Hohenstein,  Z. C. Holden,  Kerwin Hui,  B. C. Huynh,  T.-C. Jagau,  
 Hyunjun Ji,  B. Kaduk,  K. Khistyaev,  Jaehoon Kim,  P. Klunzinger,  K. Koh,  
 D. Kosenkov,  L. Koulias,  T. Kowalczyk,  C. M. Krauter,  A. Kunitsa,  
 Ka Un Lao,  A. Laurent,  K. V. Lawler,  Joonho Lee,  D. Lefrancois,  
 S. Lehtola,  D. S. Levine,  Yi-Pei Li,  You-Sheng Lin,  Fenglai Liu,  
 E. Livshits,  A. Luenser,  P. Manohar,  E. Mansoor,  S. F. Manzer,  
 Shan-Ping Mao,  Yuezhi Mao,  N. Mardirossian,  A. V. Marenich,  
 T. Markovich,  L. A. Martinez-Martinez,  S. A. Maurer,  N. J. Mayhall,  
 S. C. McKenzie,  J.-M. Mewes,  P. Morgante,  A. F. Morrison,  
 J. W. Mullinax,  K. Nanda,  T. S. Nguyen-Beck,  R. Olivares-Amaya,  
 J. A. Parkhill,  Zheng Pei,  T. M. Perrine,  F. Plasser,  P. Pokhilko,  
 S. Prager,  A. Prociuk,  E. Ramos,  D. R. Rehn,  F. Rob,  M. Scheurer,  
 M. Schneider,  N. Sergueev,  S. M. Sharada,  S. Sharma,  D. W. Small,  
 T. Stauch,  T. Stein,  Yu-Chuan Su,  A. J. W. Thom,  A. Tkatchenko,  
 T. Tsuchimochi,  N. M. Tubman,  L. Vogt,  M. L. Vidal,  O. Vydrov,  
 M. A. Watson,  J. Wenzel,  M. de Wergifosse,  T. A. Wesolowski,  A. White,  
 J. Witte,  A. Yamada,  Jun Yang,  K. Yao,  S. Yeganeh,  S. R. Yost,  
 Zhi-Qiang You,  A. Zech,  Igor Ying Zhang,  Xing Zhang,  Yan Zhao,  
 Ying Zhu,  B. R. Brooks,  G. K. L. Chan,  C. J. Cramer,  M. S. Gordon,  
 W. J. Hehre,  A. Klamt,  M. W. Schmidt,  C. D. Sherrill,  D. G. Truhlar,  
 A. Aspuru-Guzik,  R. Baer,  A. T. Bell,  N. A. Besley,  Jeng-Da Chai,  
 A. E. DePrince, III,  R. A. DiStasio Jr.,  A. Dreuw,  B. D. Dunietz,  
 T. R. Furlani,  Chao-Ping Hsu,  Yousung Jung,  Jing Kong,  D. S. Lambrecht,  
 WanZhen Liang,  C. Ochsenfeld,  V. A. Rassolov,  L. V. Slipchenko,  
 J. E. Subotnik,  T. Van Voorhis,  J. M. Herbert,  A. I. Krylov,  
 P. M. W. Gill,  M. Head-Gordon

 Contributors to earlier versions of Q-Chem not listed above: 
 R. D. Adamson,  B. Austin,  J. Baker,  G. J. O. Beran,  K. Brandhorst,  
 S. T. Brown,  E. F. C. Byrd,  A. K. Chakraborty,  C.-L. Cheng,  
 Siu Hung Chien,  D. M. Chipman,  D. L. Crittenden,  H. Dachsel,  
 R. J. Doerksen,  A. D. Dutoi,  L. Fusti-Molnar,  W. A. Goddard III,  
 A. Golubeva-Zadorozhnaya,  S. R. Gwaltney,  G. Hawkins,  A. Heyden,  
 S. Hirata,  G. Kedziora,  F. J. Keil,  C. Kelley,  Jihan Kim,  R. A. King,  
 R. Z. Khaliullin,  P. P. Korambath,  W. Kurlancheek,  A. M. Lee,  M. S. Lee,  
 S. V. Levchenko,  Ching Yeh Lin,  D. Liotard,  R. C. Lochan,  I. Lotan,  
 P. E. Maslen,  N. Nair,  D. P. O'Neill,  D. Neuhauser,  E. Neuscamman,  
 C. M. Oana,  R. Olson,  B. Peters,  R. Peverati,  P. A. Pieniazek,  
 Y. M. Rhee,  J. Ritchie,  M. A. Rohrdanz,  E. Rosta,  N. J. Russ,  
 H. F. Schaefer III,  N. E. Schultz,  N. Shenvi,  A. C. Simmonett,  A. Sodt,  
 D. Stuck,  K. S. Thanthiriwatte,  V. Vanovschi,  Tao Wang,  A. Warshel,  
 C. F. Williams,  Q. Wu,  X. Xu,  W. Zhang

 Please cite Q-Chem as follows:
 Y. Shao et al., Mol. Phys. 113, 184-215 (2015)
 DOI: 10.1080/00268976.2014.952696

 Q-Chem 5.2.0 for Intel X86 EM64T Linux

 Parts of Q-Chem use Armadillo 8.300.2 (Tropical Shenanigans).
 http://arma.sourceforge.net/

 Q-Chem begins on Sun Sep 26 05:41:02 2021  

Host: cori01
0

     Scratch files written to /tmp/qchem41096//Frg1//
 May1019 |scratch|qcdevops|jenkins|workspace|build_RNUM -1
Processing $rem in /global/common/cori/software/qchem/5.2/config/preferences:
	 MEM_TOTAL  96000 
NAlpha2: 32
NElect   32
Mult     1
Symmetry turned off for PCM/SM12/SMD calculation

Checking the input file for inconsistencies... 	...done.

--------------------------------------------------------------
User input:
--------------------------------------------------------------
$molecule
-1 1
 6	-1.0876402245	0.5126547252	3.0524163092
 6	-0.3966402245	1.4716547252	2.1044163092
 8	-0.3326402245	1.2076547252	0.8804163092
 8	0.1113597755	2.5006547252	2.6064163092
 1	-1.7276402245	1.0676547252	3.7384163092
 1	-0.3196402245	0.0076547252	3.6424163092
 1	-1.6790802245	-0.2507552748	2.5257263092
$end
$rem
EDA2		1
METHOD		WB97X-V
BASIS		DEF2-TZVPD
XC_GRID		000099000590
NL_GRID		1
UNRESTRICTED		FALSE
MAX_SCF_CYCLES		200
SYMMETRY		FALSE
SYM_IGNORE		TRUE
BASIS_LIN_DEP_THRESH		6
THRESH		14
SCF_CONVERGENCE		8
SCF_PRINT_FRGM		TRUE
SOLVENT_METHOD		PCM
!required keywords
JOBTYPE		SP
SYM_IGNORE		TRUE
SUBSYSTEM		TRUE
GEN_SCFMAN		TRUE
CHILD_INSTRUCTION		2
SYM_IGNORE		TRUE
SCFMI		0
RI_K 0		
PARI_K 0		
MIN_PARI_K 0		
IARI_K 0		
OCC_RI_K 0		
PURECART		1111
MEM_STATIC		2000
MEM_TOTAL		96000
GUI		0
CHILD_MP		1
CHILD_MP_ORDERS		232
FRZ_RELAX		0
FRZ_RELAX_METHOD		0
EDA_CLS_ELEC		1
EDA_CLS_DISP		0
FRZ_ORTHO_DECOMP		1
EDA2		FALSE
FRGM_METHOD		FALSE
CIS_N_ROOTS  0
LOCAL_CIS    0
CIS_RLX_DNS  1
$end
$pcm
THEORY                  CPCM
METHOD                  SWIG
SOLVER                  INVERSION
RADII                   UFF
HPOINTS                 302
HEAVYPOINTS             302
PRINTLEVEL              0
$end
$solvent
DIELECTRIC              78.390000 ! water
$end
--------------------------------------------------------------
 ----------------------------------------------------------------
             Standard Nuclear Orientation (Angstroms)
    I     Atom           X                Y                Z
 ----------------------------------------------------------------
    1      C      -1.0876402245     0.5126547252     3.0524163092
    2      C      -0.3966402245     1.4716547252     2.1044163092
    3      O      -0.3326402245     1.2076547252     0.8804163092
    4      O       0.1113597755     2.5006547252     2.6064163092
    5      H      -1.7276402245     1.0676547252     3.7384163092
    6      H      -0.3196402245     0.0076547252     3.6424163092
    7      H      -1.6790802245    -0.2507552748     2.5257263092
 ----------------------------------------------------------------
 Nuclear Repulsion Energy =         112.68306962 hartrees
 There are       16 alpha and       16 beta electrons
 Requested basis set is def2-TZVPD
 There are 69 shells and 181 basis functions

 Total QAlloc Memory Limit  96000 MB
 Mega-Array Size      1956 MB
 MEM_STATIC part      2000 MB
 Discretize the solute cavity surface with Lebedev spheres
	Using 302 Lebedev grid points for each H atom
	Using 302 Lebedev grid points for other atoms
	Atomic van der Waals radii will be scaled by 1.20
 Remove points where switching function is < 1.0e-08
 Keep 1022 surface tesserae and discard 1092 interior tesserae
 Molecular Surface Area = 119.744 Angst**2

                       Distance Matrix (Angstroms)
             C (  1)   C (  2)   O (  3)   O (  4)   H (  5)   H (  6)
   C (  2)  1.515212
   O (  3)  2.402214  1.253781
   O (  4)  2.364035  1.252561  2.201831
   H (  5)  1.090056  2.145864  3.183361  2.591686
   H (  6)  1.092222  2.124775  3.011447  2.733881  1.765016
   H (  7)  1.099999  2.188344  2.578159  3.283663  1.791977  1.778159

 
 A cutoff of  1.0D-14 yielded   2391 shell pairs
 There are     16695 function pairs (     21491 Cartesian)
 Smallest overlap matrix eigenvalue = 1.63E-05

 Scale SEOQF with 1.000000e-01/1.000000e-01/1.000000e-01

 Standard Electronic Orientation quadrupole field applied
 Nucleus-field energy     =    -0.0000000129 hartrees
 Guess from superposition of atomic densities
 Warning:  Energy on first SCF cycle will be non-variational
 SAD guess density has 30.625312 electrons

 -----------------------------------------------------------------------
  General SCF calculation program by
  Eric Jon Sundstrom, Paul Horn, Yuezhi Mao, Dmitri Zuev, Alec White,
  David Stuck, Shaama M.S., Shane Yost, Joonho Lee, David Small,
  Daniel Levine, Susi Lehtola, Hugh Burton, Evgeny Epifanovsky
 -----------------------------------------------------------------------
 Exchange:     0.1670 Hartree-Fock + 1.0000 wB97X-V + LR-HF
 Correlation:  1.0000 wB97X-V
 Using Euler-Maclaurin-Lebedev (99,590) quadrature formula
 Nonlocal Correlation:  VV10 with C = 0.0100 and b = 6.00 and scale = 1.00000
 Grid used for NLC:  SG-1 standard quadrature
Energy prior to optimization (guess energy) = -227.761267139955
Begin Timing: Total SCF Calculation
begin iterations for algorithm: DIIS         
the SCF tolerance is set to 1.00e-08
    1    -227.7612671400      1.66e-02     00000 
    2    -225.5779959024      2.55e-02     00000 
    3    -228.5774037298      4.13e-03     00000 
    4    -228.6364461686      1.37e-03     00000 
    5    -228.6425341932      2.39e-04     00000 
    6    -228.6427561067      1.84e-04     00000 
    7    -228.6428469397      5.15e-05     00000 
    8    -228.6428581254      1.40e-05     00000 
    9    -228.6428594415      2.87e-06     00000 
   10    -228.6428595455      5.24e-07     00000 
   11    -228.6428595485      2.49e-07     00000 
   12    -228.6428595491      6.06e-08     00000 
   13    -228.6428595491      1.72e-08     00000 
   14    -228.6428595491      2.84e-09     00000 Convergence criterion met
Timing for Total SCF: 309.00s (wall), 567.44s (cpu)

************** Final PCM Free Energy Summary **************
 G_electrostatic  =      -0.10188606 hartree =     -63.93446672 kcal/mol
 G_cavitation     =       0.00000000 hartree =       0.00000000 kcal/mol
 G_dispersion     =       0.00000000 hartree =       0.00000000 kcal/mol
 G_repulsion      =       0.00000000 hartree =       0.00000000 kcal/mol
 --------------------------------------------------
 Non-electrostatic Free Energy =       0.00000000 hartree =       0.00000000 kcal/mol
 Total                         =      -0.10188606 hartree =     -63.93446672 kcal/mol
 --------------------------------------------------
 SCF Energy (H0 + V/2)                       =    -228.64285955 
 Solute Internal Energy (H0)                 =    -228.54097349 
 Total Free Energy (H0 + V/2 + non-elec)     =    -228.64285955 hartree
                                             = -143475.55984360 kcal/mol
***********************************************************

E_pcm = -0.1018860586
Multipole orders to be included
        2
        3
computing dipole RHS
computing quadrupole RHS
total number of RHS in solve_reponses: 8
RHS batch sizes
        8
Beginning Block Conjugate Gradient Iterations. Batch Number: 0
computing hessian-vector products by finite difference
              1      6.73e-01     00000 Conjugate Gradient Iteration
computing hessian-vector products by finite difference
              2      2.46e-01     00000 Conjugate Gradient Iteration
computing hessian-vector products by finite difference
              3      6.53e-02     00000 Conjugate Gradient Iteration
computing hessian-vector products by finite difference
              4      1.72e-02     00000 Conjugate Gradient Iteration
computing hessian-vector products by finite difference
              5      2.98e-03     00000 Conjugate Gradient Iteration
computing hessian-vector products by finite difference
              6      6.85e-04     00000 Conjugate Gradient Iteration
computing hessian-vector products by finite difference
              7      1.11e-04     00000 Conjugate Gradient Iteration
computing hessian-vector products by finite difference
              8      1.34e-05     00000 Conjugate Gradient Iteration
computing hessian-vector products by finite difference
              9      2.14e-06     00000 Conjugate Gradient Iteration
computing hessian-vector products by finite difference
             10      2.61e-07     00000 Conjugate Gradient Iteration
computing hessian-vector products by finite difference
             11      6.11e-08     00000 Conjugate Gradient Iteration
computing hessian-vector products by finite difference
             12      1.17e-08     00000 Conjugate Gradient Iteration
computing hessian-vector products by finite difference
             13      1.31e-09     00000 CG Converged
batch 0 complete
Done Calculating Responses
TESTING ORTHOGONALIZATION OF MULTIPOLE BASIS
Multipole virts passed orthogonality test
Virts Per Order
        48
        80
 
 --------------------------------------------------------------
 
                    Orbital Energies (a.u.)
 --------------------------------------------------------------
 
 Alpha MOs
 -- Occupied --
-19.1227 -19.1205 -10.3248 -10.2396  -1.1311  -1.0306  -0.8299  -0.5926
 -0.5297  -0.5177  -0.5159  -0.4627  -0.4418  -0.3287  -0.3262  -0.3084
 -- Virtual --
  0.0632   0.0953   0.0959   0.1052   0.1305   0.1403   0.1425   0.1452
  0.1693   0.1910   0.1990   0.2226   0.2314   0.2362   0.2639   0.2679
  0.2994   0.3122   0.3346   0.3478   0.3545   0.3620   0.3731   0.3820
  0.3911   0.4054   0.4252   0.4270   0.4332   0.4621   0.4747   0.4777
  0.4906   0.4972   0.5042   0.5228   0.5610   0.5783   0.5967   0.6150
  0.6250   0.6429   0.6468   0.6600   0.6737   0.6836   0.6984   0.7105
  0.7228   0.7399   0.7804   0.8001   0.8112   0.8203   0.8467   0.8584
  0.8693   0.9816   0.9883   0.9957   1.0083   1.0496   1.0630   1.1248
  1.1652   1.2171   1.2599   1.2874   1.2923   1.3162   1.3537   1.3657
  1.4538   1.5701   1.6079   1.7378   1.8268   1.8681   1.8751   1.9230
  1.9323   1.9583   1.9656   1.9743   2.0220   2.1183   2.1326   2.1788
  2.2204   2.2289   2.3203   2.3510   2.4223   2.4442   2.4890   2.5077
  2.5765   2.5936   2.6247   2.6596   2.8003   2.8162   2.8762   2.9244
  2.9452   3.0203   3.0486   3.1820   3.2146   3.2552   3.2820   3.3134
  3.3434   3.3555   3.3996   3.4182   3.4307   3.5379   3.5795   3.5936
  3.6081   3.6746   3.7068   3.7368   3.7735   3.8780   3.9590   4.0582
  4.0921   4.2000   4.3705   4.5696   4.6213   4.6699   4.8128   4.8382
  4.9892   5.3341   5.3614   5.3699   5.3783   5.5033   5.7160   5.7706
  5.8198   6.0236   6.2409   6.3409   6.3550   6.6203   6.6318   6.7203
  6.7470   6.7605   6.9552   6.9802   7.0444   7.2496   7.3583   7.3866
  7.4158  22.5987  23.7362  44.2240  44.3549
 --------------------------------------------------------------
 
          Ground-State Mulliken Net Atomic Charges

     Atom                 Charge (a.u.)
  ----------------------------------------
      1 C                    -0.393277
      2 C                     0.289283
      3 O                    -0.676240
      4 O                    -0.678554
      5 H                     0.161353
      6 H                     0.132155
      7 H                     0.165279
  ----------------------------------------
  Sum of atomic charges =    -1.000000

 -----------------------------------------------------------------
                    Cartesian Multipole Moments
 -----------------------------------------------------------------
    Charge (ESU x 10^10)
                -4.8032
    Dipole Moment (Debye)
         X      -0.2313      Y      -9.9740      Z      -7.3323
       Tot      12.3814
    Quadrupole Moments (Debye-Ang)
        XX     -25.9960     XY      -1.8105     YY     -49.9306
        XZ      -2.0801     YZ     -20.2278     ZZ     -43.1331
    Octopole Moments (Debye-Ang^2)
       XXX      35.8839    XXY     -35.1715    XYY       7.0683
       YYY    -167.2165    XXZ     -56.8209    XYZ      -6.5148
       YYZ    -113.2982    XZZ       6.3718    YZZ     -87.2582
       ZZZ    -221.9567
    Hexadecapole Moments (Debye-Ang^3)
      XXXX    -104.7837   XXXY      20.5825   XXYY     -86.5316
      XYYY      10.4486   YYYY    -578.2517   XXXZ      91.6760
      XXYZ     -73.9229   XYYZ      17.5917   YYYZ    -379.7338
      XXZZ    -168.3467   XYZZ     -11.8709   YYZZ    -370.7471
      XZZZ      79.9751   YZZZ    -374.6748   ZZZZ   -1069.2812
 -----------------------------------------------------------------
Archival summary:
1\1\nid00535\SP\ProcedureUnspecified\BasisUnspecified\223(1-,1)\meili\SunSep2607:11:462021SunSep2607:11:462021\0\\#,ProcedureUnspecified,BasisUnspecified,\\-1,1\C\O,1,1.25256\O,1,1.25378,2,122.925\C,1,1.51521,2,117.011,3,178.778,0\H,4,1.09006,1,109.831,2,45.5936,0\H,4,1.09222,1,108.055,2,-71.9402,0\H,4,1.1,1,112.636,2,168.334,0\\\@

 Total job time:  5445.64s(wall), 10247.56s(cpu) 
 Sun Sep 26 07:11:48 2021

        *************************************************************
        *                                                           *
        *  Thank you very much for using Q-Chem.  Have a nice day.  *
        *                                                           *
        *************************************************************


Done Job For Fragment 0
calling putenv with: QCSCRATCH=/global/cscratch1/sd/meili 
calling putenv with: QCLOCALSCR=/tmp 
calling putenv with: QCTHREADS=32 
Creating input file /tmp/qchem41096/Frg2.input
using default PutDataFrgm: nothing
calling putenv with: QCSCRATCH=/tmp/qchem41096/ 
calling putenv with: QCLOCALSCR=/tmp/qchem41096/ 
Spawning Job For Fragment 1
                  Welcome to Q-Chem
     A Quantum Leap Into The Future Of Chemistry


 Q-Chem 5.2, Q-Chem, Inc., Pleasanton, CA (2019)

 License issued to: National Energy Research Scientific Computing Center

 Yihan Shao,  Zhengting Gan,  E. Epifanovsky,  A. T. B. Gilbert,  M. Wormit,  
 J. Kussmann,  A. W. Lange,  A. Behn,  Jia Deng,  Xintian Feng,  D. Ghosh,  
 M. Goldey,  P. R. Horn,  L. D. Jacobson,  I. Kaliman,  T. Kus,  A. Landau,  
 Jie Liu,  E. I. Proynov,  R. M. Richard,  R. P. Steele,  E. J. Sundstrom,  
 H. L. Woodcock III,  P. M. Zimmerman,  D. Zuev,  B. Albrecht,  E. Alguire,  
 S. A. Baeppler,  D. Barton,  Z. Benda,  Y. A. Bernard,  E. J. Berquist,  
 K. B. Bravaya,  H. Burton,  D. Casanova,  Chun-Min Chang,  Yunqing Chen,  
 A. Chien,  K. D. Closser,  M. P. Coons,  S. Coriani,  S. Dasgupta,  
 A. L. Dempwolff,  M. Diedenhofen,  Hainam Do,  R. G. Edgar,  Po-Tung Fang,  
 S. Faraji,  S. Fatehi,  Qingguo Feng,  K. D. Fenk,  J. Fosso-Tande,  
 J. Gayvert,  Qinghui Ge,  A. Ghysels,  G. Gidofalvi,  J. Gomes,  
 J. Gonthier,  A. Gunina,  D. Hait,  M. W. D. Hanson-Heine,  
 P. H. P. Harbach,  A. W. Hauser,  M. F. Herbst,  J. E. Herr,  
 E. G. Hohenstein,  Z. C. Holden,  Kerwin Hui,  B. C. Huynh,  T.-C. Jagau,  
 Hyunjun Ji,  B. Kaduk,  K. Khistyaev,  Jaehoon Kim,  P. Klunzinger,  K. Koh,  
 D. Kosenkov,  L. Koulias,  T. Kowalczyk,  C. M. Krauter,  A. Kunitsa,  
 Ka Un Lao,  A. Laurent,  K. V. Lawler,  Joonho Lee,  D. Lefrancois,  
 S. Lehtola,  D. S. Levine,  Yi-Pei Li,  You-Sheng Lin,  Fenglai Liu,  
 E. Livshits,  A. Luenser,  P. Manohar,  E. Mansoor,  S. F. Manzer,  
 Shan-Ping Mao,  Yuezhi Mao,  N. Mardirossian,  A. V. Marenich,  
 T. Markovich,  L. A. Martinez-Martinez,  S. A. Maurer,  N. J. Mayhall,  
 S. C. McKenzie,  J.-M. Mewes,  P. Morgante,  A. F. Morrison,  
 J. W. Mullinax,  K. Nanda,  T. S. Nguyen-Beck,  R. Olivares-Amaya,  
 J. A. Parkhill,  Zheng Pei,  T. M. Perrine,  F. Plasser,  P. Pokhilko,  
 S. Prager,  A. Prociuk,  E. Ramos,  D. R. Rehn,  F. Rob,  M. Scheurer,  
 M. Schneider,  N. Sergueev,  S. M. Sharada,  S. Sharma,  D. W. Small,  
 T. Stauch,  T. Stein,  Yu-Chuan Su,  A. J. W. Thom,  A. Tkatchenko,  
 T. Tsuchimochi,  N. M. Tubman,  L. Vogt,  M. L. Vidal,  O. Vydrov,  
 M. A. Watson,  J. Wenzel,  M. de Wergifosse,  T. A. Wesolowski,  A. White,  
 J. Witte,  A. Yamada,  Jun Yang,  K. Yao,  S. Yeganeh,  S. R. Yost,  
 Zhi-Qiang You,  A. Zech,  Igor Ying Zhang,  Xing Zhang,  Yan Zhao,  
 Ying Zhu,  B. R. Brooks,  G. K. L. Chan,  C. J. Cramer,  M. S. Gordon,  
 W. J. Hehre,  A. Klamt,  M. W. Schmidt,  C. D. Sherrill,  D. G. Truhlar,  
 A. Aspuru-Guzik,  R. Baer,  A. T. Bell,  N. A. Besley,  Jeng-Da Chai,  
 A. E. DePrince, III,  R. A. DiStasio Jr.,  A. Dreuw,  B. D. Dunietz,  
 T. R. Furlani,  Chao-Ping Hsu,  Yousung Jung,  Jing Kong,  D. S. Lambrecht,  
 WanZhen Liang,  C. Ochsenfeld,  V. A. Rassolov,  L. V. Slipchenko,  
 J. E. Subotnik,  T. Van Voorhis,  J. M. Herbert,  A. I. Krylov,  
 P. M. W. Gill,  M. Head-Gordon

 Contributors to earlier versions of Q-Chem not listed above: 
 R. D. Adamson,  B. Austin,  J. Baker,  G. J. O. Beran,  K. Brandhorst,  
 S. T. Brown,  E. F. C. Byrd,  A. K. Chakraborty,  C.-L. Cheng,  
 Siu Hung Chien,  D. M. Chipman,  D. L. Crittenden,  H. Dachsel,  
 R. J. Doerksen,  A. D. Dutoi,  L. Fusti-Molnar,  W. A. Goddard III,  
 A. Golubeva-Zadorozhnaya,  S. R. Gwaltney,  G. Hawkins,  A. Heyden,  
 S. Hirata,  G. Kedziora,  F. J. Keil,  C. Kelley,  Jihan Kim,  R. A. King,  
 R. Z. Khaliullin,  P. P. Korambath,  W. Kurlancheek,  A. M. Lee,  M. S. Lee,  
 S. V. Levchenko,  Ching Yeh Lin,  D. Liotard,  R. C. Lochan,  I. Lotan,  
 P. E. Maslen,  N. Nair,  D. P. O'Neill,  D. Neuhauser,  E. Neuscamman,  
 C. M. Oana,  R. Olson,  B. Peters,  R. Peverati,  P. A. Pieniazek,  
 Y. M. Rhee,  J. Ritchie,  M. A. Rohrdanz,  E. Rosta,  N. J. Russ,  
 H. F. Schaefer III,  N. E. Schultz,  N. Shenvi,  A. C. Simmonett,  A. Sodt,  
 D. Stuck,  K. S. Thanthiriwatte,  V. Vanovschi,  Tao Wang,  A. Warshel,  
 C. F. Williams,  Q. Wu,  X. Xu,  W. Zhang

 Please cite Q-Chem as follows:
 Y. Shao et al., Mol. Phys. 113, 184-215 (2015)
 DOI: 10.1080/00268976.2014.952696

 Q-Chem 5.2.0 for Intel X86 EM64T Linux

 Parts of Q-Chem use Armadillo 8.300.2 (Tropical Shenanigans).
 http://arma.sourceforge.net/

 Q-Chem begins on Sun Sep 26 07:11:50 2021  

Host: cori01
0

     Scratch files written to /tmp/qchem41096//Frg2//
 May1019 |scratch|qcdevops|jenkins|workspace|build_RNUM -1
Processing $rem in /global/common/cori/software/qchem/5.2/config/preferences:
	 MEM_TOTAL  96000 
NAlpha2: 40
NElect   40
Mult     1
Symmetry turned off for PCM/SM12/SMD calculation

Checking the input file for inconsistencies... 	...done.

--------------------------------------------------------------
User input:
--------------------------------------------------------------
$molecule
1 1
 6	2.3313597755	-1.2043452748	-1.8395836908
 6	-0.1496402245	-1.1173452748	-1.6895836908
 7	-1.2126402245	-0.7113452748	-1.0265836908
 7	1.0563597755	-0.8323452748	-1.2155836908
 7	-0.2956402245	-1.8003452748	-2.8085836908
 1	-1.0586402245	-0.0513452748	-0.2625836908
 1	-2.1456402245	-0.8393452748	-1.4045836908
 1	1.0903597755	-0.2643452748	-0.3785836908
 1	0.5193597755	-2.1373452748	-3.2915836908
 1	-1.2126402245	-2.0783452748	-3.1255836908
 1	3.0793597755	-0.4713452748	-1.5285836908
 1	2.2663597755	-1.1533452748	-2.9275836908
 1	2.6745797755	-2.2023552748	-1.5294636908
$end
$rem
EDA2		1
METHOD		WB97X-V
BASIS		DEF2-TZVPD
XC_GRID		000099000590
NL_GRID		1
UNRESTRICTED		FALSE
MAX_SCF_CYCLES		200
SYMMETRY		FALSE
SYM_IGNORE		TRUE
BASIS_LIN_DEP_THRESH		6
THRESH		14
SCF_CONVERGENCE		8
SCF_PRINT_FRGM		TRUE
SOLVENT_METHOD		PCM
!required keywords
JOBTYPE		SP
SYM_IGNORE		TRUE
SUBSYSTEM		TRUE
GEN_SCFMAN		TRUE
CHILD_INSTRUCTION		2
SYM_IGNORE		TRUE
SCFMI		0
RI_K 0		
PARI_K 0		
MIN_PARI_K 0		
IARI_K 0		
OCC_RI_K 0		
PURECART		1111
MEM_STATIC		2000
MEM_TOTAL		96000
GUI		0
CHILD_MP		1
CHILD_MP_ORDERS		232
FRZ_RELAX		0
FRZ_RELAX_METHOD		0
EDA_CLS_ELEC		1
EDA_CLS_DISP		0
FRZ_ORTHO_DECOMP		1
EDA2		FALSE
FRGM_METHOD		FALSE
CIS_N_ROOTS  0
LOCAL_CIS    0
CIS_RLX_DNS  1
$end
$pcm
THEORY                  CPCM
METHOD                  SWIG
SOLVER                  INVERSION
RADII                   UFF
HPOINTS                 302
HEAVYPOINTS             302
PRINTLEVEL              0
$end
$solvent
DIELECTRIC              78.390000 ! water
$end
--------------------------------------------------------------
 ----------------------------------------------------------------
             Standard Nuclear Orientation (Angstroms)
    I     Atom           X                Y                Z
 ----------------------------------------------------------------
    1      C       2.3313597755    -1.2043452748    -1.8395836908
    2      C      -0.1496402245    -1.1173452748    -1.6895836908
    3      N      -1.2126402245    -0.7113452748    -1.0265836908
    4      N       1.0563597755    -0.8323452748    -1.2155836908
    5      N      -0.2956402245    -1.8003452748    -2.8085836908
    6      H      -1.0586402245    -0.0513452748    -0.2625836908
    7      H      -2.1456402245    -0.8393452748    -1.4045836908
    8      H       1.0903597755    -0.2643452748    -0.3785836908
    9      H       0.5193597755    -2.1373452748    -3.2915836908
   10      H      -1.2126402245    -2.0783452748    -3.1255836908
   11      H       3.0793597755    -0.4713452748    -1.5285836908
   12      H       2.2663597755    -1.1533452748    -2.9275836908
   13      H       2.6745797755    -2.2023552748    -1.5294636908
 ----------------------------------------------------------------
 Nuclear Repulsion Energy =         194.03511775 hartrees
 There are       20 alpha and       20 beta electrons
 Requested basis set is def2-TZVPD
 There are 105 shells and 257 basis functions

 Total QAlloc Memory Limit  96000 MB
 Mega-Array Size      1956 MB
 MEM_STATIC part      2000 MB
 Discretize the solute cavity surface with Lebedev spheres
	Using 302 Lebedev grid points for each H atom
	Using 302 Lebedev grid points for other atoms
	Atomic van der Waals radii will be scaled by 1.20
 Remove points where switching function is < 1.0e-08
 Keep 1575 surface tesserae and discard 2351 interior tesserae
 Molecular Surface Area = 152.424 Angst**2

                       Distance Matrix (Angstroms)
             C (  1)   C (  2)   N (  3)   N (  4)   N (  5)   H (  6)
   C (  2)  2.487052
   N (  3)  3.669326  1.316956
   N (  4)  1.467442  1.326777  2.280071
   N (  5)  2.862744  1.319078  2.280863  2.302733
   H (  6)  3.912600  1.999741  1.021280  2.447733  3.181711
   H (  7)  4.512868  2.035319  1.014769  3.207581  2.513411  1.762577
   H (  8)  2.134995  1.995978  2.433829  1.012101  3.191425  2.162643
   H (  9)  2.502426  2.013545  3.188028  2.510213  1.005526  4.002040
   H ( 10)  3.870091  2.028691  2.504893  3.216983  1.009288  3.511298
   H ( 11)  1.092481  3.296919  4.327917  2.078658  3.846461  4.347666
   H ( 12)  1.091132  2.714958  3.989061  2.120869  2.645111  4.401392
   H ( 13)  1.099999  3.029704  4.193624  2.143381  3.258829  4.490964
             H (  7)   H (  8)   H (  9)   H ( 10)   H ( 11)   H ( 12)
   H (  8)  3.443109
   H (  9)  3.513943  3.509949
   H ( 10)  2.316776  4.017513  1.740937
   H ( 11)  5.239411  2.306831  3.526659  4.853259
   H ( 12)  4.678020  2.944605  2.037832  3.605311  1.755931
   H ( 13)  5.010780  2.755025  2.784648  4.203981  1.777707  1.794939

 
 A cutoff of  1.0D-14 yielded   5440 shell pairs
 There are     33162 function pairs (     41495 Cartesian)
 Smallest overlap matrix eigenvalue = 1.69E-05

 Scale SEOQF with 1.000000e-01/1.000000e-01/1.000000e-01

 Standard Electronic Orientation quadrupole field applied
 Nucleus-field energy     =    -0.0000000082 hartrees
 Guess from superposition of atomic densities
 Warning:  Energy on first SCF cycle will be non-variational
 SAD guess density has 40.388232 electrons

 -----------------------------------------------------------------------
  General SCF calculation program by
  Eric Jon Sundstrom, Paul Horn, Yuezhi Mao, Dmitri Zuev, Alec White,
  David Stuck, Shaama M.S., Shane Yost, Joonho Lee, David Small,
  Daniel Levine, Susi Lehtola, Hugh Burton, Evgeny Epifanovsky
 -----------------------------------------------------------------------
 Exchange:     0.1670 Hartree-Fock + 1.0000 wB97X-V + LR-HF
 Correlation:  1.0000 wB97X-V
 Using Euler-Maclaurin-Lebedev (99,590) quadrature formula
 Nonlocal Correlation:  VV10 with C = 0.0100 and b = 6.00 and scale = 1.00000
 Grid used for NLC:  SG-1 standard quadrature
Energy prior to optimization (guess energy) = -244.726093514659
Begin Timing: Total SCF Calculation
begin iterations for algorithm: DIIS         
the SCF tolerance is set to 1.00e-08
    1    -244.7260935147      7.92e-03     00000 
    2    -244.9409880302      6.22e-03     00000 
    3    -245.1797727433      3.01e-04     00000 
    4    -245.1803705385      1.71e-04     00000 
    5    -245.1805695082      3.51e-05     00000 
    6    -245.1805785896      1.38e-05     00000 
    7    -245.1805801801      2.27e-06     00000 
    8    -245.1805802586      7.56e-07     00000 
    9    -245.1805802687      3.08e-07     00000 
   10    -245.1805802703      8.11e-08     00000 
   11    -245.1805802705      2.91e-08     00000 
   12    -245.1805802705      1.20e-08     00000 
   13    -245.1805802705      1.72e-09     00000 Convergence criterion met
Timing for Total SCF: 836.00s (wall), 1616.07s (cpu)

************** Final PCM Free Energy Summary **************
 G_electrostatic  =      -0.08155882 hartree =     -51.17893138 kcal/mol
 G_cavitation     =       0.00000000 hartree =       0.00000000 kcal/mol
 G_dispersion     =       0.00000000 hartree =       0.00000000 kcal/mol
 G_repulsion      =       0.00000000 hartree =       0.00000000 kcal/mol
 --------------------------------------------------
 Non-electrostatic Free Energy =       0.00000000 hartree =       0.00000000 kcal/mol
 Total                         =      -0.08155882 hartree =     -51.17893138 kcal/mol
 --------------------------------------------------
 SCF Energy (H0 + V/2)                       =    -245.18058027 
 Solute Internal Energy (H0)                 =    -245.09902145 
 Total Free Energy (H0 + V/2 + non-elec)     =    -245.18058027 hartree
                                             = -153853.13622500 kcal/mol
***********************************************************

E_pcm = -0.0815588190
Multipole orders to be included
        2
        3
computing dipole RHS
computing quadrupole RHS
total number of RHS in solve_reponses: 8
RHS batch sizes
        8
Beginning Block Conjugate Gradient Iterations. Batch Number: 0
computing hessian-vector products by finite difference
              1      4.52e-01     00000 Conjugate Gradient Iteration
computing hessian-vector products by finite difference
              2      1.73e-01     00000 Conjugate Gradient Iteration
computing hessian-vector products by finite difference
              3      4.91e-02     00000 Conjugate Gradient Iteration
computing hessian-vector products by finite difference
              4      1.31e-02     00000 Conjugate Gradient Iteration
computing hessian-vector products by finite difference
              5      1.87e-03     00000 Conjugate Gradient Iteration
computing hessian-vector products by finite difference
              6      2.85e-04     00000 Conjugate Gradient Iteration
computing hessian-vector products by finite difference
              7      3.78e-05     00000 Conjugate Gradient Iteration
computing hessian-vector products by finite difference
              8      4.84e-06     00000 Conjugate Gradient Iteration
computing hessian-vector products by finite difference
              9      8.08e-07     00000 Conjugate Gradient Iteration
computing hessian-vector products by finite difference
             10      1.20e-07     00000 Conjugate Gradient Iteration
computing hessian-vector products by finite difference
             11      2.84e-08     00000 Conjugate Gradient Iteration
computing hessian-vector products by finite difference
             12      3.69e-09     00000 CG Converged
batch 0 complete
Done Calculating Responses
TESTING ORTHOGONALIZATION OF MULTIPOLE BASIS
Multipole virts passed orthogonality test
Virts Per Order
           60
          100
 
 --------------------------------------------------------------
 
                    Orbital Energies (a.u.)
 --------------------------------------------------------------
 
 Alpha MOs
 -- Occupied --
-14.4828 -14.4770 -14.4758 -10.4491 -10.3316  -1.2015  -1.0821  -1.0719
 -0.8792  -0.7938  -0.7505  -0.7171  -0.6473  -0.6393  -0.6204  -0.5974
 -0.5520  -0.5329  -0.4269  -0.4028
 -- Virtual --
  0.0480   0.0747   0.0797   0.0866   0.1132   0.1155   0.1241   0.1420
  0.1568   0.1632   0.1790   0.1861   0.1917   0.1993   0.2075   0.2217
  0.2319   0.2345   0.2360   0.2543   0.2670   0.2708   0.2852   0.2895
  0.2977   0.3040   0.3105   0.3120   0.3211   0.3286   0.3371   0.3514
  0.3549   0.3626   0.3653   0.3832   0.3952   0.3980   0.4041   0.4184
  0.4269   0.4410   0.4457   0.4504   0.4585   0.4659   0.4736   0.4858
  0.4898   0.4981   0.5018   0.5052   0.5182   0.5188   0.5291   0.5419
  0.5485   0.5574   0.5665   0.5720   0.5918   0.6021   0.6274   0.6357
  0.6506   0.6623   0.6661   0.6913   0.6995   0.7164   0.7319   0.7491
  0.7800   0.7828   0.7986   0.8084   0.8165   0.8225   0.8412   0.8480
  0.8642   0.8696   0.8806   0.8991   0.9145   0.9531   0.9635   0.9726
  1.0112   1.0434   1.0461   1.0631   1.0803   1.0971   1.1063   1.1106
  1.1241   1.1745   1.2000   1.2368   1.2517   1.3254   1.3351   1.3909
  1.4081   1.4209   1.4459   1.4752   1.5253   1.5677   1.6185   1.6409
  1.6647   1.6822   1.7324   1.7520   1.8017   1.8418   1.8549   1.8601
  1.8860   1.8950   1.9076   1.9271   1.9713   1.9895   2.0019   2.0527
  2.0823   2.0997   2.1149   2.1838   2.1921   2.2130   2.2319   2.2575
  2.2962   2.3367   2.3481   2.3943   2.4068   2.4596   2.4667   2.4938
  2.5327   2.5597   2.5862   2.6074   2.6278   2.6442   2.6751   2.6957
  2.7598   2.7829   2.8319   2.8421   2.8684   2.8792   2.9204   2.9375
  3.0212   3.0799   3.1139   3.1311   3.1560   3.1801   3.2062   3.2160
  3.2518   3.2711   3.2776   3.2978   3.3466   3.3501   3.3808   3.4055
  3.4147   3.4648   3.4867   3.5836   3.5925   3.6245   3.6593   3.7199
  3.7841   3.8402   3.9095   3.9479   3.9901   4.0819   4.0998   4.1788
  4.2570   4.3051   4.3373   4.3620   4.4245   4.4741   4.5484   4.5901
  4.6348   4.8145   4.8338   4.8483   4.9034   4.9678   4.9984   5.0254
  5.0857   5.0923   5.0969   5.1307   5.1609   5.1992   5.2646   5.2999
  5.3477   5.3693   5.4332   5.4477   5.4679   5.4927   5.5513   5.6375
  5.6702   5.7417   5.7817   5.8689   6.1054   6.1711   6.3357   6.4540
 22.6289  23.6321  32.3060  32.4270  32.7938
 --------------------------------------------------------------
 
          Ground-State Mulliken Net Atomic Charges

     Atom                 Charge (a.u.)
  ----------------------------------------
      1 C                    -0.812269
      2 C                     0.536049
      3 N                    -0.274590
      4 N                    -0.077328
      5 N                    -0.233435
      6 H                     0.216726
      7 H                     0.213088
      8 H                     0.231538
      9 H                     0.164051
     10 H                     0.204300
     11 H                     0.265569
     12 H                     0.298786
     13 H                     0.267515
  ----------------------------------------
  Sum of atomic charges =     1.000000

 -----------------------------------------------------------------
                    Cartesian Multipole Moments
 -----------------------------------------------------------------
    Charge (ESU x 10^10)
                 4.8032
    Dipole Moment (Debye)
         X       0.0625      Y      -5.0246      Z      -8.3153
       Tot       9.7157
    Quadrupole Moments (Debye-Ang)
        XX     -13.8321     XY      -0.1381     YY     -21.5943
        XZ       0.3607     YZ      16.0777     ZZ      -7.5727
    Octopole Moments (Debye-Ang^2)
       XXX     -33.7152    XXY      17.2980    XYY     -11.5117
       YYY      86.7833    XXZ      23.3918    XYZ      -1.9887
       YYZ      22.2330    XZZ     -13.4253    YZZ     -14.4100
       ZZZ      89.1553
    Hexadecapole Moments (Debye-Ang^3)
      XXXX    -298.1757   XXXY      45.8559   XXYY     -88.6467
      XYYY      43.1537   YYYY    -273.3399   XXXZ      69.0027
      XXYZ     -28.1345   XYYZ      28.1398   YYYZ    -146.7535
      XXZZ    -112.9002   XYZZ      22.7932   YYZZ     -62.5190
      XZZZ      72.5893   YZZZ     -50.0257   ZZZZ    -451.3454
 -----------------------------------------------------------------
Archival summary:
1\1\nid00535\SP\ProcedureUnspecified\BasisUnspecified\328(1+,1)\meili\SunSep2611:25:292021SunSep2611:25:292021\0\\#,ProcedureUnspecified,BasisUnspecified,\\1,1\C\N,1,1.31696\H,2,1.01477,1,121.045\H,2,1.02128,1,117.009,3,-163.799,0\N,1,1.31908,2,119.825,3,-5.72979,0\H,5,1.00553,1,119.427,2,-177.7,0\H,5,1.00929,1,120.639,2,-4.82193,0\N,1,1.32678,2,119.184,3,174.397,0\H,8,1.0121,1,116.522,2,-3.19822,0\C,8,1.46744,1,125.69,2,-179.554,0\H,10,1.09113,8,111.125,1,36.2975,0\H,10,1.09248,8,107.683,1,153.246,0\H,10,1.1,8,112.409,1,-87.4846,0\\\@

 Total job time:  15222.95s(wall), 29854.17s(cpu) 
 Sun Sep 26 11:25:33 2021

        *************************************************************
        *                                                           *
        *  Thank you very much for using Q-Chem.  Have a nice day.  *
        *                                                           *
        *************************************************************


Done Job For Fragment 1
calling putenv with: QCSCRATCH=/global/cscratch1/sd/meili 
calling putenv with: QCLOCALSCR=/tmp 
calling putenv with: QCTHREADS=32 
Doing General SCFMI
 Exchange:     0.1670 Hartree-Fock + 1.0000 wB97X-V + LR-HF
 Correlation:  1.0000 wB97X-V
 Using Euler-Maclaurin-Lebedev (99,590) quadrature formula
 Nonlocal Correlation:  VV10 with C = 0.0100 and b = 6.00 and scale = 1.00000
 Grid used for NLC:  SG-1 standard quadrature
performing fock build before subrot guess so that all methods have access
Printing subrot_rss_gen Method Specification:
Occupied Subspace Method is 0
Virtual Subspace Method is 0
Energy of the unrelaxed supersystem initial determinant -473.773477014135
performing fock build before subrot guess so that all methods have access
Printing subrot_rss_gen Method Specification:
Occupied Subspace Method is 0
Virtual Subspace Method is 0
Energy of the unrelaxed supersystem initial determinant w/ solvent -473.836999267796
write pseudocanon occs and virts to disk
write pseudocanon orbital energies to disk
Tolerance of ortho_decomp_scf: 1.00e-06
GDM subspace size: 20
Beginning the Orthogonal Decomposition of the Initial Supersystem Wavefunction
    1    -473.5754865525      9.17e-02     ortho_decomp Preconditoned Steepest Descent
    2    -473.5880309178      2.38e-03     ortho_decomp BFGS Step
    3    -473.5880787503      2.15e-04     ortho_decomp BFGS Step
    4    -473.5880788670      9.62e-06     ortho_decomp BFGS Step
    5    -473.5880788675      3.22e-07     ortho_decomp 00000 Convergence criterion met
 Hartree-Fock
 Hartree-Fock
 Hartree-Fock
Doing General SCFMI
 Exchange:     0.1670 Hartree-Fock + 1.0000 wB97X-V + LR-HF
 Correlation:  1.0000 wB97X-V
 Using Euler-Maclaurin-Lebedev (99,590) quadrature formula
 Nonlocal Correlation:  VV10 with C = 0.0100 and b = 6.00 and scale = 1.00000
 Grid used for NLC:  SG-1 standard quadrature
performing fock build at end of subrot_r(subrot) constructor so that all methods have access
<S^2> of initial wavefunction before polarization iterations 0.0000000000
Beginning iterations for the determination of the polarized wavefunction
Energy prior to optimization (guess energy) = -473.836999267796
Begin Timing: Total SCF Calculation
begin iterations for algorithm: DIIS         
the SCF tolerance is set to 1.00e-08
    1    -473.8369992678      2.81e-04     00000 
    2    -473.8414807237      9.82e-05     00000 
    3    -473.8419283470      5.99e-05     00000 
    4    -473.8420468526      2.20e-05     00000 
    5    -473.8420662292      1.06e-05     00000 
    6    -473.8420708099      5.02e-06     00000 
    7    -473.8420718550      1.78e-06     00000 
    8    -473.8420720147      6.37e-07     00000 
    9    -473.8420720378      2.45e-07     00000 
   10    -473.8420720396      1.00e-07     00000 
   11    -473.8420720400      2.73e-08     00000 
   12    -473.8420720401      1.18e-08     00000 
   13    -473.8420720401      4.86e-09     00000 Convergence criterion met
write pseudocanon occs and virts to disk
write pseudocanon orbital energies to disk
Timing for Total SCF: 2900.00s (wall), 5730.37s (cpu)
<S^2> of polarized wavefunction after polarization iterations 0.0000000000
relaxing scfmi constraint to allow all rotations in the entire AO span
Doing General SCFMI
 Exchange:     0.1670 Hartree-Fock + 1.0000 wB97X-V + LR-HF
 Correlation:  1.0000 wB97X-V
 Using Euler-Maclaurin-Lebedev (99,590) quadrature formula
 Nonlocal Correlation:  VV10 with C = 0.0100 and b = 6.00 and scale = 1.00000
 Grid used for NLC:  SG-1 standard quadrature
performing fock build at end of subrot_r(subrot) constructor so that all methods have access
<S^2> of polarized wavefunction before ct-allowed iterations 0.0000000000
Beginning iterations for the determination of the CT-Allowed wavefunction
Energy prior to optimization (guess energy) = -473.842072040106
Begin Timing: Total SCF Calculation
begin iterations for algorithm: DIIS         
the SCF tolerance is set to 1.00e-08
    1    -473.8420720401      2.24e-04     00000 
    2    -473.8478254705      3.80e-05     00000 
    3    -473.8480705179      2.28e-05     00000 
    4    -473.8481045260      8.76e-06     00000 
    5    -473.8481117462      2.72e-06     00000 
    6    -473.8481123872      8.16e-07     00000 
    7    -473.8481124886      3.58e-07     00000 
    8    -473.8481125053      7.76e-08     00000 
    9    -473.8481125079      3.40e-08     00000 
   10    -473.8481125081      1.24e-08     00000 
   11    -473.8481125081      2.98e-09     00000 Convergence criterion met
write pseudocanon occs and virts to disk
write pseudocanon orbital energies to disk
Timing for Total SCF: 2425.00s (wall), 4811.13s (cpu)
<S^2> of ct_allowed wavefunction after ct-allowed iterations 0.0000000000

================================
        Results of EDA2         
================================
Basic EDA Quantities
--------------------
Fragment Energies (Ha):
1 -228.6428595491
2 -245.1805802705
--------------------
  E_prp (kJ/mol) = 0.0000
  E_sol (kJ/mol) = 314.8606
  E_frz (kJ/mol) = -350.4613
  E_pol (kJ/mol) = -13.3187
  E_vct (kJ/mol) = -15.8594
  E_int (kJ/mol) = -64.7789
--------------------


Initial Wavefunction Decomposition
--------------------
  --------------------
  Orthogonal Fragment Subspace Decomposition:
  --------------------
     E_elec   (ELEC)   (kJ/mol) = -445.5110
     E_pauli  (PAULI)  (kJ/mol) = 112.0516
     E_disp   (DISP)   (kJ/mol) = -17.0020
     --------------------
     Terms summing to E_pauli:
     --------------------
        E_kep_pauli       (kJ/mol) = 136.3073
        E_disp_free_pauli (kJ/mol) = -24.2557
  --------------------
  Classical Frozen Decomposition:
  --------------------
     E_cls_elec  (CLS ELEC)  (kJ/mol) = -402.1322
     E_cls_pauli (CLS PAULI) (kJ/mol) = 51.6708
    [E_mod_pauli (MOD PAULI) (kJ/mol) = 68.6728 (CLS PAULI - DISP from orthogonal decomposition) ]
  --------------------
--------------------

Simplified EDA Summary (kJ/mol)
--------------------
 PREPARATION     0.0000
 SOLVATION       314.8606
 FROZEN          -333.4594      (does not include dispersion)
[PAULI           112.0516]     (if this is negligible, then frozen describes electrostatics)
 DISPERSION      -17.0020
 POLARIZATION    -13.3187
 CHARGE TRANSFER -15.8594
 TOTAL           -64.7789     (PRP + SOL + FRZ + DISP + POL + CT)
--------------------
 
 --------------------------------------------------------------
 
                    Orbital Energies (a.u.)
 --------------------------------------------------------------
 
 Alpha MOs
 -- Occupied --
-19.1453 -19.1330 -14.4666 -14.4658 -14.4464 -10.4329 -10.3412 -10.3245
-10.2471  -1.1853  -1.1489  -1.0681  -1.0546  -1.0472  -0.8682  -0.8386
 -0.7796  -0.7344  -0.7003  -0.6372  -0.6285  -0.6079  -0.5992  -0.5843
 -0.5423  -0.5401  -0.5350  -0.5277  -0.5224  -0.4744  -0.4545  -0.4120
 -0.3876  -0.3468  -0.3440  -0.3254
 -- Virtual --
  0.0505   0.0687   0.0761   0.0845   0.0965   0.0978   0.1026   0.1157
  0.1197   0.1258   0.1309   0.1363   0.1488   0.1550   0.1587   0.1642
  0.1732   0.1799   0.1872   0.1897   0.1968   0.2018   0.2084   0.2131
  0.2223   0.2256   0.2369   0.2476   0.2492   0.2503   0.2599   0.2696
  0.2708   0.2725   0.2858   0.2861   0.2937   0.3000   0.3062   0.3099
  0.3146   0.3243   0.3260   0.3304   0.3340   0.3364   0.3435   0.3486
  0.3540   0.3590   0.3632   0.3634   0.3686   0.3749   0.3844   0.3859
  0.3914   0.4006   0.4067   0.4132   0.4156   0.4258   0.4296   0.4357
  0.4382   0.4473   0.4538   0.4556   0.4561   0.4623   0.4666   0.4743
  0.4792   0.4812   0.4871   0.4981   0.5004   0.5065   0.5132   0.5200
  0.5243   0.5283   0.5355   0.5373   0.5422   0.5495   0.5594   0.5689
  0.5715   0.5800   0.5835   0.5882   0.5923   0.6017   0.6052   0.6160
  0.6228   0.6357   0.6426   0.6528   0.6619   0.6652   0.6693   0.6729
  0.6804   0.6841   0.6917   0.7014   0.7103   0.7134   0.7240   0.7285
  0.7321   0.7480   0.7506   0.7648   0.7707   0.7777   0.7849   0.7956
  0.7979   0.8092   0.8131   0.8191   0.8237   0.8409   0.8454   0.8515
  0.8543   0.8573   0.8779   0.8801   0.8879   0.8941   0.9012   0.9174
  0.9257   0.9327   0.9456   0.9628   0.9906   0.9999   1.0136   1.0221
  1.0313   1.0412   1.0553   1.0744   1.0758   1.0853   1.0961   1.1056
  1.1105   1.1216   1.1315   1.1369   1.1483   1.1688   1.1961   1.2073
  1.2112   1.2329   1.2370   1.2399   1.2798   1.2878   1.3082   1.3127
  1.3314   1.3567   1.3630   1.3767   1.3832   1.4186   1.4278   1.4338
  1.4565   1.4891   1.4941   1.5033   1.5246   1.6012   1.6157   1.6250
  1.6509   1.6662   1.6809   1.7147   1.7302   1.7508   1.7537   1.8277
  1.8545   1.8693   1.8762   1.8787   1.9018   1.9157   1.9212   1.9330
  1.9371   1.9458   1.9624   1.9687   1.9867   1.9940   1.9993   2.0110
  2.0175   2.0498   2.0642   2.0780   2.0973   2.1109   2.1327   2.1361
  2.1504   2.1861   2.1988   2.2127   2.2371   2.2406   2.2759   2.2780
  2.2873   2.3092   2.3241   2.3500   2.3710   2.3889   2.4217   2.4288
  2.4465   2.4761   2.4897   2.5092   2.5318   2.5429   2.5687   2.5774
  2.5909   2.5954   2.6027   2.6217   2.6290   2.6519   2.6593   2.6747
  2.6898   2.6958   2.7220   2.7388   2.7935   2.8204   2.8298   2.8444
  2.8574   2.8698   2.8932   2.9013   2.9283   2.9493   2.9636   2.9801
  2.9916   3.0524   3.0737   3.0993   3.1367   3.1609   3.1709   3.1838
  3.1938   3.2198   3.2287   3.2476   3.2574   3.2710   3.2814   3.2944
  3.3178   3.3231   3.3345   3.3365   3.3636   3.3729   3.3891   3.4051
  3.4162   3.4345   3.4421   3.4481   3.4621   3.4901   3.4996   3.5166
  3.5705   3.6052   3.6075   3.6182   3.6377   3.6548   3.6642   3.6984
  3.7161   3.7407   3.7513   3.7687   3.7777   3.8069   3.8640   3.8885
  3.9423   3.9700   3.9895   4.0211   4.0770   4.0957   4.1214   4.1360
  4.2077   4.2338   4.3041   4.3290   4.3561   4.3766   4.3851   4.4795
  4.4970   4.5745   4.5838   4.6169   4.6329   4.6537   4.6854   4.8250
  4.8398   4.8531   4.9023   4.9124   4.9477   5.0001   5.0099   5.0288
  5.0632   5.1119   5.1255   5.1481   5.1670   5.1918   5.2348   5.2917
  5.3200   5.3437   5.3509   5.3578   5.3697   5.3822   5.4109   5.4578
  5.4753   5.4919   5.5113   5.5377   5.5810   5.6990   5.7091   5.7139
  5.7579   5.7728   5.8128   5.8229   5.9064   6.0331   6.1434   6.2104
  6.2555   6.3484   6.3693   6.3864   6.4829   6.6412   6.6554   6.7473
  6.7547   6.7809   6.9696   7.0067   7.0518   7.2669   7.3655   7.4050
  7.4746  22.6160  22.6578  23.6880  23.7620  32.3694  32.5175  32.9167
 44.3773  44.3989
 --------------------------------------------------------------
 
          Ground-State Mulliken Net Atomic Charges

     Atom                 Charge (a.u.)
  ----------------------------------------
      1 C                    -0.488669
      2 C                     0.313681
      3 O                    -0.756381
      4 O                    -0.664275
      5 H                     0.197675
      6 H                     0.154386
      7 H                     0.164588
      8 C                    -0.868461
      9 C                     0.476386
     10 N                    -0.148724
     11 N                     0.042233
     12 N                    -0.223407
     13 H                     0.172146
     14 H                     0.223512
     15 H                     0.191443
     16 H                     0.156844
     17 H                     0.205449
     18 H                     0.272011
     19 H                     0.312299
     20 H                     0.267263
  ----------------------------------------
  Sum of atomic charges =     0.000000

 -----------------------------------------------------------------
                    Cartesian Multipole Moments
 -----------------------------------------------------------------
    Charge (ESU x 10^10)
                -0.0000
    Dipole Moment (Debye)
         X      -0.2471      Y     -13.9497      Z     -14.2054
       Tot      19.9110
    Quadrupole Moments (Debye-Ang)
        XX     -40.6670     XY      -1.9822     YY     -70.9146
        XZ      -2.0139     YZ      -4.0003     ZZ     -50.1673
    Octopole Moments (Debye-Ang^2)
       XXX       0.6013    XXY     -15.4398    XYY      -4.6405
       YYY     -72.8682    XXZ     -29.5967    XYZ      -8.5692
       YYZ     -84.6722    XZZ      -8.3901    YZZ     -94.3989
       ZZZ    -117.4021
    Hexadecapole Moments (Debye-Ang^3)
      XXXX    -411.7931   XXXY      67.4957   XXYY    -176.7337
      XYYY      54.1232   YYYY    -841.5619   XXXZ     161.0817
      XXYZ    -103.7138   XYYZ      45.8401   YYYZ    -520.5487
      XXZZ    -282.6426   XYZZ      10.8518   YYZZ    -428.1159
      XZZZ     148.3429   YZZZ    -421.1757   ZZZZ   -1505.0998
 -----------------------------------------------------------------
Archival summary:
1\1\nid00535\SP\ProcedureUnspecified\BasisUnspecified\23411\meili\SunSep2613:55:532021SunSep2613:55:532021\0\\#,ProcedureUnspecified,BasisUnspecified,\\0,1\O\C,1,1.25378\O,2,1.25256,1,122.925\C,2,1.51521,1,120.053,3,-178.742,0\H,4,1.09006,2,109.831,1,-135.591,0\H,4,1.09222,2,108.055,1,106.875,0\H,4,1.1,2,112.636,1,-12.8509,0\H,1,1.84895,2,136.622,3,-172.329,0\N,8,1.02128,1,164.094,2,-148.032,0\H,9,1.01477,8,119.922,1,-146.235,0\C,9,1.31696,8,117.009,1,17.7548,0\N,11,1.31908,9,119.825,8,-169.529,0\H,12,1.00553,11,119.427,9,-177.7,0\H,12,1.00929,11,120.639,9,-4.82193,0\N,11,1.32678,9,119.184,8,10.5972,0\H,15,1.0121,11,116.522,9,-3.19822,0\C,15,1.46744,11,125.69,9,-179.554,0\H,17,1.09113,15,111.125,11,36.2975,0\H,17,1.09248,15,107.683,11,153.246,0\H,17,1.1,15,112.409,11,-87.4846,0\\\@

 Total job time:  29700.19s(wall), 17906.04s(cpu) 
 Sun Sep 26 13:55:56 2021

        *************************************************************
        *                                                           *
        *  Thank you very much for using Q-Chem.  Have a nice day.  *
        *                                                           *
        *************************************************************


