
Running Job 1 of 1 SSI-103ASP-149TYR-1_PCM_TZVPD.in
qchem SSI-103ASP-149TYR-1_PCM_TZVPD.in_57829.0 /tmp/qchem57829/ 0
/global/common/cori/software/qchem/5.2/exe/qcprog.exe_s SSI-103ASP-149TYR-1_PCM_TZVPD.in_57829.0 /tmp/qchem57829/
                  Welcome to Q-Chem
     A Quantum Leap Into The Future Of Chemistry


 Q-Chem 5.2, Q-Chem, Inc., Pleasanton, CA (2019)

 License issued to: National Energy Research Scientific Computing Center

 Yihan Shao,  Zhengting Gan,  E. Epifanovsky,  A. T. B. Gilbert,  M. Wormit,  
 J. Kussmann,  A. W. Lange,  A. Behn,  Jia Deng,  Xintian Feng,  D. Ghosh,  
 M. Goldey,  P. R. Horn,  L. D. Jacobson,  I. Kaliman,  T. Kus,  A. Landau,  
 Jie Liu,  E. I. Proynov,  R. M. Richard,  R. P. Steele,  E. J. Sundstrom,  
 H. L. Woodcock III,  P. M. Zimmerman,  D. Zuev,  B. Albrecht,  E. Alguire,  
 S. A. Baeppler,  D. Barton,  Z. Benda,  Y. A. Bernard,  E. J. Berquist,  
 K. B. Bravaya,  H. Burton,  D. Casanova,  Chun-Min Chang,  Yunqing Chen,  
 A. Chien,  K. D. Closser,  M. P. Coons,  S. Coriani,  S. Dasgupta,  
 A. L. Dempwolff,  M. Diedenhofen,  Hainam Do,  R. G. Edgar,  Po-Tung Fang,  
 S. Faraji,  S. Fatehi,  Qingguo Feng,  K. D. Fenk,  J. Fosso-Tande,  
 J. Gayvert,  Qinghui Ge,  A. Ghysels,  G. Gidofalvi,  J. Gomes,  
 J. Gonthier,  A. Gunina,  D. Hait,  M. W. D. Hanson-Heine,  
 P. H. P. Harbach,  A. W. Hauser,  M. F. Herbst,  J. E. Herr,  
 E. G. Hohenstein,  Z. C. Holden,  Kerwin Hui,  B. C. Huynh,  T.-C. Jagau,  
 Hyunjun Ji,  B. Kaduk,  K. Khistyaev,  Jaehoon Kim,  P. Klunzinger,  K. Koh,  
 D. Kosenkov,  L. Koulias,  T. Kowalczyk,  C. M. Krauter,  A. Kunitsa,  
 Ka Un Lao,  A. Laurent,  K. V. Lawler,  Joonho Lee,  D. Lefrancois,  
 S. Lehtola,  D. S. Levine,  Yi-Pei Li,  You-Sheng Lin,  Fenglai Liu,  
 E. Livshits,  A. Luenser,  P. Manohar,  E. Mansoor,  S. F. Manzer,  
 Shan-Ping Mao,  Yuezhi Mao,  N. Mardirossian,  A. V. Marenich,  
 T. Markovich,  L. A. Martinez-Martinez,  S. A. Maurer,  N. J. Mayhall,  
 S. C. McKenzie,  J.-M. Mewes,  P. Morgante,  A. F. Morrison,  
 J. W. Mullinax,  K. Nanda,  T. S. Nguyen-Beck,  R. Olivares-Amaya,  
 J. A. Parkhill,  Zheng Pei,  T. M. Perrine,  F. Plasser,  P. Pokhilko,  
 S. Prager,  A. Prociuk,  E. Ramos,  D. R. Rehn,  F. Rob,  M. Scheurer,  
 M. Schneider,  N. Sergueev,  S. M. Sharada,  S. Sharma,  D. W. Small,  
 T. Stauch,  T. Stein,  Yu-Chuan Su,  A. J. W. Thom,  A. Tkatchenko,  
 T. Tsuchimochi,  N. M. Tubman,  L. Vogt,  M. L. Vidal,  O. Vydrov,  
 M. A. Watson,  J. Wenzel,  M. de Wergifosse,  T. A. Wesolowski,  A. White,  
 J. Witte,  A. Yamada,  Jun Yang,  K. Yao,  S. Yeganeh,  S. R. Yost,  
 Zhi-Qiang You,  A. Zech,  Igor Ying Zhang,  Xing Zhang,  Yan Zhao,  
 Ying Zhu,  B. R. Brooks,  G. K. L. Chan,  C. J. Cramer,  M. S. Gordon,  
 W. J. Hehre,  A. Klamt,  M. W. Schmidt,  C. D. Sherrill,  D. G. Truhlar,  
 A. Aspuru-Guzik,  R. Baer,  A. T. Bell,  N. A. Besley,  Jeng-Da Chai,  
 A. E. DePrince, III,  R. A. DiStasio Jr.,  A. Dreuw,  B. D. Dunietz,  
 T. R. Furlani,  Chao-Ping Hsu,  Yousung Jung,  Jing Kong,  D. S. Lambrecht,  
 WanZhen Liang,  C. Ochsenfeld,  V. A. Rassolov,  L. V. Slipchenko,  
 J. E. Subotnik,  T. Van Voorhis,  J. M. Herbert,  A. I. Krylov,  
 P. M. W. Gill,  M. Head-Gordon

 Contributors to earlier versions of Q-Chem not listed above: 
 R. D. Adamson,  B. Austin,  J. Baker,  G. J. O. Beran,  K. Brandhorst,  
 S. T. Brown,  E. F. C. Byrd,  A. K. Chakraborty,  C.-L. Cheng,  
 Siu Hung Chien,  D. M. Chipman,  D. L. Crittenden,  H. Dachsel,  
 R. J. Doerksen,  A. D. Dutoi,  L. Fusti-Molnar,  W. A. Goddard III,  
 A. Golubeva-Zadorozhnaya,  S. R. Gwaltney,  G. Hawkins,  A. Heyden,  
 S. Hirata,  G. Kedziora,  F. J. Keil,  C. Kelley,  Jihan Kim,  R. A. King,  
 R. Z. Khaliullin,  P. P. Korambath,  W. Kurlancheek,  A. M. Lee,  M. S. Lee,  
 S. V. Levchenko,  Ching Yeh Lin,  D. Liotard,  R. C. Lochan,  I. Lotan,  
 P. E. Maslen,  N. Nair,  D. P. O'Neill,  D. Neuhauser,  E. Neuscamman,  
 C. M. Oana,  R. Olson,  B. Peters,  R. Peverati,  P. A. Pieniazek,  
 Y. M. Rhee,  J. Ritchie,  M. A. Rohrdanz,  E. Rosta,  N. J. Russ,  
 H. F. Schaefer III,  N. E. Schultz,  N. Shenvi,  A. C. Simmonett,  A. Sodt,  
 D. Stuck,  K. S. Thanthiriwatte,  V. Vanovschi,  Tao Wang,  A. Warshel,  
 C. F. Williams,  Q. Wu,  X. Xu,  W. Zhang

 Please cite Q-Chem as follows:
 Y. Shao et al., Mol. Phys. 113, 184-215 (2015)
 DOI: 10.1080/00268976.2014.952696

 Q-Chem 5.2.0 for Intel X86 EM64T Linux

 Parts of Q-Chem use Armadillo 8.300.2 (Tropical Shenanigans).
 http://arma.sourceforge.net/

 Q-Chem begins on Sun Sep 26 13:02:18 2021  

Host: cori01
0

     Scratch files written to /tmp/qchem57829//
 May1019 |scratch|qcdevops|jenkins|workspace|build_RNUM -1
Processing $rem in /global/common/cori/software/qchem/5.2/config/preferences:
	 MEM_TOTAL  96000 
NAlpha2: 90
NElect   90
Mult     1
Symmetry turned off for PCM/SM12/SMD calculation

 Q-Chem warning in module libgen/rem_setup.C, line 2803:

 Neither GIA nor STOLL is specified by user. Use STOLL as the default


Checking the input file for inconsistencies... 	...done.

--------------------------------------------------------------
User input:
--------------------------------------------------------------
$comment
SSI-103ASP-149TYR-1.pdb
$end

$molecule
-1 1
--
-1 1
C    0.791774864918    3.892236147308   -2.640926579542
C   -0.268225135082    2.820236147308   -2.392926579542
O    0.054774864918    1.745236147308   -1.837926579542
O   -1.437225135082    3.057236147308   -2.772926579542
H    0.413774864918    4.861236147308   -2.312926579542
H    0.972774864918    3.951236147308   -3.715926579542
H    1.746444864918    3.675856147308   -2.139146579542
--
0 1
C    1.025774864918   -4.295763852692    1.903073420458
C   -0.318225135082   -0.299763852692    1.052073420458
C    0.497774864918   -0.968763852692    0.146073420458
C   -0.698225135082   -0.921763852692    2.239073420458
C    0.930774864918   -2.258763852692    0.428073420458
C   -0.256225135082   -2.211763852692    2.514073420458
C    0.568774864918   -2.887763852692    1.616073420458
O   -0.741225135082    0.962236147308    0.772073420458
H   -0.434225135082    1.233236147308   -0.112926579542
H    0.786774864918   -0.487763852692   -0.774926579542
H   -1.329225135082   -0.401763852692    2.940073420458
H    1.557774864918   -2.778763852692   -0.284926579542
H   -0.529225135082   -2.688763852692    3.442073420458
H    0.968774864918   -4.479763852692    2.974073420458
H    2.065774864918   -4.405763852692    1.592073420458
H    0.409034864918   -5.051077852692    1.394023420458
$end

$rem
JOBTYPE			EDA
EDA2			1
method			wB97X-V
BASIS			def2-TZVPD
XC_GRID			000099000590
NL_GRID			1
UNRESTRICTED		FALSE
MAX_SCF_CYCLES		200
SYMMETRY		FALSE
SYM_IGNORE		TRUE
MEM_STATIC		2000
BASIS_LIN_DEP_THRESH 	6
THRESH 			14
SCF_CONVERGENCE 	8
SCF_PRINT_FRGM 		TRUE
SOLVENT_METHOD          PCM
$end

$PCM
THEORY                  CPCM
METHOD                  SWIG
SOLVER                  INVERSION
RADII                   UFF
HPOINTS                 302
HEAVYPOINTS             302
PRINTLEVEL              0
$END

$SOLVENT
DIELECTRIC              78.390000 ! water
$END
--------------------------------------------------------------
 ----------------------------------------------------------------
             Standard Nuclear Orientation (Angstroms)
    I     Atom           X                Y                Z
 ----------------------------------------------------------------
    1      C       0.7917748649     3.8922361473    -2.6409265795
    2      C      -0.2682251351     2.8202361473    -2.3929265795
    3      O       0.0547748649     1.7452361473    -1.8379265795
    4      O      -1.4372251351     3.0572361473    -2.7729265795
    5      H       0.4137748649     4.8612361473    -2.3129265795
    6      H       0.9727748649     3.9512361473    -3.7159265795
    7      H       1.7464448649     3.6758561473    -2.1391465795
    8      C       1.0257748649    -4.2957638527     1.9030734205
    9      C      -0.3182251351    -0.2997638527     1.0520734205
   10      C       0.4977748649    -0.9687638527     0.1460734205
   11      C      -0.6982251351    -0.9217638527     2.2390734205
   12      C       0.9307748649    -2.2587638527     0.4280734205
   13      C      -0.2562251351    -2.2117638527     2.5140734205
   14      C       0.5687748649    -2.8877638527     1.6160734205
   15      O      -0.7412251351     0.9622361473     0.7720734205
   16      H      -0.4342251351     1.2332361473    -0.1129265795
   17      H       0.7867748649    -0.4877638527    -0.7749265795
   18      H      -1.3292251351    -0.4017638527     2.9400734205
   19      H       1.5577748649    -2.7787638527    -0.2849265795
   20      H      -0.5292251351    -2.6887638527     3.4420734205
   21      H       0.9687748649    -4.4797638527     2.9740734205
   22      H       2.0657748649    -4.4057638527     1.5920734205
   23      H       0.4090348649    -5.0510778527     1.3940234205
 ----------------------------------------------------------------
 Nuclear Repulsion Energy =         628.31071424 hartrees
 There are       45 alpha and       45 beta electrons
 Requested basis set is def2-TZVPD
 There are 214 shells and 552 basis functions

 Total QAlloc Memory Limit  96000 MB
 Mega-Array Size      1956 MB
 MEM_STATIC part      2000 MB
 Discretize the solute cavity surface with Lebedev spheres
	Using 302 Lebedev grid points for each H atom
	Using 302 Lebedev grid points for other atoms
	Atomic van der Waals radii will be scaled by 1.20
 Remove points where switching function is < 1.0e-08
 Keep 2702 surface tesserae and discard 4244 interior tesserae
 Molecular Surface Area = 280.470 Angst**2
 A cutoff of  1.0D-14 yielded  19097 shell pairs
 There are    127897 function pairs (    162301 Cartesian)
 Smallest overlap matrix eigenvalue = 5.04E-07
 Linear dependence detected in AO basis
 Tighter screening thresholds may be required for diffuse basis sets
 Use S2THRESH > 14 and THRESH = 14 in case of SCF convergence issues
 Number of orthogonalized atomic orbitals = 551
 Maximum deviation from orthogonality = 3.008E-10

 Scale SEOQF with 1.000000e-01/1.000000e-01/1.000000e-01

 Standard Electronic Orientation quadrupole field applied
 Nucleus-field energy     =     0.0000000093 hartrees

 -----------------------------------------------------------------------
  General SCF calculation program by
  Eric Jon Sundstrom, Paul Horn, Yuezhi Mao, Dmitri Zuev, Alec White,
  David Stuck, Shaama M.S., Shane Yost, Joonho Lee, David Small,
  Daniel Levine, Susi Lehtola, Hugh Burton, Evgeny Epifanovsky
 -----------------------------------------------------------------------
================================================================
                 ALMO-EDA with the EDA2 driver                  
================================================================
 The second-generation ALMO-EDA (for DFT):                      
 P. R. Horn, Y. Mao and M. Head-Gordon, PCCP, 18, 23067 (2016)  
 Decomposition of the frozen energy:                            
 P. R. Horn, Y. Mao and M. Head-Gordon, JCP, 144, 114107 (2016) 
 FERF model for polarization:                                   
 P. R. Horn and M. Head-Gordon, JCP, 143, 114111 (2015)         
Using eda2 option set 1
Option set summary: Frozen orbital wavefunction, initial wavefunction decomposition, and nDQ polarization.
--------------------------------
Printing EDA Options
--------------------------------
eda_child_super_basis      0
fragmo_guess_mode          0
child_mp                   1
child_mp_orders            232
cls_elec                   1
cls_disp                   0
scfmi_mode                 1
scfmi_occs                 0
scfmi_virts                0
frz_relax                  0
frz_relax_method           0
dc_pen_start               0
dc_pen_conv                0
dc_pen_increment           0
dc_pen_steps               0
dc_pen_thresh_factor       0
dc_pen_pre_newton_thresh   0
frz_ortho_decomp           1
frz_ortho_decomp_conv      6
frgm_method                2
scfmi_freeze_ss            0
separate_rehyb             0
plot_diff_den              0
eda_nocv                   0
eda_vct_relax              1
disp_free_x                0
disp_free_c                0
eda_bsse                   0
eda_pct_a                  0
eda_covp                   0
--------------------------------
Attempting to make child job directory: /tmp/qchem57829//Frg1/
Attempting to make child job directory: /tmp/qchem57829//Frg2/
Creating input file /tmp/qchem57829/Frg1.input
using default PutDataFrgm: nothing
calling putenv with: QCSCRATCH=/tmp/qchem57829/ 
calling putenv with: QCLOCALSCR=/tmp/qchem57829/ 
Spawning Job For Fragment 0
                  Welcome to Q-Chem
     A Quantum Leap Into The Future Of Chemistry


 Q-Chem 5.2, Q-Chem, Inc., Pleasanton, CA (2019)

 License issued to: National Energy Research Scientific Computing Center

 Yihan Shao,  Zhengting Gan,  E. Epifanovsky,  A. T. B. Gilbert,  M. Wormit,  
 J. Kussmann,  A. W. Lange,  A. Behn,  Jia Deng,  Xintian Feng,  D. Ghosh,  
 M. Goldey,  P. R. Horn,  L. D. Jacobson,  I. Kaliman,  T. Kus,  A. Landau,  
 Jie Liu,  E. I. Proynov,  R. M. Richard,  R. P. Steele,  E. J. Sundstrom,  
 H. L. Woodcock III,  P. M. Zimmerman,  D. Zuev,  B. Albrecht,  E. Alguire,  
 S. A. Baeppler,  D. Barton,  Z. Benda,  Y. A. Bernard,  E. J. Berquist,  
 K. B. Bravaya,  H. Burton,  D. Casanova,  Chun-Min Chang,  Yunqing Chen,  
 A. Chien,  K. D. Closser,  M. P. Coons,  S. Coriani,  S. Dasgupta,  
 A. L. Dempwolff,  M. Diedenhofen,  Hainam Do,  R. G. Edgar,  Po-Tung Fang,  
 S. Faraji,  S. Fatehi,  Qingguo Feng,  K. D. Fenk,  J. Fosso-Tande,  
 J. Gayvert,  Qinghui Ge,  A. Ghysels,  G. Gidofalvi,  J. Gomes,  
 J. Gonthier,  A. Gunina,  D. Hait,  M. W. D. Hanson-Heine,  
 P. H. P. Harbach,  A. W. Hauser,  M. F. Herbst,  J. E. Herr,  
 E. G. Hohenstein,  Z. C. Holden,  Kerwin Hui,  B. C. Huynh,  T.-C. Jagau,  
 Hyunjun Ji,  B. Kaduk,  K. Khistyaev,  Jaehoon Kim,  P. Klunzinger,  K. Koh,  
 D. Kosenkov,  L. Koulias,  T. Kowalczyk,  C. M. Krauter,  A. Kunitsa,  
 Ka Un Lao,  A. Laurent,  K. V. Lawler,  Joonho Lee,  D. Lefrancois,  
 S. Lehtola,  D. S. Levine,  Yi-Pei Li,  You-Sheng Lin,  Fenglai Liu,  
 E. Livshits,  A. Luenser,  P. Manohar,  E. Mansoor,  S. F. Manzer,  
 Shan-Ping Mao,  Yuezhi Mao,  N. Mardirossian,  A. V. Marenich,  
 T. Markovich,  L. A. Martinez-Martinez,  S. A. Maurer,  N. J. Mayhall,  
 S. C. McKenzie,  J.-M. Mewes,  P. Morgante,  A. F. Morrison,  
 J. W. Mullinax,  K. Nanda,  T. S. Nguyen-Beck,  R. Olivares-Amaya,  
 J. A. Parkhill,  Zheng Pei,  T. M. Perrine,  F. Plasser,  P. Pokhilko,  
 S. Prager,  A. Prociuk,  E. Ramos,  D. R. Rehn,  F. Rob,  M. Scheurer,  
 M. Schneider,  N. Sergueev,  S. M. Sharada,  S. Sharma,  D. W. Small,  
 T. Stauch,  T. Stein,  Yu-Chuan Su,  A. J. W. Thom,  A. Tkatchenko,  
 T. Tsuchimochi,  N. M. Tubman,  L. Vogt,  M. L. Vidal,  O. Vydrov,  
 M. A. Watson,  J. Wenzel,  M. de Wergifosse,  T. A. Wesolowski,  A. White,  
 J. Witte,  A. Yamada,  Jun Yang,  K. Yao,  S. Yeganeh,  S. R. Yost,  
 Zhi-Qiang You,  A. Zech,  Igor Ying Zhang,  Xing Zhang,  Yan Zhao,  
 Ying Zhu,  B. R. Brooks,  G. K. L. Chan,  C. J. Cramer,  M. S. Gordon,  
 W. J. Hehre,  A. Klamt,  M. W. Schmidt,  C. D. Sherrill,  D. G. Truhlar,  
 A. Aspuru-Guzik,  R. Baer,  A. T. Bell,  N. A. Besley,  Jeng-Da Chai,  
 A. E. DePrince, III,  R. A. DiStasio Jr.,  A. Dreuw,  B. D. Dunietz,  
 T. R. Furlani,  Chao-Ping Hsu,  Yousung Jung,  Jing Kong,  D. S. Lambrecht,  
 WanZhen Liang,  C. Ochsenfeld,  V. A. Rassolov,  L. V. Slipchenko,  
 J. E. Subotnik,  T. Van Voorhis,  J. M. Herbert,  A. I. Krylov,  
 P. M. W. Gill,  M. Head-Gordon

 Contributors to earlier versions of Q-Chem not listed above: 
 R. D. Adamson,  B. Austin,  J. Baker,  G. J. O. Beran,  K. Brandhorst,  
 S. T. Brown,  E. F. C. Byrd,  A. K. Chakraborty,  C.-L. Cheng,  
 Siu Hung Chien,  D. M. Chipman,  D. L. Crittenden,  H. Dachsel,  
 R. J. Doerksen,  A. D. Dutoi,  L. Fusti-Molnar,  W. A. Goddard III,  
 A. Golubeva-Zadorozhnaya,  S. R. Gwaltney,  G. Hawkins,  A. Heyden,  
 S. Hirata,  G. Kedziora,  F. J. Keil,  C. Kelley,  Jihan Kim,  R. A. King,  
 R. Z. Khaliullin,  P. P. Korambath,  W. Kurlancheek,  A. M. Lee,  M. S. Lee,  
 S. V. Levchenko,  Ching Yeh Lin,  D. Liotard,  R. C. Lochan,  I. Lotan,  
 P. E. Maslen,  N. Nair,  D. P. O'Neill,  D. Neuhauser,  E. Neuscamman,  
 C. M. Oana,  R. Olson,  B. Peters,  R. Peverati,  P. A. Pieniazek,  
 Y. M. Rhee,  J. Ritchie,  M. A. Rohrdanz,  E. Rosta,  N. J. Russ,  
 H. F. Schaefer III,  N. E. Schultz,  N. Shenvi,  A. C. Simmonett,  A. Sodt,  
 D. Stuck,  K. S. Thanthiriwatte,  V. Vanovschi,  Tao Wang,  A. Warshel,  
 C. F. Williams,  Q. Wu,  X. Xu,  W. Zhang

 Please cite Q-Chem as follows:
 Y. Shao et al., Mol. Phys. 113, 184-215 (2015)
 DOI: 10.1080/00268976.2014.952696

 Q-Chem 5.2.0 for Intel X86 EM64T Linux

 Parts of Q-Chem use Armadillo 8.300.2 (Tropical Shenanigans).
 http://arma.sourceforge.net/

 Q-Chem begins on Sun Sep 26 13:05:07 2021  

Host: cori01
0

     Scratch files written to /tmp/qchem57829//Frg1//
 May1019 |scratch|qcdevops|jenkins|workspace|build_RNUM -1
Processing $rem in /global/common/cori/software/qchem/5.2/config/preferences:
	 MEM_TOTAL  96000 
NAlpha2: 32
NElect   32
Mult     1
Symmetry turned off for PCM/SM12/SMD calculation

Checking the input file for inconsistencies... 	...done.

--------------------------------------------------------------
User input:
--------------------------------------------------------------
$molecule
-1 1
 6	0.7917748649	3.8922361473	-2.6409265795
 6	-0.2682251351	2.8202361473	-2.3929265795
 8	0.0547748649	1.7452361473	-1.8379265795
 8	-1.4372251351	3.0572361473	-2.7729265795
 1	0.4137748649	4.8612361473	-2.3129265795
 1	0.9727748649	3.9512361473	-3.7159265795
 1	1.7464448649	3.6758561473	-2.1391465795
$end
$rem
EDA2		1
METHOD		WB97X-V
BASIS		DEF2-TZVPD
XC_GRID		000099000590
NL_GRID		1
UNRESTRICTED		FALSE
MAX_SCF_CYCLES		200
SYMMETRY		FALSE
SYM_IGNORE		TRUE
BASIS_LIN_DEP_THRESH		6
THRESH		14
SCF_CONVERGENCE		8
SCF_PRINT_FRGM		TRUE
SOLVENT_METHOD		PCM
!required keywords
JOBTYPE		SP
SYM_IGNORE		TRUE
SUBSYSTEM		TRUE
GEN_SCFMAN		TRUE
CHILD_INSTRUCTION		2
SYM_IGNORE		TRUE
SCFMI		0
RI_K 0		
PARI_K 0		
MIN_PARI_K 0		
IARI_K 0		
OCC_RI_K 0		
PURECART		1111
MEM_STATIC		2000
MEM_TOTAL		96000
GUI		0
CHILD_MP		1
CHILD_MP_ORDERS		232
FRZ_RELAX		0
FRZ_RELAX_METHOD		0
EDA_CLS_ELEC		1
EDA_CLS_DISP		0
FRZ_ORTHO_DECOMP		1
EDA2		FALSE
FRGM_METHOD		FALSE
CIS_N_ROOTS  0
LOCAL_CIS    0
CIS_RLX_DNS  1
$end
$pcm
THEORY                  CPCM
METHOD                  SWIG
SOLVER                  INVERSION
RADII                   UFF
HPOINTS                 302
HEAVYPOINTS             302
PRINTLEVEL              0
$end
$solvent
DIELECTRIC              78.390000 ! water
$end
--------------------------------------------------------------
 ----------------------------------------------------------------
             Standard Nuclear Orientation (Angstroms)
    I     Atom           X                Y                Z
 ----------------------------------------------------------------
    1      C       0.7917748649     3.8922361473    -2.6409265795
    2      C      -0.2682251351     2.8202361473    -2.3929265795
    3      O       0.0547748649     1.7452361473    -1.8379265795
    4      O      -1.4372251351     3.0572361473    -2.7729265795
    5      H       0.4137748649     4.8612361473    -2.3129265795
    6      H       0.9727748649     3.9512361473    -3.7159265795
    7      H       1.7464448649     3.6758561473    -2.1391465795
 ----------------------------------------------------------------
 Nuclear Repulsion Energy =         112.47668519 hartrees
 There are       16 alpha and       16 beta electrons
 Requested basis set is def2-TZVPD
 There are 69 shells and 181 basis functions

 Total QAlloc Memory Limit  96000 MB
 Mega-Array Size      1956 MB
 MEM_STATIC part      2000 MB
 Discretize the solute cavity surface with Lebedev spheres
	Using 302 Lebedev grid points for each H atom
	Using 302 Lebedev grid points for other atoms
	Atomic van der Waals radii will be scaled by 1.20
 Remove points where switching function is < 1.0e-08
 Keep 1012 surface tesserae and discard 1102 interior tesserae
 Molecular Surface Area = 120.058 Angst**2

                       Distance Matrix (Angstroms)
             C (  1)   C (  2)   O (  3)   O (  4)   H (  5)   H (  6)
   C (  2)  1.527838
   O (  3)  2.407818  1.252190
   O (  4)  2.383923  1.251851  2.195822
   H (  5)  1.090609  2.153417  3.172375  2.625303
   H (  6)  1.091727  2.137655  3.039086  2.737989  1.763233
   H (  7)  1.099999  2.203494  2.584526  3.304561  1.792020  1.777817

 
 A cutoff of  1.0D-14 yielded   2391 shell pairs
 There are     16695 function pairs (     21491 Cartesian)
 Smallest overlap matrix eigenvalue = 1.68E-05

 Scale SEOQF with 1.000000e-01/1.000000e-01/1.000000e-01

 Standard Electronic Orientation quadrupole field applied
 Nucleus-field energy     =     0.0000000014 hartrees
 Guess from superposition of atomic densities
 Warning:  Energy on first SCF cycle will be non-variational
 SAD guess density has 30.625312 electrons

 -----------------------------------------------------------------------
  General SCF calculation program by
  Eric Jon Sundstrom, Paul Horn, Yuezhi Mao, Dmitri Zuev, Alec White,
  David Stuck, Shaama M.S., Shane Yost, Joonho Lee, David Small,
  Daniel Levine, Susi Lehtola, Hugh Burton, Evgeny Epifanovsky
 -----------------------------------------------------------------------
 Exchange:     0.1670 Hartree-Fock + 1.0000 wB97X-V + LR-HF
 Correlation:  1.0000 wB97X-V
 Using Euler-Maclaurin-Lebedev (99,590) quadrature formula
 Nonlocal Correlation:  VV10 with C = 0.0100 and b = 6.00 and scale = 1.00000
 Grid used for NLC:  SG-1 standard quadrature
Energy prior to optimization (guess energy) = -227.761674753121
Begin Timing: Total SCF Calculation
begin iterations for algorithm: DIIS         
the SCF tolerance is set to 1.00e-08
    1    -227.7616747531      1.66e-02     00000 
    2    -225.5825656996      2.55e-02     00000 
    3    -228.5770227118      4.14e-03     00000 
    4    -228.6360634077      1.41e-03     00000 
    5    -228.6423329639      3.08e-04     00000 
    6    -228.6425888910      2.40e-04     00000 
    7    -228.6427484882      4.73e-05     00000 
    8    -228.6427590166      1.40e-05     00000 
    9    -228.6427603405      2.90e-06     00000 
   10    -228.6427604442      4.00e-07     00000 
   11    -228.6427604470      1.47e-07     00000 
   12    -228.6427604473      5.29e-08     00000 
   13    -228.6427604473      1.80e-08     00000 
   14    -228.6427604473      2.77e-09     00000 Convergence criterion met
Timing for Total SCF: 290.00s (wall), 567.32s (cpu)

************** Final PCM Free Energy Summary **************
 G_electrostatic  =      -0.10189945 hartree =     -63.94286777 kcal/mol
 G_cavitation     =       0.00000000 hartree =       0.00000000 kcal/mol
 G_dispersion     =       0.00000000 hartree =       0.00000000 kcal/mol
 G_repulsion      =       0.00000000 hartree =       0.00000000 kcal/mol
 --------------------------------------------------
 Non-electrostatic Free Energy =       0.00000000 hartree =       0.00000000 kcal/mol
 Total                         =      -0.10189945 hartree =     -63.94286777 kcal/mol
 --------------------------------------------------
 SCF Energy (H0 + V/2)                       =    -228.64276045 
 Solute Internal Energy (H0)                 =    -228.54086100 
 Total Free Energy (H0 + V/2 + non-elec)     =    -228.64276045 hartree
                                             = -143475.49765628 kcal/mol
***********************************************************

E_pcm = -0.1018994465
Multipole orders to be included
        2
        3
computing dipole RHS
computing quadrupole RHS
total number of RHS in solve_reponses: 8
RHS batch sizes
        8
Beginning Block Conjugate Gradient Iterations. Batch Number: 0
computing hessian-vector products by finite difference
              1      6.39e-01     00000 Conjugate Gradient Iteration
computing hessian-vector products by finite difference
              2      2.36e-01     00000 Conjugate Gradient Iteration
computing hessian-vector products by finite difference
              3      6.16e-02     00000 Conjugate Gradient Iteration
computing hessian-vector products by finite difference
              4      1.59e-02     00000 Conjugate Gradient Iteration
computing hessian-vector products by finite difference
              5      2.82e-03     00000 Conjugate Gradient Iteration
computing hessian-vector products by finite difference
              6      6.38e-04     00000 Conjugate Gradient Iteration
computing hessian-vector products by finite difference
              7      1.07e-04     00000 Conjugate Gradient Iteration
computing hessian-vector products by finite difference
              8      1.49e-05     00000 Conjugate Gradient Iteration
computing hessian-vector products by finite difference
              9      4.66e-06     00000 Conjugate Gradient Iteration
computing hessian-vector products by finite difference
             10      9.10e-07     00000 Conjugate Gradient Iteration
computing hessian-vector products by finite difference
             11      1.53e-07     00000 Conjugate Gradient Iteration
computing hessian-vector products by finite difference
             12      4.27e-08     00000 Conjugate Gradient Iteration
computing hessian-vector products by finite difference
             13      5.42e-09     00000 CG Converged
batch 0 complete
Done Calculating Responses
TESTING ORTHOGONALIZATION OF MULTIPOLE BASIS
Multipole virts passed orthogonality test
Virts Per Order
        48
        80
 
 --------------------------------------------------------------
 
                    Orbital Energies (a.u.)
 --------------------------------------------------------------
 
 Alpha MOs
 -- Occupied --
-19.1223 -19.1209 -10.3256 -10.2406  -1.1318  -1.0305  -0.8284  -0.5921
 -0.5285  -0.5170  -0.5158  -0.4634  -0.4430  -0.3287  -0.3263  -0.3082
 -- Virtual --
  0.0633   0.0953   0.0957   0.1055   0.1303   0.1403   0.1429   0.1453
  0.1695   0.1906   0.1984   0.2231   0.2304   0.2358   0.2644   0.2673
  0.2991   0.3125   0.3344   0.3480   0.3535   0.3618   0.3721   0.3830
  0.3910   0.4023   0.4253   0.4263   0.4321   0.4612   0.4747   0.4781
  0.4902   0.4969   0.5047   0.5220   0.5594   0.5784   0.5982   0.6153
  0.6230   0.6414   0.6446   0.6621   0.6750   0.6790   0.6959   0.7118
  0.7219   0.7398   0.7781   0.7996   0.8113   0.8207   0.8460   0.8596
  0.8687   0.9808   0.9871   0.9953   1.0062   1.0510   1.0602   1.1282
  1.1697   1.2104   1.2597   1.2872   1.2953   1.3143   1.3490   1.3584
  1.4545   1.5715   1.6066   1.7373   1.8256   1.8644   1.8729   1.9242
  1.9298   1.9589   1.9653   1.9719   2.0218   2.1152   2.1326   2.1722
  2.2193   2.2236   2.3227   2.3474   2.4187   2.4408   2.4909   2.5087
  2.5772   2.5893   2.6209   2.6641   2.7941   2.8150   2.8768   2.9299
  2.9459   3.0130   3.0409   3.1850   3.2093   3.2507   3.2857   3.3174
  3.3442   3.3502   3.4004   3.4158   3.4327   3.5402   3.5732   3.5891
  3.6107   3.6637   3.7061   3.7367   3.7744   3.8775   3.9495   4.0457
  4.0811   4.1944   4.3612   4.5578   4.6146   4.6637   4.8103   4.8346
  4.9902   5.3340   5.3601   5.3696   5.3762   5.4991   5.7131   5.7766
  5.8212   6.0271   6.2361   6.3439   6.3549   6.6194   6.6309   6.7248
  6.7454   6.7606   6.9520   6.9810   7.0423   7.2506   7.3492   7.3900
  7.4158  22.5878  23.7312  44.2225  44.3481
 --------------------------------------------------------------
 
          Ground-State Mulliken Net Atomic Charges

     Atom                 Charge (a.u.)
  ----------------------------------------
      1 C                    -0.399047
      2 C                     0.293529
      3 O                    -0.674017
      4 O                    -0.678755
      5 H                     0.158237
      6 H                     0.135544
      7 H                     0.164509
  ----------------------------------------
  Sum of atomic charges =    -1.000000

 -----------------------------------------------------------------
                    Cartesian Multipole Moments
 -----------------------------------------------------------------
    Charge (ESU x 10^10)
                -4.8032
    Dipole Moment (Debye)
         X       4.4786      Y     -10.3756      Z      10.8011
       Tot      15.6324
    Quadrupole Moments (Debye-Ang)
        XX     -34.6264     XY      14.0390     YY     -51.6522
        XZ     -13.2276     YZ      25.9922     ZZ     -51.7159
    Octopole Moments (Debye-Ang^2)
       XXX      24.5258    XXY    -102.6368    XYY      47.6420
       YYY    -301.4109    XXZ      87.1471    XYZ     -41.3638
       YYZ     134.7252    XZZ      42.8039    YZZ    -144.5266
       ZZZ     252.9240
    Hexadecapole Moments (Debye-Ang^3)
      XXXX    -176.2785   XXXY      56.7683   XXYY    -358.6250
      XYYY     152.7591   YYYY   -1714.5390   XXXZ     -68.6158
      XXYZ     266.4504   XYYZ    -140.5664   YYYZ     797.9733
      XXZZ    -256.4413   XYZZ     128.1672   YYZZ    -614.7805
      XZZZ    -150.3728   YZZZ     759.1314   ZZZZ   -1136.0474
 -----------------------------------------------------------------
Archival summary:
1\1\nid00537\SP\ProcedureUnspecified\BasisUnspecified\223(1-,1)\meili\SunSep2614:30:202021SunSep2614:30:202021\0\\#,ProcedureUnspecified,BasisUnspecified,\\-1,1\C\O,1,1.25185\O,1,1.25219,2,122.544\C,1,1.52784,2,117.76,3,179.284,0\H,4,1.09061,1,109.519,2,48.1746,0\H,4,1.09173,1,108.227,2,-69.0889,0\H,4,1.1,1,112.958,2,170.864,0\\\@

 Total job time:  5113.73s(wall), 10048.47s(cpu) 
 Sun Sep 26 14:30:20 2021

        *************************************************************
        *                                                           *
        *  Thank you very much for using Q-Chem.  Have a nice day.  *
        *                                                           *
        *************************************************************


Done Job For Fragment 0
calling putenv with: QCSCRATCH=/global/cscratch1/sd/meili 
calling putenv with: QCLOCALSCR=/tmp 
calling putenv with: QCTHREADS=32 
Creating input file /tmp/qchem57829/Frg2.input
using default PutDataFrgm: nothing
calling putenv with: QCSCRATCH=/tmp/qchem57829/ 
calling putenv with: QCLOCALSCR=/tmp/qchem57829/ 
Spawning Job For Fragment 1
                  Welcome to Q-Chem
     A Quantum Leap Into The Future Of Chemistry


 Q-Chem 5.2, Q-Chem, Inc., Pleasanton, CA (2019)

 License issued to: National Energy Research Scientific Computing Center

 Yihan Shao,  Zhengting Gan,  E. Epifanovsky,  A. T. B. Gilbert,  M. Wormit,  
 J. Kussmann,  A. W. Lange,  A. Behn,  Jia Deng,  Xintian Feng,  D. Ghosh,  
 M. Goldey,  P. R. Horn,  L. D. Jacobson,  I. Kaliman,  T. Kus,  A. Landau,  
 Jie Liu,  E. I. Proynov,  R. M. Richard,  R. P. Steele,  E. J. Sundstrom,  
 H. L. Woodcock III,  P. M. Zimmerman,  D. Zuev,  B. Albrecht,  E. Alguire,  
 S. A. Baeppler,  D. Barton,  Z. Benda,  Y. A. Bernard,  E. J. Berquist,  
 K. B. Bravaya,  H. Burton,  D. Casanova,  Chun-Min Chang,  Yunqing Chen,  
 A. Chien,  K. D. Closser,  M. P. Coons,  S. Coriani,  S. Dasgupta,  
 A. L. Dempwolff,  M. Diedenhofen,  Hainam Do,  R. G. Edgar,  Po-Tung Fang,  
 S. Faraji,  S. Fatehi,  Qingguo Feng,  K. D. Fenk,  J. Fosso-Tande,  
 J. Gayvert,  Qinghui Ge,  A. Ghysels,  G. Gidofalvi,  J. Gomes,  
 J. Gonthier,  A. Gunina,  D. Hait,  M. W. D. Hanson-Heine,  
 P. H. P. Harbach,  A. W. Hauser,  M. F. Herbst,  J. E. Herr,  
 E. G. Hohenstein,  Z. C. Holden,  Kerwin Hui,  B. C. Huynh,  T.-C. Jagau,  
 Hyunjun Ji,  B. Kaduk,  K. Khistyaev,  Jaehoon Kim,  P. Klunzinger,  K. Koh,  
 D. Kosenkov,  L. Koulias,  T. Kowalczyk,  C. M. Krauter,  A. Kunitsa,  
 Ka Un Lao,  A. Laurent,  K. V. Lawler,  Joonho Lee,  D. Lefrancois,  
 S. Lehtola,  D. S. Levine,  Yi-Pei Li,  You-Sheng Lin,  Fenglai Liu,  
 E. Livshits,  A. Luenser,  P. Manohar,  E. Mansoor,  S. F. Manzer,  
 Shan-Ping Mao,  Yuezhi Mao,  N. Mardirossian,  A. V. Marenich,  
 T. Markovich,  L. A. Martinez-Martinez,  S. A. Maurer,  N. J. Mayhall,  
 S. C. McKenzie,  J.-M. Mewes,  P. Morgante,  A. F. Morrison,  
 J. W. Mullinax,  K. Nanda,  T. S. Nguyen-Beck,  R. Olivares-Amaya,  
 J. A. Parkhill,  Zheng Pei,  T. M. Perrine,  F. Plasser,  P. Pokhilko,  
 S. Prager,  A. Prociuk,  E. Ramos,  D. R. Rehn,  F. Rob,  M. Scheurer,  
 M. Schneider,  N. Sergueev,  S. M. Sharada,  S. Sharma,  D. W. Small,  
 T. Stauch,  T. Stein,  Yu-Chuan Su,  A. J. W. Thom,  A. Tkatchenko,  
 T. Tsuchimochi,  N. M. Tubman,  L. Vogt,  M. L. Vidal,  O. Vydrov,  
 M. A. Watson,  J. Wenzel,  M. de Wergifosse,  T. A. Wesolowski,  A. White,  
 J. Witte,  A. Yamada,  Jun Yang,  K. Yao,  S. Yeganeh,  S. R. Yost,  
 Zhi-Qiang You,  A. Zech,  Igor Ying Zhang,  Xing Zhang,  Yan Zhao,  
 Ying Zhu,  B. R. Brooks,  G. K. L. Chan,  C. J. Cramer,  M. S. Gordon,  
 W. J. Hehre,  A. Klamt,  M. W. Schmidt,  C. D. Sherrill,  D. G. Truhlar,  
 A. Aspuru-Guzik,  R. Baer,  A. T. Bell,  N. A. Besley,  Jeng-Da Chai,  
 A. E. DePrince, III,  R. A. DiStasio Jr.,  A. Dreuw,  B. D. Dunietz,  
 T. R. Furlani,  Chao-Ping Hsu,  Yousung Jung,  Jing Kong,  D. S. Lambrecht,  
 WanZhen Liang,  C. Ochsenfeld,  V. A. Rassolov,  L. V. Slipchenko,  
 J. E. Subotnik,  T. Van Voorhis,  J. M. Herbert,  A. I. Krylov,  
 P. M. W. Gill,  M. Head-Gordon

 Contributors to earlier versions of Q-Chem not listed above: 
 R. D. Adamson,  B. Austin,  J. Baker,  G. J. O. Beran,  K. Brandhorst,  
 S. T. Brown,  E. F. C. Byrd,  A. K. Chakraborty,  C.-L. Cheng,  
 Siu Hung Chien,  D. M. Chipman,  D. L. Crittenden,  H. Dachsel,  
 R. J. Doerksen,  A. D. Dutoi,  L. Fusti-Molnar,  W. A. Goddard III,  
 A. Golubeva-Zadorozhnaya,  S. R. Gwaltney,  G. Hawkins,  A. Heyden,  
 S. Hirata,  G. Kedziora,  F. J. Keil,  C. Kelley,  Jihan Kim,  R. A. King,  
 R. Z. Khaliullin,  P. P. Korambath,  W. Kurlancheek,  A. M. Lee,  M. S. Lee,  
 S. V. Levchenko,  Ching Yeh Lin,  D. Liotard,  R. C. Lochan,  I. Lotan,  
 P. E. Maslen,  N. Nair,  D. P. O'Neill,  D. Neuhauser,  E. Neuscamman,  
 C. M. Oana,  R. Olson,  B. Peters,  R. Peverati,  P. A. Pieniazek,  
 Y. M. Rhee,  J. Ritchie,  M. A. Rohrdanz,  E. Rosta,  N. J. Russ,  
 H. F. Schaefer III,  N. E. Schultz,  N. Shenvi,  A. C. Simmonett,  A. Sodt,  
 D. Stuck,  K. S. Thanthiriwatte,  V. Vanovschi,  Tao Wang,  A. Warshel,  
 C. F. Williams,  Q. Wu,  X. Xu,  W. Zhang

 Please cite Q-Chem as follows:
 Y. Shao et al., Mol. Phys. 113, 184-215 (2015)
 DOI: 10.1080/00268976.2014.952696

 Q-Chem 5.2.0 for Intel X86 EM64T Linux

 Parts of Q-Chem use Armadillo 8.300.2 (Tropical Shenanigans).
 http://arma.sourceforge.net/

 Q-Chem begins on Sun Sep 26 14:30:21 2021  

Host: cori01
0

     Scratch files written to /tmp/qchem57829//Frg2//
 May1019 |scratch|qcdevops|jenkins|workspace|build_RNUM -1
Processing $rem in /global/common/cori/software/qchem/5.2/config/preferences:
	 MEM_TOTAL  96000 
NAlpha2: 58
NElect   58
Mult     1
Symmetry turned off for PCM/SM12/SMD calculation

Checking the input file for inconsistencies... 	...done.

--------------------------------------------------------------
User input:
--------------------------------------------------------------
$molecule
0 1
 6	1.0257748649	-4.2957638527	1.9030734205
 6	-0.3182251351	-0.2997638527	1.0520734205
 6	0.4977748649	-0.9687638527	0.1460734205
 6	-0.6982251351	-0.9217638527	2.2390734205
 6	0.9307748649	-2.2587638527	0.4280734205
 6	-0.2562251351	-2.2117638527	2.5140734205
 6	0.5687748649	-2.8877638527	1.6160734205
 8	-0.7412251351	0.9622361473	0.7720734205
 1	-0.4342251351	1.2332361473	-0.1129265795
 1	0.7867748649	-0.4877638527	-0.7749265795
 1	-1.3292251351	-0.4017638527	2.9400734205
 1	1.5577748649	-2.7787638527	-0.2849265795
 1	-0.5292251351	-2.6887638527	3.4420734205
 1	0.9687748649	-4.4797638527	2.9740734205
 1	2.0657748649	-4.4057638527	1.5920734205
 1	0.4090348649	-5.0510778527	1.3940234205
$end
$rem
EDA2		1
METHOD		WB97X-V
BASIS		DEF2-TZVPD
XC_GRID		000099000590
NL_GRID		1
UNRESTRICTED		FALSE
MAX_SCF_CYCLES		200
SYMMETRY		FALSE
SYM_IGNORE		TRUE
BASIS_LIN_DEP_THRESH		6
THRESH		14
SCF_CONVERGENCE		8
SCF_PRINT_FRGM		TRUE
SOLVENT_METHOD		PCM
!required keywords
JOBTYPE		SP
SYM_IGNORE		TRUE
SUBSYSTEM		TRUE
GEN_SCFMAN		TRUE
CHILD_INSTRUCTION		2
SYM_IGNORE		TRUE
SCFMI		0
RI_K 0		
PARI_K 0		
MIN_PARI_K 0		
IARI_K 0		
OCC_RI_K 0		
PURECART		1111
MEM_STATIC		2000
MEM_TOTAL		96000
GUI		0
CHILD_MP		1
CHILD_MP_ORDERS		232
FRZ_RELAX		0
FRZ_RELAX_METHOD		0
EDA_CLS_ELEC		1
EDA_CLS_DISP		0
FRZ_ORTHO_DECOMP		1
EDA2		FALSE
FRGM_METHOD		FALSE
CIS_N_ROOTS  0
LOCAL_CIS    0
CIS_RLX_DNS  1
$end
$pcm
THEORY                  CPCM
METHOD                  SWIG
SOLVER                  INVERSION
RADII                   UFF
HPOINTS                 302
HEAVYPOINTS             302
PRINTLEVEL              0
$end
$solvent
DIELECTRIC              78.390000 ! water
$end
--------------------------------------------------------------
 ----------------------------------------------------------------
             Standard Nuclear Orientation (Angstroms)
    I     Atom           X                Y                Z
 ----------------------------------------------------------------
    1      C       1.0257748649    -4.2957638527     1.9030734205
    2      C      -0.3182251351    -0.2997638527     1.0520734205
    3      C       0.4977748649    -0.9687638527     0.1460734205
    4      C      -0.6982251351    -0.9217638527     2.2390734205
    5      C       0.9307748649    -2.2587638527     0.4280734205
    6      C      -0.2562251351    -2.2117638527     2.5140734205
    7      C       0.5687748649    -2.8877638527     1.6160734205
    8      O      -0.7412251351     0.9622361473     0.7720734205
    9      H      -0.4342251351     1.2332361473    -0.1129265795
   10      H       0.7867748649    -0.4877638527    -0.7749265795
   11      H      -1.3292251351    -0.4017638527     2.9400734205
   12      H       1.5577748649    -2.7787638527    -0.2849265795
   13      H      -0.5292251351    -2.6887638527     3.4420734205
   14      H       0.9687748649    -4.4797638527     2.9740734205
   15      H       2.0657748649    -4.4057638527     1.5920734205
   16      H       0.4090348649    -5.0510778527     1.3940234205
 ----------------------------------------------------------------
 Nuclear Repulsion Energy =         343.43929058 hartrees
 There are       29 alpha and       29 beta electrons
 Requested basis set is def2-TZVPD
 There are 145 shells and 371 basis functions

 Total QAlloc Memory Limit  96000 MB
 Mega-Array Size      1956 MB
 MEM_STATIC part      2000 MB
 Discretize the solute cavity surface with Lebedev spheres
	Using 302 Lebedev grid points for each H atom
	Using 302 Lebedev grid points for other atoms
	Atomic van der Waals radii will be scaled by 1.20
 Remove points where switching function is < 1.0e-08
 Keep 1866 surface tesserae and discard 2966 interior tesserae
 Molecular Surface Area = 190.116 Angst**2
 A cutoff of  1.0D-14 yielded  10047 shell pairs
 There are     67105 function pairs (     85807 Cartesian)
 Smallest overlap matrix eigenvalue = 5.44E-07
 Linear dependence detected in AO basis
 Tighter screening thresholds may be required for diffuse basis sets
 Use S2THRESH > 14 and THRESH = 14 in case of SCF convergence issues
 Number of orthogonalized atomic orbitals = 370
 Maximum deviation from orthogonality = 4.085E-10

 Scale SEOQF with 1.000000e-01/1.000000e-01/1.000000e-01

 Standard Electronic Orientation quadrupole field applied
 Nucleus-field energy     =     0.0000000078 hartrees
 Guess from superposition of atomic densities
 Warning:  Energy on first SCF cycle will be non-variational
 SAD guess density has 57.738434 electrons

 -----------------------------------------------------------------------
  General SCF calculation program by
  Eric Jon Sundstrom, Paul Horn, Yuezhi Mao, Dmitri Zuev, Alec White,
  David Stuck, Shaama M.S., Shane Yost, Joonho Lee, David Small,
  Daniel Levine, Susi Lehtola, Hugh Burton, Evgeny Epifanovsky
 -----------------------------------------------------------------------
 Exchange:     0.1670 Hartree-Fock + 1.0000 wB97X-V + LR-HF
 Correlation:  1.0000 wB97X-V
 Using Euler-Maclaurin-Lebedev (99,590) quadrature formula
 Nonlocal Correlation:  VV10 with C = 0.0100 and b = 6.00 and scale = 1.00000
 Grid used for NLC:  SG-1 standard quadrature
Energy prior to optimization (guess energy) = -346.496526285892
Begin Timing: Total SCF Calculation
begin iterations for algorithm: DIIS         
the SCF tolerance is set to 1.00e-08
    1    -346.4965262859      5.17e-03     00000 
    2    -346.4294974313      5.62e-03     00000 
    3    -346.8123888392      5.38e-04     00000 
    4    -346.8165570289      1.82e-04     00000 
    5    -346.8171706475      2.52e-05     00000 
    6    -346.8171902463      1.29e-05     00000 
    7    -346.8171936652      4.01e-06     00000 
    8    -346.8171941109      1.28e-06     00000 
    9    -346.8171941723      5.73e-07     00000 
   10    -346.8171941837      1.49e-07     00000 
   11    -346.8171941859      6.58e-08     00000 
   12    -346.8171941862      3.44e-08     00000 
   13    -346.8171941862      7.46e-09     00000 Convergence criterion met
Timing for Total SCF: 2076.00s (wall), 4125.06s (cpu)

************** Final PCM Free Energy Summary **************
 G_electrostatic  =      -0.00560798 hartree =      -3.51905771 kcal/mol
 G_cavitation     =       0.00000000 hartree =       0.00000000 kcal/mol
 G_dispersion     =       0.00000000 hartree =       0.00000000 kcal/mol
 G_repulsion      =       0.00000000 hartree =       0.00000000 kcal/mol
 --------------------------------------------------
 Non-electrostatic Free Energy =       0.00000000 hartree =       0.00000000 kcal/mol
 Total                         =      -0.00560798 hartree =      -3.51905771 kcal/mol
 --------------------------------------------------
 SCF Energy (H0 + V/2)                       =    -346.81719419 
 Solute Internal Energy (H0)                 =    -346.81158621 
 Total Free Energy (H0 + V/2 + non-elec)     =    -346.81719419 hartree
                                             = -217631.07405751 kcal/mol
***********************************************************

E_pcm = -0.0056079755
Multipole orders to be included
        2
        3
computing dipole RHS
computing quadrupole RHS
total number of RHS in solve_reponses: 8
RHS batch sizes
        8
Beginning Block Conjugate Gradient Iterations. Batch Number: 0
computing hessian-vector products by finite difference
              1      6.12e-01     00000 Conjugate Gradient Iteration
computing hessian-vector products by finite difference
              2      1.88e-01     00000 Conjugate Gradient Iteration
computing hessian-vector products by finite difference
              3      4.70e-02     00000 Conjugate Gradient Iteration
computing hessian-vector products by finite difference
              4      1.39e-02     00000 Conjugate Gradient Iteration
computing hessian-vector products by finite difference
              5      4.27e-03     00000 Conjugate Gradient Iteration
computing hessian-vector products by finite difference
              6      1.61e-03     00000 Conjugate Gradient Iteration
computing hessian-vector products by finite difference
              7      3.96e-04     00000 Conjugate Gradient Iteration
computing hessian-vector products by finite difference
              8      7.52e-05     00000 Conjugate Gradient Iteration
computing hessian-vector products by finite difference
              9      1.35e-05     00000 Conjugate Gradient Iteration
computing hessian-vector products by finite difference
             10      1.71e-06     00000 Conjugate Gradient Iteration
computing hessian-vector products by finite difference
             11      2.79e-07     00000 Conjugate Gradient Iteration
computing hessian-vector products by finite difference
             12      5.32e-08     00000 Conjugate Gradient Iteration
computing hessian-vector products by finite difference
             13      8.23e-09     00000 CG Converged
batch 0 complete
Done Calculating Responses
TESTING ORTHOGONALIZATION OF MULTIPOLE BASIS
Multipole virts passed orthogonality test
Virts Per Order
           87
          145
 
 --------------------------------------------------------------
 
                    Orbital Energies (a.u.)
 --------------------------------------------------------------
 
 Alpha MOs
 -- Occupied --
-19.2468 -10.3352 -10.2752 -10.2740 -10.2738 -10.2716 -10.2711 -10.2611
 -1.1957  -0.9960  -0.9014  -0.8853  -0.8098  -0.7495  -0.7141  -0.6655
 -0.6049  -0.5807  -0.5508  -0.5421  -0.5353  -0.5216  -0.5120  -0.4784
 -0.4563  -0.4438  -0.4408  -0.3537  -0.3127
 -- Virtual --
  0.0576   0.0592   0.0682   0.0782   0.0830   0.0943   0.1084   0.1099
  0.1140   0.1311   0.1439   0.1513   0.1539   0.1689   0.1752   0.1919
  0.1998   0.2033   0.2161   0.2238   0.2342   0.2400   0.2494   0.2521
  0.2631   0.2658   0.2718   0.2729   0.2815   0.2949   0.2953   0.3017
  0.3040   0.3097   0.3113   0.3228   0.3329   0.3404   0.3440   0.3492
  0.3548   0.3552   0.3618   0.3718   0.3762   0.3788   0.3813   0.3924
  0.3936   0.3941   0.3982   0.4078   0.4130   0.4198   0.4241   0.4321
  0.4369   0.4524   0.4563   0.4590   0.4715   0.4724   0.4777   0.4821
  0.4869   0.4937   0.4959   0.5032   0.5113   0.5152   0.5255   0.5373
  0.5398   0.5475   0.5487   0.5567   0.5627   0.5670   0.5824   0.5955
  0.5991   0.6070   0.6172   0.6306   0.6378   0.6560   0.6671   0.6721
  0.6753   0.6824   0.6895   0.6922   0.6994   0.7001   0.7155   0.7281
  0.7307   0.7384   0.7448   0.7515   0.7566   0.7739   0.7809   0.7867
  0.7868   0.7912   0.7951   0.7994   0.8061   0.8118   0.8288   0.8364
  0.8416   0.8489   0.8536   0.8559   0.8640   0.8750   0.8834   0.8868
  0.9009   0.9121   0.9264   0.9485   0.9603   0.9741   0.9905   1.0113
  1.0181   1.0368   1.0410   1.0491   1.0548   1.0721   1.0739   1.0836
  1.1000   1.1195   1.1388   1.1720   1.1977   1.2371   1.2635   1.2937
  1.3032   1.3104   1.3287   1.3543   1.3637   1.3859   1.3907   1.4288
  1.4570   1.4699   1.4706   1.4809   1.5311   1.5655   1.6038   1.6198
  1.6298   1.6393   1.6794   1.6859   1.7036   1.7216   1.7814   1.7998
  1.8164   1.8269   1.8349   1.8599   1.8658   1.8802   1.9182   1.9268
  1.9381   1.9542   1.9732   1.9887   1.9956   2.0291   2.0366   2.0507
  2.0582   2.0711   2.0905   2.1039   2.1161   2.1496   2.1954   2.2090
  2.2200   2.2366   2.2717   2.2760   2.3050   2.3093   2.3446   2.3648
  2.4015   2.4080   2.4341   2.4613   2.4870   2.4930   2.5205   2.5563
  2.5807   2.6048   2.6223   2.6381   2.6478   2.6662   2.6868   2.7424
  2.7521   2.7667   2.7762   2.7997   2.8217   2.8328   2.8642   2.8770
  2.9029   2.9148   2.9383   2.9514   2.9642   2.9734   2.9746   3.0027
  3.0162   3.0408   3.0656   3.0816   3.1061   3.1304   3.1459   3.1697
  3.1800   3.2005   3.2161   3.2238   3.2422   3.2626   3.2778   3.2931
  3.3255   3.3550   3.3850   3.3889   3.3940   3.4131   3.4469   3.4555
  3.4649   3.4717   3.4937   3.5161   3.5224   3.5288   3.5387   3.5451
  3.5535   3.5686   3.5758   3.5914   3.5990   3.6276   3.6505   3.6706
  3.6883   3.7028   3.7393   3.7572   3.7981   3.8157   3.8417   3.8970
  3.9414   3.9615   3.9772   3.9966   4.0414   4.0878   4.1354   4.1517
  4.2541   4.2692   4.2903   4.3072   4.3167   4.3321   4.3416   4.3619
  4.3803   4.3895   4.4317   4.4541   4.5021   4.5407   4.6020   4.6215
  4.7388   4.7429   4.7868   4.8110   4.8754   4.9211   5.0293   5.0651
  5.0895   5.1310   5.1602   5.3092   5.3369   5.4030   5.4520   5.5424
  5.5998   5.6524   5.7143   5.7630   5.9515   6.1904   6.4852   6.5673
  6.6321   6.8730   7.0189   7.2968   7.4480  22.6660  22.6776  22.9411
 23.0016  23.0430  23.1912  23.5188  44.4190
 --------------------------------------------------------------
 
          Ground-State Mulliken Net Atomic Charges

     Atom                 Charge (a.u.)
  ----------------------------------------
      1 C                    -1.043769
      2 C                     0.858258
      3 C                    -0.377374
      4 C                    -0.769617
      5 C                    -0.636010
      6 C                    -0.424205
      7 C                     0.588590
      8 O                    -0.492142
      9 H                     0.296113
     10 H                     0.271779
     11 H                     0.334382
     12 H                     0.326331
     13 H                     0.306871
     14 H                     0.277283
     15 H                     0.270842
     16 H                     0.212667
  ----------------------------------------
  Sum of atomic charges =     0.000000

 -----------------------------------------------------------------
                    Cartesian Multipole Moments
 -----------------------------------------------------------------
    Charge (ESU x 10^10)
                -0.0000
    Dipole Moment (Debye)
         X       0.9168      Y      -0.6242      Z      -1.3849
       Tot       1.7742
    Quadrupole Moments (Debye-Ang)
        XX     -49.8912     XY      -1.2615     YY     -43.9389
        XZ      -1.7575     YZ      -4.2537     ZZ     -45.1580
    Octopole Moments (Debye-Ang^2)
       XXX     -20.7532    XXY      79.9419    XYY       0.8414
       YYY     226.1355    XXZ     -67.5369    XYZ       3.0990
       YYZ     -58.4723    XZZ     -14.6880    YZZ      70.3726
       ZZZ    -179.8037
    Hexadecapole Moments (Debye-Ang^3)
      XXXX    -222.1365   XXXY     162.6811   XXYY    -309.8945
      XYYY     148.8490   YYYY   -1586.5216   XXXZ      -5.1994
      XXYZ     142.8007   XYYZ       1.1275   YYYZ     373.6643
      XXZZ    -172.2699   XYZZ      62.7693   YYZZ    -379.9985
      XZZZ     -31.8217   YZZZ     370.1426   ZZZZ    -759.7134
 -----------------------------------------------------------------
Archival summary:
1\1\nid00537\SP\ProcedureUnspecified\BasisUnspecified\178\meili\MonSep2701:06:582021MonSep2701:06:582021\0\\#,ProcedureUnspecified,BasisUnspecified,\\0,1\C\O,1,1.36014\H,2,0.975149,1,110.29\C,1,1.39077,2,119.649,3,3.30262,0\H,4,1.07848,1,119.934,2,-0.335653,0\C,4,1.38964,1,119.812,2,-179.933,0\H,6,1.08254,4,119.52,1,179.399,0\C,6,1.39213,4,120.769,1,-0.672014,0\C,1,1.39293,2,120.325,3,-176.706,0\H,9,1.07702,1,119.926,2,-0.0634392,0\C,9,1.39107,1,119.728,2,-179.872,0\H,11,1.07854,9,119.987,1,178.593,0\C,8,1.50787,6,120.365,4,179.032,0\H,13,1.08818,8,109.229,6,159.567,0\H,13,1.09106,8,109.195,6,41.3436,0\H,13,1.1,8,112.53,6,-80.4247,0\\\@

 Total job time:  38198.61s(wall), 75783.24s(cpu) 
 Mon Sep 27 01:07:00 2021

        *************************************************************
        *                                                           *
        *  Thank you very much for using Q-Chem.  Have a nice day.  *
        *                                                           *
        *************************************************************


Done Job For Fragment 1
calling putenv with: QCSCRATCH=/global/cscratch1/sd/meili 
calling putenv with: QCLOCALSCR=/tmp 
calling putenv with: QCTHREADS=32 
Doing General SCFMI
 Exchange:     0.1670 Hartree-Fock + 1.0000 wB97X-V + LR-HF
 Correlation:  1.0000 wB97X-V
 Using Euler-Maclaurin-Lebedev (99,590) quadrature formula
 Nonlocal Correlation:  VV10 with C = 0.0100 and b = 6.00 and scale = 1.00000
 Grid used for NLC:  SG-1 standard quadrature
performing fock build before subrot guess so that all methods have access
Printing subrot_rss_gen Method Specification:
Occupied Subspace Method is 0
Virtual Subspace Method is 0
Energy of the unrelaxed supersystem initial determinant -575.373024707856
performing fock build before subrot guess so that all methods have access
Printing subrot_rss_gen Method Specification:
Occupied Subspace Method is 0
Virtual Subspace Method is 0
Energy of the unrelaxed supersystem initial determinant w/ solvent -575.468003448620
write pseudocanon occs and virts to disk
write pseudocanon orbital energies to disk
Tolerance of ortho_decomp_scf: 1.00e-06
GDM subspace size: 20
Beginning the Orthogonal Decomposition of the Initial Supersystem Wavefunction
    1    -575.2983839318      6.78e-02     ortho_decomp Preconditoned Steepest Descent
    2    -575.3066962639      1.36e-03     ortho_decomp BFGS Step
    3    -575.3067178196      1.17e-04     ortho_decomp BFGS Step
    4    -575.3067178709      4.67e-06     ortho_decomp BFGS Step
    5    -575.3067178710      1.68e-07     ortho_decomp 00000 Convergence criterion met
 Hartree-Fock
 Hartree-Fock
 Hartree-Fock
Doing General SCFMI
 Exchange:     0.1670 Hartree-Fock + 1.0000 wB97X-V + LR-HF
 Correlation:  1.0000 wB97X-V
 Using Euler-Maclaurin-Lebedev (99,590) quadrature formula
 Nonlocal Correlation:  VV10 with C = 0.0100 and b = 6.00 and scale = 1.00000
 Grid used for NLC:  SG-1 standard quadrature
performing fock build at end of subrot_r(subrot) constructor so that all methods have access
<S^2> of initial wavefunction before polarization iterations 0.0000000000
Beginning iterations for the determination of the polarized wavefunction
Energy prior to optimization (guess energy) = -575.468003448621
Begin Timing: Total SCF Calculation
begin iterations for algorithm: DIIS         
the SCF tolerance is set to 1.00e-08
    1    -575.4680034486      1.85e-04     00000 
    2    -575.4712955194      6.68e-05     00000 
    3    -575.4716562317      4.15e-05     00000 
    4    -575.4717620332      1.45e-05     00000 
    5    -575.4717804615      5.61e-06     00000 
    6    -575.4717845752      2.78e-06     00000 
    7    -575.4717853951      1.24e-06     00000 
    8    -575.4717855275      6.82e-07     00000 
    9    -575.4717855573      2.08e-07     00000 
   10    -575.4717855599      8.73e-08     00000 
   11    -575.4717855606      3.01e-08     00000 
   12    -575.4717855606      1.61e-08     00000 
   13    -575.4717855607      6.01e-09     00000 Convergence criterion met
write pseudocanon occs and virts to disk
write pseudocanon orbital energies to disk
Timing for Total SCF: 5350.00s (wall), 10645.13s (cpu)
<S^2> of polarized wavefunction after polarization iterations 0.0000000000
relaxing scfmi constraint to allow all rotations in the entire AO span
Doing General SCFMI
 Exchange:     0.1670 Hartree-Fock + 1.0000 wB97X-V + LR-HF
 Correlation:  1.0000 wB97X-V
 Using Euler-Maclaurin-Lebedev (99,590) quadrature formula
 Nonlocal Correlation:  VV10 with C = 0.0100 and b = 6.00 and scale = 1.00000
 Grid used for NLC:  SG-1 standard quadrature
performing fock build at end of subrot_r(subrot) constructor so that all methods have access
<S^2> of polarized wavefunction before ct-allowed iterations 0.0000000000
Beginning iterations for the determination of the CT-Allowed wavefunction
Energy prior to optimization (guess energy) = -575.471785560654
Begin Timing: Total SCF Calculation
begin iterations for algorithm: DIIS         
the SCF tolerance is set to 1.00e-08
    1    -575.4717855607      1.58e-04     00000 
    2    -575.4763909595      2.59e-05     00000 
    3    -575.4765764780      1.37e-05     00000 
    4    -575.4765951636      5.90e-06     00000 
    5    -575.4766002537      1.66e-06     00000 
    6    -575.4766006538      5.63e-07     00000 
    7    -575.4766007374      2.48e-07     00000 
    8    -575.4766007516      5.42e-08     00000 
    9    -575.4766007531      2.16e-08     00000 
   10    -575.4766007533      9.61e-09     00000 Convergence criterion met
write pseudocanon occs and virts to disk
write pseudocanon orbital energies to disk
Timing for Total SCF: 4045.00s (wall), 8049.89s (cpu)
<S^2> of ct_allowed wavefunction after ct-allowed iterations 0.0000000000

================================
        Results of EDA2         
================================
Basic EDA Quantities
--------------------
Fragment Energies (Ha):
1 -228.6427604473
2 -346.8171941862
--------------------
  E_prp (kJ/mol) = -0.0000
  E_sol (kJ/mol) = 32.8944
  E_frz (kJ/mol) = -54.0269
  E_pol (kJ/mol) = -9.9301
  E_vct (kJ/mol) = -12.6424
  E_int (kJ/mol) = -43.7049
--------------------


Initial Wavefunction Decomposition
--------------------
  --------------------
  Orthogonal Fragment Subspace Decomposition:
  --------------------
     E_elec   (ELEC)   (kJ/mol) = -136.1878
     E_pauli  (PAULI)  (kJ/mol) = 97.7687
     E_disp   (DISP)   (kJ/mol) = -15.6077
     --------------------
     Terms summing to E_pauli:
     --------------------
        E_kep_pauli       (kJ/mol) = 120.0638
        E_disp_free_pauli (kJ/mol) = -22.2952
  --------------------
  Classical Frozen Decomposition:
  --------------------
     E_cls_elec  (CLS ELEC)  (kJ/mol) = -89.4413
     E_cls_pauli (CLS PAULI) (kJ/mol) = 35.4145
    [E_mod_pauli (MOD PAULI) (kJ/mol) = 51.0222 (CLS PAULI - DISP from orthogonal decomposition) ]
  --------------------
--------------------

Simplified EDA Summary (kJ/mol)
--------------------
 PREPARATION     -0.0000
 SOLVATION       32.8944
 FROZEN          -38.4192      (does not include dispersion)
[PAULI           97.7687]     (if this is negligible, then frozen describes electrostatics)
 DISPERSION      -15.6077
 POLARIZATION    -9.9301
 CHARGE TRANSFER -12.6424
 TOTAL           -43.7049     (PRP + SOL + FRZ + DISP + POL + CT)
--------------------
 
 --------------------------------------------------------------
 
                    Orbital Energies (a.u.)
 --------------------------------------------------------------
 
 Alpha MOs
 -- Occupied --
-19.2193 -19.1361 -19.1292 -10.3365 -10.3240 -10.2684 -10.2676 -10.2665
-10.2627 -10.2596 -10.2579 -10.2448  -1.1726  -1.1432  -1.0425  -0.9879
 -0.8937  -0.8770  -0.8335  -0.8020  -0.7397  -0.7043  -0.6526  -0.6054
 -0.5923  -0.5719  -0.5439  -0.5344  -0.5337  -0.5321  -0.5237  -0.5227
 -0.5109  -0.5014  -0.4750  -0.4665  -0.4507  -0.4476  -0.4330  -0.4292
 -0.3468  -0.3411  -0.3367  -0.3190  -0.3021
 -- Virtual --
  0.0565   0.0655   0.0680   0.0785   0.0829   0.0881   0.0932   0.0954
  0.1083   0.1132   0.1178   0.1204   0.1340   0.1381   0.1476   0.1525
  0.1539   0.1556   0.1621   0.1694   0.1815   0.1846   0.1908   0.1927
  0.2019   0.2080   0.2180   0.2233   0.2253   0.2312   0.2331   0.2425
  0.2451   0.2466   0.2564   0.2595   0.2686   0.2709   0.2742   0.2787
  0.2828   0.2912   0.2970   0.3002   0.3031   0.3080   0.3091   0.3138
  0.3211   0.3244   0.3316   0.3335   0.3390   0.3410   0.3504   0.3518
  0.3528   0.3605   0.3637   0.3653   0.3689   0.3719   0.3758   0.3762
  0.3802   0.3846   0.3926   0.3958   0.3968   0.3972   0.4030   0.4076
  0.4091   0.4196   0.4210   0.4246   0.4279   0.4308   0.4369   0.4428
  0.4474   0.4518   0.4559   0.4609   0.4638   0.4699   0.4717   0.4753
  0.4778   0.4809   0.4827   0.4910   0.4948   0.4999   0.5039   0.5061
  0.5094   0.5133   0.5177   0.5256   0.5324   0.5354   0.5494   0.5503
  0.5564   0.5638   0.5658   0.5698   0.5749   0.5830   0.5852   0.5859
  0.5973   0.6009   0.6088   0.6126   0.6198   0.6261   0.6377   0.6398
  0.6440   0.6525   0.6582   0.6654   0.6691   0.6741   0.6756   0.6827
  0.6912   0.6936   0.6991   0.7045   0.7071   0.7090   0.7195   0.7305
  0.7373   0.7384   0.7471   0.7505   0.7556   0.7583   0.7634   0.7685
  0.7728   0.7798   0.7836   0.7885   0.7931   0.7993   0.8023   0.8040
  0.8079   0.8105   0.8146   0.8215   0.8315   0.8331   0.8398   0.8453
  0.8468   0.8507   0.8545   0.8552   0.8608   0.8671   0.8743   0.8814
  0.8858   0.8955   0.9035   0.9099   0.9221   0.9263   0.9381   0.9441
  0.9505   0.9715   0.9817   0.9849   1.0011   1.0059   1.0141   1.0226
  1.0334   1.0390   1.0532   1.0552   1.0611   1.0656   1.0702   1.0834
  1.0907   1.0991   1.1044   1.1179   1.1301   1.1428   1.1504   1.1579
  1.1652   1.1783   1.1880   1.2159   1.2311   1.2499   1.2764   1.2818
  1.3045   1.3080   1.3180   1.3332   1.3350   1.3592   1.3613   1.3732
  1.3756   1.3829   1.3959   1.4059   1.4196   1.4326   1.4406   1.4671
  1.4822   1.4837   1.4934   1.4983   1.5445   1.5508   1.5863   1.6180
  1.6359   1.6442   1.6541   1.6621   1.6721   1.7014   1.7206   1.7255
  1.7430   1.7464   1.8040   1.8225   1.8347   1.8448   1.8506   1.8849
  1.8931   1.8990   1.9149   1.9246   1.9389   1.9457   1.9494   1.9590
  1.9635   1.9726   1.9797   1.9868   1.9919   2.0022   2.0075   2.0283
  2.0337   2.0520   2.0644   2.0776   2.0943   2.1011   2.1082   2.1210
  2.1345   2.1410   2.1599   2.1666   2.1903   2.2098   2.2293   2.2339
  2.2367   2.2509   2.2637   2.2909   2.2972   2.3112   2.3320   2.3467
  2.3626   2.3713   2.3813   2.4108   2.4196   2.4440   2.4477   2.4512
  2.4824   2.5069   2.5241   2.5334   2.5415   2.5666   2.5805   2.5919
  2.5976   2.6163   2.6272   2.6329   2.6384   2.6433   2.6614   2.6791
  2.6900   2.7022   2.7373   2.7543   2.7808   2.7877   2.7960   2.8084
  2.8175   2.8296   2.8399   2.8604   2.8902   2.8978   2.9100   2.9302
  2.9468   2.9488   2.9580   2.9647   2.9777   2.9888   2.9967   3.0026
  3.0282   3.0295   3.0533   3.0787   3.0871   3.0974   3.1132   3.1437
  3.1573   3.1769   3.1853   3.1912   3.2132   3.2207   3.2311   3.2359
  3.2557   3.2622   3.2734   3.2755   3.2920   3.3042   3.3218   3.3363
  3.3422   3.3692   3.3893   3.3996   3.4004   3.4143   3.4213   3.4231
  3.4387   3.4459   3.4656   3.4706   3.4773   3.4863   3.5063   3.5230
  3.5315   3.5402   3.5434   3.5539   3.5561   3.5693   3.5708   3.5856
  3.5882   3.6022   3.6116   3.6198   3.6217   3.6418   3.6676   3.6839
  3.6884   3.6921   3.7109   3.7202   3.7340   3.7600   3.7618   3.7723
  3.7984   3.8182   3.8467   3.8535   3.8919   3.9053   3.9575   3.9665
  3.9770   3.9979   4.0234   4.0538   4.0585   4.0903   4.1133   4.1525
  4.2040   4.2324   4.2729   4.2987   4.3049   4.3175   4.3292   4.3469
  4.3530   4.3729   4.3859   4.3957   4.4084   4.4591   4.4755   4.5353
  4.5591   4.5815   4.6157   4.6272   4.6332   4.6828   4.7538   4.7618
  4.8112   4.8230   4.8266   4.8871   4.9218   4.9388   4.9990   5.0512
  5.0834   5.1093   5.1568   5.1820   5.3202   5.3283   5.3532   5.3583
  5.3676   5.3789   5.4286   5.4653   5.4958   5.5545   5.6352   5.6703
  5.7111   5.7408   5.7787   5.7911   5.8155   5.9803   6.0382   6.2170
  6.2660   6.3633   6.4136   6.5203   6.5932   6.6586   6.6740   6.6835
  6.7570   6.7690   6.8015   6.9183   6.9594   7.0150   7.0558   7.1107
  7.2704   7.3438   7.3789   7.3973   7.4651   7.5488  22.5998  22.6767
 22.7098  22.9672  23.0224  23.0621  23.2083  23.5358  23.7700  44.2971
 44.4100  44.5036
 --------------------------------------------------------------
 
          Ground-State Mulliken Net Atomic Charges

     Atom                 Charge (a.u.)
  ----------------------------------------
      1 C                    -0.519383
      2 C                     0.346152
      3 O                    -0.710457
      4 O                    -0.674878
      5 H                     0.188899
      6 H                     0.173309
      7 H                     0.167872
      8 C                    -1.046977
      9 C                     0.482651
     10 C                    -0.099184
     11 C                    -0.861605
     12 C                    -0.579902
     13 C                    -0.458346
     14 C                     0.584943
     15 O                    -0.458590
     16 H                     0.286929
     17 H                     0.443730
     18 H                     0.338678
     19 H                     0.324670
     20 H                     0.311586
     21 H                     0.274469
     22 H                     0.272833
     23 H                     0.212599
  ----------------------------------------
  Sum of atomic charges =    -1.000000

 -----------------------------------------------------------------
                    Cartesian Multipole Moments
 -----------------------------------------------------------------
    Charge (ESU x 10^10)
                -4.8032
    Dipole Moment (Debye)
         X       5.3674      Y      -9.8562      Z       8.1704
       Tot      13.8820
    Quadrupole Moments (Debye-Ang)
        XX     -84.5219     XY      12.9687     YY     -95.1320
        XZ     -14.4793     YZ      20.5715     ZZ     -96.3424
    Octopole Moments (Debye-Ang^2)
       XXX       3.2527    XXY     -19.8538    XYY      46.7092
       YYY     -57.5489    XXZ      16.9428    XYZ     -37.1525
       YYZ      65.7297    XZZ      27.7930    YZZ     -65.5969
       ZZZ      61.5202
    Hexadecapole Moments (Debye-Ang^3)
      XXXX    -398.1357   XXXY     219.8128   XXYY    -665.8274
      XYYY     306.1014   YYYY   -3287.7814   XXXZ     -71.5726
      XXYZ     405.3591   XYYZ    -138.5174   YYYZ    1154.8346
      XXZZ    -426.1028   XYZZ     189.3380   YYZZ    -981.8064
      XZZZ    -177.4289   YZZZ    1115.3681   ZZZZ   -1884.7728
 -----------------------------------------------------------------
Archival summary:
1\1\nid00537\SP\ProcedureUnspecified\BasisUnspecified\3911(1-,1)\meili\MonSep2705:32:192021MonSep2705:32:192021\0\\#,ProcedureUnspecified,BasisUnspecified,\\-1,1\O\H,1,0.975149\C,1,1.36014,2,110.29\C,3,1.39077,1,119.649,2,3.30262,0\H,4,1.07848,3,119.934,1,-0.335653,0\C,4,1.38964,3,119.812,1,-179.933,0\H,6,1.08254,4,119.52,3,179.399,0\C,6,1.39213,4,120.769,3,-0.672014,0\C,3,1.39293,1,120.325,2,-176.706,0\H,9,1.07702,3,119.926,1,-0.0634392,0\C,9,1.39107,3,119.728,1,-179.872,0\H,11,1.07854,9,119.987,3,178.593,0\C,8,1.50787,6,120.365,4,179.032,0\H,13,1.08818,8,109.229,6,159.567,0\H,13,1.09106,8,109.195,6,41.3436,0\H,13,1.1,8,112.53,6,-80.4247,0\O,2,1.86464,1,176.818,3,109.544,0\C,17,1.25219,2,125.318,1,67.1339,0\O,18,1.25185,17,122.544,2,-71.075,0\C,18,1.52784,17,119.692,2,109.654,0\H,20,1.09061,18,109.519,17,-132.52,0\H,20,1.09173,18,108.227,17,110.216,0\H,20,1.1,18,112.958,17,-9.83109,0\\\@

 Total job time:  59402.46s(wall), 32041.13s(cpu) 
 Mon Sep 27 05:32:20 2021

        *************************************************************
        *                                                           *
        *  Thank you very much for using Q-Chem.  Have a nice day.  *
        *                                                           *
        *************************************************************


