
Running Job 1 of 1 SSI-095ASP-102TYR-1_SMD_TZVPD.in
qchem SSI-095ASP-102TYR-1_SMD_TZVPD.in_10513.0 /tmp/qchem10513/ 0
/global/common/cori/software/qchem/5.2/exe/qcprog.exe_s SSI-095ASP-102TYR-1_SMD_TZVPD.in_10513.0 /tmp/qchem10513/
                  Welcome to Q-Chem
     A Quantum Leap Into The Future Of Chemistry


 Q-Chem 5.2, Q-Chem, Inc., Pleasanton, CA (2019)

 License issued to: National Energy Research Scientific Computing Center

 Yihan Shao,  Zhengting Gan,  E. Epifanovsky,  A. T. B. Gilbert,  M. Wormit,  
 J. Kussmann,  A. W. Lange,  A. Behn,  Jia Deng,  Xintian Feng,  D. Ghosh,  
 M. Goldey,  P. R. Horn,  L. D. Jacobson,  I. Kaliman,  T. Kus,  A. Landau,  
 Jie Liu,  E. I. Proynov,  R. M. Richard,  R. P. Steele,  E. J. Sundstrom,  
 H. L. Woodcock III,  P. M. Zimmerman,  D. Zuev,  B. Albrecht,  E. Alguire,  
 S. A. Baeppler,  D. Barton,  Z. Benda,  Y. A. Bernard,  E. J. Berquist,  
 K. B. Bravaya,  H. Burton,  D. Casanova,  Chun-Min Chang,  Yunqing Chen,  
 A. Chien,  K. D. Closser,  M. P. Coons,  S. Coriani,  S. Dasgupta,  
 A. L. Dempwolff,  M. Diedenhofen,  Hainam Do,  R. G. Edgar,  Po-Tung Fang,  
 S. Faraji,  S. Fatehi,  Qingguo Feng,  K. D. Fenk,  J. Fosso-Tande,  
 J. Gayvert,  Qinghui Ge,  A. Ghysels,  G. Gidofalvi,  J. Gomes,  
 J. Gonthier,  A. Gunina,  D. Hait,  M. W. D. Hanson-Heine,  
 P. H. P. Harbach,  A. W. Hauser,  M. F. Herbst,  J. E. Herr,  
 E. G. Hohenstein,  Z. C. Holden,  Kerwin Hui,  B. C. Huynh,  T.-C. Jagau,  
 Hyunjun Ji,  B. Kaduk,  K. Khistyaev,  Jaehoon Kim,  P. Klunzinger,  K. Koh,  
 D. Kosenkov,  L. Koulias,  T. Kowalczyk,  C. M. Krauter,  A. Kunitsa,  
 Ka Un Lao,  A. Laurent,  K. V. Lawler,  Joonho Lee,  D. Lefrancois,  
 S. Lehtola,  D. S. Levine,  Yi-Pei Li,  You-Sheng Lin,  Fenglai Liu,  
 E. Livshits,  A. Luenser,  P. Manohar,  E. Mansoor,  S. F. Manzer,  
 Shan-Ping Mao,  Yuezhi Mao,  N. Mardirossian,  A. V. Marenich,  
 T. Markovich,  L. A. Martinez-Martinez,  S. A. Maurer,  N. J. Mayhall,  
 S. C. McKenzie,  J.-M. Mewes,  P. Morgante,  A. F. Morrison,  
 J. W. Mullinax,  K. Nanda,  T. S. Nguyen-Beck,  R. Olivares-Amaya,  
 J. A. Parkhill,  Zheng Pei,  T. M. Perrine,  F. Plasser,  P. Pokhilko,  
 S. Prager,  A. Prociuk,  E. Ramos,  D. R. Rehn,  F. Rob,  M. Scheurer,  
 M. Schneider,  N. Sergueev,  S. M. Sharada,  S. Sharma,  D. W. Small,  
 T. Stauch,  T. Stein,  Yu-Chuan Su,  A. J. W. Thom,  A. Tkatchenko,  
 T. Tsuchimochi,  N. M. Tubman,  L. Vogt,  M. L. Vidal,  O. Vydrov,  
 M. A. Watson,  J. Wenzel,  M. de Wergifosse,  T. A. Wesolowski,  A. White,  
 J. Witte,  A. Yamada,  Jun Yang,  K. Yao,  S. Yeganeh,  S. R. Yost,  
 Zhi-Qiang You,  A. Zech,  Igor Ying Zhang,  Xing Zhang,  Yan Zhao,  
 Ying Zhu,  B. R. Brooks,  G. K. L. Chan,  C. J. Cramer,  M. S. Gordon,  
 W. J. Hehre,  A. Klamt,  M. W. Schmidt,  C. D. Sherrill,  D. G. Truhlar,  
 A. Aspuru-Guzik,  R. Baer,  A. T. Bell,  N. A. Besley,  Jeng-Da Chai,  
 A. E. DePrince, III,  R. A. DiStasio Jr.,  A. Dreuw,  B. D. Dunietz,  
 T. R. Furlani,  Chao-Ping Hsu,  Yousung Jung,  Jing Kong,  D. S. Lambrecht,  
 WanZhen Liang,  C. Ochsenfeld,  V. A. Rassolov,  L. V. Slipchenko,  
 J. E. Subotnik,  T. Van Voorhis,  J. M. Herbert,  A. I. Krylov,  
 P. M. W. Gill,  M. Head-Gordon

 Contributors to earlier versions of Q-Chem not listed above: 
 R. D. Adamson,  B. Austin,  J. Baker,  G. J. O. Beran,  K. Brandhorst,  
 S. T. Brown,  E. F. C. Byrd,  A. K. Chakraborty,  C.-L. Cheng,  
 Siu Hung Chien,  D. M. Chipman,  D. L. Crittenden,  H. Dachsel,  
 R. J. Doerksen,  A. D. Dutoi,  L. Fusti-Molnar,  W. A. Goddard III,  
 A. Golubeva-Zadorozhnaya,  S. R. Gwaltney,  G. Hawkins,  A. Heyden,  
 S. Hirata,  G. Kedziora,  F. J. Keil,  C. Kelley,  Jihan Kim,  R. A. King,  
 R. Z. Khaliullin,  P. P. Korambath,  W. Kurlancheek,  A. M. Lee,  M. S. Lee,  
 S. V. Levchenko,  Ching Yeh Lin,  D. Liotard,  R. C. Lochan,  I. Lotan,  
 P. E. Maslen,  N. Nair,  D. P. O'Neill,  D. Neuhauser,  E. Neuscamman,  
 C. M. Oana,  R. Olson,  B. Peters,  R. Peverati,  P. A. Pieniazek,  
 Y. M. Rhee,  J. Ritchie,  M. A. Rohrdanz,  E. Rosta,  N. J. Russ,  
 H. F. Schaefer III,  N. E. Schultz,  N. Shenvi,  A. C. Simmonett,  A. Sodt,  
 D. Stuck,  K. S. Thanthiriwatte,  V. Vanovschi,  Tao Wang,  A. Warshel,  
 C. F. Williams,  Q. Wu,  X. Xu,  W. Zhang

 Please cite Q-Chem as follows:
 Y. Shao et al., Mol. Phys. 113, 184-215 (2015)
 DOI: 10.1080/00268976.2014.952696

 Q-Chem 5.2.0 for Intel X86 EM64T Linux

 Parts of Q-Chem use Armadillo 8.300.2 (Tropical Shenanigans).
 http://arma.sourceforge.net/

 Q-Chem begins on Sun Sep 26 12:27:53 2021  

Host: cori01
0

     Scratch files written to /tmp/qchem10513//
 May1019 |scratch|qcdevops|jenkins|workspace|build_RNUM -1
Processing $rem in /global/common/cori/software/qchem/5.2/config/preferences:
	 MEM_TOTAL  96000 
NAlpha2: 90
NElect   90
Mult     1
Symmetry turned off for PCM/SM12/SMD calculation

 Q-Chem warning in module libgen/rem_setup.C, line 2803:

 Neither GIA nor STOLL is specified by user. Use STOLL as the default


Checking the input file for inconsistencies... 	...done.

--------------------------------------------------------------
User input:
--------------------------------------------------------------
$comment
SSI-095ASP-102TYR-1.pdb
$end

$molecule
-1 1
--
-1 1
C   -3.047175650722   -3.081752353843   -0.093081316209
C   -2.180175650722   -2.108752353843    0.692918683791
O   -1.039175650722   -2.480752353843    1.027918683791
O   -2.668175650722   -0.988752353843    0.976918683791
H   -3.342175650722   -3.900752353843    0.556918683791
H   -2.472175650722   -3.493752353843   -0.919081316209
H   -3.955613650722   -2.588930353843   -0.469733316209
--
0 1
C    2.315824349278    2.724247646157   -2.597081316209
C    0.291824349278    0.165247646157   -0.623081316209
C    0.696824349278    0.452247646157    0.685918683791
C    0.815824349278    0.909247646157   -1.684081316209
C    1.740824349278    1.929247646157   -1.454081316209
C    1.606824349278    1.477247646157    0.924918683791
C    2.121824349278    2.209247646157   -0.142081316209
O    0.236824349278   -0.262752353843    1.744918683791
H   -0.411175650722   -0.630752353843   -0.805081316209
H    0.512824349278    0.681247646157   -2.698081316209
H    1.923824349278    1.702247646157    1.933918683791
H    0.611824349278    0.054247646157    2.567918683791
H    2.135824349278    2.201247646157   -3.538081316209
H    3.396824349278    2.792247646157   -2.459081316209
H    2.838824349278    2.997247646157    0.051918683791
H    1.898398349278    3.740274146157   -2.655782316209
$end

$rem
JOBTYPE			EDA
EDA2			1
method			wB97X-V
BASIS			def2-TZVPD
XC_GRID			000099000590
NL_GRID			1
UNRESTRICTED		FALSE
MAX_SCF_CYCLES		200
SYMMETRY		FALSE
SYM_IGNORE		TRUE
MEM_STATIC		2000
BASIS_LIN_DEP_THRESH 	6
THRESH 			14
SCF_CONVERGENCE 	8
SCF_PRINT_FRGM 		TRUE
SOLVENT_METHOD          SMD
$end

$SMX
SOLVENT			WATER
$END
--------------------------------------------------------------
 ----------------------------------------------------------------
             Standard Nuclear Orientation (Angstroms)
    I     Atom           X                Y                Z
 ----------------------------------------------------------------
    1      C      -3.0471756507    -3.0817523538    -0.0930813162
    2      C      -2.1801756507    -2.1087523538     0.6929186838
    3      O      -1.0391756507    -2.4807523538     1.0279186838
    4      O      -2.6681756507    -0.9887523538     0.9769186838
    5      H      -3.3421756507    -3.9007523538     0.5569186838
    6      H      -2.4721756507    -3.4937523538    -0.9190813162
    7      H      -3.9556136507    -2.5889303538    -0.4697333162
    8      C       2.3158243493     2.7242476462    -2.5970813162
    9      C       0.2918243493     0.1652476462    -0.6230813162
   10      C       0.6968243493     0.4522476462     0.6859186838
   11      C       0.8158243493     0.9092476462    -1.6840813162
   12      C       1.7408243493     1.9292476462    -1.4540813162
   13      C       1.6068243493     1.4772476462     0.9249186838
   14      C       2.1218243493     2.2092476462    -0.1420813162
   15      O       0.2368243493    -0.2627523538     1.7449186838
   16      H      -0.4111756507    -0.6307523538    -0.8050813162
   17      H       0.5128243493     0.6812476462    -2.6980813162
   18      H       1.9238243493     1.7022476462     1.9339186838
   19      H       0.6118243493     0.0542476462     2.5679186838
   20      H       2.1358243493     2.2012476462    -3.5380813162
   21      H       3.3968243493     2.7922476462    -2.4590813162
   22      H       2.8388243493     2.9972476462     0.0519186838
   23      H       1.8983983493     3.7402741462    -2.6557823162
 ----------------------------------------------------------------
 Nuclear Repulsion Energy =         651.96026456 hartrees
 There are       45 alpha and       45 beta electrons
 Requested basis set is def2-TZVPD
 There are 214 shells and 552 basis functions

 Total QAlloc Memory Limit  96000 MB
 Mega-Array Size      1956 MB
 MEM_STATIC part      2000 MB
 
 Citation of the SMD model:
 Marenich, A.V.; Cramer, C.J.; Truhlar, D.G.
 J. Phys. Chem. B 2009, 113, 6378-6396.
 iSolventCode=           1
 Solvent: water                                                           
 
 vradii
            1           2           3           4           5           6
    1   1.8500000   1.8500000   1.5200000   1.5200000   1.2000000   1.2000000
            7           8           9          10          11          12
    1   1.2000000   1.8500000   1.8500000   1.8500000   1.8500000   1.8500000
           13          14          15          16          17          18
    1   1.8500000   1.8500000   1.5200000   1.2000000   1.2000000   1.2000000
           19          20          21          22          23
    1   1.2000000   1.2000000   1.2000000   1.2000000   1.2000000
 Changing PCM_VDW_RADII to SMD_RADIUS
 Discretize the solute cavity surface with Lebedev spheres
	Using 110 Lebedev grid points for each H atom
	Using 194 Lebedev grid points for other atoms
	Atomic van der Waals radii will be scaled by 1.20
 Remove points where switching function is < 1.0e-08
 Keep 1814 surface tesserae and discard 1724 interior tesserae
 Molecular Surface Area = 213.966 Angst**2
 A cutoff of  1.0D-14 yielded  19796 shell pairs
 There are    133180 function pairs (    169327 Cartesian)
 Smallest overlap matrix eigenvalue = 4.96E-07
 Linear dependence detected in AO basis
 Tighter screening thresholds may be required for diffuse basis sets
 Use S2THRESH > 14 and THRESH = 14 in case of SCF convergence issues
 Number of orthogonalized atomic orbitals = 550
 Maximum deviation from orthogonality = 2.244E-10

 Scale SEOQF with 1.000000e-01/1.000000e-01/1.000000e-01

 Standard Electronic Orientation quadrupole field applied
 Nucleus-field energy     =     0.0000000167 hartrees

 -----------------------------------------------------------------------
  General SCF calculation program by
  Eric Jon Sundstrom, Paul Horn, Yuezhi Mao, Dmitri Zuev, Alec White,
  David Stuck, Shaama M.S., Shane Yost, Joonho Lee, David Small,
  Daniel Levine, Susi Lehtola, Hugh Burton, Evgeny Epifanovsky
 -----------------------------------------------------------------------
================================================================
                 ALMO-EDA with the EDA2 driver                  
================================================================
 The second-generation ALMO-EDA (for DFT):                      
 P. R. Horn, Y. Mao and M. Head-Gordon, PCCP, 18, 23067 (2016)  
 Decomposition of the frozen energy:                            
 P. R. Horn, Y. Mao and M. Head-Gordon, JCP, 144, 114107 (2016) 
 FERF model for polarization:                                   
 P. R. Horn and M. Head-Gordon, JCP, 143, 114111 (2015)         
Using eda2 option set 1
Option set summary: Frozen orbital wavefunction, initial wavefunction decomposition, and nDQ polarization.
--------------------------------
Printing EDA Options
--------------------------------
eda_child_super_basis      0
fragmo_guess_mode          0
child_mp                   1
child_mp_orders            232
cls_elec                   1
cls_disp                   0
scfmi_mode                 1
scfmi_occs                 0
scfmi_virts                0
frz_relax                  0
frz_relax_method           0
dc_pen_start               0
dc_pen_conv                0
dc_pen_increment           0
dc_pen_steps               0
dc_pen_thresh_factor       0
dc_pen_pre_newton_thresh   0
frz_ortho_decomp           1
frz_ortho_decomp_conv      6
frgm_method                2
scfmi_freeze_ss            0
separate_rehyb             0
plot_diff_den              0
eda_nocv                   0
eda_vct_relax              1
disp_free_x                0
disp_free_c                0
eda_bsse                   0
eda_pct_a                  0
eda_covp                   0
--------------------------------
Attempting to make child job directory: /tmp/qchem10513//Frg1/
Attempting to make child job directory: /tmp/qchem10513//Frg2/
Creating input file /tmp/qchem10513/Frg1.input
using default PutDataFrgm: nothing
calling putenv with: QCSCRATCH=/tmp/qchem10513/ 
calling putenv with: QCLOCALSCR=/tmp/qchem10513/ 
Spawning Job For Fragment 0
                  Welcome to Q-Chem
     A Quantum Leap Into The Future Of Chemistry


 Q-Chem 5.2, Q-Chem, Inc., Pleasanton, CA (2019)

 License issued to: National Energy Research Scientific Computing Center

 Yihan Shao,  Zhengting Gan,  E. Epifanovsky,  A. T. B. Gilbert,  M. Wormit,  
 J. Kussmann,  A. W. Lange,  A. Behn,  Jia Deng,  Xintian Feng,  D. Ghosh,  
 M. Goldey,  P. R. Horn,  L. D. Jacobson,  I. Kaliman,  T. Kus,  A. Landau,  
 Jie Liu,  E. I. Proynov,  R. M. Richard,  R. P. Steele,  E. J. Sundstrom,  
 H. L. Woodcock III,  P. M. Zimmerman,  D. Zuev,  B. Albrecht,  E. Alguire,  
 S. A. Baeppler,  D. Barton,  Z. Benda,  Y. A. Bernard,  E. J. Berquist,  
 K. B. Bravaya,  H. Burton,  D. Casanova,  Chun-Min Chang,  Yunqing Chen,  
 A. Chien,  K. D. Closser,  M. P. Coons,  S. Coriani,  S. Dasgupta,  
 A. L. Dempwolff,  M. Diedenhofen,  Hainam Do,  R. G. Edgar,  Po-Tung Fang,  
 S. Faraji,  S. Fatehi,  Qingguo Feng,  K. D. Fenk,  J. Fosso-Tande,  
 J. Gayvert,  Qinghui Ge,  A. Ghysels,  G. Gidofalvi,  J. Gomes,  
 J. Gonthier,  A. Gunina,  D. Hait,  M. W. D. Hanson-Heine,  
 P. H. P. Harbach,  A. W. Hauser,  M. F. Herbst,  J. E. Herr,  
 E. G. Hohenstein,  Z. C. Holden,  Kerwin Hui,  B. C. Huynh,  T.-C. Jagau,  
 Hyunjun Ji,  B. Kaduk,  K. Khistyaev,  Jaehoon Kim,  P. Klunzinger,  K. Koh,  
 D. Kosenkov,  L. Koulias,  T. Kowalczyk,  C. M. Krauter,  A. Kunitsa,  
 Ka Un Lao,  A. Laurent,  K. V. Lawler,  Joonho Lee,  D. Lefrancois,  
 S. Lehtola,  D. S. Levine,  Yi-Pei Li,  You-Sheng Lin,  Fenglai Liu,  
 E. Livshits,  A. Luenser,  P. Manohar,  E. Mansoor,  S. F. Manzer,  
 Shan-Ping Mao,  Yuezhi Mao,  N. Mardirossian,  A. V. Marenich,  
 T. Markovich,  L. A. Martinez-Martinez,  S. A. Maurer,  N. J. Mayhall,  
 S. C. McKenzie,  J.-M. Mewes,  P. Morgante,  A. F. Morrison,  
 J. W. Mullinax,  K. Nanda,  T. S. Nguyen-Beck,  R. Olivares-Amaya,  
 J. A. Parkhill,  Zheng Pei,  T. M. Perrine,  F. Plasser,  P. Pokhilko,  
 S. Prager,  A. Prociuk,  E. Ramos,  D. R. Rehn,  F. Rob,  M. Scheurer,  
 M. Schneider,  N. Sergueev,  S. M. Sharada,  S. Sharma,  D. W. Small,  
 T. Stauch,  T. Stein,  Yu-Chuan Su,  A. J. W. Thom,  A. Tkatchenko,  
 T. Tsuchimochi,  N. M. Tubman,  L. Vogt,  M. L. Vidal,  O. Vydrov,  
 M. A. Watson,  J. Wenzel,  M. de Wergifosse,  T. A. Wesolowski,  A. White,  
 J. Witte,  A. Yamada,  Jun Yang,  K. Yao,  S. Yeganeh,  S. R. Yost,  
 Zhi-Qiang You,  A. Zech,  Igor Ying Zhang,  Xing Zhang,  Yan Zhao,  
 Ying Zhu,  B. R. Brooks,  G. K. L. Chan,  C. J. Cramer,  M. S. Gordon,  
 W. J. Hehre,  A. Klamt,  M. W. Schmidt,  C. D. Sherrill,  D. G. Truhlar,  
 A. Aspuru-Guzik,  R. Baer,  A. T. Bell,  N. A. Besley,  Jeng-Da Chai,  
 A. E. DePrince, III,  R. A. DiStasio Jr.,  A. Dreuw,  B. D. Dunietz,  
 T. R. Furlani,  Chao-Ping Hsu,  Yousung Jung,  Jing Kong,  D. S. Lambrecht,  
 WanZhen Liang,  C. Ochsenfeld,  V. A. Rassolov,  L. V. Slipchenko,  
 J. E. Subotnik,  T. Van Voorhis,  J. M. Herbert,  A. I. Krylov,  
 P. M. W. Gill,  M. Head-Gordon

 Contributors to earlier versions of Q-Chem not listed above: 
 R. D. Adamson,  B. Austin,  J. Baker,  G. J. O. Beran,  K. Brandhorst,  
 S. T. Brown,  E. F. C. Byrd,  A. K. Chakraborty,  C.-L. Cheng,  
 Siu Hung Chien,  D. M. Chipman,  D. L. Crittenden,  H. Dachsel,  
 R. J. Doerksen,  A. D. Dutoi,  L. Fusti-Molnar,  W. A. Goddard III,  
 A. Golubeva-Zadorozhnaya,  S. R. Gwaltney,  G. Hawkins,  A. Heyden,  
 S. Hirata,  G. Kedziora,  F. J. Keil,  C. Kelley,  Jihan Kim,  R. A. King,  
 R. Z. Khaliullin,  P. P. Korambath,  W. Kurlancheek,  A. M. Lee,  M. S. Lee,  
 S. V. Levchenko,  Ching Yeh Lin,  D. Liotard,  R. C. Lochan,  I. Lotan,  
 P. E. Maslen,  N. Nair,  D. P. O'Neill,  D. Neuhauser,  E. Neuscamman,  
 C. M. Oana,  R. Olson,  B. Peters,  R. Peverati,  P. A. Pieniazek,  
 Y. M. Rhee,  J. Ritchie,  M. A. Rohrdanz,  E. Rosta,  N. J. Russ,  
 H. F. Schaefer III,  N. E. Schultz,  N. Shenvi,  A. C. Simmonett,  A. Sodt,  
 D. Stuck,  K. S. Thanthiriwatte,  V. Vanovschi,  Tao Wang,  A. Warshel,  
 C. F. Williams,  Q. Wu,  X. Xu,  W. Zhang

 Please cite Q-Chem as follows:
 Y. Shao et al., Mol. Phys. 113, 184-215 (2015)
 DOI: 10.1080/00268976.2014.952696

 Q-Chem 5.2.0 for Intel X86 EM64T Linux

 Parts of Q-Chem use Armadillo 8.300.2 (Tropical Shenanigans).
 http://arma.sourceforge.net/

 Q-Chem begins on Sun Sep 26 12:27:58 2021  

Host: cori01
0

     Scratch files written to /tmp/qchem10513//Frg1//
 May1019 |scratch|qcdevops|jenkins|workspace|build_RNUM -1
Processing $rem in /global/common/cori/software/qchem/5.2/config/preferences:
	 MEM_TOTAL  96000 
NAlpha2: 32
NElect   32
Mult     1
Symmetry turned off for PCM/SM12/SMD calculation

Checking the input file for inconsistencies... 	...done.

--------------------------------------------------------------
User input:
--------------------------------------------------------------
$molecule
-1 1
 6	-3.0471756507	-3.0817523538	-0.0930813162
 6	-2.1801756507	-2.1087523538	0.6929186838
 8	-1.0391756507	-2.4807523538	1.0279186838
 8	-2.6681756507	-0.9887523538	0.9769186838
 1	-3.3421756507	-3.9007523538	0.5569186838
 1	-2.4721756507	-3.4937523538	-0.9190813162
 1	-3.9556136507	-2.5889303538	-0.4697333162
$end
$rem
EDA2		1
METHOD		WB97X-V
BASIS		DEF2-TZVPD
XC_GRID		000099000590
NL_GRID		1
UNRESTRICTED		FALSE
MAX_SCF_CYCLES		200
SYMMETRY		FALSE
SYM_IGNORE		TRUE
BASIS_LIN_DEP_THRESH		6
THRESH		14
SCF_CONVERGENCE		8
SCF_PRINT_FRGM		TRUE
SOLVENT_METHOD		SMD
!required keywords
JOBTYPE		SP
SYM_IGNORE		TRUE
SUBSYSTEM		TRUE
GEN_SCFMAN		TRUE
CHILD_INSTRUCTION		2
SYM_IGNORE		TRUE
SCFMI		0
RI_K 0		
PARI_K 0		
MIN_PARI_K 0		
IARI_K 0		
OCC_RI_K 0		
PURECART		1111
MEM_STATIC		2000
MEM_TOTAL		96000
GUI		0
CHILD_MP		1
CHILD_MP_ORDERS		232
FRZ_RELAX		0
FRZ_RELAX_METHOD		0
EDA_CLS_ELEC		1
EDA_CLS_DISP		0
FRZ_ORTHO_DECOMP		1
EDA2		FALSE
FRGM_METHOD		FALSE
CIS_N_ROOTS  0
LOCAL_CIS    0
CIS_RLX_DNS  1
$end
$smx
SOLVENT			WATER
$end
--------------------------------------------------------------
 ----------------------------------------------------------------
             Standard Nuclear Orientation (Angstroms)
    I     Atom           X                Y                Z
 ----------------------------------------------------------------
    1      C      -3.0471756507    -3.0817523538    -0.0930813162
    2      C      -2.1801756507    -2.1087523538     0.6929186838
    3      O      -1.0391756507    -2.4807523538     1.0279186838
    4      O      -2.6681756507    -0.9887523538     0.9769186838
    5      H      -3.3421756507    -3.9007523538     0.5569186838
    6      H      -2.4721756507    -3.4937523538    -0.9190813162
    7      H      -3.9556136507    -2.5889303538    -0.4697333162
 ----------------------------------------------------------------
 Nuclear Repulsion Energy =         112.76062223 hartrees
 There are       16 alpha and       16 beta electrons
 Requested basis set is def2-TZVPD
 There are 69 shells and 181 basis functions

 Total QAlloc Memory Limit  96000 MB
 Mega-Array Size      1956 MB
 MEM_STATIC part      2000 MB
 
 Citation of the SMD model:
 Marenich, A.V.; Cramer, C.J.; Truhlar, D.G.
 J. Phys. Chem. B 2009, 113, 6378-6396.
 iSolventCode=           1
 Solvent: water                                                           
 
 vradii
            1           2           3           4           5           6
    1   1.8500000   1.8500000   1.5200000   1.5200000   1.2000000   1.2000000
            7
    1   1.2000000
 Changing PCM_VDW_RADII to SMD_RADIUS
 Discretize the solute cavity surface with Lebedev spheres
	Using 110 Lebedev grid points for each H atom
	Using 194 Lebedev grid points for other atoms
	Atomic van der Waals radii will be scaled by 1.20
 Remove points where switching function is < 1.0e-08
 Keep 646 surface tesserae and discard 460 interior tesserae
 Molecular Surface Area = 79.867 Angst**2

                       Distance Matrix (Angstroms)
             C (  1)   C (  2)   O (  3)   O (  4)   H (  5)   H (  6)
   C (  2)  1.521911
   O (  3)  2.376953  1.245990
   O (  4)  2.381006  1.254273  2.209594
   H (  5)  1.086410  2.140094  2.746279  3.018347
   H (  6)  1.087495  2.145235  2.621158  3.147738  1.761001
   H (  7)  1.100000  2.175893  3.280286  2.512144  1.775161  1.794772

 
 A cutoff of  1.0D-14 yielded   2391 shell pairs
 There are     16695 function pairs (     21491 Cartesian)
 Smallest overlap matrix eigenvalue = 1.64E-05

 Scale SEOQF with 1.000000e-01/1.000000e-01/1.000000e-01

 Standard Electronic Orientation quadrupole field applied
 Nucleus-field energy     =     0.0000000168 hartrees
 Guess from superposition of atomic densities
 Warning:  Energy on first SCF cycle will be non-variational
 SAD guess density has 30.625312 electrons

 -----------------------------------------------------------------------
  General SCF calculation program by
  Eric Jon Sundstrom, Paul Horn, Yuezhi Mao, Dmitri Zuev, Alec White,
  David Stuck, Shaama M.S., Shane Yost, Joonho Lee, David Small,
  Daniel Levine, Susi Lehtola, Hugh Burton, Evgeny Epifanovsky
 -----------------------------------------------------------------------
 Exchange:     0.1670 Hartree-Fock + 1.0000 wB97X-V + LR-HF
 Correlation:  1.0000 wB97X-V
 Using Euler-Maclaurin-Lebedev (99,590) quadrature formula
 Nonlocal Correlation:  VV10 with C = 0.0100 and b = 6.00 and scale = 1.00000
 Grid used for NLC:  SG-1 standard quadrature
Energy prior to optimization (guess energy) = -227.768950694538
Begin Timing: Total SCF Calculation
begin iterations for algorithm: DIIS         
the SCF tolerance is set to 1.00e-08
    1    -227.7689506945      1.66e-02     00000 
    2    -225.6644000631      2.48e-02     00000 
    3    -228.6061199379      4.12e-03     00000 
    4    -228.6585760751      1.55e-03     00000 
    5    -228.6652613695      4.95e-04     00000 
    6    -228.6659036773      2.29e-04     00000 
    7    -228.6660599158      4.28e-05     00000 
    8    -228.6660682921      1.29e-05     00000 
    9    -228.6660693526      3.68e-06     00000 
   10    -228.6660694557      1.08e-06     00000 
   11    -228.6660694654      2.14e-07     00000 
   12    -228.6660694658      4.63e-08     00000 
   13    -228.6660694658      1.13e-08     00000 
   14    -228.6660694658      2.79e-09     00000 Convergence criterion met
Timing for Total SCF: 283.00s (wall), 546.74s (cpu)
(3)  G-ENP(liq) elect-nuc-pol free energy of system     -228.666069466 a.u.
(4)  G-CDS(liq) cavity-dispersion-solvent structure 
     free energy                                                3.9143 kcal/mol
(6)  G-S(liq) free energy of system                     -228.659831603 a.u.
E_pcm = -0.1300338161
E_cds = 0.0062378624
Multipole orders to be included
        2
        3
computing dipole RHS
computing quadrupole RHS
total number of RHS in solve_reponses: 8
RHS batch sizes
        8
Beginning Block Conjugate Gradient Iterations. Batch Number: 0
computing hessian-vector products by finite difference
              1      6.74e-01     00000 Conjugate Gradient Iteration
computing hessian-vector products by finite difference
              2      2.12e-01     00000 Conjugate Gradient Iteration
computing hessian-vector products by finite difference
              3      5.64e-02     00000 Conjugate Gradient Iteration
computing hessian-vector products by finite difference
              4      1.48e-02     00000 Conjugate Gradient Iteration
computing hessian-vector products by finite difference
              5      2.23e-03     00000 Conjugate Gradient Iteration
computing hessian-vector products by finite difference
              6      5.77e-04     00000 Conjugate Gradient Iteration
computing hessian-vector products by finite difference
              7      8.37e-05     00000 Conjugate Gradient Iteration
computing hessian-vector products by finite difference
              8      1.03e-05     00000 Conjugate Gradient Iteration
computing hessian-vector products by finite difference
              9      1.56e-06     00000 Conjugate Gradient Iteration
computing hessian-vector products by finite difference
             10      1.52e-07     00000 Conjugate Gradient Iteration
computing hessian-vector products by finite difference
             11      1.87e-08     00000 Conjugate Gradient Iteration
computing hessian-vector products by finite difference
             12      5.75e-09     00000 CG Converged
batch 0 complete
Done Calculating Responses
TESTING ORTHOGONALIZATION OF MULTIPOLE BASIS
Multipole virts passed orthogonality test
Virts Per Order
        48
        80
 
 --------------------------------------------------------------
 
                    Orbital Energies (a.u.)
 --------------------------------------------------------------
 
 Alpha MOs
 -- Occupied --
-19.1539 -19.1530 -10.3536 -10.2445  -1.1656  -1.0676  -0.8397  -0.6170
 -0.5480  -0.5459  -0.5422  -0.4833  -0.4629  -0.3665  -0.3556  -0.3465
 -- Virtual --
  0.0670   0.0999   0.1010   0.1077   0.1354   0.1447   0.1460   0.1499
  0.1570   0.1907   0.2031   0.2247   0.2342   0.2391   0.2602   0.2658
  0.2991   0.3150   0.3334   0.3468   0.3537   0.3622   0.3734   0.3845
  0.3877   0.4000   0.4140   0.4267   0.4295   0.4550   0.4664   0.4730
  0.4837   0.4922   0.5042   0.5085   0.5461   0.5599   0.5807   0.6005
  0.6086   0.6253   0.6285   0.6442   0.6560   0.6696   0.6810   0.6968
  0.7091   0.7233   0.7722   0.7935   0.8067   0.8125   0.8323   0.8490
  0.8623   0.9534   0.9718   0.9767   0.9854   1.0324   1.0401   1.1029
  1.1559   1.1975   1.2421   1.2602   1.2748   1.3020   1.3319   1.3478
  1.4341   1.5592   1.5805   1.7348   1.8062   1.8407   1.8532   1.8925
  1.9096   1.9411   1.9509   1.9586   2.0049   2.1009   2.1158   2.1558
  2.1922   2.2052   2.2989   2.3280   2.3994   2.4310   2.4587   2.4771
  2.5657   2.5687   2.6087   2.6499   2.7851   2.8115   2.8757   2.9041
  2.9375   2.9835   3.0173   3.1617   3.1925   3.2466   3.2595   3.2987
  3.3274   3.3401   3.3879   3.3925   3.4236   3.5228   3.5477   3.5615
  3.5949   3.6375   3.6774   3.7110   3.7605   3.8700   3.9352   4.0426
  4.0763   4.1794   4.3368   4.5561   4.6170   4.6657   4.7753   4.8147
  4.9765   5.2957   5.3239   5.3330   5.3408   5.4777   5.6900   5.7239
  5.7850   5.9902   6.2268   6.3053   6.3193   6.5975   6.6059   6.6765
  6.7129   6.7251   6.9284   6.9410   7.0140   7.2090   7.3420   7.3516
  7.3870  22.5959  23.7232  44.1869  44.3218
 --------------------------------------------------------------
 
          Ground-State Mulliken Net Atomic Charges

     Atom                 Charge (a.u.)
  ----------------------------------------
      1 C                    -0.585397
      2 C                     0.496793
      3 O                    -0.768957
      4 O                    -0.772139
      5 H                     0.201740
      6 H                     0.217203
      7 H                     0.210757
  ----------------------------------------
  Sum of atomic charges =    -1.000000

 -----------------------------------------------------------------
                    Cartesian Multipole Moments
 -----------------------------------------------------------------
    Charge (ESU x 10^10)
                -4.8032
    Dipole Moment (Debye)
         X       7.6919      Y       6.8217      Z      -5.9614
       Tot      11.8844
    Quadrupole Moments (Debye-Ang)
        XX     -42.8474     XY      -4.7523     YY     -38.8762
        XZ       9.7428     YZ       9.2022     ZZ     -32.0027
    Octopole Moments (Debye-Ang^2)
       XXX     221.7304    XXY      59.4077    XYY      58.0106
       YYY     201.6597    XXZ     -36.8716    XYZ      -8.7608
       YYZ     -33.6718    XZZ      68.7728    YZZ      66.1285
       ZZZ     -54.2858
    Hexadecapole Moments (Debye-Ang^3)
      XXXX   -1065.2527   XXXY    -393.1559   XXYY    -274.2061
      XYYY    -376.3328   YYYY    -971.3893   XXXZ     141.9395
      XXYZ      35.8563   XYYZ      33.8292   YYYZ     120.9905
      XXZZ    -199.4552   XYZZ    -138.9780   YYZZ    -186.9476
      XZZZ      96.2045   YZZZ      92.5880   ZZZZ    -137.4736
 -----------------------------------------------------------------
Archival summary:
1\1\nid00554\SP\ProcedureUnspecified\BasisUnspecified\223(1-,1)\meili\SunSep2613:45:422021SunSep2613:45:422021\0\\#,ProcedureUnspecified,BasisUnspecified,\\-1,1\C\O,1,1.24599\O,1,1.25427,2,124.195\C,1,1.52191,2,118.012,3,-179.027,0\H,4,1.08641,1,109.127,2,69.5698,0\H,4,1.08749,1,109.467,2,-48.6786,0\H,4,1.1,1,111.154,2,-170.727,0\\\@

 Total job time:  4664.75s(wall), 8649.96s(cpu) 
 Sun Sep 26 13:45:42 2021

        *************************************************************
        *                                                           *
        *  Thank you very much for using Q-Chem.  Have a nice day.  *
        *                                                           *
        *************************************************************


Done Job For Fragment 0
calling putenv with: QCSCRATCH=/global/cscratch1/sd/meili 
calling putenv with: QCLOCALSCR=/tmp 
calling putenv with: QCTHREADS=32 
Creating input file /tmp/qchem10513/Frg2.input
using default PutDataFrgm: nothing
calling putenv with: QCSCRATCH=/tmp/qchem10513/ 
calling putenv with: QCLOCALSCR=/tmp/qchem10513/ 
Spawning Job For Fragment 1
                  Welcome to Q-Chem
     A Quantum Leap Into The Future Of Chemistry


 Q-Chem 5.2, Q-Chem, Inc., Pleasanton, CA (2019)

 License issued to: National Energy Research Scientific Computing Center

 Yihan Shao,  Zhengting Gan,  E. Epifanovsky,  A. T. B. Gilbert,  M. Wormit,  
 J. Kussmann,  A. W. Lange,  A. Behn,  Jia Deng,  Xintian Feng,  D. Ghosh,  
 M. Goldey,  P. R. Horn,  L. D. Jacobson,  I. Kaliman,  T. Kus,  A. Landau,  
 Jie Liu,  E. I. Proynov,  R. M. Richard,  R. P. Steele,  E. J. Sundstrom,  
 H. L. Woodcock III,  P. M. Zimmerman,  D. Zuev,  B. Albrecht,  E. Alguire,  
 S. A. Baeppler,  D. Barton,  Z. Benda,  Y. A. Bernard,  E. J. Berquist,  
 K. B. Bravaya,  H. Burton,  D. Casanova,  Chun-Min Chang,  Yunqing Chen,  
 A. Chien,  K. D. Closser,  M. P. Coons,  S. Coriani,  S. Dasgupta,  
 A. L. Dempwolff,  M. Diedenhofen,  Hainam Do,  R. G. Edgar,  Po-Tung Fang,  
 S. Faraji,  S. Fatehi,  Qingguo Feng,  K. D. Fenk,  J. Fosso-Tande,  
 J. Gayvert,  Qinghui Ge,  A. Ghysels,  G. Gidofalvi,  J. Gomes,  
 J. Gonthier,  A. Gunina,  D. Hait,  M. W. D. Hanson-Heine,  
 P. H. P. Harbach,  A. W. Hauser,  M. F. Herbst,  J. E. Herr,  
 E. G. Hohenstein,  Z. C. Holden,  Kerwin Hui,  B. C. Huynh,  T.-C. Jagau,  
 Hyunjun Ji,  B. Kaduk,  K. Khistyaev,  Jaehoon Kim,  P. Klunzinger,  K. Koh,  
 D. Kosenkov,  L. Koulias,  T. Kowalczyk,  C. M. Krauter,  A. Kunitsa,  
 Ka Un Lao,  A. Laurent,  K. V. Lawler,  Joonho Lee,  D. Lefrancois,  
 S. Lehtola,  D. S. Levine,  Yi-Pei Li,  You-Sheng Lin,  Fenglai Liu,  
 E. Livshits,  A. Luenser,  P. Manohar,  E. Mansoor,  S. F. Manzer,  
 Shan-Ping Mao,  Yuezhi Mao,  N. Mardirossian,  A. V. Marenich,  
 T. Markovich,  L. A. Martinez-Martinez,  S. A. Maurer,  N. J. Mayhall,  
 S. C. McKenzie,  J.-M. Mewes,  P. Morgante,  A. F. Morrison,  
 J. W. Mullinax,  K. Nanda,  T. S. Nguyen-Beck,  R. Olivares-Amaya,  
 J. A. Parkhill,  Zheng Pei,  T. M. Perrine,  F. Plasser,  P. Pokhilko,  
 S. Prager,  A. Prociuk,  E. Ramos,  D. R. Rehn,  F. Rob,  M. Scheurer,  
 M. Schneider,  N. Sergueev,  S. M. Sharada,  S. Sharma,  D. W. Small,  
 T. Stauch,  T. Stein,  Yu-Chuan Su,  A. J. W. Thom,  A. Tkatchenko,  
 T. Tsuchimochi,  N. M. Tubman,  L. Vogt,  M. L. Vidal,  O. Vydrov,  
 M. A. Watson,  J. Wenzel,  M. de Wergifosse,  T. A. Wesolowski,  A. White,  
 J. Witte,  A. Yamada,  Jun Yang,  K. Yao,  S. Yeganeh,  S. R. Yost,  
 Zhi-Qiang You,  A. Zech,  Igor Ying Zhang,  Xing Zhang,  Yan Zhao,  
 Ying Zhu,  B. R. Brooks,  G. K. L. Chan,  C. J. Cramer,  M. S. Gordon,  
 W. J. Hehre,  A. Klamt,  M. W. Schmidt,  C. D. Sherrill,  D. G. Truhlar,  
 A. Aspuru-Guzik,  R. Baer,  A. T. Bell,  N. A. Besley,  Jeng-Da Chai,  
 A. E. DePrince, III,  R. A. DiStasio Jr.,  A. Dreuw,  B. D. Dunietz,  
 T. R. Furlani,  Chao-Ping Hsu,  Yousung Jung,  Jing Kong,  D. S. Lambrecht,  
 WanZhen Liang,  C. Ochsenfeld,  V. A. Rassolov,  L. V. Slipchenko,  
 J. E. Subotnik,  T. Van Voorhis,  J. M. Herbert,  A. I. Krylov,  
 P. M. W. Gill,  M. Head-Gordon

 Contributors to earlier versions of Q-Chem not listed above: 
 R. D. Adamson,  B. Austin,  J. Baker,  G. J. O. Beran,  K. Brandhorst,  
 S. T. Brown,  E. F. C. Byrd,  A. K. Chakraborty,  C.-L. Cheng,  
 Siu Hung Chien,  D. M. Chipman,  D. L. Crittenden,  H. Dachsel,  
 R. J. Doerksen,  A. D. Dutoi,  L. Fusti-Molnar,  W. A. Goddard III,  
 A. Golubeva-Zadorozhnaya,  S. R. Gwaltney,  G. Hawkins,  A. Heyden,  
 S. Hirata,  G. Kedziora,  F. J. Keil,  C. Kelley,  Jihan Kim,  R. A. King,  
 R. Z. Khaliullin,  P. P. Korambath,  W. Kurlancheek,  A. M. Lee,  M. S. Lee,  
 S. V. Levchenko,  Ching Yeh Lin,  D. Liotard,  R. C. Lochan,  I. Lotan,  
 P. E. Maslen,  N. Nair,  D. P. O'Neill,  D. Neuhauser,  E. Neuscamman,  
 C. M. Oana,  R. Olson,  B. Peters,  R. Peverati,  P. A. Pieniazek,  
 Y. M. Rhee,  J. Ritchie,  M. A. Rohrdanz,  E. Rosta,  N. J. Russ,  
 H. F. Schaefer III,  N. E. Schultz,  N. Shenvi,  A. C. Simmonett,  A. Sodt,  
 D. Stuck,  K. S. Thanthiriwatte,  V. Vanovschi,  Tao Wang,  A. Warshel,  
 C. F. Williams,  Q. Wu,  X. Xu,  W. Zhang

 Please cite Q-Chem as follows:
 Y. Shao et al., Mol. Phys. 113, 184-215 (2015)
 DOI: 10.1080/00268976.2014.952696

 Q-Chem 5.2.0 for Intel X86 EM64T Linux

 Parts of Q-Chem use Armadillo 8.300.2 (Tropical Shenanigans).
 http://arma.sourceforge.net/

 Q-Chem begins on Sun Sep 26 13:45:43 2021  

Host: cori01
0

     Scratch files written to /tmp/qchem10513//Frg2//
 May1019 |scratch|qcdevops|jenkins|workspace|build_RNUM -1
Processing $rem in /global/common/cori/software/qchem/5.2/config/preferences:
	 MEM_TOTAL  96000 
NAlpha2: 58
NElect   58
Mult     1
Symmetry turned off for PCM/SM12/SMD calculation

Checking the input file for inconsistencies... 	...done.

--------------------------------------------------------------
User input:
--------------------------------------------------------------
$molecule
0 1
 6	2.3158243493	2.7242476462	-2.5970813162
 6	0.2918243493	0.1652476462	-0.6230813162
 6	0.6968243493	0.4522476462	0.6859186838
 6	0.8158243493	0.9092476462	-1.6840813162
 6	1.7408243493	1.9292476462	-1.4540813162
 6	1.6068243493	1.4772476462	0.9249186838
 6	2.1218243493	2.2092476462	-0.1420813162
 8	0.2368243493	-0.2627523538	1.7449186838
 1	-0.4111756507	-0.6307523538	-0.8050813162
 1	0.5128243493	0.6812476462	-2.6980813162
 1	1.9238243493	1.7022476462	1.9339186838
 1	0.6118243493	0.0542476462	2.5679186838
 1	2.1358243493	2.2012476462	-3.5380813162
 1	3.3968243493	2.7922476462	-2.4590813162
 1	2.8388243493	2.9972476462	0.0519186838
 1	1.8983983493	3.7402741462	-2.6557823162
$end
$rem
EDA2		1
METHOD		WB97X-V
BASIS		DEF2-TZVPD
XC_GRID		000099000590
NL_GRID		1
UNRESTRICTED		FALSE
MAX_SCF_CYCLES		200
SYMMETRY		FALSE
SYM_IGNORE		TRUE
BASIS_LIN_DEP_THRESH		6
THRESH		14
SCF_CONVERGENCE		8
SCF_PRINT_FRGM		TRUE
SOLVENT_METHOD		SMD
!required keywords
JOBTYPE		SP
SYM_IGNORE		TRUE
SUBSYSTEM		TRUE
GEN_SCFMAN		TRUE
CHILD_INSTRUCTION		2
SYM_IGNORE		TRUE
SCFMI		0
RI_K 0		
PARI_K 0		
MIN_PARI_K 0		
IARI_K 0		
OCC_RI_K 0		
PURECART		1111
MEM_STATIC		2000
MEM_TOTAL		96000
GUI		0
CHILD_MP		1
CHILD_MP_ORDERS		232
FRZ_RELAX		0
FRZ_RELAX_METHOD		0
EDA_CLS_ELEC		1
EDA_CLS_DISP		0
FRZ_ORTHO_DECOMP		1
EDA2		FALSE
FRGM_METHOD		FALSE
CIS_N_ROOTS  0
LOCAL_CIS    0
CIS_RLX_DNS  1
$end
$smx
SOLVENT			WATER
$end
--------------------------------------------------------------
 ----------------------------------------------------------------
             Standard Nuclear Orientation (Angstroms)
    I     Atom           X                Y                Z
 ----------------------------------------------------------------
    1      C       2.3158243493     2.7242476462    -2.5970813162
    2      C       0.2918243493     0.1652476462    -0.6230813162
    3      C       0.6968243493     0.4522476462     0.6859186838
    4      C       0.8158243493     0.9092476462    -1.6840813162
    5      C       1.7408243493     1.9292476462    -1.4540813162
    6      C       1.6068243493     1.4772476462     0.9249186838
    7      C       2.1218243493     2.2092476462    -0.1420813162
    8      O       0.2368243493    -0.2627523538     1.7449186838
    9      H      -0.4111756507    -0.6307523538    -0.8050813162
   10      H       0.5128243493     0.6812476462    -2.6980813162
   11      H       1.9238243493     1.7022476462     1.9339186838
   12      H       0.6118243493     0.0542476462     2.5679186838
   13      H       2.1358243493     2.2012476462    -3.5380813162
   14      H       3.3968243493     2.7922476462    -2.4590813162
   15      H       2.8388243493     2.9972476462     0.0519186838
   16      H       1.8983983493     3.7402741462    -2.6557823162
 ----------------------------------------------------------------
 Nuclear Repulsion Energy =         343.00510633 hartrees
 There are       29 alpha and       29 beta electrons
 Requested basis set is def2-TZVPD
 There are 145 shells and 371 basis functions

 Total QAlloc Memory Limit  96000 MB
 Mega-Array Size      1956 MB
 MEM_STATIC part      2000 MB
 
 Citation of the SMD model:
 Marenich, A.V.; Cramer, C.J.; Truhlar, D.G.
 J. Phys. Chem. B 2009, 113, 6378-6396.
 iSolventCode=           1
 Solvent: water                                                           
 
 vradii
            1           2           3           4           5           6
    1   1.8500000   1.8500000   1.8500000   1.8500000   1.8500000   1.8500000
            7           8           9          10          11          12
    1   1.8500000   1.5200000   1.2000000   1.2000000   1.2000000   1.2000000
           13          14          15          16
    1   1.2000000   1.2000000   1.2000000   1.2000000
 Changing PCM_VDW_RADII to SMD_RADIUS
 Discretize the solute cavity surface with Lebedev spheres
	Using 110 Lebedev grid points for each H atom
	Using 194 Lebedev grid points for other atoms
	Atomic van der Waals radii will be scaled by 1.20
 Remove points where switching function is < 1.0e-08
 Keep 1180 surface tesserae and discard 1252 interior tesserae
 Molecular Surface Area = 141.567 Angst**2
 A cutoff of  1.0D-14 yielded  10048 shell pairs
 There are     67114 function pairs (     85816 Cartesian)
 Smallest overlap matrix eigenvalue = 5.63E-07
 Linear dependence detected in AO basis
 Tighter screening thresholds may be required for diffuse basis sets
 Use S2THRESH > 14 and THRESH = 14 in case of SCF convergence issues
 Number of orthogonalized atomic orbitals = 370
 Maximum deviation from orthogonality = 1.768E-10

 Scale SEOQF with 1.000000e-01/1.000000e-01/1.000000e-01

 Standard Electronic Orientation quadrupole field applied
 Guess from superposition of atomic densities
 Warning:  Energy on first SCF cycle will be non-variational
 SAD guess density has 57.738434 electrons

 -----------------------------------------------------------------------
  General SCF calculation program by
  Eric Jon Sundstrom, Paul Horn, Yuezhi Mao, Dmitri Zuev, Alec White,
  David Stuck, Shaama M.S., Shane Yost, Joonho Lee, David Small,
  Daniel Levine, Susi Lehtola, Hugh Burton, Evgeny Epifanovsky
 -----------------------------------------------------------------------
 Exchange:     0.1670 Hartree-Fock + 1.0000 wB97X-V + LR-HF
 Correlation:  1.0000 wB97X-V
 Using Euler-Maclaurin-Lebedev (99,590) quadrature formula
 Nonlocal Correlation:  VV10 with C = 0.0100 and b = 6.00 and scale = 1.00000
 Grid used for NLC:  SG-1 standard quadrature
Energy prior to optimization (guess energy) = -346.497878362637
Begin Timing: Total SCF Calculation
begin iterations for algorithm: DIIS         
the SCF tolerance is set to 1.00e-08
    1    -346.4978783626      5.16e-03     00000 
    2    -346.4441724023      5.55e-03     00000 
    3    -346.8203877713      5.27e-04     00000 
    4    -346.8251905219      1.73e-04     00000 
    5    -346.8258736340      3.64e-05     00000 
    6    -346.8259221321      1.24e-05     00000 
    7    -346.8259265466      4.65e-06     00000 
    8    -346.8259271982      1.38e-06     00000 
    9    -346.8259272820      4.47e-07     00000 
   10    -346.8259272935      2.45e-07     00000 
   11    -346.8259272969      7.26e-08     00000 
   12    -346.8259272976      3.41e-08     00000 
   13    -346.8259272977      1.43e-08     00000 
   14    -346.8259272977      3.49e-09     00000 Convergence criterion met
Timing for Total SCF: 2143.00s (wall), 4256.65s (cpu)
(3)  G-ENP(liq) elect-nuc-pol free energy of system     -346.825927298 a.u.
(4)  G-CDS(liq) cavity-dispersion-solvent structure 
     free energy                                                3.8123 kcal/mol
(6)  G-S(liq) free energy of system                     -346.819851984 a.u.
E_pcm = -0.0174052579
E_cds = 0.0060753136
Multipole orders to be included
        2
        3
computing dipole RHS
computing quadrupole RHS
total number of RHS in solve_reponses: 8
RHS batch sizes
        8
Beginning Block Conjugate Gradient Iterations. Batch Number: 0
computing hessian-vector products by finite difference
              1      6.33e-01     00000 Conjugate Gradient Iteration
computing hessian-vector products by finite difference
              2      1.97e-01     00000 Conjugate Gradient Iteration
computing hessian-vector products by finite difference
              3      5.37e-02     00000 Conjugate Gradient Iteration
computing hessian-vector products by finite difference
              4      1.75e-02     00000 Conjugate Gradient Iteration
computing hessian-vector products by finite difference
              5      4.74e-03     00000 Conjugate Gradient Iteration
computing hessian-vector products by finite difference
              6      1.58e-03     00000 Conjugate Gradient Iteration
computing hessian-vector products by finite difference
              7      3.69e-04     00000 Conjugate Gradient Iteration
computing hessian-vector products by finite difference
              8      6.90e-05     00000 Conjugate Gradient Iteration
computing hessian-vector products by finite difference
              9      1.27e-05     00000 Conjugate Gradient Iteration
computing hessian-vector products by finite difference
             10      1.80e-06     00000 Conjugate Gradient Iteration
computing hessian-vector products by finite difference
             11      2.64e-07     00000 Conjugate Gradient Iteration
computing hessian-vector products by finite difference
             12      4.90e-08     00000 Conjugate Gradient Iteration
computing hessian-vector products by finite difference
             13      1.03e-08     00000 Conjugate Gradient Iteration
computing hessian-vector products by finite difference
             14      2.96e-09     00000 CG Converged
batch 0 complete
Done Calculating Responses
TESTING ORTHOGONALIZATION OF MULTIPOLE BASIS
Multipole virts passed orthogonality test
Virts Per Order
           87
          145
 
 --------------------------------------------------------------
 
                    Orbital Energies (a.u.)
 --------------------------------------------------------------
 
 Alpha MOs
 -- Occupied --
-19.2398 -10.3316 -10.2708 -10.2697 -10.2679 -10.2677 -10.2652 -10.2529
 -1.1933  -0.9897  -0.8954  -0.8783  -0.8034  -0.7421  -0.7092  -0.6601
 -0.5983  -0.5740  -0.5435  -0.5375  -0.5270  -0.5164  -0.5062  -0.4708
 -0.4491  -0.4393  -0.4342  -0.3490  -0.3087
 -- Virtual --
  0.0632   0.0637   0.0744   0.0824   0.0888   0.0997   0.1140   0.1158
  0.1185   0.1367   0.1505   0.1570   0.1606   0.1777   0.1825   0.1974
  0.2064   0.2108   0.2213   0.2309   0.2410   0.2456   0.2546   0.2597
  0.2681   0.2738   0.2798   0.2809   0.2873   0.3005   0.3013   0.3071
  0.3109   0.3126   0.3171   0.3301   0.3377   0.3456   0.3507   0.3561
  0.3608   0.3618   0.3681   0.3789   0.3793   0.3841   0.3871   0.3985
  0.4000   0.4030   0.4042   0.4110   0.4193   0.4250   0.4308   0.4371
  0.4398   0.4596   0.4609   0.4648   0.4784   0.4805   0.4839   0.4892
  0.4943   0.4960   0.5029   0.5084   0.5184   0.5196   0.5343   0.5415
  0.5473   0.5526   0.5541   0.5563   0.5660   0.5739   0.5819   0.5977
  0.6062   0.6113   0.6189   0.6346   0.6426   0.6650   0.6661   0.6748
  0.6802   0.6865   0.6947   0.6982   0.7061   0.7067   0.7219   0.7331
  0.7376   0.7445   0.7502   0.7548   0.7629   0.7749   0.7862   0.7880
  0.7934   0.7956   0.8027   0.8034   0.8110   0.8185   0.8329   0.8416
  0.8485   0.8546   0.8578   0.8605   0.8681   0.8810   0.8885   0.8924
  0.9092   0.9147   0.9379   0.9512   0.9622   0.9879   0.9924   1.0175
  1.0237   1.0430   1.0458   1.0521   1.0599   1.0748   1.0790   1.0946
  1.1015   1.1224   1.1391   1.1712   1.2025   1.2383   1.2771   1.3030
  1.3071   1.3160   1.3329   1.3599   1.3763   1.3843   1.3981   1.4371
  1.4627   1.4723   1.4737   1.4884   1.5340   1.5707   1.6116   1.6281
  1.6395   1.6476   1.6801   1.6828   1.7056   1.7330   1.7767   1.8064
  1.8193   1.8334   1.8420   1.8651   1.8698   1.8842   1.9250   1.9304
  1.9456   1.9605   1.9842   1.9947   1.9987   2.0354   2.0419   2.0569
  2.0625   2.0776   2.0916   2.1161   2.1234   2.1602   2.2029   2.2107
  2.2282   2.2446   2.2782   2.2871   2.3146   2.3265   2.3451   2.3724
  2.4039   2.4084   2.4390   2.4717   2.4898   2.4965   2.5326   2.5595
  2.5830   2.6108   2.6307   2.6428   2.6553   2.6713   2.6945   2.7475
  2.7622   2.7672   2.7788   2.8097   2.8227   2.8365   2.8698   2.8767
  2.9145   2.9252   2.9396   2.9534   2.9744   2.9801   2.9842   3.0102
  3.0222   3.0484   3.0736   3.0856   3.1087   3.1395   3.1548   3.1701
  3.1887   3.2053   3.2205   3.2276   3.2446   3.2601   3.2926   3.2976
  3.3188   3.3624   3.3894   3.3964   3.4024   3.4212   3.4530   3.4604
  3.4668   3.4785   3.4932   3.5191   3.5289   3.5321   3.5474   3.5501
  3.5520   3.5665   3.5806   3.5932   3.6026   3.6334   3.6498   3.6770
  3.6964   3.7084   3.7396   3.7562   3.7965   3.8187   3.8524   3.9097
  3.9465   3.9615   3.9813   4.0000   4.0416   4.0873   4.1534   4.1811
  4.2526   4.2731   4.2863   4.3106   4.3211   4.3297   4.3440   4.3595
  4.3748   4.3963   4.4231   4.4652   4.5028   4.5447   4.5983   4.6197
  4.7395   4.7456   4.7950   4.8130   4.8617   4.9277   5.0268   5.0584
  5.0906   5.1334   5.1672   5.3068   5.3358   5.4037   5.4488   5.5429
  5.6205   5.6512   5.7201   5.7665   5.9566   6.2199   6.4970   6.6065
  6.6325   6.8773   7.0330   7.3021   7.4632  22.6763  22.6866  22.9352
 22.9921  23.0307  23.1873  23.5092  44.4247
 --------------------------------------------------------------
 
          Ground-State Mulliken Net Atomic Charges

     Atom                 Charge (a.u.)
  ----------------------------------------
      1 C                    -1.066865
      2 C                    -0.835921
      3 C                     0.684553
      4 C                    -0.466128
      5 C                     0.476356
      6 C                    -0.324022
      7 C                    -0.621197
      8 O                    -0.540824
      9 H                     0.404180
     10 H                     0.376144
     11 H                     0.370181
     12 H                     0.320065
     13 H                     0.300410
     14 H                     0.278613
     15 H                     0.397359
     16 H                     0.247097
  ----------------------------------------
  Sum of atomic charges =     0.000000

 -----------------------------------------------------------------
                    Cartesian Multipole Moments
 -----------------------------------------------------------------
    Charge (ESU x 10^10)
                 0.0000
    Dipole Moment (Debye)
         X       1.3571      Y       1.3926      Z       0.7574
       Tot       2.0868
    Quadrupole Moments (Debye-Ang)
        XX     -46.5228     XY       5.1295     YY     -46.5884
        XZ       3.3736     YZ       1.7582     ZZ     -37.0929
    Octopole Moments (Debye-Ang^2)
       XXX    -178.5968    XXY     -47.8885    XYY     -48.4039
       YYY    -172.3415    XXZ      25.0674    XYZ      -0.7636
       YYZ      19.0583    XZZ     -46.9745    YZZ     -49.6312
       ZZZ      80.6275
    Hexadecapole Moments (Debye-Ang^3)
      XXXX    -708.3539   XXXY    -317.6673   XXYY    -220.9430
      XYYY    -315.5015   YYYY    -805.3422   XXXZ     166.0918
      XXYZ      72.5260   XYYZ      52.0611   YYYZ     208.1377
      XXZZ    -234.4269   XYZZ    -102.8529   YYZZ    -257.4167
      XZZZ     185.0069   YZZZ     221.8575   ZZZZ    -642.3692
 -----------------------------------------------------------------
Archival summary:
1\1\nid00554\SP\ProcedureUnspecified\BasisUnspecified\178\meili\MonSep2700:30:512021MonSep2700:30:512021\0\\#,ProcedureUnspecified,BasisUnspecified,\\0,1\C\O,1,1.35805\H,2,0.958354,1,111.283\C,1,1.39135,2,118.389,3,0.642523,0\H,4,1.08129,1,120.353,2,-0.888925,0\C,4,1.39267,1,119.833,2,178.508,0\H,6,1.0829,4,119.345,1,-179.254,0\C,6,1.3946,4,120.945,1,-0.124464,0\C,8,1.39604,6,118.862,4,0.840585,0\H,9,1.08258,8,119.58,6,-179.922,0\C,9,1.3978,8,120.812,6,-0.91542,0\H,11,1.07747,9,120.637,8,-179.114,0\C,8,1.50635,6,120.238,4,-179.535,0\H,13,1.09152,8,109.775,6,164.108,0\H,13,1.09189,8,108.353,6,46.8838,0\H,13,1.1,8,112.527,6,-73.6603,0\\\@

 Total job time:  38711.44s(wall), 76944.78s(cpu) 
 Mon Sep 27 00:30:55 2021

        *************************************************************
        *                                                           *
        *  Thank you very much for using Q-Chem.  Have a nice day.  *
        *                                                           *
        *************************************************************


Done Job For Fragment 1
calling putenv with: QCSCRATCH=/global/cscratch1/sd/meili 
calling putenv with: QCLOCALSCR=/tmp 
calling putenv with: QCTHREADS=32 
Doing General SCFMI
 Exchange:     0.1670 Hartree-Fock + 1.0000 wB97X-V + LR-HF
 Correlation:  1.0000 wB97X-V
 Using Euler-Maclaurin-Lebedev (99,590) quadrature formula
 Nonlocal Correlation:  VV10 with C = 0.0100 and b = 6.00 and scale = 1.00000
 Grid used for NLC:  SG-1 standard quadrature
performing fock build before subrot guess so that all methods have access
Printing subrot_rss_gen Method Specification:
Occupied Subspace Method is 0
Virtual Subspace Method is 0
Energy of the unrelaxed supersystem initial determinant -575.317549314905
performing fock build before subrot guess so that all methods have access
Printing subrot_rss_gen Method Specification:
Occupied Subspace Method is 0
Virtual Subspace Method is 0
Energy of the unrelaxed supersystem initial determinant w/ solvent -575.481482707820
write pseudocanon occs and virts to disk
write pseudocanon orbital energies to disk
Tolerance of ortho_decomp_scf: 1.00e-06
GDM subspace size: 20
Beginning the Orthogonal Decomposition of the Initial Supersystem Wavefunction
    1    -575.2777444296      7.98e-02     ortho_decomp Preconditoned Steepest Descent
    2    -575.2890512027      1.53e-03     ortho_decomp BFGS Step
    3    -575.2890774754      1.21e-04     ortho_decomp BFGS Step
    4    -575.2890775272      4.53e-06     ortho_decomp BFGS Step
    5    -575.2890775273      1.75e-07     ortho_decomp 00000 Convergence criterion met
 Hartree-Fock
 Hartree-Fock
 Hartree-Fock
Doing General SCFMI
 Exchange:     0.1670 Hartree-Fock + 1.0000 wB97X-V + LR-HF
 Correlation:  1.0000 wB97X-V
 Using Euler-Maclaurin-Lebedev (99,590) quadrature formula
 Nonlocal Correlation:  VV10 with C = 0.0100 and b = 6.00 and scale = 1.00000
 Grid used for NLC:  SG-1 standard quadrature
performing fock build at end of subrot_r(subrot) constructor so that all methods have access
<S^2> of initial wavefunction before polarization iterations 0.0000000000
Beginning iterations for the determination of the polarized wavefunction
Energy prior to optimization (guess energy) = -575.481482707819
Begin Timing: Total SCF Calculation
begin iterations for algorithm: DIIS         
the SCF tolerance is set to 1.00e-08
    1    -575.4814827078      1.13e-04     00000 
    2    -575.4821511588      1.02e-04     00000 
    3    -575.4824797449      2.17e-05     00000 
    4    -575.4825422902      1.15e-05     00000 
    5    -575.4825579510      6.66e-06     00000 
    6    -575.4825628853      2.76e-06     00000 
    7    -575.4825636526      9.04e-07     00000 
    8    -575.4825637442      3.28e-07     00000 
    9    -575.4825637543      1.72e-07     00000 
   10    -575.4825637558      6.00e-08     00000 
   11    -575.4825637560      3.04e-08     00000 
   12    -575.4825637560      1.38e-08     00000 
   13    -575.4825637560      5.23e-09     00000 Convergence criterion met
write pseudocanon occs and virts to disk
write pseudocanon orbital energies to disk
Timing for Total SCF: 5703.00s (wall), 11351.15s (cpu)
<S^2> of polarized wavefunction after polarization iterations 0.0000000000
relaxing scfmi constraint to allow all rotations in the entire AO span
Doing General SCFMI
 Exchange:     0.1670 Hartree-Fock + 1.0000 wB97X-V + LR-HF
 Correlation:  1.0000 wB97X-V
 Using Euler-Maclaurin-Lebedev (99,590) quadrature formula
 Nonlocal Correlation:  VV10 with C = 0.0100 and b = 6.00 and scale = 1.00000
 Grid used for NLC:  SG-1 standard quadrature
performing fock build at end of subrot_r(subrot) constructor so that all methods have access
<S^2> of polarized wavefunction before ct-allowed iterations 0.0000000000
Beginning iterations for the determination of the CT-Allowed wavefunction
Energy prior to optimization (guess energy) = -575.482563756016
Begin Timing: Total SCF Calculation
begin iterations for algorithm: DIIS         
the SCF tolerance is set to 1.00e-08
    1    -575.4825637560      8.40e-05     00000 
    2    -575.4834001609      7.93e-06     00000 
    3    -575.4834240952      1.97e-06     00000 
    4    -575.4834248910      1.80e-06     00000 
    5    -575.4834252403      2.17e-07     00000 
    6    -575.4834252517      1.40e-07     00000 
    7    -575.4834252546      3.82e-08     00000 
    8    -575.4834252549      1.13e-08     00000 
    9    -575.4834252549      3.53e-09     00000 Convergence criterion met
write pseudocanon occs and virts to disk
write pseudocanon orbital energies to disk
Timing for Total SCF: 3855.00s (wall), 7673.56s (cpu)
<S^2> of ct_allowed wavefunction after ct-allowed iterations 0.0000000000

================================
        Results of EDA2         
================================
Basic EDA Quantities
--------------------
Fragment Energies (Ha):
1 -228.6598316034
2 -346.8198519841
--------------------
  E_prp (kJ/mol) = 0.0000
  E_sol (kJ/mol) = -47.0266
  E_frz (kJ/mol) = 70.9113
  E_pol (kJ/mol) = -2.8383
  E_vct (kJ/mol) = -2.2619
  E_int (kJ/mol) = 18.7845
--------------------


Initial Wavefunction Decomposition
--------------------
  --------------------
  Orthogonal Fragment Subspace Decomposition:
  --------------------
     E_elec   (ELEC)   (kJ/mol) = -25.4436
     E_pauli  (PAULI)  (kJ/mol) = 119.4693
     E_disp   (DISP)   (kJ/mol) = -23.1143
     --------------------
     Terms summing to E_pauli:
     --------------------
        E_kep_pauli       (kJ/mol) = 145.6649
        E_disp_free_pauli (kJ/mol) = -26.1956
  --------------------
  Classical Frozen Decomposition:
  --------------------
     E_cls_elec  (CLS ELEC)  (kJ/mol) = 43.3709
     E_cls_pauli (CLS PAULI) (kJ/mol) = 27.5404
    [E_mod_pauli (MOD PAULI) (kJ/mol) = 50.6548 (CLS PAULI - DISP from orthogonal decomposition) ]
  --------------------
--------------------

Simplified EDA Summary (kJ/mol)
--------------------
 PREPARATION     0.0000
 SOLVATION       -47.0266
 FROZEN          94.0257      (does not include dispersion)
[PAULI           119.4693]     (if this is negligible, then frozen describes electrostatics)
 DISPERSION      -23.1143
 POLARIZATION    -2.8383
 CHARGE TRANSFER -2.2619
 TOTAL           18.7845     (PRP + SOL + FRZ + DISP + POL + CT)
--------------------
 
 --------------------------------------------------------------
 
                    Orbital Energies (a.u.)
 --------------------------------------------------------------
 
 Alpha MOs
 -- Occupied --
-19.2283 -19.1496 -19.1450 -10.3495 -10.3274 -10.2682 -10.2670 -10.2654
-10.2636 -10.2621 -10.2515 -10.2425  -1.1854  -1.1606  -1.0629  -0.9868
 -0.8925  -0.8753  -0.8377  -0.8005  -0.7387  -0.7054  -0.6555  -0.6148
 -0.5937  -0.5725  -0.5464  -0.5436  -0.5419  -0.5386  -0.5320  -0.5231
 -0.5124  -0.5005  -0.4808  -0.4671  -0.4607  -0.4463  -0.4351  -0.4299
 -0.3630  -0.3470  -0.3449  -0.3394  -0.3045
 -- Virtual --
  0.0617   0.0656   0.0749   0.0801   0.0836   0.0968   0.0977   0.1000
  0.1095   0.1169   0.1274   0.1370   0.1390   0.1441   0.1501   0.1530
  0.1601   0.1616   0.1702   0.1741   0.1861   0.1916   0.1945   0.2034
  0.2115   0.2160   0.2204   0.2276   0.2323   0.2336   0.2381   0.2400
  0.2490   0.2606   0.2660   0.2695   0.2727   0.2749   0.2828   0.2837
  0.2887   0.2907   0.2987   0.3029   0.3072   0.3124   0.3162   0.3188
  0.3247   0.3296   0.3353   0.3383   0.3422   0.3482   0.3538   0.3589
  0.3617   0.3638   0.3680   0.3699   0.3703   0.3762   0.3814   0.3835
  0.3844   0.3878   0.3948   0.3960   0.3994   0.4035   0.4048   0.4149
  0.4173   0.4191   0.4218   0.4271   0.4296   0.4369   0.4375   0.4472
  0.4486   0.4514   0.4631   0.4661   0.4679   0.4707   0.4771   0.4818
  0.4858   0.4894   0.4906   0.4992   0.5011   0.5045   0.5079   0.5106
  0.5140   0.5201   0.5239   0.5351   0.5366   0.5416   0.5464   0.5471
  0.5551   0.5633   0.5680   0.5734   0.5772   0.5832   0.5876   0.5888
  0.5933   0.6046   0.6077   0.6137   0.6222   0.6285   0.6387   0.6452
  0.6505   0.6525   0.6616   0.6662   0.6753   0.6792   0.6855   0.6980
  0.7008   0.7066   0.7123   0.7173   0.7255   0.7318   0.7350   0.7439
  0.7471   0.7483   0.7494   0.7630   0.7635   0.7685   0.7716   0.7796
  0.7835   0.7884   0.7925   0.7946   0.7985   0.8061   0.8102   0.8112
  0.8167   0.8175   0.8234   0.8264   0.8319   0.8363   0.8388   0.8492
  0.8526   0.8555   0.8608   0.8719   0.8792   0.8846   0.8869   0.8981
  0.9034   0.9166   0.9192   0.9286   0.9302   0.9434   0.9474   0.9570
  0.9640   0.9736   0.9873   0.9919   1.0025   1.0035   1.0167   1.0230
  1.0282   1.0362   1.0445   1.0640   1.0682   1.0736   1.0890   1.0954
  1.1100   1.1156   1.1232   1.1290   1.1454   1.1653   1.1676   1.1841
  1.1918   1.2041   1.2130   1.2353   1.2560   1.2598   1.2813   1.2914
  1.3018   1.3154   1.3232   1.3335   1.3483   1.3615   1.3731   1.3819
  1.3878   1.3976   1.4164   1.4286   1.4328   1.4512   1.4696   1.4830
  1.4899   1.5106   1.5282   1.5483   1.5615   1.5846   1.6130   1.6256
  1.6343   1.6583   1.6641   1.6804   1.7029   1.7180   1.7267   1.7536
  1.7592   1.7763   1.8280   1.8378   1.8487   1.8581   1.8761   1.8848
  1.9030   1.9213   1.9330   1.9391   1.9509   1.9544   1.9655   1.9711
  1.9756   1.9803   1.9922   1.9999   2.0134   2.0159   2.0274   2.0390
  2.0548   2.0738   2.0774   2.0788   2.0934   2.1102   2.1155   2.1322
  2.1426   2.1583   2.1959   2.2083   2.2214   2.2245   2.2337   2.2416
  2.2647   2.2667   2.2915   2.2968   2.3250   2.3368   2.3490   2.3528
  2.3764   2.3951   2.4095   2.4179   2.4275   2.4380   2.4637   2.4747
  2.4865   2.5022   2.5055   2.5230   2.5442   2.5642   2.5908   2.5968
  2.6121   2.6203   2.6402   2.6525   2.6551   2.6712   2.6802   2.6904
  2.7108   2.7223   2.7644   2.7740   2.7804   2.7974   2.8155   2.8294
  2.8425   2.8492   2.8729   2.8864   2.8954   2.9148   2.9332   2.9438
  2.9537   2.9607   2.9720   2.9925   2.9963   3.0007   3.0057   3.0316
  3.0517   3.0761   3.0878   3.0902   3.1034   3.1326   3.1564   3.1657
  3.1786   3.1877   3.2094   3.2169   3.2254   3.2363   3.2472   3.2562
  3.2618   3.2707   3.2831   3.3002   3.3147   3.3312   3.3402   3.3442
  3.3655   3.3684   3.3831   3.3973   3.4039   3.4267   3.4292   3.4368
  3.4457   3.4558   3.4630   3.4732   3.4871   3.5054   3.5179   3.5316
  3.5408   3.5494   3.5597   3.5618   3.5638   3.5731   3.5802   3.5945
  3.5982   3.6030   3.6152   3.6334   3.6424   3.6520   3.6607   3.6869
  3.7053   3.7109   3.7168   3.7329   3.7525   3.7600   3.7799   3.8010
  3.8315   3.8519   3.8652   3.8959   3.9177   3.9516   3.9602   3.9833
  3.9966   4.0169   4.0523   4.0685   4.0959   4.1097   4.1678   4.1994
  4.2096   4.2708   4.2936   4.3124   4.3167   4.3290   4.3399   4.3524
  4.3649   4.3708   4.3851   4.4295   4.4362   4.4892   4.5113   4.5655
  4.5861   4.6103   4.6272   4.6435   4.6868   4.7439   4.7638   4.8080
  4.8189   4.8317   4.8482   4.8799   4.9391   5.0169   5.0430   5.0849
  5.1242   5.1482   5.2022   5.3130   5.3159   5.3415   5.3485   5.3750
  5.3839   5.4269   5.4583   5.4899   5.5530   5.6352   5.6815   5.7033
  5.7408   5.7589   5.7694   5.7962   5.9741   6.0122   6.2563   6.2614
  6.3231   6.3369   6.5016   6.6215   6.6399   6.6640   6.6893   6.7219
  6.7687   6.7932   6.9043   6.9545   7.0101   7.0373   7.0954   7.2286
  7.3519   7.3703   7.4124   7.4238   7.5087  22.6221  22.6827  22.7347
 22.9605  23.0243  23.0425  23.2023  23.5222  23.7725  44.3590  44.4318
 44.4895
 --------------------------------------------------------------
 
          Ground-State Mulliken Net Atomic Charges

     Atom                 Charge (a.u.)
  ----------------------------------------
      1 C                    -0.834351
      2 C                     0.664664
      3 O                    -0.744610
      4 O                    -0.788843
      5 H                     0.259802
      6 H                     0.234779
      7 H                     0.225805
      8 C                    -1.132773
      9 C                    -0.236139
     10 C                     0.643705
     11 C                    -0.783240
     12 C                     0.349927
     13 C                    -0.574808
     14 C                    -0.549666
     15 O                    -0.402718
     16 H                     0.340929
     17 H                     0.387988
     18 H                     0.396452
     19 H                     0.296498
     20 H                     0.303794
     21 H                     0.280327
     22 H                     0.410259
     23 H                     0.252221
  ----------------------------------------
  Sum of atomic charges =    -1.000000

 -----------------------------------------------------------------
                    Cartesian Multipole Moments
 -----------------------------------------------------------------
    Charge (ESU x 10^10)
                -4.8032
    Dipole Moment (Debye)
         X       9.0778      Y       8.1098      Z      -4.9602
       Tot      13.1445
    Quadrupole Moments (Debye-Ang)
        XX     -90.6975     XY      -0.5897     YY     -86.7057
        XZ      13.0484     YZ      10.7518     ZZ     -69.3414
    Octopole Moments (Debye-Ang^2)
       XXX      45.5347    XXY      12.9052    XYY      11.1486
       YYY      31.9126    XXZ     -11.7931    XYZ      -9.3460
       YYZ     -14.2030    XZZ      21.1543    YZZ      15.5792
       ZZZ      26.9436
    Hexadecapole Moments (Debye-Ang^3)
      XXXX   -1790.6516   XXXY    -720.9963   XXYY    -504.4788
      XYYY    -703.0758   YYYY   -1796.4499   XXXZ     309.3134
      XXYZ     109.1639   XYYZ      87.0637   YYYZ     331.2911
      XXZZ    -436.5500   XYZZ    -243.7795   YYZZ    -446.6635
      XZZZ     281.2610   YZZZ     314.3852   ZZZZ    -783.4564
 -----------------------------------------------------------------
Archival summary:
1\1\nid00554\SP\ProcedureUnspecified\BasisUnspecified\3911(1-,1)\meili\MonSep2705:12:372021MonSep2705:12:372021\0\\#,ProcedureUnspecified,BasisUnspecified,\\-1,1\O\H,1,0.958354\C,1,1.35805,2,111.283\C,3,1.39135,1,118.389,2,0.642523,0\H,4,1.08129,3,120.353,1,-0.888925,0\C,4,1.39267,3,119.833,1,178.508,0\H,6,1.0829,4,119.345,3,-179.254,0\C,6,1.3946,4,120.945,3,-0.124464,0\C,8,1.39604,6,118.862,4,0.840585,0\H,9,1.08258,8,119.58,6,-179.922,0\C,9,1.3978,8,120.812,6,-0.91542,0\H,11,1.07747,9,120.637,8,-179.114,0\C,8,1.50635,6,120.238,4,-179.535,0\H,13,1.09152,8,109.775,6,164.108,0\H,13,1.09189,8,108.353,6,46.8838,0\H,13,1.1,8,112.527,6,-73.6603,0\O,1,2.6574,2,134.081,3,164.235,0\C,17,1.24599,1,105.252,2,116.335,0\O,18,1.25427,17,124.195,1,-15.9153,0\C,18,1.52191,17,118.012,1,165.058,0\H,20,1.08641,18,109.127,17,69.5698,0\H,20,1.08749,18,109.467,17,-48.6786,0\H,20,1.1,18,111.154,17,-170.727,0\\\@

 Total job time:  60287.02s(wall), 33676.77s(cpu) 
 Mon Sep 27 05:12:40 2021

        *************************************************************
        *                                                           *
        *  Thank you very much for using Q-Chem.  Have a nice day.  *
        *                                                           *
        *************************************************************


