
Running Job 1 of 1 SSI-013HIE-121TYR-1_SMD_TZVPD.in
qchem SSI-013HIE-121TYR-1_SMD_TZVPD.in_17203.0 /tmp/qchem17203/ 0
/global/common/cori/software/qchem/5.2/exe/qcprog.exe_s SSI-013HIE-121TYR-1_SMD_TZVPD.in_17203.0 /tmp/qchem17203/
                  Welcome to Q-Chem
     A Quantum Leap Into The Future Of Chemistry


 Q-Chem 5.2, Q-Chem, Inc., Pleasanton, CA (2019)

 License issued to: National Energy Research Scientific Computing Center

 Yihan Shao,  Zhengting Gan,  E. Epifanovsky,  A. T. B. Gilbert,  M. Wormit,  
 J. Kussmann,  A. W. Lange,  A. Behn,  Jia Deng,  Xintian Feng,  D. Ghosh,  
 M. Goldey,  P. R. Horn,  L. D. Jacobson,  I. Kaliman,  T. Kus,  A. Landau,  
 Jie Liu,  E. I. Proynov,  R. M. Richard,  R. P. Steele,  E. J. Sundstrom,  
 H. L. Woodcock III,  P. M. Zimmerman,  D. Zuev,  B. Albrecht,  E. Alguire,  
 S. A. Baeppler,  D. Barton,  Z. Benda,  Y. A. Bernard,  E. J. Berquist,  
 K. B. Bravaya,  H. Burton,  D. Casanova,  Chun-Min Chang,  Yunqing Chen,  
 A. Chien,  K. D. Closser,  M. P. Coons,  S. Coriani,  S. Dasgupta,  
 A. L. Dempwolff,  M. Diedenhofen,  Hainam Do,  R. G. Edgar,  Po-Tung Fang,  
 S. Faraji,  S. Fatehi,  Qingguo Feng,  K. D. Fenk,  J. Fosso-Tande,  
 J. Gayvert,  Qinghui Ge,  A. Ghysels,  G. Gidofalvi,  J. Gomes,  
 J. Gonthier,  A. Gunina,  D. Hait,  M. W. D. Hanson-Heine,  
 P. H. P. Harbach,  A. W. Hauser,  M. F. Herbst,  J. E. Herr,  
 E. G. Hohenstein,  Z. C. Holden,  Kerwin Hui,  B. C. Huynh,  T.-C. Jagau,  
 Hyunjun Ji,  B. Kaduk,  K. Khistyaev,  Jaehoon Kim,  P. Klunzinger,  K. Koh,  
 D. Kosenkov,  L. Koulias,  T. Kowalczyk,  C. M. Krauter,  A. Kunitsa,  
 Ka Un Lao,  A. Laurent,  K. V. Lawler,  Joonho Lee,  D. Lefrancois,  
 S. Lehtola,  D. S. Levine,  Yi-Pei Li,  You-Sheng Lin,  Fenglai Liu,  
 E. Livshits,  A. Luenser,  P. Manohar,  E. Mansoor,  S. F. Manzer,  
 Shan-Ping Mao,  Yuezhi Mao,  N. Mardirossian,  A. V. Marenich,  
 T. Markovich,  L. A. Martinez-Martinez,  S. A. Maurer,  N. J. Mayhall,  
 S. C. McKenzie,  J.-M. Mewes,  P. Morgante,  A. F. Morrison,  
 J. W. Mullinax,  K. Nanda,  T. S. Nguyen-Beck,  R. Olivares-Amaya,  
 J. A. Parkhill,  Zheng Pei,  T. M. Perrine,  F. Plasser,  P. Pokhilko,  
 S. Prager,  A. Prociuk,  E. Ramos,  D. R. Rehn,  F. Rob,  M. Scheurer,  
 M. Schneider,  N. Sergueev,  S. M. Sharada,  S. Sharma,  D. W. Small,  
 T. Stauch,  T. Stein,  Yu-Chuan Su,  A. J. W. Thom,  A. Tkatchenko,  
 T. Tsuchimochi,  N. M. Tubman,  L. Vogt,  M. L. Vidal,  O. Vydrov,  
 M. A. Watson,  J. Wenzel,  M. de Wergifosse,  T. A. Wesolowski,  A. White,  
 J. Witte,  A. Yamada,  Jun Yang,  K. Yao,  S. Yeganeh,  S. R. Yost,  
 Zhi-Qiang You,  A. Zech,  Igor Ying Zhang,  Xing Zhang,  Yan Zhao,  
 Ying Zhu,  B. R. Brooks,  G. K. L. Chan,  C. J. Cramer,  M. S. Gordon,  
 W. J. Hehre,  A. Klamt,  M. W. Schmidt,  C. D. Sherrill,  D. G. Truhlar,  
 A. Aspuru-Guzik,  R. Baer,  A. T. Bell,  N. A. Besley,  Jeng-Da Chai,  
 A. E. DePrince, III,  R. A. DiStasio Jr.,  A. Dreuw,  B. D. Dunietz,  
 T. R. Furlani,  Chao-Ping Hsu,  Yousung Jung,  Jing Kong,  D. S. Lambrecht,  
 WanZhen Liang,  C. Ochsenfeld,  V. A. Rassolov,  L. V. Slipchenko,  
 J. E. Subotnik,  T. Van Voorhis,  J. M. Herbert,  A. I. Krylov,  
 P. M. W. Gill,  M. Head-Gordon

 Contributors to earlier versions of Q-Chem not listed above: 
 R. D. Adamson,  B. Austin,  J. Baker,  G. J. O. Beran,  K. Brandhorst,  
 S. T. Brown,  E. F. C. Byrd,  A. K. Chakraborty,  C.-L. Cheng,  
 Siu Hung Chien,  D. M. Chipman,  D. L. Crittenden,  H. Dachsel,  
 R. J. Doerksen,  A. D. Dutoi,  L. Fusti-Molnar,  W. A. Goddard III,  
 A. Golubeva-Zadorozhnaya,  S. R. Gwaltney,  G. Hawkins,  A. Heyden,  
 S. Hirata,  G. Kedziora,  F. J. Keil,  C. Kelley,  Jihan Kim,  R. A. King,  
 R. Z. Khaliullin,  P. P. Korambath,  W. Kurlancheek,  A. M. Lee,  M. S. Lee,  
 S. V. Levchenko,  Ching Yeh Lin,  D. Liotard,  R. C. Lochan,  I. Lotan,  
 P. E. Maslen,  N. Nair,  D. P. O'Neill,  D. Neuhauser,  E. Neuscamman,  
 C. M. Oana,  R. Olson,  B. Peters,  R. Peverati,  P. A. Pieniazek,  
 Y. M. Rhee,  J. Ritchie,  M. A. Rohrdanz,  E. Rosta,  N. J. Russ,  
 H. F. Schaefer III,  N. E. Schultz,  N. Shenvi,  A. C. Simmonett,  A. Sodt,  
 D. Stuck,  K. S. Thanthiriwatte,  V. Vanovschi,  Tao Wang,  A. Warshel,  
 C. F. Williams,  Q. Wu,  X. Xu,  W. Zhang

 Please cite Q-Chem as follows:
 Y. Shao et al., Mol. Phys. 113, 184-215 (2015)
 DOI: 10.1080/00268976.2014.952696

 Q-Chem 5.2.0 for Intel X86 EM64T Linux

 Parts of Q-Chem use Armadillo 8.300.2 (Tropical Shenanigans).
 http://arma.sourceforge.net/

 Q-Chem begins on Sun Sep 26 03:14:37 2021  

Host: cori01
0

     Scratch files written to /tmp/qchem17203//
 May1019 |scratch|qcdevops|jenkins|workspace|build_RNUM -1
Processing $rem in /global/common/cori/software/qchem/5.2/config/preferences:
	 MEM_TOTAL  96000 
NAlpha2: 102
NElect   102
Mult     1
Symmetry turned off for PCM/SM12/SMD calculation

 Q-Chem warning in module libgen/rem_setup.C, line 2803:

 Neither GIA nor STOLL is specified by user. Use STOLL as the default


Checking the input file for inconsistencies... 	...done.

--------------------------------------------------------------
User input:
--------------------------------------------------------------
$comment
SSI-013HIE-121TYR-1.pdb
$end

$molecule
0 1
--
0 1
C   -0.771142391157   -3.433383700306   -0.058439732658
C   -0.665142391157   -2.736383700306   -1.380439732658
C   -0.608142391157   -1.036383700306   -2.775439732658
C   -0.417142391157   -3.225383700306   -2.625439732658
N   -0.768142391157   -1.368383700306   -1.500439732658
N   -0.369142391157   -2.139383700306   -3.475439732658
H   -0.656142391157   -0.031383700306   -3.180439732658
H   -1.035142391157   -4.478383700306   -0.215439732658
H   -1.587142391157   -2.961383700306    0.483560267342
H   -0.208142391157   -2.165383700306   -4.476439732658
H   -0.264142391157   -4.265383700306   -2.883439732658
H    0.133867608843   -3.336418700306    0.559260267342
--
0 1
C    2.409857608843    3.806616299694    2.332560267342
C   -0.468142391157    0.825616299694    1.118560267342
C    0.863857608843    0.716616299694    0.703560267342
C   -0.869142391157    1.893616299694    1.903560267342
C    1.802857608843    1.672616299694    1.109560267342
C    0.078857608843    2.854616299694    2.301560267342
C    1.419857608843    2.729616299694    1.938560267342
O   -1.411142391157   -0.077383700306    0.707560267342
H   -1.100142391157   -0.586383700306   -0.070439732658
H    1.167857608843   -0.101383700306    0.066560267342
H   -1.902142391157    1.983616299694    2.203560267342
H    2.830857608843    1.581616299694    0.787560267342
H   -0.236142391157    3.693616299694    2.900560267342
H    3.303857608843    3.326616299694    2.728560267342
H    1.988857608843    4.426616299694    3.124560267342
H    2.703007608843    4.445956299694    1.486800267342
$end

$rem
JOBTYPE			EDA
EDA2			1
method			wB97X-V
BASIS			def2-TZVPD
XC_GRID			000099000590
NL_GRID			1
UNRESTRICTED		FALSE
MAX_SCF_CYCLES		200
SYMMETRY		FALSE
SYM_IGNORE		TRUE
MEM_STATIC		2000
BASIS_LIN_DEP_THRESH 	6
THRESH 			14
SCF_CONVERGENCE 	8
SCF_PRINT_FRGM 		TRUE
SOLVENT_METHOD          SMD
$end

$SMX
SOLVENT			WATER
$END
--------------------------------------------------------------
 ----------------------------------------------------------------
             Standard Nuclear Orientation (Angstroms)
    I     Atom           X                Y                Z
 ----------------------------------------------------------------
    1      C      -0.7711423912    -3.4333837003    -0.0584397327
    2      C      -0.6651423912    -2.7363837003    -1.3804397327
    3      C      -0.6081423912    -1.0363837003    -2.7754397327
    4      C      -0.4171423912    -3.2253837003    -2.6254397327
    5      N      -0.7681423912    -1.3683837003    -1.5004397327
    6      N      -0.3691423912    -2.1393837003    -3.4754397327
    7      H      -0.6561423912    -0.0313837003    -3.1804397327
    8      H      -1.0351423912    -4.4783837003    -0.2154397327
    9      H      -1.5871423912    -2.9613837003     0.4835602673
   10      H      -0.2081423912    -2.1653837003    -4.4764397327
   11      H      -0.2641423912    -4.2653837003    -2.8834397327
   12      H       0.1338676088    -3.3364187003     0.5592602673
   13      C       2.4098576088     3.8066162997     2.3325602673
   14      C      -0.4681423912     0.8256162997     1.1185602673
   15      C       0.8638576088     0.7166162997     0.7035602673
   16      C      -0.8691423912     1.8936162997     1.9035602673
   17      C       1.8028576088     1.6726162997     1.1095602673
   18      C       0.0788576088     2.8546162997     2.3015602673
   19      C       1.4198576088     2.7296162997     1.9385602673
   20      O      -1.4111423912    -0.0773837003     0.7075602673
   21      H      -1.1001423912    -0.5863837003    -0.0704397327
   22      H       1.1678576088    -0.1013837003     0.0665602673
   23      H      -1.9021423912     1.9836162997     2.2035602673
   24      H       2.8308576088     1.5816162997     0.7875602673
   25      H      -0.2361423912     3.6936162997     2.9005602673
   26      H       3.3038576088     3.3266162997     2.7285602673
   27      H       1.9888576088     4.4266162997     3.1245602673
   28      H       2.7030076088     4.4459562997     1.4868002673
 ----------------------------------------------------------------
 Nuclear Repulsion Energy =         819.50225695 hartrees
 There are       51 alpha and       51 beta electrons
 Requested basis set is def2-TZVPD
 There are 253 shells and 647 basis functions

 Total QAlloc Memory Limit  96000 MB
 Mega-Array Size      1956 MB
 MEM_STATIC part      2000 MB
 
 Citation of the SMD model:
 Marenich, A.V.; Cramer, C.J.; Truhlar, D.G.
 J. Phys. Chem. B 2009, 113, 6378-6396.
 iSolventCode=           1
 Solvent: water                                                           
 
 vradii
            1           2           3           4           5           6
    1   1.8500000   1.8500000   1.8500000   1.8500000   1.8900000   1.8900000
            7           8           9          10          11          12
    1   1.2000000   1.2000000   1.2000000   1.2000000   1.2000000   1.2000000
           13          14          15          16          17          18
    1   1.8500000   1.8500000   1.8500000   1.8500000   1.8500000   1.8500000
           19          20          21          22          23          24
    1   1.8500000   1.5200000   1.2000000   1.2000000   1.2000000   1.2000000
           25          26          27          28
    1   1.2000000   1.2000000   1.2000000   1.2000000
 Changing PCM_VDW_RADII to SMD_RADIUS
 Discretize the solute cavity surface with Lebedev spheres
	Using 110 Lebedev grid points for each H atom
	Using 194 Lebedev grid points for other atoms
	Atomic van der Waals radii will be scaled by 1.20
 Remove points where switching function is < 1.0e-08
 Keep 2035 surface tesserae and discard 2221 interior tesserae
 Molecular Surface Area = 243.210 Angst**2
 A cutoff of  1.0D-14 yielded  26866 shell pairs
 There are    176646 function pairs (    223911 Cartesian)
 Smallest overlap matrix eigenvalue = 5.03E-07
 Linear dependence detected in AO basis
 Tighter screening thresholds may be required for diffuse basis sets
 Use S2THRESH > 14 and THRESH = 14 in case of SCF convergence issues
 Number of orthogonalized atomic orbitals = 645
 Maximum deviation from orthogonality = 5.346E-10

 Scale SEOQF with 1.000000e-01/1.000000e-01/1.000000e-01

 Standard Electronic Orientation quadrupole field applied
 Nucleus-field energy     =     0.0000000043 hartrees

 -----------------------------------------------------------------------
  General SCF calculation program by
  Eric Jon Sundstrom, Paul Horn, Yuezhi Mao, Dmitri Zuev, Alec White,
  David Stuck, Shaama M.S., Shane Yost, Joonho Lee, David Small,
  Daniel Levine, Susi Lehtola, Hugh Burton, Evgeny Epifanovsky
 -----------------------------------------------------------------------
================================================================
                 ALMO-EDA with the EDA2 driver                  
================================================================
 The second-generation ALMO-EDA (for DFT):                      
 P. R. Horn, Y. Mao and M. Head-Gordon, PCCP, 18, 23067 (2016)  
 Decomposition of the frozen energy:                            
 P. R. Horn, Y. Mao and M. Head-Gordon, JCP, 144, 114107 (2016) 
 FERF model for polarization:                                   
 P. R. Horn and M. Head-Gordon, JCP, 143, 114111 (2015)         
Using eda2 option set 1
Option set summary: Frozen orbital wavefunction, initial wavefunction decomposition, and nDQ polarization.
--------------------------------
Printing EDA Options
--------------------------------
eda_child_super_basis      0
fragmo_guess_mode          0
child_mp                   1
child_mp_orders            232
cls_elec                   1
cls_disp                   0
scfmi_mode                 1
scfmi_occs                 0
scfmi_virts                0
frz_relax                  0
frz_relax_method           0
dc_pen_start               0
dc_pen_conv                0
dc_pen_increment           0
dc_pen_steps               0
dc_pen_thresh_factor       0
dc_pen_pre_newton_thresh   0
frz_ortho_decomp           1
frz_ortho_decomp_conv      6
frgm_method                2
scfmi_freeze_ss            0
separate_rehyb             0
plot_diff_den              0
eda_nocv                   0
eda_vct_relax              1
disp_free_x                0
disp_free_c                0
eda_bsse                   0
eda_pct_a                  0
eda_covp                   0
--------------------------------
Attempting to make child job directory: /tmp/qchem17203//Frg1/
Attempting to make child job directory: /tmp/qchem17203//Frg2/
Creating input file /tmp/qchem17203/Frg1.input
using default PutDataFrgm: nothing
calling putenv with: QCSCRATCH=/tmp/qchem17203/ 
calling putenv with: QCLOCALSCR=/tmp/qchem17203/ 
Spawning Job For Fragment 0
                  Welcome to Q-Chem
     A Quantum Leap Into The Future Of Chemistry


 Q-Chem 5.2, Q-Chem, Inc., Pleasanton, CA (2019)

 License issued to: National Energy Research Scientific Computing Center

 Yihan Shao,  Zhengting Gan,  E. Epifanovsky,  A. T. B. Gilbert,  M. Wormit,  
 J. Kussmann,  A. W. Lange,  A. Behn,  Jia Deng,  Xintian Feng,  D. Ghosh,  
 M. Goldey,  P. R. Horn,  L. D. Jacobson,  I. Kaliman,  T. Kus,  A. Landau,  
 Jie Liu,  E. I. Proynov,  R. M. Richard,  R. P. Steele,  E. J. Sundstrom,  
 H. L. Woodcock III,  P. M. Zimmerman,  D. Zuev,  B. Albrecht,  E. Alguire,  
 S. A. Baeppler,  D. Barton,  Z. Benda,  Y. A. Bernard,  E. J. Berquist,  
 K. B. Bravaya,  H. Burton,  D. Casanova,  Chun-Min Chang,  Yunqing Chen,  
 A. Chien,  K. D. Closser,  M. P. Coons,  S. Coriani,  S. Dasgupta,  
 A. L. Dempwolff,  M. Diedenhofen,  Hainam Do,  R. G. Edgar,  Po-Tung Fang,  
 S. Faraji,  S. Fatehi,  Qingguo Feng,  K. D. Fenk,  J. Fosso-Tande,  
 J. Gayvert,  Qinghui Ge,  A. Ghysels,  G. Gidofalvi,  J. Gomes,  
 J. Gonthier,  A. Gunina,  D. Hait,  M. W. D. Hanson-Heine,  
 P. H. P. Harbach,  A. W. Hauser,  M. F. Herbst,  J. E. Herr,  
 E. G. Hohenstein,  Z. C. Holden,  Kerwin Hui,  B. C. Huynh,  T.-C. Jagau,  
 Hyunjun Ji,  B. Kaduk,  K. Khistyaev,  Jaehoon Kim,  P. Klunzinger,  K. Koh,  
 D. Kosenkov,  L. Koulias,  T. Kowalczyk,  C. M. Krauter,  A. Kunitsa,  
 Ka Un Lao,  A. Laurent,  K. V. Lawler,  Joonho Lee,  D. Lefrancois,  
 S. Lehtola,  D. S. Levine,  Yi-Pei Li,  You-Sheng Lin,  Fenglai Liu,  
 E. Livshits,  A. Luenser,  P. Manohar,  E. Mansoor,  S. F. Manzer,  
 Shan-Ping Mao,  Yuezhi Mao,  N. Mardirossian,  A. V. Marenich,  
 T. Markovich,  L. A. Martinez-Martinez,  S. A. Maurer,  N. J. Mayhall,  
 S. C. McKenzie,  J.-M. Mewes,  P. Morgante,  A. F. Morrison,  
 J. W. Mullinax,  K. Nanda,  T. S. Nguyen-Beck,  R. Olivares-Amaya,  
 J. A. Parkhill,  Zheng Pei,  T. M. Perrine,  F. Plasser,  P. Pokhilko,  
 S. Prager,  A. Prociuk,  E. Ramos,  D. R. Rehn,  F. Rob,  M. Scheurer,  
 M. Schneider,  N. Sergueev,  S. M. Sharada,  S. Sharma,  D. W. Small,  
 T. Stauch,  T. Stein,  Yu-Chuan Su,  A. J. W. Thom,  A. Tkatchenko,  
 T. Tsuchimochi,  N. M. Tubman,  L. Vogt,  M. L. Vidal,  O. Vydrov,  
 M. A. Watson,  J. Wenzel,  M. de Wergifosse,  T. A. Wesolowski,  A. White,  
 J. Witte,  A. Yamada,  Jun Yang,  K. Yao,  S. Yeganeh,  S. R. Yost,  
 Zhi-Qiang You,  A. Zech,  Igor Ying Zhang,  Xing Zhang,  Yan Zhao,  
 Ying Zhu,  B. R. Brooks,  G. K. L. Chan,  C. J. Cramer,  M. S. Gordon,  
 W. J. Hehre,  A. Klamt,  M. W. Schmidt,  C. D. Sherrill,  D. G. Truhlar,  
 A. Aspuru-Guzik,  R. Baer,  A. T. Bell,  N. A. Besley,  Jeng-Da Chai,  
 A. E. DePrince, III,  R. A. DiStasio Jr.,  A. Dreuw,  B. D. Dunietz,  
 T. R. Furlani,  Chao-Ping Hsu,  Yousung Jung,  Jing Kong,  D. S. Lambrecht,  
 WanZhen Liang,  C. Ochsenfeld,  V. A. Rassolov,  L. V. Slipchenko,  
 J. E. Subotnik,  T. Van Voorhis,  J. M. Herbert,  A. I. Krylov,  
 P. M. W. Gill,  M. Head-Gordon

 Contributors to earlier versions of Q-Chem not listed above: 
 R. D. Adamson,  B. Austin,  J. Baker,  G. J. O. Beran,  K. Brandhorst,  
 S. T. Brown,  E. F. C. Byrd,  A. K. Chakraborty,  C.-L. Cheng,  
 Siu Hung Chien,  D. M. Chipman,  D. L. Crittenden,  H. Dachsel,  
 R. J. Doerksen,  A. D. Dutoi,  L. Fusti-Molnar,  W. A. Goddard III,  
 A. Golubeva-Zadorozhnaya,  S. R. Gwaltney,  G. Hawkins,  A. Heyden,  
 S. Hirata,  G. Kedziora,  F. J. Keil,  C. Kelley,  Jihan Kim,  R. A. King,  
 R. Z. Khaliullin,  P. P. Korambath,  W. Kurlancheek,  A. M. Lee,  M. S. Lee,  
 S. V. Levchenko,  Ching Yeh Lin,  D. Liotard,  R. C. Lochan,  I. Lotan,  
 P. E. Maslen,  N. Nair,  D. P. O'Neill,  D. Neuhauser,  E. Neuscamman,  
 C. M. Oana,  R. Olson,  B. Peters,  R. Peverati,  P. A. Pieniazek,  
 Y. M. Rhee,  J. Ritchie,  M. A. Rohrdanz,  E. Rosta,  N. J. Russ,  
 H. F. Schaefer III,  N. E. Schultz,  N. Shenvi,  A. C. Simmonett,  A. Sodt,  
 D. Stuck,  K. S. Thanthiriwatte,  V. Vanovschi,  Tao Wang,  A. Warshel,  
 C. F. Williams,  Q. Wu,  X. Xu,  W. Zhang

 Please cite Q-Chem as follows:
 Y. Shao et al., Mol. Phys. 113, 184-215 (2015)
 DOI: 10.1080/00268976.2014.952696

 Q-Chem 5.2.0 for Intel X86 EM64T Linux

 Parts of Q-Chem use Armadillo 8.300.2 (Tropical Shenanigans).
 http://arma.sourceforge.net/

 Q-Chem begins on Sun Sep 26 03:14:43 2021  

Host: cori01
0

     Scratch files written to /tmp/qchem17203//Frg1//
 May1019 |scratch|qcdevops|jenkins|workspace|build_RNUM -1
Processing $rem in /global/common/cori/software/qchem/5.2/config/preferences:
	 MEM_TOTAL  96000 
NAlpha2: 44
NElect   44
Mult     1
Symmetry turned off for PCM/SM12/SMD calculation

Checking the input file for inconsistencies... 	...done.

--------------------------------------------------------------
User input:
--------------------------------------------------------------
$molecule
0 1
 6	-0.7711423912	-3.4333837003	-0.0584397327
 6	-0.6651423912	-2.7363837003	-1.3804397327
 6	-0.6081423912	-1.0363837003	-2.7754397327
 6	-0.4171423912	-3.2253837003	-2.6254397327
 7	-0.7681423912	-1.3683837003	-1.5004397327
 7	-0.3691423912	-2.1393837003	-3.4754397327
 1	-0.6561423912	-0.0313837003	-3.1804397327
 1	-1.0351423912	-4.4783837003	-0.2154397327
 1	-1.5871423912	-2.9613837003	0.4835602673
 1	-0.2081423912	-2.1653837003	-4.4764397327
 1	-0.2641423912	-4.2653837003	-2.8834397327
 1	0.1338676088	-3.3364187003	0.5592602673
$end
$rem
EDA2		1
METHOD		WB97X-V
BASIS		DEF2-TZVPD
XC_GRID		000099000590
NL_GRID		1
UNRESTRICTED		FALSE
MAX_SCF_CYCLES		200
SYMMETRY		FALSE
SYM_IGNORE		TRUE
BASIS_LIN_DEP_THRESH		6
THRESH		14
SCF_CONVERGENCE		8
SCF_PRINT_FRGM		TRUE
SOLVENT_METHOD		SMD
!required keywords
JOBTYPE		SP
SYM_IGNORE		TRUE
SUBSYSTEM		TRUE
GEN_SCFMAN		TRUE
CHILD_INSTRUCTION		2
SYM_IGNORE		TRUE
SCFMI		0
RI_K 0		
PARI_K 0		
MIN_PARI_K 0		
IARI_K 0		
OCC_RI_K 0		
PURECART		1111
MEM_STATIC		2000
MEM_TOTAL		96000
GUI		0
CHILD_MP		1
CHILD_MP_ORDERS		232
FRZ_RELAX		0
FRZ_RELAX_METHOD		0
EDA_CLS_ELEC		1
EDA_CLS_DISP		0
FRZ_ORTHO_DECOMP		1
EDA2		FALSE
FRGM_METHOD		FALSE
CIS_N_ROOTS  0
LOCAL_CIS    0
CIS_RLX_DNS  1
$end
$smx
SOLVENT			WATER
$end
--------------------------------------------------------------
 ----------------------------------------------------------------
             Standard Nuclear Orientation (Angstroms)
    I     Atom           X                Y                Z
 ----------------------------------------------------------------
    1      C      -0.7711423912    -3.4333837003    -0.0584397327
    2      C      -0.6651423912    -2.7363837003    -1.3804397327
    3      C      -0.6081423912    -1.0363837003    -2.7754397327
    4      C      -0.4171423912    -3.2253837003    -2.6254397327
    5      N      -0.7681423912    -1.3683837003    -1.5004397327
    6      N      -0.3691423912    -2.1393837003    -3.4754397327
    7      H      -0.6561423912    -0.0313837003    -3.1804397327
    8      H      -1.0351423912    -4.4783837003    -0.2154397327
    9      H      -1.5871423912    -2.9613837003     0.4835602673
   10      H      -0.2081423912    -2.1653837003    -4.4764397327
   11      H      -0.2641423912    -4.2653837003    -2.8834397327
   12      H       0.1338676088    -3.3364187003     0.5592602673
 ----------------------------------------------------------------
 Nuclear Repulsion Energy =         224.72181463 hartrees
 There are       22 alpha and       22 beta electrons
 Requested basis set is def2-TZVPD
 There are 108 shells and 276 basis functions

 Total QAlloc Memory Limit  96000 MB
 Mega-Array Size      1956 MB
 MEM_STATIC part      2000 MB
 
 Citation of the SMD model:
 Marenich, A.V.; Cramer, C.J.; Truhlar, D.G.
 J. Phys. Chem. B 2009, 113, 6378-6396.
 iSolventCode=           1
 Solvent: water                                                           
 
 vradii
            1           2           3           4           5           6
    1   1.8500000   1.8500000   1.8500000   1.8500000   1.8900000   1.8900000
            7           8           9          10          11          12
    1   1.2000000   1.2000000   1.2000000   1.2000000   1.2000000   1.2000000
 Changing PCM_VDW_RADII to SMD_RADIUS
 Discretize the solute cavity surface with Lebedev spheres
	Using 110 Lebedev grid points for each H atom
	Using 194 Lebedev grid points for other atoms
	Atomic van der Waals radii will be scaled by 1.20
 Remove points where switching function is < 1.0e-08
 Keep 899 surface tesserae and discard 925 interior tesserae
 Molecular Surface Area = 116.434 Angst**2

                       Distance Matrix (Angstroms)
             C (  1)   C (  2)   C (  3)   C (  4)   N (  5)   N (  6)
   C (  2)  1.498242
   C (  3)  3.626881  2.199835
   C (  4)  2.599629  1.360386  2.202431
   N (  5)  2.518650  1.377110  1.327196  2.199381
   N (  6)  3.675858  2.198420  1.328055  1.379928  2.157375
   H (  7)  4.618843  3.249170  1.084599  3.250659  2.150003  2.147803
   H (  8)  1.089206  2.128072  4.310834  2.785684  3.375591  4.067195
   H (  9)  1.087384  2.091699  3.909622  3.332338  2.672951  4.222901
   H ( 10)  4.630715  3.181211  2.080395  2.143241  3.131355  1.014198
   H ( 11)  2.988293  2.181204  3.249068  1.082392  3.249510  2.209381
   H ( 12)  1.099999  2.181948  4.118369  3.233923  2.988168  4.238480
             H (  7)   H (  8)   H (  9)   H ( 10)   H ( 11)
   H (  8)  5.358234
   H (  9)  4.782944  1.759146
   H ( 10)  2.536587  4.918335  5.209305
   H ( 11)  4.262467  2.785325  3.845443  2.636434
   H ( 12)  5.052992  1.808543  1.763025  5.181367  3.587976
 
 A cutoff of  1.0D-14 yielded   5735 shell pairs
 There are     38167 function pairs (     48946 Cartesian)
 Smallest overlap matrix eigenvalue = 1.81E-06

 Scale SEOQF with 1.000000e-01/1.000000e-01/1.000000e-01

 Standard Electronic Orientation quadrupole field applied
 Nucleus-field energy     =    -0.0000000040 hartrees
 Guess from superposition of atomic densities
 Warning:  Energy on first SCF cycle will be non-variational
 SAD guess density has 43.559167 electrons

 -----------------------------------------------------------------------
  General SCF calculation program by
  Eric Jon Sundstrom, Paul Horn, Yuezhi Mao, Dmitri Zuev, Alec White,
  David Stuck, Shaama M.S., Shane Yost, Joonho Lee, David Small,
  Daniel Levine, Susi Lehtola, Hugh Burton, Evgeny Epifanovsky
 -----------------------------------------------------------------------
 Exchange:     0.1670 Hartree-Fock + 1.0000 wB97X-V + LR-HF
 Correlation:  1.0000 wB97X-V
 Using Euler-Maclaurin-Lebedev (99,590) quadrature formula
 Nonlocal Correlation:  VV10 with C = 0.0100 and b = 6.00 and scale = 1.00000
 Grid used for NLC:  SG-1 standard quadrature
Energy prior to optimization (guess energy) = -265.141906507792
Begin Timing: Total SCF Calculation
begin iterations for algorithm: DIIS         
the SCF tolerance is set to 1.00e-08
    1    -265.1419065078      7.23e-03     00000 
    2    -265.0990803164      7.40e-03     00000 
    3    -265.5669196793      7.28e-04     00000 
    4    -265.5716130661      3.83e-04     00000 
    5    -265.5730317053      1.12e-04     00000 
    6    -265.5731915008      4.18e-05     00000 
    7    -265.5732160687      1.16e-05     00000 
    8    -265.5732186895      3.37e-06     00000 
    9    -265.5732189798      1.65e-06     00000 
   10    -265.5732190301      4.06e-07     00000 
   11    -265.5732190353      7.84e-08     00000 
   12    -265.5732190355      3.96e-08     00000 
   13    -265.5732190355      1.08e-08     00000 
   14    -265.5732190355      4.14e-09     00000 Convergence criterion met
Timing for Total SCF: 916.00s (wall), 1818.21s (cpu)
(3)  G-ENP(liq) elect-nuc-pol free energy of system     -265.573219036 a.u.
(4)  G-CDS(liq) cavity-dispersion-solvent structure 
     free energy                                                2.1306 kcal/mol
(6)  G-S(liq) free energy of system                     -265.569823631 a.u.
E_pcm = -0.0226552128
E_cds = 0.0033954044
Multipole orders to be included
        2
        3
computing dipole RHS
computing quadrupole RHS
total number of RHS in solve_reponses: 8
RHS batch sizes
        8
Beginning Block Conjugate Gradient Iterations. Batch Number: 0
computing hessian-vector products by finite difference
              1      6.53e-01     00000 Conjugate Gradient Iteration
computing hessian-vector products by finite difference
              2      2.00e-01     00000 Conjugate Gradient Iteration
computing hessian-vector products by finite difference
              3      5.50e-02     00000 Conjugate Gradient Iteration
computing hessian-vector products by finite difference
              4      1.65e-02     00000 Conjugate Gradient Iteration
computing hessian-vector products by finite difference
              5      3.03e-03     00000 Conjugate Gradient Iteration
computing hessian-vector products by finite difference
              6      5.84e-04     00000 Conjugate Gradient Iteration
computing hessian-vector products by finite difference
              7      1.07e-04     00000 Conjugate Gradient Iteration
computing hessian-vector products by finite difference
              8      1.85e-05     00000 Conjugate Gradient Iteration
computing hessian-vector products by finite difference
              9      3.06e-06     00000 Conjugate Gradient Iteration
computing hessian-vector products by finite difference
             10      4.27e-07     00000 Conjugate Gradient Iteration
computing hessian-vector products by finite difference
             11      6.28e-08     00000 Conjugate Gradient Iteration
computing hessian-vector products by finite difference
             12      9.39e-09     00000 CG Converged
batch 0 complete
Done Calculating Responses
TESTING ORTHOGONALIZATION OF MULTIPOLE BASIS
Multipole virts passed orthogonality test
Virts Per Order
           66
          110
 
 --------------------------------------------------------------
 
                    Orbital Energies (a.u.)
 --------------------------------------------------------------
 
 Alpha MOs
 -- Occupied --
-14.4590 -14.3850 -10.3170 -10.2838 -10.2825 -10.2566  -1.1517  -0.9935
 -0.8948  -0.8227  -0.7221  -0.6816  -0.6625  -0.5622  -0.5531  -0.5363
 -0.5089  -0.4941  -0.4769  -0.3767  -0.3752  -0.3213
 -- Virtual --
  0.0687   0.0878   0.0978   0.1074   0.1186   0.1299   0.1362   0.1470
  0.1716   0.1738   0.1795   0.1873   0.2014   0.2059   0.2273   0.2436
  0.2473   0.2526   0.2625   0.2642   0.2726   0.2917   0.3005   0.3089
  0.3140   0.3173   0.3237   0.3264   0.3322   0.3397   0.3516   0.3586
  0.3612   0.3691   0.3772   0.3853   0.3958   0.3988   0.4109   0.4180
  0.4217   0.4282   0.4329   0.4520   0.4613   0.4693   0.4728   0.4857
  0.4863   0.4964   0.4992   0.5214   0.5337   0.5449   0.5525   0.5636
  0.5697   0.5745   0.5885   0.5969   0.6079   0.6153   0.6231   0.6329
  0.6533   0.6594   0.6704   0.6870   0.6998   0.7018   0.7038   0.7217
  0.7364   0.7402   0.7660   0.7759   0.7825   0.7879   0.7937   0.8008
  0.8094   0.8192   0.8279   0.8396   0.8694   0.8779   0.8823   0.8898
  0.9179   0.9395   0.9649   0.9879   1.0040   1.0101   1.0211   1.0361
  1.0696   1.0770   1.1076   1.1149   1.1341   1.1611   1.1818   1.2201
  1.2336   1.2429   1.2781   1.3218   1.3446   1.3585   1.3782   1.4359
  1.4501   1.4642   1.5334   1.5531   1.6146   1.6409   1.6535   1.6806
  1.7006   1.7499   1.8042   1.8317   1.8385   1.8619   1.8741   1.8861
  1.9120   1.9502   1.9554   1.9578   1.9775   1.9854   2.0054   2.0128
  2.0256   2.0704   2.0916   2.1339   2.1820   2.2406   2.2594   2.2713
  2.3049   2.3466   2.3883   2.3964   2.4391   2.4568   2.4698   2.5036
  2.5503   2.5830   2.6021   2.6323   2.6433   2.6539   2.6999   2.7208
  2.7509   2.7741   2.7936   2.8309   2.8752   2.9007   2.9052   2.9939
  3.0137   3.0489   3.0613   3.0716   3.0894   3.1306   3.1418   3.1667
  3.1832   3.2105   3.2270   3.2337   3.2705   3.2946   3.3202   3.3434
  3.3467   3.3680   3.3883   3.4018   3.4215   3.4288   3.4784   3.4955
  3.5210   3.5420   3.5748   3.6071   3.6310   3.6674   3.7073   3.7207
  3.7484   3.7921   3.8187   3.8660   3.8770   3.9518   3.9579   4.0429
  4.0840   4.1143   4.1301   4.2359   4.2947   4.4016   4.4361   4.4801
  4.5007   4.5774   4.6194   4.7431   4.7693   4.8234   4.8449   4.8725
  4.9333   4.9665   5.0154   5.0426   5.0500   5.0875   5.1625   5.1981
  5.2374   5.3038   5.3822   5.4478   5.4884   5.5354   5.5880   5.6059
  5.6720   5.7051   5.7507   5.7965   5.8781   6.0309   6.2334   6.2936
 22.6296  22.8706  23.1235  23.3910  32.6524  32.7797
 --------------------------------------------------------------
 
          Ground-State Mulliken Net Atomic Charges

     Atom                 Charge (a.u.)
  ----------------------------------------
      1 C                    -0.817196
      2 C                     0.533170
      3 C                    -0.249305
      4 C                    -0.577104
      5 N                    -0.546243
      6 N                     0.075482
      7 H                     0.339371
      8 H                     0.252228
      9 H                     0.243333
     10 H                     0.197756
     11 H                     0.320921
     12 H                     0.227585
  ----------------------------------------
  Sum of atomic charges =     0.000000

 -----------------------------------------------------------------
                    Cartesian Multipole Moments
 -----------------------------------------------------------------
    Charge (ESU x 10^10)
                 0.0000
    Dipole Moment (Debye)
         X       0.9012      Y      -1.9003      Z      -4.5030
       Tot       4.9699
    Quadrupole Moments (Debye-Ang)
        XX     -39.4079     XY      -0.6140     YY     -24.8342
        XZ      -0.2696     YZ       8.9899     ZZ      -9.5886
    Octopole Moments (Debye-Ang^2)
       XXX      70.6628    XXY      91.7185    XYY      19.4462
       YYY     207.0871    XXZ      75.9767    XYZ       2.0534
       YYZ      35.7508    XZZ      18.8088    YZZ      36.6053
       ZZZ      78.6655
    Hexadecapole Moments (Debye-Ang^3)
      XXXX    -141.7177   XXXY    -163.4922   XXYY    -283.5630
      XYYY    -137.1507   YYYY   -1251.8839   XXXZ    -116.4568
      XXYZ    -161.2163   XYYZ     -36.6502   YYYZ    -301.9109
      XXZZ    -231.4499   XYZZ     -55.6568   YYZZ    -299.1682
      XZZZ     -86.2437   YZZZ    -186.4454   ZZZZ    -568.5466
 -----------------------------------------------------------------
Archival summary:
1\1\nid00508\SP\ProcedureUnspecified\BasisUnspecified\246\meili\SunSep2607:32:452021SunSep2607:32:452021\0\\#,ProcedureUnspecified,BasisUnspecified,\\0,1\N\C,1,1.3272\H,2,1.0846,1,125.816\N,2,1.32805,1,108.681,3,179.554,0\H,4,1.0142,2,124.756,1,-179.887,0\C,1,1.37711,2,108.856,3,178.756,0\C,6,1.36039,1,106.916,2,0.865271,0\H,7,1.08239,6,126.107,1,178.877,0\C,6,1.49824,1,122.258,2,178.719,0\H,9,1.08738,6,106.916,1,42.2178,0\H,9,1.08921,6,109.651,1,158.877,0\H,9,1.1,6,113.345,1,-75.9416,0\\\@

 Total job time:  15483.05s(wall), 30618.59s(cpu) 
 Sun Sep 26 07:32:46 2021

        *************************************************************
        *                                                           *
        *  Thank you very much for using Q-Chem.  Have a nice day.  *
        *                                                           *
        *************************************************************


Done Job For Fragment 0
calling putenv with: QCSCRATCH=/global/cscratch1/sd/meili 
calling putenv with: QCLOCALSCR=/tmp 
calling putenv with: QCTHREADS=32 
Creating input file /tmp/qchem17203/Frg2.input
using default PutDataFrgm: nothing
calling putenv with: QCSCRATCH=/tmp/qchem17203/ 
calling putenv with: QCLOCALSCR=/tmp/qchem17203/ 
Spawning Job For Fragment 1
                  Welcome to Q-Chem
     A Quantum Leap Into The Future Of Chemistry


 Q-Chem 5.2, Q-Chem, Inc., Pleasanton, CA (2019)

 License issued to: National Energy Research Scientific Computing Center

 Yihan Shao,  Zhengting Gan,  E. Epifanovsky,  A. T. B. Gilbert,  M. Wormit,  
 J. Kussmann,  A. W. Lange,  A. Behn,  Jia Deng,  Xintian Feng,  D. Ghosh,  
 M. Goldey,  P. R. Horn,  L. D. Jacobson,  I. Kaliman,  T. Kus,  A. Landau,  
 Jie Liu,  E. I. Proynov,  R. M. Richard,  R. P. Steele,  E. J. Sundstrom,  
 H. L. Woodcock III,  P. M. Zimmerman,  D. Zuev,  B. Albrecht,  E. Alguire,  
 S. A. Baeppler,  D. Barton,  Z. Benda,  Y. A. Bernard,  E. J. Berquist,  
 K. B. Bravaya,  H. Burton,  D. Casanova,  Chun-Min Chang,  Yunqing Chen,  
 A. Chien,  K. D. Closser,  M. P. Coons,  S. Coriani,  S. Dasgupta,  
 A. L. Dempwolff,  M. Diedenhofen,  Hainam Do,  R. G. Edgar,  Po-Tung Fang,  
 S. Faraji,  S. Fatehi,  Qingguo Feng,  K. D. Fenk,  J. Fosso-Tande,  
 J. Gayvert,  Qinghui Ge,  A. Ghysels,  G. Gidofalvi,  J. Gomes,  
 J. Gonthier,  A. Gunina,  D. Hait,  M. W. D. Hanson-Heine,  
 P. H. P. Harbach,  A. W. Hauser,  M. F. Herbst,  J. E. Herr,  
 E. G. Hohenstein,  Z. C. Holden,  Kerwin Hui,  B. C. Huynh,  T.-C. Jagau,  
 Hyunjun Ji,  B. Kaduk,  K. Khistyaev,  Jaehoon Kim,  P. Klunzinger,  K. Koh,  
 D. Kosenkov,  L. Koulias,  T. Kowalczyk,  C. M. Krauter,  A. Kunitsa,  
 Ka Un Lao,  A. Laurent,  K. V. Lawler,  Joonho Lee,  D. Lefrancois,  
 S. Lehtola,  D. S. Levine,  Yi-Pei Li,  You-Sheng Lin,  Fenglai Liu,  
 E. Livshits,  A. Luenser,  P. Manohar,  E. Mansoor,  S. F. Manzer,  
 Shan-Ping Mao,  Yuezhi Mao,  N. Mardirossian,  A. V. Marenich,  
 T. Markovich,  L. A. Martinez-Martinez,  S. A. Maurer,  N. J. Mayhall,  
 S. C. McKenzie,  J.-M. Mewes,  P. Morgante,  A. F. Morrison,  
 J. W. Mullinax,  K. Nanda,  T. S. Nguyen-Beck,  R. Olivares-Amaya,  
 J. A. Parkhill,  Zheng Pei,  T. M. Perrine,  F. Plasser,  P. Pokhilko,  
 S. Prager,  A. Prociuk,  E. Ramos,  D. R. Rehn,  F. Rob,  M. Scheurer,  
 M. Schneider,  N. Sergueev,  S. M. Sharada,  S. Sharma,  D. W. Small,  
 T. Stauch,  T. Stein,  Yu-Chuan Su,  A. J. W. Thom,  A. Tkatchenko,  
 T. Tsuchimochi,  N. M. Tubman,  L. Vogt,  M. L. Vidal,  O. Vydrov,  
 M. A. Watson,  J. Wenzel,  M. de Wergifosse,  T. A. Wesolowski,  A. White,  
 J. Witte,  A. Yamada,  Jun Yang,  K. Yao,  S. Yeganeh,  S. R. Yost,  
 Zhi-Qiang You,  A. Zech,  Igor Ying Zhang,  Xing Zhang,  Yan Zhao,  
 Ying Zhu,  B. R. Brooks,  G. K. L. Chan,  C. J. Cramer,  M. S. Gordon,  
 W. J. Hehre,  A. Klamt,  M. W. Schmidt,  C. D. Sherrill,  D. G. Truhlar,  
 A. Aspuru-Guzik,  R. Baer,  A. T. Bell,  N. A. Besley,  Jeng-Da Chai,  
 A. E. DePrince, III,  R. A. DiStasio Jr.,  A. Dreuw,  B. D. Dunietz,  
 T. R. Furlani,  Chao-Ping Hsu,  Yousung Jung,  Jing Kong,  D. S. Lambrecht,  
 WanZhen Liang,  C. Ochsenfeld,  V. A. Rassolov,  L. V. Slipchenko,  
 J. E. Subotnik,  T. Van Voorhis,  J. M. Herbert,  A. I. Krylov,  
 P. M. W. Gill,  M. Head-Gordon

 Contributors to earlier versions of Q-Chem not listed above: 
 R. D. Adamson,  B. Austin,  J. Baker,  G. J. O. Beran,  K. Brandhorst,  
 S. T. Brown,  E. F. C. Byrd,  A. K. Chakraborty,  C.-L. Cheng,  
 Siu Hung Chien,  D. M. Chipman,  D. L. Crittenden,  H. Dachsel,  
 R. J. Doerksen,  A. D. Dutoi,  L. Fusti-Molnar,  W. A. Goddard III,  
 A. Golubeva-Zadorozhnaya,  S. R. Gwaltney,  G. Hawkins,  A. Heyden,  
 S. Hirata,  G. Kedziora,  F. J. Keil,  C. Kelley,  Jihan Kim,  R. A. King,  
 R. Z. Khaliullin,  P. P. Korambath,  W. Kurlancheek,  A. M. Lee,  M. S. Lee,  
 S. V. Levchenko,  Ching Yeh Lin,  D. Liotard,  R. C. Lochan,  I. Lotan,  
 P. E. Maslen,  N. Nair,  D. P. O'Neill,  D. Neuhauser,  E. Neuscamman,  
 C. M. Oana,  R. Olson,  B. Peters,  R. Peverati,  P. A. Pieniazek,  
 Y. M. Rhee,  J. Ritchie,  M. A. Rohrdanz,  E. Rosta,  N. J. Russ,  
 H. F. Schaefer III,  N. E. Schultz,  N. Shenvi,  A. C. Simmonett,  A. Sodt,  
 D. Stuck,  K. S. Thanthiriwatte,  V. Vanovschi,  Tao Wang,  A. Warshel,  
 C. F. Williams,  Q. Wu,  X. Xu,  W. Zhang

 Please cite Q-Chem as follows:
 Y. Shao et al., Mol. Phys. 113, 184-215 (2015)
 DOI: 10.1080/00268976.2014.952696

 Q-Chem 5.2.0 for Intel X86 EM64T Linux

 Parts of Q-Chem use Armadillo 8.300.2 (Tropical Shenanigans).
 http://arma.sourceforge.net/

 Q-Chem begins on Sun Sep 26 07:32:48 2021  

Host: cori01
0

     Scratch files written to /tmp/qchem17203//Frg2//
 May1019 |scratch|qcdevops|jenkins|workspace|build_RNUM -1
Processing $rem in /global/common/cori/software/qchem/5.2/config/preferences:
	 MEM_TOTAL  96000 
NAlpha2: 58
NElect   58
Mult     1
Symmetry turned off for PCM/SM12/SMD calculation

Checking the input file for inconsistencies... 	...done.

--------------------------------------------------------------
User input:
--------------------------------------------------------------
$molecule
0 1
 6	2.4098576088	3.8066162997	2.3325602673
 6	-0.4681423912	0.8256162997	1.1185602673
 6	0.8638576088	0.7166162997	0.7035602673
 6	-0.8691423912	1.8936162997	1.9035602673
 6	1.8028576088	1.6726162997	1.1095602673
 6	0.0788576088	2.8546162997	2.3015602673
 6	1.4198576088	2.7296162997	1.9385602673
 8	-1.4111423912	-0.0773837003	0.7075602673
 1	-1.1001423912	-0.5863837003	-0.0704397327
 1	1.1678576088	-0.1013837003	0.0665602673
 1	-1.9021423912	1.9836162997	2.2035602673
 1	2.8308576088	1.5816162997	0.7875602673
 1	-0.2361423912	3.6936162997	2.9005602673
 1	3.3038576088	3.3266162997	2.7285602673
 1	1.9888576088	4.4266162997	3.1245602673
 1	2.7030076088	4.4459562997	1.4868002673
$end
$rem
EDA2		1
METHOD		WB97X-V
BASIS		DEF2-TZVPD
XC_GRID		000099000590
NL_GRID		1
UNRESTRICTED		FALSE
MAX_SCF_CYCLES		200
SYMMETRY		FALSE
SYM_IGNORE		TRUE
BASIS_LIN_DEP_THRESH		6
THRESH		14
SCF_CONVERGENCE		8
SCF_PRINT_FRGM		TRUE
SOLVENT_METHOD		SMD
!required keywords
JOBTYPE		SP
SYM_IGNORE		TRUE
SUBSYSTEM		TRUE
GEN_SCFMAN		TRUE
CHILD_INSTRUCTION		2
SYM_IGNORE		TRUE
SCFMI		0
RI_K 0		
PARI_K 0		
MIN_PARI_K 0		
IARI_K 0		
OCC_RI_K 0		
PURECART		1111
MEM_STATIC		2000
MEM_TOTAL		96000
GUI		0
CHILD_MP		1
CHILD_MP_ORDERS		232
FRZ_RELAX		0
FRZ_RELAX_METHOD		0
EDA_CLS_ELEC		1
EDA_CLS_DISP		0
FRZ_ORTHO_DECOMP		1
EDA2		FALSE
FRGM_METHOD		FALSE
CIS_N_ROOTS  0
LOCAL_CIS    0
CIS_RLX_DNS  1
$end
$smx
SOLVENT			WATER
$end
--------------------------------------------------------------
 ----------------------------------------------------------------
             Standard Nuclear Orientation (Angstroms)
    I     Atom           X                Y                Z
 ----------------------------------------------------------------
    1      C       2.4098576088     3.8066162997     2.3325602673
    2      C      -0.4681423912     0.8256162997     1.1185602673
    3      C       0.8638576088     0.7166162997     0.7035602673
    4      C      -0.8691423912     1.8936162997     1.9035602673
    5      C       1.8028576088     1.6726162997     1.1095602673
    6      C       0.0788576088     2.8546162997     2.3015602673
    7      C       1.4198576088     2.7296162997     1.9385602673
    8      O      -1.4111423912    -0.0773837003     0.7075602673
    9      H      -1.1001423912    -0.5863837003    -0.0704397327
   10      H       1.1678576088    -0.1013837003     0.0665602673
   11      H      -1.9021423912     1.9836162997     2.2035602673
   12      H       2.8308576088     1.5816162997     0.7875602673
   13      H      -0.2361423912     3.6936162997     2.9005602673
   14      H       3.3038576088     3.3266162997     2.7285602673
   15      H       1.9888576088     4.4266162997     3.1245602673
   16      H       2.7030076088     4.4459562997     1.4868002673
 ----------------------------------------------------------------
 Nuclear Repulsion Energy =         342.11343940 hartrees
 There are       29 alpha and       29 beta electrons
 Requested basis set is def2-TZVPD
 There are 145 shells and 371 basis functions

 Total QAlloc Memory Limit  96000 MB
 Mega-Array Size      1956 MB
 MEM_STATIC part      2000 MB
 
 Citation of the SMD model:
 Marenich, A.V.; Cramer, C.J.; Truhlar, D.G.
 J. Phys. Chem. B 2009, 113, 6378-6396.
 iSolventCode=           1
 Solvent: water                                                           
 
 vradii
            1           2           3           4           5           6
    1   1.8500000   1.8500000   1.8500000   1.8500000   1.8500000   1.8500000
            7           8           9          10          11          12
    1   1.8500000   1.5200000   1.2000000   1.2000000   1.2000000   1.2000000
           13          14          15          16
    1   1.2000000   1.2000000   1.2000000   1.2000000
 Changing PCM_VDW_RADII to SMD_RADIUS
 Discretize the solute cavity surface with Lebedev spheres
	Using 110 Lebedev grid points for each H atom
	Using 194 Lebedev grid points for other atoms
	Atomic van der Waals radii will be scaled by 1.20
 Remove points where switching function is < 1.0e-08
 Keep 1187 surface tesserae and discard 1245 interior tesserae
 Molecular Surface Area = 141.948 Angst**2
 A cutoff of  1.0D-14 yielded  10040 shell pairs
 There are     67050 function pairs (     85737 Cartesian)
 Smallest overlap matrix eigenvalue = 5.89E-07
 Linear dependence detected in AO basis
 Tighter screening thresholds may be required for diffuse basis sets
 Use S2THRESH > 14 and THRESH = 14 in case of SCF convergence issues
 Number of orthogonalized atomic orbitals = 370
 Maximum deviation from orthogonality = 2.581E-10

 Scale SEOQF with 1.000000e-01/1.000000e-01/1.000000e-01

 Standard Electronic Orientation quadrupole field applied
 Nucleus-field energy     =     0.0000000083 hartrees
 Guess from superposition of atomic densities
 Warning:  Energy on first SCF cycle will be non-variational
 SAD guess density has 57.738434 electrons

 -----------------------------------------------------------------------
  General SCF calculation program by
  Eric Jon Sundstrom, Paul Horn, Yuezhi Mao, Dmitri Zuev, Alec White,
  David Stuck, Shaama M.S., Shane Yost, Joonho Lee, David Small,
  Daniel Levine, Susi Lehtola, Hugh Burton, Evgeny Epifanovsky
 -----------------------------------------------------------------------
 Exchange:     0.1670 Hartree-Fock + 1.0000 wB97X-V + LR-HF
 Correlation:  1.0000 wB97X-V
 Using Euler-Maclaurin-Lebedev (99,590) quadrature formula
 Nonlocal Correlation:  VV10 with C = 0.0100 and b = 6.00 and scale = 1.00000
 Grid used for NLC:  SG-1 standard quadrature
Energy prior to optimization (guess energy) = -346.494024981093
Begin Timing: Total SCF Calculation
begin iterations for algorithm: DIIS         
the SCF tolerance is set to 1.00e-08
    1    -346.4940249811      5.18e-03     00000 
    2    -346.4260840417      5.64e-03     00000 
    3    -346.8198574606      5.30e-04     00000 
    4    -346.8247633754      1.75e-04     00000 
    5    -346.8254660717      3.81e-05     00000 
    6    -346.8255185600      1.31e-05     00000 
    7    -346.8255234220      4.92e-06     00000 
    8    -346.8255241559      1.57e-06     00000 
    9    -346.8255242538      5.15e-07     00000 
   10    -346.8255242680      2.72e-07     00000 
   11    -346.8255242724      7.72e-08     00000 
   12    -346.8255242732      3.48e-08     00000 
   13    -346.8255242733      1.44e-08     00000 
   14    -346.8255242733      3.61e-09     00000 Convergence criterion met
Timing for Total SCF: 2168.00s (wall), 4310.93s (cpu)
(3)  G-ENP(liq) elect-nuc-pol free energy of system     -346.825524273 a.u.
(4)  G-CDS(liq) cavity-dispersion-solvent structure 
     free energy                                                3.7814 kcal/mol
(6)  G-S(liq) free energy of system                     -346.819498221 a.u.
E_pcm = -0.0175723408
E_cds = 0.0060260526
Multipole orders to be included
        2
        3
computing dipole RHS
computing quadrupole RHS
total number of RHS in solve_reponses: 8
RHS batch sizes
        8
Beginning Block Conjugate Gradient Iterations. Batch Number: 0
computing hessian-vector products by finite difference
              1      6.58e-01     00000 Conjugate Gradient Iteration
computing hessian-vector products by finite difference
              2      1.99e-01     00000 Conjugate Gradient Iteration
computing hessian-vector products by finite difference
              3      5.05e-02     00000 Conjugate Gradient Iteration
computing hessian-vector products by finite difference
              4      1.42e-02     00000 Conjugate Gradient Iteration
computing hessian-vector products by finite difference
              5      3.39e-03     00000 Conjugate Gradient Iteration
computing hessian-vector products by finite difference
              6      1.25e-03     00000 Conjugate Gradient Iteration
computing hessian-vector products by finite difference
              7      2.83e-04     00000 Conjugate Gradient Iteration
computing hessian-vector products by finite difference
              8      6.06e-05     00000 Conjugate Gradient Iteration
computing hessian-vector products by finite difference
              9      1.21e-05     00000 Conjugate Gradient Iteration
computing hessian-vector products by finite difference
             10      1.88e-06     00000 Conjugate Gradient Iteration
computing hessian-vector products by finite difference
             11      2.83e-07     00000 Conjugate Gradient Iteration
computing hessian-vector products by finite difference
             12      4.80e-08     00000 Conjugate Gradient Iteration
computing hessian-vector products by finite difference
             13      1.33e-08     00000 Conjugate Gradient Iteration
computing hessian-vector products by finite difference
             14      4.84e-09     00000 CG Converged
batch 0 complete
Done Calculating Responses
TESTING ORTHOGONALIZATION OF MULTIPOLE BASIS
Multipole virts passed orthogonality test
Virts Per Order
           87
          145
 
 --------------------------------------------------------------
 
                    Orbital Energies (a.u.)
 --------------------------------------------------------------
 
 Alpha MOs
 -- Occupied --
-19.2399 -10.3305 -10.2729 -10.2704 -10.2697 -10.2687 -10.2666 -10.2533
 -1.1845  -0.9889  -0.8950  -0.8771  -0.8029  -0.7421  -0.7060  -0.6571
 -0.5952  -0.5733  -0.5474  -0.5349  -0.5264  -0.5152  -0.5029  -0.4704
 -0.4492  -0.4391  -0.4334  -0.3476  -0.3118
 -- Virtual --
  0.0613   0.0632   0.0745   0.0815   0.0890   0.0998   0.1130   0.1156
  0.1192   0.1369   0.1507   0.1542   0.1602   0.1763   0.1845   0.1975
  0.2070   0.2081   0.2205   0.2319   0.2379   0.2434   0.2536   0.2590
  0.2689   0.2698   0.2740   0.2796   0.2907   0.2992   0.3014   0.3051
  0.3090   0.3158   0.3202   0.3289   0.3380   0.3459   0.3481   0.3566
  0.3598   0.3631   0.3666   0.3755   0.3794   0.3844   0.3867   0.3952
  0.3985   0.4001   0.4023   0.4125   0.4157   0.4266   0.4310   0.4376
  0.4402   0.4571   0.4607   0.4643   0.4741   0.4778   0.4786   0.4849
  0.4937   0.4991   0.5040   0.5055   0.5127   0.5196   0.5300   0.5377
  0.5440   0.5512   0.5576   0.5608   0.5678   0.5786   0.5813   0.5929
  0.5995   0.6125   0.6152   0.6299   0.6417   0.6547   0.6649   0.6764
  0.6811   0.6825   0.6925   0.7028   0.7052   0.7070   0.7161   0.7335
  0.7390   0.7446   0.7487   0.7574   0.7619   0.7762   0.7836   0.7867
  0.7952   0.7983   0.7988   0.8053   0.8081   0.8186   0.8332   0.8390
  0.8497   0.8521   0.8557   0.8637   0.8696   0.8791   0.8876   0.8919
  0.9048   0.9182   0.9338   0.9474   0.9587   0.9733   0.9948   1.0026
  1.0192   1.0411   1.0457   1.0500   1.0597   1.0686   1.0758   1.0839
  1.1018   1.1286   1.1350   1.1666   1.2016   1.2294   1.2591   1.2967
  1.3097   1.3139   1.3364   1.3559   1.3679   1.3941   1.4015   1.4395
  1.4537   1.4660   1.4781   1.4859   1.5339   1.5594   1.5988   1.6273
  1.6334   1.6444   1.6889   1.6979   1.7063   1.7313   1.7659   1.7989
  1.8194   1.8259   1.8455   1.8505   1.8780   1.8971   1.9235   1.9301
  1.9395   1.9621   1.9808   1.9880   1.9940   2.0299   2.0426   2.0516
  2.0688   2.0712   2.0959   2.1112   2.1185   2.1650   2.1987   2.2060
  2.2331   2.2491   2.2759   2.2808   2.2941   2.3072   2.3473   2.3629
  2.4012   2.4121   2.4443   2.4619   2.4918   2.5055   2.5332   2.5604
  2.5682   2.6182   2.6328   2.6448   2.6541   2.6623   2.6955   2.7362
  2.7610   2.7664   2.7745   2.8015   2.8193   2.8311   2.8606   2.8850
  2.8961   2.9177   2.9383   2.9486   2.9588   2.9692   2.9810   3.0130
  3.0193   3.0362   3.0622   3.0741   3.0983   3.1303   3.1481   3.1684
  3.1826   3.1931   3.2221   3.2254   3.2472   3.2609   3.2883   3.2967
  3.3228   3.3528   3.3789   3.3877   3.4022   3.4103   3.4396   3.4525
  3.4569   3.4823   3.4951   3.5083   3.5254   3.5317   3.5377   3.5457
  3.5589   3.5698   3.5782   3.5891   3.6000   3.6211   3.6476   3.6744
  3.6936   3.6968   3.7404   3.7617   3.7967   3.8132   3.8462   3.9017
  3.9478   3.9608   3.9682   3.9881   4.0400   4.0772   4.1258   4.1450
  4.2395   4.2674   4.2798   4.3006   4.3216   4.3304   4.3387   4.3603
  4.3754   4.3785   4.4186   4.4648   4.4808   4.5372   4.6031   4.6093
  4.7361   4.7475   4.7924   4.7995   4.8555   4.9183   5.0173   5.0575
  5.0805   5.1277   5.1434   5.2852   5.3028   5.4272   5.4466   5.5199
  5.5842   5.6572   5.7012   5.7705   5.9532   6.1712   6.4609   6.5216
  6.6914   6.8810   6.9799   7.2991   7.4293  22.6723  22.6782  22.9345
 22.9667  23.0110  23.1694  23.4854  44.4135
 --------------------------------------------------------------
 
          Ground-State Mulliken Net Atomic Charges

     Atom                 Charge (a.u.)
  ----------------------------------------
      1 C                    -1.046404
      2 C                     0.638907
      3 C                    -0.466000
      4 C                    -0.707137
      5 C                    -0.565271
      6 C                    -0.496535
      7 C                     0.488210
      8 O                    -0.560703
      9 H                     0.353634
     10 H                     0.365854
     11 H                     0.391571
     12 H                     0.410601
     13 H                     0.376484
     14 H                     0.277449
     15 H                     0.292997
     16 H                     0.246344
  ----------------------------------------
  Sum of atomic charges =     0.000000

 -----------------------------------------------------------------
                    Cartesian Multipole Moments
 -----------------------------------------------------------------
    Charge (ESU x 10^10)
                 0.0000
    Dipole Moment (Debye)
         X       1.6848      Y      -0.0832      Z      -1.3492
       Tot       2.1601
    Quadrupole Moments (Debye-Ang)
        XX     -46.4534     XY       1.7257     YY     -43.3704
        XZ       1.1630     YZ       5.4694     ZZ     -49.0382
    Octopole Moments (Debye-Ang^2)
       XXX     -62.1046    XXY     -79.3185    XYY     -21.1793
       YYY    -249.9708    XXZ     -71.3332    XYZ      -1.0237
       YYZ     -54.1675    XZZ     -29.2485    YZZ     -76.5606
       ZZZ    -223.9492
    Hexadecapole Moments (Debye-Ang^3)
      XXXX    -651.3598   XXXY    -288.9234   XXYY    -345.7116
      XYYY    -283.2080   YYYY   -1465.9274   XXXZ    -151.2191
      XXYZ    -158.6161   XYYZ     -50.1280   YYYZ    -453.6011
      XXZZ    -252.3258   XYZZ    -107.5547   YYZZ    -342.5449
      XZZZ    -171.3956   YZZZ    -500.8739   ZZZZ    -896.2516
 -----------------------------------------------------------------
Archival summary:
1\1\nid00508\SP\ProcedureUnspecified\BasisUnspecified\178\meili\SunSep2618:05:232021SunSep2618:05:232021\0\\#,ProcedureUnspecified,BasisUnspecified,\\0,1\C\O,1,1.36879\H,2,0.98035,1,111.239\C,1,1.38479,2,118.653,3,159.968,0\H,4,1.07944,1,119.932,2,1.85977,0\C,1,1.3994,2,121.019,3,-16.8692,0\H,6,1.08042,1,120.108,2,-1.36627,0\C,6,1.40018,1,119.944,2,178.343,0\H,8,1.08109,6,119.595,1,179.855,0\C,8,1.39685,6,120.322,1,0.615025,0\C,10,1.39487,8,119.069,6,-3.08686,0\H,11,1.07794,10,119.69,8,-176.984,0\C,10,1.51501,8,120.871,6,-177.108,0\H,13,1.08924,10,108.518,8,-51.5856,0\H,13,1.09037,10,109.926,8,-169.087,0\H,13,1.1,10,112.791,8,68.6312,0\\\@

 Total job time:  37959.47s(wall), 75462.83s(cpu) 
 Sun Sep 26 18:05:27 2021

        *************************************************************
        *                                                           *
        *  Thank you very much for using Q-Chem.  Have a nice day.  *
        *                                                           *
        *************************************************************


Done Job For Fragment 1
calling putenv with: QCSCRATCH=/global/cscratch1/sd/meili 
calling putenv with: QCLOCALSCR=/tmp 
calling putenv with: QCTHREADS=32 
Doing General SCFMI
 Exchange:     0.1670 Hartree-Fock + 1.0000 wB97X-V + LR-HF
 Correlation:  1.0000 wB97X-V
 Using Euler-Maclaurin-Lebedev (99,590) quadrature formula
 Nonlocal Correlation:  VV10 with C = 0.0100 and b = 6.00 and scale = 1.00000
 Grid used for NLC:  SG-1 standard quadrature
performing fock build before subrot guess so that all methods have access
Printing subrot_rss_gen Method Specification:
Occupied Subspace Method is 0
Virtual Subspace Method is 0
Energy of the unrelaxed supersystem initial determinant -612.361322067886
performing fock build before subrot guess so that all methods have access
Printing subrot_rss_gen Method Specification:
Occupied Subspace Method is 0
Virtual Subspace Method is 0
Energy of the unrelaxed supersystem initial determinant w/ solvent -612.390095559511
write pseudocanon occs and virts to disk
write pseudocanon orbital energies to disk
Tolerance of ortho_decomp_scf: 1.00e-06
GDM subspace size: 20
Beginning the Orthogonal Decomposition of the Initial Supersystem Wavefunction
    1    -612.2449922306      7.95e-02     ortho_decomp Preconditoned Steepest Descent
    2    -612.2628757971      1.79e-03     ortho_decomp BFGS Step
    3    -612.2629269363      1.50e-04     ortho_decomp BFGS Step
    4    -612.2629270581      6.29e-06     ortho_decomp BFGS Step
    5    -612.2629270584      2.24e-07     ortho_decomp 00000 Convergence criterion met
 Hartree-Fock
 Hartree-Fock
 Hartree-Fock
Doing General SCFMI
 Exchange:     0.1670 Hartree-Fock + 1.0000 wB97X-V + LR-HF
 Correlation:  1.0000 wB97X-V
 Using Euler-Maclaurin-Lebedev (99,590) quadrature formula
 Nonlocal Correlation:  VV10 with C = 0.0100 and b = 6.00 and scale = 1.00000
 Grid used for NLC:  SG-1 standard quadrature
performing fock build at end of subrot_r(subrot) constructor so that all methods have access
<S^2> of initial wavefunction before polarization iterations 0.0000000000
Beginning iterations for the determination of the polarized wavefunction
Energy prior to optimization (guess energy) = -612.390095559511
Begin Timing: Total SCF Calculation
begin iterations for algorithm: DIIS         
the SCF tolerance is set to 1.00e-08
    1    -612.3900955595      2.30e-04     00000 
    2    -612.3953101745      9.60e-05     00000 
    3    -612.3958676174      6.60e-05     00000 
    4    -612.3961163199      1.69e-05     00000 
    5    -612.3961603755      8.92e-06     00000 
    6    -612.3961757203      4.99e-06     00000 
    7    -612.3961824182      2.98e-06     00000 
    8    -612.3961846690      1.32e-06     00000 
    9    -612.3961850292      5.32e-07     00000 
   10    -612.3961850572      3.21e-07     00000 
   11    -612.3961850681      1.83e-07     00000 
   12    -612.3961850720      1.11e-07     00000 
   13    -612.3961850729      5.63e-08     00000 
   14    -612.3961850732      2.90e-08     00000 
   15    -612.3961850732      1.76e-08     00000 
   16    -612.3961850733      8.65e-09     00000 Convergence criterion met
write pseudocanon occs and virts to disk
write pseudocanon orbital energies to disk
Timing for Total SCF: 12023.00s (wall), 23919.52s (cpu)
<S^2> of polarized wavefunction after polarization iterations 0.0000000000
relaxing scfmi constraint to allow all rotations in the entire AO span
Doing General SCFMI
 Exchange:     0.1670 Hartree-Fock + 1.0000 wB97X-V + LR-HF
 Correlation:  1.0000 wB97X-V
 Using Euler-Maclaurin-Lebedev (99,590) quadrature formula
 Nonlocal Correlation:  VV10 with C = 0.0100 and b = 6.00 and scale = 1.00000
 Grid used for NLC:  SG-1 standard quadrature
performing fock build at end of subrot_r(subrot) constructor so that all methods have access
<S^2> of polarized wavefunction before ct-allowed iterations 0.0000000000
Beginning iterations for the determination of the CT-Allowed wavefunction
Energy prior to optimization (guess energy) = -612.396185073258
Begin Timing: Total SCF Calculation
begin iterations for algorithm: DIIS         
the SCF tolerance is set to 1.00e-08
    1    -612.3961850733      2.41e-04     00000 
    2    -612.4095297455      4.01e-05     00000 
    3    -612.4100721834      2.06e-05     00000 
    4    -612.4101401318      8.42e-06     00000 
    5    -612.4101562545      1.70e-06     00000 
    6    -612.4101570205      6.52e-07     00000 
    7    -612.4101571711      2.13e-07     00000 
    8    -612.4101571861      6.77e-08     00000 
    9    -612.4101571884      2.32e-08     00000 
   10    -612.4101571888      1.04e-08     00000 
   11    -612.4101571889      4.25e-09     00000 Convergence criterion met
write pseudocanon occs and virts to disk
write pseudocanon orbital energies to disk
Timing for Total SCF: 7948.00s (wall), 15823.06s (cpu)
<S^2> of ct_allowed wavefunction after ct-allowed iterations 0.0000000000

================================
        Results of EDA2         
================================
Basic EDA Quantities
--------------------
Fragment Energies (Ha):
1 -265.5698236311
2 -346.8194982207
--------------------
  E_prp (kJ/mol) = 0.0000
  E_sol (kJ/mol) = 33.8945
  E_frz (kJ/mol) = -7.3681
  E_pol (kJ/mol) = -15.9882
  E_vct (kJ/mol) = -36.6842
  E_int (kJ/mol) = -26.1460
--------------------


Initial Wavefunction Decomposition
--------------------
  --------------------
  Orthogonal Fragment Subspace Decomposition:
  --------------------
     E_elec   (ELEC)   (kJ/mol) = -191.7782
     E_pauli  (PAULI)  (kJ/mol) = 211.0160
     E_disp   (DISP)   (kJ/mol) = -26.6059
     --------------------
     Terms summing to E_pauli:
     --------------------
        E_kep_pauli       (kJ/mol) = 250.9711
        E_disp_free_pauli (kJ/mol) = -39.9551
  --------------------
  Classical Frozen Decomposition:
  --------------------
     E_cls_elec  (CLS ELEC)  (kJ/mol) = -125.4940
     E_cls_pauli (CLS PAULI) (kJ/mol) = 118.1259
    [E_mod_pauli (MOD PAULI) (kJ/mol) = 144.7318 (CLS PAULI - DISP from orthogonal decomposition) ]
  --------------------
--------------------

Simplified EDA Summary (kJ/mol)
--------------------
 PREPARATION     0.0000
 SOLVATION       33.8945
 FROZEN          19.2378      (does not include dispersion)
[PAULI           211.0160]     (if this is negligible, then frozen describes electrostatics)
 DISPERSION      -26.6059
 POLARIZATION    -15.9882
 CHARGE TRANSFER -36.6842
 TOTAL           -26.1460     (PRP + SOL + FRZ + DISP + POL + CT)
--------------------
 
 --------------------------------------------------------------
 
                    Orbital Energies (a.u.)
 --------------------------------------------------------------
 
 Alpha MOs
 -- Occupied --
-19.2108 -14.4655 -14.3974 -10.3266 -10.3239 -10.2897 -10.2886 -10.2698
-10.2678 -10.2671 -10.2639 -10.2618 -10.2593 -10.2524  -1.1666  -1.1588
 -1.0045  -0.9850  -0.9011  -0.8911  -0.8738  -0.8270  -0.7993  -0.7411
 -0.7310  -0.7007  -0.6893  -0.6675  -0.6489  -0.5909  -0.5714  -0.5685
 -0.5589  -0.5445  -0.5402  -0.5302  -0.5235  -0.5121  -0.5100  -0.4987
 -0.4966  -0.4825  -0.4673  -0.4467  -0.4355  -0.4278  -0.3869  -0.3849
 -0.3450  -0.3264  -0.3051
 -- Virtual --
  0.0602   0.0630   0.0725   0.0791   0.0827   0.0899   0.0922   0.0985
  0.1038   0.1071   0.1151   0.1175   0.1225   0.1297   0.1391   0.1438
  0.1509   0.1565   0.1603   0.1690   0.1763   0.1809   0.1830   0.1908
  0.1938   0.1966   0.2040   0.2138   0.2153   0.2202   0.2256   0.2282
  0.2346   0.2413   0.2462   0.2511   0.2554   0.2574   0.2624   0.2642
  0.2654   0.2713   0.2753   0.2770   0.2809   0.2855   0.2908   0.2952
  0.2981   0.3041   0.3076   0.3086   0.3114   0.3138   0.3167   0.3215
  0.3248   0.3289   0.3319   0.3390   0.3433   0.3455   0.3470   0.3506
  0.3535   0.3601   0.3621   0.3661   0.3682   0.3700   0.3722   0.3793
  0.3815   0.3873   0.3891   0.3907   0.3935   0.3966   0.3986   0.4044
  0.4066   0.4082   0.4116   0.4166   0.4186   0.4198   0.4246   0.4307
  0.4328   0.4369   0.4426   0.4448   0.4493   0.4534   0.4582   0.4629
  0.4637   0.4681   0.4764   0.4801   0.4837   0.4847   0.4866   0.4897
  0.4913   0.4968   0.5019   0.5043   0.5076   0.5111   0.5156   0.5203
  0.5216   0.5304   0.5321   0.5348   0.5404   0.5466   0.5488   0.5523
  0.5546   0.5580   0.5648   0.5679   0.5743   0.5795   0.5838   0.5874
  0.5925   0.5952   0.6001   0.6035   0.6072   0.6144   0.6194   0.6237
  0.6274   0.6353   0.6391   0.6425   0.6460   0.6504   0.6569   0.6596
  0.6679   0.6736   0.6814   0.6827   0.6896   0.6958   0.7037   0.7059
  0.7110   0.7147   0.7196   0.7236   0.7261   0.7320   0.7329   0.7395
  0.7424   0.7470   0.7487   0.7553   0.7585   0.7615   0.7659   0.7674
  0.7766   0.7805   0.7862   0.7901   0.7956   0.7984   0.8039   0.8062
  0.8073   0.8139   0.8179   0.8211   0.8237   0.8342   0.8352   0.8395
  0.8425   0.8474   0.8526   0.8586   0.8596   0.8626   0.8703   0.8733
  0.8814   0.8839   0.8936   0.8948   0.9029   0.9076   0.9139   0.9226
  0.9264   0.9291   0.9371   0.9404   0.9485   0.9550   0.9690   0.9779
  0.9863   0.9952   1.0015   1.0024   1.0152   1.0186   1.0271   1.0365
  1.0443   1.0474   1.0549   1.0618   1.0664   1.0738   1.0889   1.0942
  1.0975   1.1030   1.1161   1.1220   1.1253   1.1363   1.1386   1.1601
  1.1678   1.1761   1.1777   1.1903   1.1988   1.2091   1.2191   1.2299
  1.2496   1.2511   1.2666   1.2734   1.2869   1.2889   1.3055   1.3246
  1.3330   1.3534   1.3587   1.3730   1.3776   1.3858   1.3934   1.3987
  1.4128   1.4265   1.4378   1.4457   1.4551   1.4672   1.4738   1.4809
  1.4983   1.4992   1.5108   1.5274   1.5390   1.5519   1.5637   1.5760
  1.5964   1.6367   1.6463   1.6484   1.6566   1.6662   1.6833   1.6941
  1.7089   1.7148   1.7209   1.7359   1.7502   1.7610   1.7715   1.8064
  1.8345   1.8372   1.8485   1.8523   1.8615   1.8662   1.8809   1.8865
  1.8964   1.9040   1.9142   1.9192   1.9390   1.9442   1.9494   1.9650
  1.9676   1.9746   1.9801   1.9882   1.9887   1.9964   1.9995   2.0093
  2.0178   2.0304   2.0408   2.0464   2.0544   2.0647   2.0762   2.0985
  2.1022   2.1079   2.1109   2.1268   2.1459   2.1494   2.1644   2.1971
  2.2146   2.2207   2.2335   2.2444   2.2483   2.2699   2.2754   2.2823
  2.2896   2.2974   2.3439   2.3547   2.3666   2.3721   2.3972   2.4026
  2.4126   2.4198   2.4302   2.4402   2.4749   2.4835   2.4934   2.5092
  2.5103   2.5277   2.5371   2.5657   2.5757   2.5853   2.5936   2.6007
  2.6136   2.6310   2.6428   2.6451   2.6555   2.6708   2.6818   2.6844
  2.6992   2.7042   2.7247   2.7297   2.7418   2.7493   2.7560   2.7702
  2.7852   2.7901   2.8064   2.8096   2.8239   2.8286   2.8625   2.8781
  2.8903   2.8936   2.9163   2.9198   2.9319   2.9363   2.9490   2.9576
  2.9642   2.9723   2.9929   2.9993   3.0134   3.0275   3.0301   3.0440
  3.0722   3.0766   3.0849   3.0890   3.0918   3.0991   3.1110   3.1202
  3.1445   3.1518   3.1639   3.1774   3.1858   3.1976   3.2060   3.2145
  3.2317   3.2380   3.2475   3.2500   3.2638   3.2784   3.2821   3.2923
  3.2950   3.3111   3.3138   3.3230   3.3391   3.3440   3.3641   3.3720
  3.3793   3.3897   3.4009   3.4085   3.4136   3.4211   3.4282   3.4406
  3.4428   3.4463   3.4659   3.4717   3.4791   3.4876   3.4939   3.5091
  3.5140   3.5175   3.5305   3.5431   3.5480   3.5522   3.5577   3.5699
  3.5781   3.5837   3.5914   3.5925   3.6165   3.6316   3.6334   3.6472
  3.6588   3.6644   3.6817   3.6963   3.7015   3.7088   3.7191   3.7247
  3.7406   3.7487   3.7735   3.7836   3.8048   3.8289   3.8500   3.8539
  3.8648   3.8846   3.9063   3.9134   3.9621   3.9737   3.9808   3.9849
  3.9997   4.0155   4.0558   4.0828   4.0980   4.1185   4.1412   4.1501
  4.1548   4.2476   4.2689   4.2804   4.2911   4.2958   4.3072   4.3246
  4.3316   4.3456   4.3593   4.3757   4.3859   4.4024   4.4193   4.4459
  4.4535   4.4784   4.4889   4.5282   4.5382   4.5688   4.6105   4.6168
  4.6304   4.6401   4.7555   4.7618   4.7671   4.7882   4.8046   4.8144
  4.8272   4.8683   4.8754   4.8934   4.9329   4.9643   4.9818   5.0343
  5.0443   5.0607   5.0759   5.0947   5.1020   5.1417   5.1562   5.1634
  5.1694   5.2476   5.2882   5.3059   5.3173   5.3278   5.4087   5.4472
  5.4563   5.4702   5.5090   5.5312   5.5377   5.5934   5.6167   5.6752
  5.6995   5.7130   5.7251   5.7587   5.7815   5.8127   5.8930   5.9399
  6.0047   6.0960   6.2321   6.2903   6.3562   6.4957   6.7371   6.7872
  6.9646   7.0790   7.3895   7.5938  22.6831  22.6874  22.7331  22.9356
 22.9557  22.9988  23.0308  23.1734  23.1906  23.4342  23.5102  32.7115
 32.9496  44.5528
 --------------------------------------------------------------
 
          Ground-State Mulliken Net Atomic Charges

     Atom                 Charge (a.u.)
  ----------------------------------------
      1 C                    -0.835018
      2 C                     0.361815
      3 C                    -0.439181
      4 C                    -0.579537
      5 N                    -0.226050
      6 N                     0.050830
      7 H                     0.341634
      8 H                     0.274474
      9 H                     0.205248
     10 H                     0.186644
     11 H                     0.318924
     12 H                     0.221579
     13 C                    -1.076648
     14 C                     0.622386
     15 C                    -0.246372
     16 C                    -0.716820
     17 C                    -0.840228
     18 C                    -0.384145
     19 C                     0.322960
     20 O                    -0.626438
     21 H                     0.523507
     22 H                     0.501326
     23 H                     0.404290
     24 H                     0.417701
     25 H                     0.395495
     26 H                     0.284165
     27 H                     0.287378
     28 H                     0.250083
  ----------------------------------------
  Sum of atomic charges =     0.000000

 -----------------------------------------------------------------
                    Cartesian Multipole Moments
 -----------------------------------------------------------------
    Charge (ESU x 10^10)
                -0.0000
    Dipole Moment (Debye)
         X       2.5762      Y      -2.9533      Z      -7.0774
       Tot       8.0900
    Quadrupole Moments (Debye-Ang)
        XX     -86.5694     XY       1.1527     YY     -67.2692
        XZ       1.4708     YZ      15.0435     ZZ     -57.1225
    Octopole Moments (Debye-Ang^2)
       XXX       7.9942    XXY       9.8977    XYY      -3.8496
       YYY     -55.6034    XXZ       1.8431    XYZ       0.0796
       YYZ     -25.3997    XZZ     -11.4167    YZZ     -47.2147
       ZZZ    -157.6892
    Hexadecapole Moments (Debye-Ang^3)
      XXXX    -799.3037   XXXY    -453.4490   XXYY    -631.1805
      XYYY    -420.2084   YYYY   -2698.7873   XXXZ    -266.0867
      XXYZ    -320.9825   XYYZ     -87.1131   YYYZ    -748.6590
      XXZZ    -484.5263   XYZZ    -162.5455   YYZZ    -632.0113
      XZZZ    -253.4216   YZZZ    -673.9629   ZZZZ   -1435.2315
 -----------------------------------------------------------------
Archival summary:
1\1\nid00508\SP\ProcedureUnspecified\BasisUnspecified\121114\meili\MonSep2703:05:482021MonSep2703:05:482021\0\\#,ProcedureUnspecified,BasisUnspecified,\\0,1\O\H,1,0.98035\C,1,1.36879,2,111.239\C,3,1.38479,1,118.653,2,159.968,0\H,4,1.07944,3,119.932,1,1.85977,0\C,3,1.3994,1,121.019,2,-16.8692,0\H,6,1.08042,3,120.108,1,-1.36627,0\C,6,1.40018,3,119.944,1,178.343,0\H,8,1.08109,6,119.595,3,179.855,0\C,8,1.39685,6,120.322,3,0.615025,0\C,10,1.39487,8,119.069,6,-3.08686,0\H,11,1.07794,10,119.69,8,-176.984,0\C,10,1.51501,8,120.871,6,-177.108,0\H,13,1.08924,10,108.518,8,-51.5856,0\H,13,1.09037,10,109.926,8,-169.087,0\H,13,1.1,10,112.791,8,68.6312,0\N,2,1.66332,1,171.766,3,-122.777,0\C,17,1.3272,2,137.085,1,56.3262,0\H,18,1.0846,17,125.816,2,1.27911,0\N,18,1.32805,17,108.681,2,-179.166,0\H,20,1.0142,18,124.756,17,-179.887,0\C,17,1.37711,2,114.019,1,-121.06,0\C,22,1.36039,17,106.916,2,178.985,0\H,23,1.08239,22,126.107,17,178.877,0\C,22,1.49824,17,122.258,2,-3.1616,0\H,25,1.08738,22,106.916,17,42.2178,0\H,25,1.08921,22,109.651,17,158.877,0\H,25,1.1,22,113.345,17,-75.9416,0\\\@

 Total job time:  85875.17s(wall), 64561.98s(cpu) 
 Mon Sep 27 03:05:52 2021

        *************************************************************
        *                                                           *
        *  Thank you very much for using Q-Chem.  Have a nice day.  *
        *                                                           *
        *************************************************************


