
Running Job 1 of 1 SSI-121GLN-144ARG-1_PCM_TZVPD.in
qchem SSI-121GLN-144ARG-1_PCM_TZVPD.in_55211.0 /tmp/qchem55211/ 0
/global/common/cori/software/qchem/5.2/exe/qcprog.exe_s SSI-121GLN-144ARG-1_PCM_TZVPD.in_55211.0 /tmp/qchem55211/
                  Welcome to Q-Chem
     A Quantum Leap Into The Future Of Chemistry


 Q-Chem 5.2, Q-Chem, Inc., Pleasanton, CA (2019)

 License issued to: National Energy Research Scientific Computing Center

 Yihan Shao,  Zhengting Gan,  E. Epifanovsky,  A. T. B. Gilbert,  M. Wormit,  
 J. Kussmann,  A. W. Lange,  A. Behn,  Jia Deng,  Xintian Feng,  D. Ghosh,  
 M. Goldey,  P. R. Horn,  L. D. Jacobson,  I. Kaliman,  T. Kus,  A. Landau,  
 Jie Liu,  E. I. Proynov,  R. M. Richard,  R. P. Steele,  E. J. Sundstrom,  
 H. L. Woodcock III,  P. M. Zimmerman,  D. Zuev,  B. Albrecht,  E. Alguire,  
 S. A. Baeppler,  D. Barton,  Z. Benda,  Y. A. Bernard,  E. J. Berquist,  
 K. B. Bravaya,  H. Burton,  D. Casanova,  Chun-Min Chang,  Yunqing Chen,  
 A. Chien,  K. D. Closser,  M. P. Coons,  S. Coriani,  S. Dasgupta,  
 A. L. Dempwolff,  M. Diedenhofen,  Hainam Do,  R. G. Edgar,  Po-Tung Fang,  
 S. Faraji,  S. Fatehi,  Qingguo Feng,  K. D. Fenk,  J. Fosso-Tande,  
 J. Gayvert,  Qinghui Ge,  A. Ghysels,  G. Gidofalvi,  J. Gomes,  
 J. Gonthier,  A. Gunina,  D. Hait,  M. W. D. Hanson-Heine,  
 P. H. P. Harbach,  A. W. Hauser,  M. F. Herbst,  J. E. Herr,  
 E. G. Hohenstein,  Z. C. Holden,  Kerwin Hui,  B. C. Huynh,  T.-C. Jagau,  
 Hyunjun Ji,  B. Kaduk,  K. Khistyaev,  Jaehoon Kim,  P. Klunzinger,  K. Koh,  
 D. Kosenkov,  L. Koulias,  T. Kowalczyk,  C. M. Krauter,  A. Kunitsa,  
 Ka Un Lao,  A. Laurent,  K. V. Lawler,  Joonho Lee,  D. Lefrancois,  
 S. Lehtola,  D. S. Levine,  Yi-Pei Li,  You-Sheng Lin,  Fenglai Liu,  
 E. Livshits,  A. Luenser,  P. Manohar,  E. Mansoor,  S. F. Manzer,  
 Shan-Ping Mao,  Yuezhi Mao,  N. Mardirossian,  A. V. Marenich,  
 T. Markovich,  L. A. Martinez-Martinez,  S. A. Maurer,  N. J. Mayhall,  
 S. C. McKenzie,  J.-M. Mewes,  P. Morgante,  A. F. Morrison,  
 J. W. Mullinax,  K. Nanda,  T. S. Nguyen-Beck,  R. Olivares-Amaya,  
 J. A. Parkhill,  Zheng Pei,  T. M. Perrine,  F. Plasser,  P. Pokhilko,  
 S. Prager,  A. Prociuk,  E. Ramos,  D. R. Rehn,  F. Rob,  M. Scheurer,  
 M. Schneider,  N. Sergueev,  S. M. Sharada,  S. Sharma,  D. W. Small,  
 T. Stauch,  T. Stein,  Yu-Chuan Su,  A. J. W. Thom,  A. Tkatchenko,  
 T. Tsuchimochi,  N. M. Tubman,  L. Vogt,  M. L. Vidal,  O. Vydrov,  
 M. A. Watson,  J. Wenzel,  M. de Wergifosse,  T. A. Wesolowski,  A. White,  
 J. Witte,  A. Yamada,  Jun Yang,  K. Yao,  S. Yeganeh,  S. R. Yost,  
 Zhi-Qiang You,  A. Zech,  Igor Ying Zhang,  Xing Zhang,  Yan Zhao,  
 Ying Zhu,  B. R. Brooks,  G. K. L. Chan,  C. J. Cramer,  M. S. Gordon,  
 W. J. Hehre,  A. Klamt,  M. W. Schmidt,  C. D. Sherrill,  D. G. Truhlar,  
 A. Aspuru-Guzik,  R. Baer,  A. T. Bell,  N. A. Besley,  Jeng-Da Chai,  
 A. E. DePrince, III,  R. A. DiStasio Jr.,  A. Dreuw,  B. D. Dunietz,  
 T. R. Furlani,  Chao-Ping Hsu,  Yousung Jung,  Jing Kong,  D. S. Lambrecht,  
 WanZhen Liang,  C. Ochsenfeld,  V. A. Rassolov,  L. V. Slipchenko,  
 J. E. Subotnik,  T. Van Voorhis,  J. M. Herbert,  A. I. Krylov,  
 P. M. W. Gill,  M. Head-Gordon

 Contributors to earlier versions of Q-Chem not listed above: 
 R. D. Adamson,  B. Austin,  J. Baker,  G. J. O. Beran,  K. Brandhorst,  
 S. T. Brown,  E. F. C. Byrd,  A. K. Chakraborty,  C.-L. Cheng,  
 Siu Hung Chien,  D. M. Chipman,  D. L. Crittenden,  H. Dachsel,  
 R. J. Doerksen,  A. D. Dutoi,  L. Fusti-Molnar,  W. A. Goddard III,  
 A. Golubeva-Zadorozhnaya,  S. R. Gwaltney,  G. Hawkins,  A. Heyden,  
 S. Hirata,  G. Kedziora,  F. J. Keil,  C. Kelley,  Jihan Kim,  R. A. King,  
 R. Z. Khaliullin,  P. P. Korambath,  W. Kurlancheek,  A. M. Lee,  M. S. Lee,  
 S. V. Levchenko,  Ching Yeh Lin,  D. Liotard,  R. C. Lochan,  I. Lotan,  
 P. E. Maslen,  N. Nair,  D. P. O'Neill,  D. Neuhauser,  E. Neuscamman,  
 C. M. Oana,  R. Olson,  B. Peters,  R. Peverati,  P. A. Pieniazek,  
 Y. M. Rhee,  J. Ritchie,  M. A. Rohrdanz,  E. Rosta,  N. J. Russ,  
 H. F. Schaefer III,  N. E. Schultz,  N. Shenvi,  A. C. Simmonett,  A. Sodt,  
 D. Stuck,  K. S. Thanthiriwatte,  V. Vanovschi,  Tao Wang,  A. Warshel,  
 C. F. Williams,  Q. Wu,  X. Xu,  W. Zhang

 Please cite Q-Chem as follows:
 Y. Shao et al., Mol. Phys. 113, 184-215 (2015)
 DOI: 10.1080/00268976.2014.952696

 Q-Chem 5.2.0 for Intel X86 EM64T Linux

 Parts of Q-Chem use Armadillo 8.300.2 (Tropical Shenanigans).
 http://arma.sourceforge.net/

 Q-Chem begins on Sun Sep 26 14:03:18 2021  

Host: cori01
0

     Scratch files written to /tmp/qchem55211//
 May1019 |scratch|qcdevops|jenkins|workspace|build_RNUM -1
Processing $rem in /global/common/cori/software/qchem/5.2/config/preferences:
	 MEM_TOTAL  96000 
NAlpha2: 72
NElect   72
Mult     1
Symmetry turned off for PCM/SM12/SMD calculation

 Q-Chem warning in module libgen/rem_setup.C, line 2803:

 Neither GIA nor STOLL is specified by user. Use STOLL as the default


Checking the input file for inconsistencies... 	...done.

--------------------------------------------------------------
User input:
--------------------------------------------------------------
$comment
SSI-121GLN-144ARG-1.pdb
$end

$molecule
1 1
--
0 1
C    3.292281501170   -1.253220864049   -1.543190014630
C    2.204281501170   -0.240220864049   -1.842190014630
O    1.300281501170   -0.028220864049   -1.043190014630
N    2.282281501170    0.402779135951   -2.995190014630
H    3.804281501170   -0.881220864049   -0.661190014630
H    4.015281501170   -1.282220864049   -2.361190014630
H    1.566281501170    1.078779135951   -3.217190014630
H    3.026281501170    0.203779135951   -3.649190014630
H    2.900611501170   -2.268260864049   -1.381070014630
--
1 1
C   -3.470718498830    0.179779135951    2.582809985370
C   -1.397718498830    0.219779135951    1.232809985370
N   -0.099718498830    0.418779135951    1.168809985370
N   -2.028718498830    0.373779135951    2.384809985370
N   -2.063718498830   -0.126220864049    0.148809985370
H    0.415281501170    0.676779135951    2.003809985370
H    0.383281501170    0.319779135951    0.286809985370
H   -1.491718498830    0.721779135951    3.165809985370
H   -3.063718498830   -0.229220864049    0.177809985370
H   -1.580718498830   -0.198220864049   -0.732190014630
H   -4.028718498830    0.034779135951    1.656809985370
H   -3.860718498830    1.091779135951    3.039809985370
H   -3.664649498830   -0.650420864049    3.277909985370
$end

$rem
JOBTYPE			EDA
EDA2			1
method			wB97X-V
BASIS			def2-TZVPD
XC_GRID			000099000590
NL_GRID			1
UNRESTRICTED		FALSE
MAX_SCF_CYCLES		200
SYMMETRY		FALSE
SYM_IGNORE		TRUE
MEM_STATIC		2000
BASIS_LIN_DEP_THRESH 	6
THRESH 			14
SCF_CONVERGENCE 	8
SCF_PRINT_FRGM 		TRUE
SOLVENT_METHOD          PCM
$end

$PCM
THEORY                  CPCM
METHOD                  SWIG
SOLVER                  INVERSION
RADII                   UFF
HPOINTS                 302
HEAVYPOINTS             302
PRINTLEVEL              0
$END

$SOLVENT
DIELECTRIC              78.390000 ! water
$END
--------------------------------------------------------------
 ----------------------------------------------------------------
             Standard Nuclear Orientation (Angstroms)
    I     Atom           X                Y                Z
 ----------------------------------------------------------------
    1      C       3.2922815012    -1.2532208640    -1.5431900146
    2      C       2.2042815012    -0.2402208640    -1.8421900146
    3      O       1.3002815012    -0.0282208640    -1.0431900146
    4      N       2.2822815012     0.4027791360    -2.9951900146
    5      H       3.8042815012    -0.8812208640    -0.6611900146
    6      H       4.0152815012    -1.2822208640    -2.3611900146
    7      H       1.5662815012     1.0787791360    -3.2171900146
    8      H       3.0262815012     0.2037791360    -3.6491900146
    9      H       2.9006115012    -2.2682608640    -1.3810700146
   10      C      -3.4707184988     0.1797791360     2.5828099854
   11      C      -1.3977184988     0.2197791360     1.2328099854
   12      N      -0.0997184988     0.4187791360     1.1688099854
   13      N      -2.0287184988     0.3737791360     2.3848099854
   14      N      -2.0637184988    -0.1262208640     0.1488099854
   15      H       0.4152815012     0.6767791360     2.0038099854
   16      H       0.3832815012     0.3197791360     0.2868099854
   17      H      -1.4917184988     0.7217791360     3.1658099854
   18      H      -3.0637184988    -0.2292208640     0.1778099854
   19      H      -1.5807184988    -0.1982208640    -0.7321900146
   20      H      -4.0287184988     0.0347791360     1.6568099854
   21      H      -3.8607184988     1.0917791360     3.0398099854
   22      H      -3.6646494988    -0.6504208640     3.2779099854
 ----------------------------------------------------------------
 Nuclear Repulsion Energy =         453.68126501 hartrees
 There are       36 alpha and       36 beta electrons
 Requested basis set is def2-TZVPD
 There are 183 shells and 453 basis functions

 Total QAlloc Memory Limit  96000 MB
 Mega-Array Size      1956 MB
 MEM_STATIC part      2000 MB
 Discretize the solute cavity surface with Lebedev spheres
	Using 302 Lebedev grid points for each H atom
	Using 302 Lebedev grid points for other atoms
	Atomic van der Waals radii will be scaled by 1.20
 Remove points where switching function is < 1.0e-08
 Keep 2603 surface tesserae and discard 4041 interior tesserae
 Molecular Surface Area = 250.487 Angst**2
 A cutoff of  1.0D-14 yielded  14355 shell pairs
 There are     88113 function pairs (    109594 Cartesian)
 Smallest overlap matrix eigenvalue = 9.08E-06

 Scale SEOQF with 1.000000e-01/1.000000e-01/1.000000e-01

 Standard Electronic Orientation quadrupole field applied
 Nucleus-field energy     =    -0.0000000134 hartrees

 -----------------------------------------------------------------------
  General SCF calculation program by
  Eric Jon Sundstrom, Paul Horn, Yuezhi Mao, Dmitri Zuev, Alec White,
  David Stuck, Shaama M.S., Shane Yost, Joonho Lee, David Small,
  Daniel Levine, Susi Lehtola, Hugh Burton, Evgeny Epifanovsky
 -----------------------------------------------------------------------
================================================================
                 ALMO-EDA with the EDA2 driver                  
================================================================
 The second-generation ALMO-EDA (for DFT):                      
 P. R. Horn, Y. Mao and M. Head-Gordon, PCCP, 18, 23067 (2016)  
 Decomposition of the frozen energy:                            
 P. R. Horn, Y. Mao and M. Head-Gordon, JCP, 144, 114107 (2016) 
 FERF model for polarization:                                   
 P. R. Horn and M. Head-Gordon, JCP, 143, 114111 (2015)         
Using eda2 option set 1
Option set summary: Frozen orbital wavefunction, initial wavefunction decomposition, and nDQ polarization.
--------------------------------
Printing EDA Options
--------------------------------
eda_child_super_basis      0
fragmo_guess_mode          0
child_mp                   1
child_mp_orders            232
cls_elec                   1
cls_disp                   0
scfmi_mode                 1
scfmi_occs                 0
scfmi_virts                0
frz_relax                  0
frz_relax_method           0
dc_pen_start               0
dc_pen_conv                0
dc_pen_increment           0
dc_pen_steps               0
dc_pen_thresh_factor       0
dc_pen_pre_newton_thresh   0
frz_ortho_decomp           1
frz_ortho_decomp_conv      6
frgm_method                2
scfmi_freeze_ss            0
separate_rehyb             0
plot_diff_den              0
eda_nocv                   0
eda_vct_relax              1
disp_free_x                0
disp_free_c                0
eda_bsse                   0
eda_pct_a                  0
eda_covp                   0
--------------------------------
Attempting to make child job directory: /tmp/qchem55211//Frg1/
Attempting to make child job directory: /tmp/qchem55211//Frg2/
Creating input file /tmp/qchem55211/Frg1.input
using default PutDataFrgm: nothing
calling putenv with: QCSCRATCH=/tmp/qchem55211/ 
calling putenv with: QCLOCALSCR=/tmp/qchem55211/ 
Spawning Job For Fragment 0
                  Welcome to Q-Chem
     A Quantum Leap Into The Future Of Chemistry


 Q-Chem 5.2, Q-Chem, Inc., Pleasanton, CA (2019)

 License issued to: National Energy Research Scientific Computing Center

 Yihan Shao,  Zhengting Gan,  E. Epifanovsky,  A. T. B. Gilbert,  M. Wormit,  
 J. Kussmann,  A. W. Lange,  A. Behn,  Jia Deng,  Xintian Feng,  D. Ghosh,  
 M. Goldey,  P. R. Horn,  L. D. Jacobson,  I. Kaliman,  T. Kus,  A. Landau,  
 Jie Liu,  E. I. Proynov,  R. M. Richard,  R. P. Steele,  E. J. Sundstrom,  
 H. L. Woodcock III,  P. M. Zimmerman,  D. Zuev,  B. Albrecht,  E. Alguire,  
 S. A. Baeppler,  D. Barton,  Z. Benda,  Y. A. Bernard,  E. J. Berquist,  
 K. B. Bravaya,  H. Burton,  D. Casanova,  Chun-Min Chang,  Yunqing Chen,  
 A. Chien,  K. D. Closser,  M. P. Coons,  S. Coriani,  S. Dasgupta,  
 A. L. Dempwolff,  M. Diedenhofen,  Hainam Do,  R. G. Edgar,  Po-Tung Fang,  
 S. Faraji,  S. Fatehi,  Qingguo Feng,  K. D. Fenk,  J. Fosso-Tande,  
 J. Gayvert,  Qinghui Ge,  A. Ghysels,  G. Gidofalvi,  J. Gomes,  
 J. Gonthier,  A. Gunina,  D. Hait,  M. W. D. Hanson-Heine,  
 P. H. P. Harbach,  A. W. Hauser,  M. F. Herbst,  J. E. Herr,  
 E. G. Hohenstein,  Z. C. Holden,  Kerwin Hui,  B. C. Huynh,  T.-C. Jagau,  
 Hyunjun Ji,  B. Kaduk,  K. Khistyaev,  Jaehoon Kim,  P. Klunzinger,  K. Koh,  
 D. Kosenkov,  L. Koulias,  T. Kowalczyk,  C. M. Krauter,  A. Kunitsa,  
 Ka Un Lao,  A. Laurent,  K. V. Lawler,  Joonho Lee,  D. Lefrancois,  
 S. Lehtola,  D. S. Levine,  Yi-Pei Li,  You-Sheng Lin,  Fenglai Liu,  
 E. Livshits,  A. Luenser,  P. Manohar,  E. Mansoor,  S. F. Manzer,  
 Shan-Ping Mao,  Yuezhi Mao,  N. Mardirossian,  A. V. Marenich,  
 T. Markovich,  L. A. Martinez-Martinez,  S. A. Maurer,  N. J. Mayhall,  
 S. C. McKenzie,  J.-M. Mewes,  P. Morgante,  A. F. Morrison,  
 J. W. Mullinax,  K. Nanda,  T. S. Nguyen-Beck,  R. Olivares-Amaya,  
 J. A. Parkhill,  Zheng Pei,  T. M. Perrine,  F. Plasser,  P. Pokhilko,  
 S. Prager,  A. Prociuk,  E. Ramos,  D. R. Rehn,  F. Rob,  M. Scheurer,  
 M. Schneider,  N. Sergueev,  S. M. Sharada,  S. Sharma,  D. W. Small,  
 T. Stauch,  T. Stein,  Yu-Chuan Su,  A. J. W. Thom,  A. Tkatchenko,  
 T. Tsuchimochi,  N. M. Tubman,  L. Vogt,  M. L. Vidal,  O. Vydrov,  
 M. A. Watson,  J. Wenzel,  M. de Wergifosse,  T. A. Wesolowski,  A. White,  
 J. Witte,  A. Yamada,  Jun Yang,  K. Yao,  S. Yeganeh,  S. R. Yost,  
 Zhi-Qiang You,  A. Zech,  Igor Ying Zhang,  Xing Zhang,  Yan Zhao,  
 Ying Zhu,  B. R. Brooks,  G. K. L. Chan,  C. J. Cramer,  M. S. Gordon,  
 W. J. Hehre,  A. Klamt,  M. W. Schmidt,  C. D. Sherrill,  D. G. Truhlar,  
 A. Aspuru-Guzik,  R. Baer,  A. T. Bell,  N. A. Besley,  Jeng-Da Chai,  
 A. E. DePrince, III,  R. A. DiStasio Jr.,  A. Dreuw,  B. D. Dunietz,  
 T. R. Furlani,  Chao-Ping Hsu,  Yousung Jung,  Jing Kong,  D. S. Lambrecht,  
 WanZhen Liang,  C. Ochsenfeld,  V. A. Rassolov,  L. V. Slipchenko,  
 J. E. Subotnik,  T. Van Voorhis,  J. M. Herbert,  A. I. Krylov,  
 P. M. W. Gill,  M. Head-Gordon

 Contributors to earlier versions of Q-Chem not listed above: 
 R. D. Adamson,  B. Austin,  J. Baker,  G. J. O. Beran,  K. Brandhorst,  
 S. T. Brown,  E. F. C. Byrd,  A. K. Chakraborty,  C.-L. Cheng,  
 Siu Hung Chien,  D. M. Chipman,  D. L. Crittenden,  H. Dachsel,  
 R. J. Doerksen,  A. D. Dutoi,  L. Fusti-Molnar,  W. A. Goddard III,  
 A. Golubeva-Zadorozhnaya,  S. R. Gwaltney,  G. Hawkins,  A. Heyden,  
 S. Hirata,  G. Kedziora,  F. J. Keil,  C. Kelley,  Jihan Kim,  R. A. King,  
 R. Z. Khaliullin,  P. P. Korambath,  W. Kurlancheek,  A. M. Lee,  M. S. Lee,  
 S. V. Levchenko,  Ching Yeh Lin,  D. Liotard,  R. C. Lochan,  I. Lotan,  
 P. E. Maslen,  N. Nair,  D. P. O'Neill,  D. Neuhauser,  E. Neuscamman,  
 C. M. Oana,  R. Olson,  B. Peters,  R. Peverati,  P. A. Pieniazek,  
 Y. M. Rhee,  J. Ritchie,  M. A. Rohrdanz,  E. Rosta,  N. J. Russ,  
 H. F. Schaefer III,  N. E. Schultz,  N. Shenvi,  A. C. Simmonett,  A. Sodt,  
 D. Stuck,  K. S. Thanthiriwatte,  V. Vanovschi,  Tao Wang,  A. Warshel,  
 C. F. Williams,  Q. Wu,  X. Xu,  W. Zhang

 Please cite Q-Chem as follows:
 Y. Shao et al., Mol. Phys. 113, 184-215 (2015)
 DOI: 10.1080/00268976.2014.952696

 Q-Chem 5.2.0 for Intel X86 EM64T Linux

 Parts of Q-Chem use Armadillo 8.300.2 (Tropical Shenanigans).
 http://arma.sourceforge.net/

 Q-Chem begins on Sun Sep 26 14:03:21 2021  

Host: cori01
0

     Scratch files written to /tmp/qchem55211//Frg1//
 May1019 |scratch|qcdevops|jenkins|workspace|build_RNUM -1
Processing $rem in /global/common/cori/software/qchem/5.2/config/preferences:
	 MEM_TOTAL  96000 
NAlpha2: 32
NElect   32
Mult     1
Symmetry turned off for PCM/SM12/SMD calculation

Checking the input file for inconsistencies... 	...done.

--------------------------------------------------------------
User input:
--------------------------------------------------------------
$molecule
0 1
 6	3.2922815012	-1.2532208640	-1.5431900146
 6	2.2042815012	-0.2402208640	-1.8421900146
 8	1.3002815012	-0.0282208640	-1.0431900146
 7	2.2822815012	0.4027791360	-2.9951900146
 1	3.8042815012	-0.8812208640	-0.6611900146
 1	4.0152815012	-1.2822208640	-2.3611900146
 1	1.5662815012	1.0787791360	-3.2171900146
 1	3.0262815012	0.2037791360	-3.6491900146
 1	2.9006115012	-2.2682608640	-1.3810700146
$end
$rem
EDA2		1
METHOD		WB97X-V
BASIS		DEF2-TZVPD
XC_GRID		000099000590
NL_GRID		1
UNRESTRICTED		FALSE
MAX_SCF_CYCLES		200
SYMMETRY		FALSE
SYM_IGNORE		TRUE
BASIS_LIN_DEP_THRESH		6
THRESH		14
SCF_CONVERGENCE		8
SCF_PRINT_FRGM		TRUE
SOLVENT_METHOD		PCM
!required keywords
JOBTYPE		SP
SYM_IGNORE		TRUE
SUBSYSTEM		TRUE
GEN_SCFMAN		TRUE
CHILD_INSTRUCTION		2
SYM_IGNORE		TRUE
SCFMI		0
RI_K 0		
PARI_K 0		
MIN_PARI_K 0		
IARI_K 0		
OCC_RI_K 0		
PURECART		1111
MEM_STATIC		2000
MEM_TOTAL		96000
GUI		0
CHILD_MP		1
CHILD_MP_ORDERS		232
FRZ_RELAX		0
FRZ_RELAX_METHOD		0
EDA_CLS_ELEC		1
EDA_CLS_DISP		0
FRZ_ORTHO_DECOMP		1
EDA2		FALSE
FRGM_METHOD		FALSE
CIS_N_ROOTS  0
LOCAL_CIS    0
CIS_RLX_DNS  1
$end
$pcm
THEORY                  CPCM
METHOD                  SWIG
SOLVER                  INVERSION
RADII                   UFF
HPOINTS                 302
HEAVYPOINTS             302
PRINTLEVEL              0
$end
$solvent
DIELECTRIC              78.390000 ! water
$end
--------------------------------------------------------------
 ----------------------------------------------------------------
             Standard Nuclear Orientation (Angstroms)
    I     Atom           X                Y                Z
 ----------------------------------------------------------------
    1      C       3.2922815012    -1.2532208640    -1.5431900146
    2      C       2.2042815012    -0.2402208640    -1.8421900146
    3      O       1.3002815012    -0.0282208640    -1.0431900146
    4      N       2.2822815012     0.4027791360    -2.9951900146
    5      H       3.8042815012    -0.8812208640    -0.6611900146
    6      H       4.0152815012    -1.2822208640    -2.3611900146
    7      H       1.5662815012     1.0787791360    -3.2171900146
    8      H       3.0262815012     0.2037791360    -3.6491900146
    9      H       2.9006115012    -2.2682608640    -1.3810700146
 ----------------------------------------------------------------
 Nuclear Repulsion Energy =         122.52729039 hartrees
 There are       16 alpha and       16 beta electrons
 Requested basis set is def2-TZVPD
 There are 78 shells and 196 basis functions

 Total QAlloc Memory Limit  96000 MB
 Mega-Array Size      1956 MB
 MEM_STATIC part      2000 MB
 Discretize the solute cavity surface with Lebedev spheres
	Using 302 Lebedev grid points for each H atom
	Using 302 Lebedev grid points for other atoms
	Atomic van der Waals radii will be scaled by 1.20
 Remove points where switching function is < 1.0e-08
 Keep 1203 surface tesserae and discard 1515 interior tesserae
 Molecular Surface Area = 128.154 Angst**2

                       Distance Matrix (Angstroms)
             C (  1)   C (  2)   O (  3)   N (  4)   H (  5)   H (  6)
   C (  2)  1.516349
   O (  3)  2.391378  1.224974
   N (  4)  2.422961  1.322476  2.227193
   H (  5)  1.085565  2.089412  2.672742  3.068012
   H (  6)  1.092105  2.152869  3.268159  2.498894  1.759353
   H (  7)  3.349564  2.009336  2.454074  1.009414  3.922165  3.507800
   H (  8)  2.574654  2.034224  3.134348  1.010373  3.272713  2.201195
   H (  9)  1.099997  2.193275  2.773625  3.181536  1.805194  1.781965
             H (  7)   H (  8)
   H (  8)  1.756089
   H (  9)  4.044064  3.357252
 
 A cutoff of  1.0D-14 yielded   3053 shell pairs
 There are     19543 function pairs (     24701 Cartesian)
 Smallest overlap matrix eigenvalue = 1.11E-05

 Scale SEOQF with 1.000000e-01/1.000000e-01/1.000000e-01

 Standard Electronic Orientation quadrupole field applied
 Nucleus-field energy     =    -0.0000000064 hartrees
 Guess from superposition of atomic densities
 Warning:  Energy on first SCF cycle will be non-variational
 SAD guess density has 31.604610 electrons

 -----------------------------------------------------------------------
  General SCF calculation program by
  Eric Jon Sundstrom, Paul Horn, Yuezhi Mao, Dmitri Zuev, Alec White,
  David Stuck, Shaama M.S., Shane Yost, Joonho Lee, David Small,
  Daniel Levine, Susi Lehtola, Hugh Burton, Evgeny Epifanovsky
 -----------------------------------------------------------------------
 Exchange:     0.1670 Hartree-Fock + 1.0000 wB97X-V + LR-HF
 Correlation:  1.0000 wB97X-V
 Using Euler-Maclaurin-Lebedev (99,590) quadrature formula
 Nonlocal Correlation:  VV10 with C = 0.0100 and b = 6.00 and scale = 1.00000
 Grid used for NLC:  SG-1 standard quadrature
Energy prior to optimization (guess energy) = -208.706130981121
Begin Timing: Total SCF Calculation
begin iterations for algorithm: DIIS         
the SCF tolerance is set to 1.00e-08
    1    -208.7061309811      1.25e-02     00000 
    2    -208.3377943026      1.54e-02     00000 
    3    -209.2236873341      2.45e-03     00000 
    4    -209.2429138257      8.16e-04     00000 
    5    -209.2455452177      1.23e-04     00000 
    6    -209.2456410795      4.85e-05     00000 
    7    -209.2456579157      1.09e-05     00000 
    8    -209.2456590388      2.07e-06     00000 
    9    -209.2456591259      7.45e-07     00000 
   10    -209.2456591311      3.10e-07     00000 
   11    -209.2456591320      6.85e-08     00000 
   12    -209.2456591321      1.69e-08     00000 
   13    -209.2456591321      4.44e-09     00000 Convergence criterion met
Timing for Total SCF: 369.00s (wall), 730.56s (cpu)

************** Final PCM Free Energy Summary **************
 G_electrostatic  =      -0.01213401 hartree =      -7.61420492 kcal/mol
 G_cavitation     =       0.00000000 hartree =       0.00000000 kcal/mol
 G_dispersion     =       0.00000000 hartree =       0.00000000 kcal/mol
 G_repulsion      =       0.00000000 hartree =       0.00000000 kcal/mol
 --------------------------------------------------
 Non-electrostatic Free Energy =       0.00000000 hartree =       0.00000000 kcal/mol
 Total                         =      -0.01213401 hartree =      -7.61420492 kcal/mol
 --------------------------------------------------
 SCF Energy (H0 + V/2)                       =    -209.24565913 
 Solute Internal Energy (H0)                 =    -209.23352512 
 Total Free Energy (H0 + V/2 + non-elec)     =    -209.24565913 hartree
                                             = -131303.63287104 kcal/mol
***********************************************************

E_pcm = -0.0121340080
Multipole orders to be included
        2
        3
computing dipole RHS
computing quadrupole RHS
total number of RHS in solve_reponses: 8
RHS batch sizes
        8
Beginning Block Conjugate Gradient Iterations. Batch Number: 0
computing hessian-vector products by finite difference
              1      5.84e-01     00000 Conjugate Gradient Iteration
computing hessian-vector products by finite difference
              2      1.99e-01     00000 Conjugate Gradient Iteration
computing hessian-vector products by finite difference
              3      5.29e-02     00000 Conjugate Gradient Iteration
computing hessian-vector products by finite difference
              4      1.33e-02     00000 Conjugate Gradient Iteration
computing hessian-vector products by finite difference
              5      1.96e-03     00000 Conjugate Gradient Iteration
computing hessian-vector products by finite difference
              6      4.19e-04     00000 Conjugate Gradient Iteration
computing hessian-vector products by finite difference
              7      6.17e-05     00000 Conjugate Gradient Iteration
computing hessian-vector products by finite difference
              8      7.15e-06     00000 Conjugate Gradient Iteration
computing hessian-vector products by finite difference
              9      9.89e-07     00000 Conjugate Gradient Iteration
computing hessian-vector products by finite difference
             10      1.72e-07     00000 Conjugate Gradient Iteration
computing hessian-vector products by finite difference
             11      2.12e-08     00000 Conjugate Gradient Iteration
computing hessian-vector products by finite difference
             12      2.36e-09     00000 CG Converged
batch 0 complete
Done Calculating Responses
TESTING ORTHOGONALIZATION OF MULTIPOLE BASIS
Multipole virts passed orthogonality test
Virts Per Order
        48
        80
 
 --------------------------------------------------------------
 
                    Orbital Energies (a.u.)
 --------------------------------------------------------------
 
 Alpha MOs
 -- Occupied --
-19.1767 -14.4349 -10.3760 -10.2730  -1.1736  -1.0473  -0.8716  -0.7150
 -0.6624  -0.5904  -0.5709  -0.5174  -0.5058  -0.4850  -0.3831  -0.3678
 -- Virtual --
  0.0597   0.0915   0.0939   0.0972   0.1277   0.1308   0.1309   0.1449
  0.1752   0.1841   0.1850   0.2072   0.2238   0.2444   0.2513   0.2577
  0.2611   0.2701   0.2956   0.3082   0.3251   0.3328   0.3396   0.3504
  0.3562   0.3597   0.3712   0.3740   0.3793   0.3960   0.4143   0.4267
  0.4357   0.4567   0.4590   0.4727   0.4773   0.4888   0.4991   0.5053
  0.5097   0.5317   0.5577   0.5618   0.5837   0.5858   0.6165   0.6334
  0.6424   0.6484   0.6711   0.6928   0.7062   0.7273   0.7321   0.7604
  0.7686   0.7757   0.7925   0.8033   0.8204   0.8324   0.8493   0.8805
  0.9039   0.9591   0.9651   0.9965   1.0198   1.0235   1.0561   1.1096
  1.1198   1.1660   1.2219   1.2384   1.2900   1.3108   1.3339   1.3895
  1.4683   1.4910   1.5287   1.6084   1.6831   1.7211   1.7340   1.8036
  1.8463   1.8749   1.8750   1.9155   1.9316   1.9544   1.9748   2.0487
  2.0514   2.0765   2.1207   2.1644   2.1953   2.2210   2.3167   2.3698
  2.4155   2.4424   2.4715   2.4867   2.5091   2.5457   2.6052   2.6290
  2.6378   2.6824   2.7855   2.8004   2.8539   2.8891   2.9407   2.9752
  3.0648   3.1087   3.1227   3.1651   3.1969   3.2140   3.2622   3.3049
  3.3099   3.3393   3.3946   3.4139   3.4581   3.5043   3.5322   3.5594
  3.5879   3.6850   3.6907   3.8199   3.8530   3.9430   4.0217   4.0363
  4.0705   4.2108   4.3279   4.4139   4.4447   4.6101   4.6528   4.6608
  4.7783   4.8886   4.8991   4.9238   5.1386   5.1764   5.2640   5.3490
  5.3803   5.4071   5.4113   5.4953   5.5363   5.7782   5.9268   6.1530
  6.2575   6.5383   6.6445   6.7508   6.8498   6.9720   7.2300   7.3328
 22.5860  23.6037  32.4061  44.2934
 --------------------------------------------------------------
 
          Ground-State Mulliken Net Atomic Charges

     Atom                 Charge (a.u.)
  ----------------------------------------
      1 C                    -0.544453
      2 C                     0.381591
      3 O                    -0.581646
      4 N                    -0.254430
      5 H                     0.171608
      6 H                     0.223889
      7 H                     0.200178
      8 H                     0.201604
      9 H                     0.201658
  ----------------------------------------
  Sum of atomic charges =     0.000000

 -----------------------------------------------------------------
                    Cartesian Multipole Moments
 -----------------------------------------------------------------
    Charge (ESU x 10^10)
                -0.0000
    Dipole Moment (Debye)
         X       3.2907      Y      -0.1472      Z      -3.9654
       Tot       5.1551
    Quadrupole Moments (Debye-Ang)
        XX     -10.8935     XY      -2.0539     YY     -22.5757
        XZ     -12.9538     YZ      -1.5262     ZZ      -8.1888
    Octopole Moments (Debye-Ang^2)
       XXX    -126.5700    XXY      -0.1283    XYY     -54.3918
       YYY      21.9930    XXZ       5.2163    XYZ       1.3132
       YYZ      41.0698    XZZ     -11.7429    YZZ      17.6787
       ZZZ      78.3359
    Hexadecapole Moments (Debye-Ang^3)
      XXXX    -782.4575   XXXY      59.6253   XXYY    -170.5429
      XYYY      79.0488   YYYY    -107.4411   XXXZ     201.5090
      XXYZ       4.2635   XYYZ     104.0668   YYYZ     -24.4557
      XXZZ    -119.7306   XYZZ      35.8932   YYZZ    -112.4248
      XZZZ     164.7867   YZZZ     -65.7349   ZZZZ    -418.9127
 -----------------------------------------------------------------
Archival summary:
1\1\nid00556\SP\ProcedureUnspecified\BasisUnspecified\1125\meili\SunSep2615:56:282021SunSep2615:56:282021\0\\#,ProcedureUnspecified,BasisUnspecified,\\0,1\C\O,1,1.22497\N,1,1.32248,2,121.874\H,3,1.00941,1,118.393,2,-0.614717,0\H,3,1.01037,1,120.797,2,-178.95,0\C,1,1.51635,2,121.098,3,179.649,0\H,6,1.08557,1,105.646,2,-62.5194,0\H,6,1.09211,1,110.185,2,-178.68,0\H,6,1.1,1,112.957,2,59.4595,0\\\@

 Total job time:  6787.38s(wall), 13440.09s(cpu) 
 Sun Sep 26 15:56:28 2021

        *************************************************************
        *                                                           *
        *  Thank you very much for using Q-Chem.  Have a nice day.  *
        *                                                           *
        *************************************************************


Done Job For Fragment 0
calling putenv with: QCSCRATCH=/global/cscratch1/sd/meili 
calling putenv with: QCLOCALSCR=/tmp 
calling putenv with: QCTHREADS=32 
Creating input file /tmp/qchem55211/Frg2.input
using default PutDataFrgm: nothing
calling putenv with: QCSCRATCH=/tmp/qchem55211/ 
calling putenv with: QCLOCALSCR=/tmp/qchem55211/ 
Spawning Job For Fragment 1
                  Welcome to Q-Chem
     A Quantum Leap Into The Future Of Chemistry


 Q-Chem 5.2, Q-Chem, Inc., Pleasanton, CA (2019)

 License issued to: National Energy Research Scientific Computing Center

 Yihan Shao,  Zhengting Gan,  E. Epifanovsky,  A. T. B. Gilbert,  M. Wormit,  
 J. Kussmann,  A. W. Lange,  A. Behn,  Jia Deng,  Xintian Feng,  D. Ghosh,  
 M. Goldey,  P. R. Horn,  L. D. Jacobson,  I. Kaliman,  T. Kus,  A. Landau,  
 Jie Liu,  E. I. Proynov,  R. M. Richard,  R. P. Steele,  E. J. Sundstrom,  
 H. L. Woodcock III,  P. M. Zimmerman,  D. Zuev,  B. Albrecht,  E. Alguire,  
 S. A. Baeppler,  D. Barton,  Z. Benda,  Y. A. Bernard,  E. J. Berquist,  
 K. B. Bravaya,  H. Burton,  D. Casanova,  Chun-Min Chang,  Yunqing Chen,  
 A. Chien,  K. D. Closser,  M. P. Coons,  S. Coriani,  S. Dasgupta,  
 A. L. Dempwolff,  M. Diedenhofen,  Hainam Do,  R. G. Edgar,  Po-Tung Fang,  
 S. Faraji,  S. Fatehi,  Qingguo Feng,  K. D. Fenk,  J. Fosso-Tande,  
 J. Gayvert,  Qinghui Ge,  A. Ghysels,  G. Gidofalvi,  J. Gomes,  
 J. Gonthier,  A. Gunina,  D. Hait,  M. W. D. Hanson-Heine,  
 P. H. P. Harbach,  A. W. Hauser,  M. F. Herbst,  J. E. Herr,  
 E. G. Hohenstein,  Z. C. Holden,  Kerwin Hui,  B. C. Huynh,  T.-C. Jagau,  
 Hyunjun Ji,  B. Kaduk,  K. Khistyaev,  Jaehoon Kim,  P. Klunzinger,  K. Koh,  
 D. Kosenkov,  L. Koulias,  T. Kowalczyk,  C. M. Krauter,  A. Kunitsa,  
 Ka Un Lao,  A. Laurent,  K. V. Lawler,  Joonho Lee,  D. Lefrancois,  
 S. Lehtola,  D. S. Levine,  Yi-Pei Li,  You-Sheng Lin,  Fenglai Liu,  
 E. Livshits,  A. Luenser,  P. Manohar,  E. Mansoor,  S. F. Manzer,  
 Shan-Ping Mao,  Yuezhi Mao,  N. Mardirossian,  A. V. Marenich,  
 T. Markovich,  L. A. Martinez-Martinez,  S. A. Maurer,  N. J. Mayhall,  
 S. C. McKenzie,  J.-M. Mewes,  P. Morgante,  A. F. Morrison,  
 J. W. Mullinax,  K. Nanda,  T. S. Nguyen-Beck,  R. Olivares-Amaya,  
 J. A. Parkhill,  Zheng Pei,  T. M. Perrine,  F. Plasser,  P. Pokhilko,  
 S. Prager,  A. Prociuk,  E. Ramos,  D. R. Rehn,  F. Rob,  M. Scheurer,  
 M. Schneider,  N. Sergueev,  S. M. Sharada,  S. Sharma,  D. W. Small,  
 T. Stauch,  T. Stein,  Yu-Chuan Su,  A. J. W. Thom,  A. Tkatchenko,  
 T. Tsuchimochi,  N. M. Tubman,  L. Vogt,  M. L. Vidal,  O. Vydrov,  
 M. A. Watson,  J. Wenzel,  M. de Wergifosse,  T. A. Wesolowski,  A. White,  
 J. Witte,  A. Yamada,  Jun Yang,  K. Yao,  S. Yeganeh,  S. R. Yost,  
 Zhi-Qiang You,  A. Zech,  Igor Ying Zhang,  Xing Zhang,  Yan Zhao,  
 Ying Zhu,  B. R. Brooks,  G. K. L. Chan,  C. J. Cramer,  M. S. Gordon,  
 W. J. Hehre,  A. Klamt,  M. W. Schmidt,  C. D. Sherrill,  D. G. Truhlar,  
 A. Aspuru-Guzik,  R. Baer,  A. T. Bell,  N. A. Besley,  Jeng-Da Chai,  
 A. E. DePrince, III,  R. A. DiStasio Jr.,  A. Dreuw,  B. D. Dunietz,  
 T. R. Furlani,  Chao-Ping Hsu,  Yousung Jung,  Jing Kong,  D. S. Lambrecht,  
 WanZhen Liang,  C. Ochsenfeld,  V. A. Rassolov,  L. V. Slipchenko,  
 J. E. Subotnik,  T. Van Voorhis,  J. M. Herbert,  A. I. Krylov,  
 P. M. W. Gill,  M. Head-Gordon

 Contributors to earlier versions of Q-Chem not listed above: 
 R. D. Adamson,  B. Austin,  J. Baker,  G. J. O. Beran,  K. Brandhorst,  
 S. T. Brown,  E. F. C. Byrd,  A. K. Chakraborty,  C.-L. Cheng,  
 Siu Hung Chien,  D. M. Chipman,  D. L. Crittenden,  H. Dachsel,  
 R. J. Doerksen,  A. D. Dutoi,  L. Fusti-Molnar,  W. A. Goddard III,  
 A. Golubeva-Zadorozhnaya,  S. R. Gwaltney,  G. Hawkins,  A. Heyden,  
 S. Hirata,  G. Kedziora,  F. J. Keil,  C. Kelley,  Jihan Kim,  R. A. King,  
 R. Z. Khaliullin,  P. P. Korambath,  W. Kurlancheek,  A. M. Lee,  M. S. Lee,  
 S. V. Levchenko,  Ching Yeh Lin,  D. Liotard,  R. C. Lochan,  I. Lotan,  
 P. E. Maslen,  N. Nair,  D. P. O'Neill,  D. Neuhauser,  E. Neuscamman,  
 C. M. Oana,  R. Olson,  B. Peters,  R. Peverati,  P. A. Pieniazek,  
 Y. M. Rhee,  J. Ritchie,  M. A. Rohrdanz,  E. Rosta,  N. J. Russ,  
 H. F. Schaefer III,  N. E. Schultz,  N. Shenvi,  A. C. Simmonett,  A. Sodt,  
 D. Stuck,  K. S. Thanthiriwatte,  V. Vanovschi,  Tao Wang,  A. Warshel,  
 C. F. Williams,  Q. Wu,  X. Xu,  W. Zhang

 Please cite Q-Chem as follows:
 Y. Shao et al., Mol. Phys. 113, 184-215 (2015)
 DOI: 10.1080/00268976.2014.952696

 Q-Chem 5.2.0 for Intel X86 EM64T Linux

 Parts of Q-Chem use Armadillo 8.300.2 (Tropical Shenanigans).
 http://arma.sourceforge.net/

 Q-Chem begins on Sun Sep 26 15:56:29 2021  

Host: cori01
0

     Scratch files written to /tmp/qchem55211//Frg2//
 May1019 |scratch|qcdevops|jenkins|workspace|build_RNUM -1
Processing $rem in /global/common/cori/software/qchem/5.2/config/preferences:
	 MEM_TOTAL  96000 
NAlpha2: 40
NElect   40
Mult     1
Symmetry turned off for PCM/SM12/SMD calculation

Checking the input file for inconsistencies... 	...done.

--------------------------------------------------------------
User input:
--------------------------------------------------------------
$molecule
1 1
 6	-3.4707184988	0.1797791360	2.5828099854
 6	-1.3977184988	0.2197791360	1.2328099854
 7	-0.0997184988	0.4187791360	1.1688099854
 7	-2.0287184988	0.3737791360	2.3848099854
 7	-2.0637184988	-0.1262208640	0.1488099854
 1	0.4152815012	0.6767791360	2.0038099854
 1	0.3832815012	0.3197791360	0.2868099854
 1	-1.4917184988	0.7217791360	3.1658099854
 1	-3.0637184988	-0.2292208640	0.1778099854
 1	-1.5807184988	-0.1982208640	-0.7321900146
 1	-4.0287184988	0.0347791360	1.6568099854
 1	-3.8607184988	1.0917791360	3.0398099854
 1	-3.6646494988	-0.6504208640	3.2779099854
$end
$rem
EDA2		1
METHOD		WB97X-V
BASIS		DEF2-TZVPD
XC_GRID		000099000590
NL_GRID		1
UNRESTRICTED		FALSE
MAX_SCF_CYCLES		200
SYMMETRY		FALSE
SYM_IGNORE		TRUE
BASIS_LIN_DEP_THRESH		6
THRESH		14
SCF_CONVERGENCE		8
SCF_PRINT_FRGM		TRUE
SOLVENT_METHOD		PCM
!required keywords
JOBTYPE		SP
SYM_IGNORE		TRUE
SUBSYSTEM		TRUE
GEN_SCFMAN		TRUE
CHILD_INSTRUCTION		2
SYM_IGNORE		TRUE
SCFMI		0
RI_K 0		
PARI_K 0		
MIN_PARI_K 0		
IARI_K 0		
OCC_RI_K 0		
PURECART		1111
MEM_STATIC		2000
MEM_TOTAL		96000
GUI		0
CHILD_MP		1
CHILD_MP_ORDERS		232
FRZ_RELAX		0
FRZ_RELAX_METHOD		0
EDA_CLS_ELEC		1
EDA_CLS_DISP		0
FRZ_ORTHO_DECOMP		1
EDA2		FALSE
FRGM_METHOD		FALSE
CIS_N_ROOTS  0
LOCAL_CIS    0
CIS_RLX_DNS  1
$end
$pcm
THEORY                  CPCM
METHOD                  SWIG
SOLVER                  INVERSION
RADII                   UFF
HPOINTS                 302
HEAVYPOINTS             302
PRINTLEVEL              0
$end
$solvent
DIELECTRIC              78.390000 ! water
$end
--------------------------------------------------------------
 ----------------------------------------------------------------
             Standard Nuclear Orientation (Angstroms)
    I     Atom           X                Y                Z
 ----------------------------------------------------------------
    1      C      -3.4707184988     0.1797791360     2.5828099854
    2      C      -1.3977184988     0.2197791360     1.2328099854
    3      N      -0.0997184988     0.4187791360     1.1688099854
    4      N      -2.0287184988     0.3737791360     2.3848099854
    5      N      -2.0637184988    -0.1262208640     0.1488099854
    6      H       0.4152815012     0.6767791360     2.0038099854
    7      H       0.3832815012     0.3197791360     0.2868099854
    8      H      -1.4917184988     0.7217791360     3.1658099854
    9      H      -3.0637184988    -0.2292208640     0.1778099854
   10      H      -1.5807184988    -0.1982208640    -0.7321900146
   11      H      -4.0287184988     0.0347791360     1.6568099854
   12      H      -3.8607184988     1.0917791360     3.0398099854
   13      H      -3.6646494988    -0.6504208640     3.2779099854
 ----------------------------------------------------------------
 Nuclear Repulsion Energy =         194.46325970 hartrees
 There are       20 alpha and       20 beta electrons
 Requested basis set is def2-TZVPD
 There are 105 shells and 257 basis functions

 Total QAlloc Memory Limit  96000 MB
 Mega-Array Size      1956 MB
 MEM_STATIC part      2000 MB
 Discretize the solute cavity surface with Lebedev spheres
	Using 302 Lebedev grid points for each H atom
	Using 302 Lebedev grid points for other atoms
	Atomic van der Waals radii will be scaled by 1.20
 Remove points where switching function is < 1.0e-08
 Keep 1577 surface tesserae and discard 2349 interior tesserae
 Molecular Surface Area = 151.674 Angst**2

                       Distance Matrix (Angstroms)
             C (  1)   C (  2)   N (  3)   N (  4)   N (  5)   H (  6)
   C (  2)  2.474152
   N (  3)  3.663353  1.314725
   N (  4)  1.468402  1.322490  2.280728
   N (  5)  2.828010  1.318457  2.279193  2.291489
   H (  6)  3.960208  2.022439  1.014403  2.492008  3.198636
   H (  7)  4.488266  2.019128  1.010452  3.197228  2.491138  1.754013
   H (  8)  2.133095  1.999332  2.453056  1.009670  3.185683  2.233589
   H (  9)  2.473248  2.022420  3.191752  2.511112  1.005709  4.032190
   H ( 10)  3.834607  2.017285  2.487539  3.200559  1.007290  3.497905
   H ( 11)  1.090809  2.671360  3.977768  2.155204  2.482178  4.503522
   H ( 12)  1.092105  3.176791  4.254256  2.073831  3.615330  4.419242
   H ( 13)  1.100002  3.174690  4.277876  2.126707  3.553735  4.475559
             H (  7)   H (  8)   H (  9)   H ( 10)   H ( 11)   H ( 12)
   H (  8)  3.459172
   H (  9)  3.492147  3.507667
   H ( 10)  2.272439  4.006086  1.740216
   H ( 11)  4.628593  3.030746  1.785598  3.428457
   H ( 12)  5.117277  2.401028  3.251353  4.592438  1.748760
   H ( 13)  5.125789  2.572378  3.185773  4.541823  1.797223  1.769292

 
 A cutoff of  1.0D-14 yielded   5439 shell pairs
 There are     33169 function pairs (     41503 Cartesian)
 Smallest overlap matrix eigenvalue = 1.46E-05

 Scale SEOQF with 1.000000e-01/1.000000e-01/1.000000e-01

 Standard Electronic Orientation quadrupole field applied
 Nucleus-field energy     =    -0.0000000070 hartrees
 Guess from superposition of atomic densities
 Warning:  Energy on first SCF cycle will be non-variational
 SAD guess density has 40.388232 electrons

 -----------------------------------------------------------------------
  General SCF calculation program by
  Eric Jon Sundstrom, Paul Horn, Yuezhi Mao, Dmitri Zuev, Alec White,
  David Stuck, Shaama M.S., Shane Yost, Joonho Lee, David Small,
  Daniel Levine, Susi Lehtola, Hugh Burton, Evgeny Epifanovsky
 -----------------------------------------------------------------------
 Exchange:     0.1670 Hartree-Fock + 1.0000 wB97X-V + LR-HF
 Correlation:  1.0000 wB97X-V
 Using Euler-Maclaurin-Lebedev (99,590) quadrature formula
 Nonlocal Correlation:  VV10 with C = 0.0100 and b = 6.00 and scale = 1.00000
 Grid used for NLC:  SG-1 standard quadrature
Energy prior to optimization (guess energy) = -244.722639532056
Begin Timing: Total SCF Calculation
begin iterations for algorithm: DIIS         
the SCF tolerance is set to 1.00e-08
    1    -244.7226395321      7.93e-03     00000 
    2    -244.9396680814      6.21e-03     00000 
    3    -245.1773556564      2.97e-04     00000 
    4    -245.1779483012      1.69e-04     00000 
    5    -245.1781428542      3.47e-05     00000 
    6    -245.1781518308      1.37e-05     00000 
    7    -245.1781534085      2.19e-06     00000 
    8    -245.1781534861      7.55e-07     00000 
    9    -245.1781534955      3.03e-07     00000 
   10    -245.1781534970      8.45e-08     00000 
   11    -245.1781534972      3.47e-08     00000 
   12    -245.1781534972      1.14e-08     00000 
   13    -245.1781534972      1.60e-09     00000 Convergence criterion met
Timing for Total SCF: 812.00s (wall), 1611.23s (cpu)

************** Final PCM Free Energy Summary **************
 G_electrostatic  =      -0.08165339 hartree =     -51.23827559 kcal/mol
 G_cavitation     =       0.00000000 hartree =       0.00000000 kcal/mol
 G_dispersion     =       0.00000000 hartree =       0.00000000 kcal/mol
 G_repulsion      =       0.00000000 hartree =       0.00000000 kcal/mol
 --------------------------------------------------
 Non-electrostatic Free Energy =       0.00000000 hartree =       0.00000000 kcal/mol
 Total                         =      -0.08165339 hartree =     -51.23827559 kcal/mol
 --------------------------------------------------
 SCF Energy (H0 + V/2)                       =    -245.17815350 
 Solute Internal Energy (H0)                 =    -245.09650011 
 Total Free Energy (H0 + V/2 + non-elec)     =    -245.17815350 hartree
                                             = -153851.61340177 kcal/mol
***********************************************************

E_pcm = -0.0816533900
Multipole orders to be included
        2
        3
computing dipole RHS
computing quadrupole RHS
total number of RHS in solve_reponses: 8
RHS batch sizes
        8
Beginning Block Conjugate Gradient Iterations. Batch Number: 0
computing hessian-vector products by finite difference
              1      4.53e-01     00000 Conjugate Gradient Iteration
computing hessian-vector products by finite difference
              2      1.78e-01     00000 Conjugate Gradient Iteration
computing hessian-vector products by finite difference
              3      4.75e-02     00000 Conjugate Gradient Iteration
computing hessian-vector products by finite difference
              4      1.23e-02     00000 Conjugate Gradient Iteration
computing hessian-vector products by finite difference
              5      1.79e-03     00000 Conjugate Gradient Iteration
computing hessian-vector products by finite difference
              6      2.85e-04     00000 Conjugate Gradient Iteration
computing hessian-vector products by finite difference
              7      3.82e-05     00000 Conjugate Gradient Iteration
computing hessian-vector products by finite difference
              8      4.75e-06     00000 Conjugate Gradient Iteration
computing hessian-vector products by finite difference
              9      7.15e-07     00000 Conjugate Gradient Iteration
computing hessian-vector products by finite difference
             10      8.66e-08     00000 Conjugate Gradient Iteration
computing hessian-vector products by finite difference
             11      1.06e-08     00000 Conjugate Gradient Iteration
computing hessian-vector products by finite difference
             12      1.90e-09     00000 CG Converged
batch 0 complete
Done Calculating Responses
TESTING ORTHOGONALIZATION OF MULTIPOLE BASIS
Multipole virts passed orthogonality test
Virts Per Order
           60
          100
 
 --------------------------------------------------------------
 
                    Orbital Energies (a.u.)
 --------------------------------------------------------------
 
 Alpha MOs
 -- Occupied --
-14.4823 -14.4751 -14.4747 -10.4484 -10.3323  -1.2023  -1.0829  -1.0719
 -0.8801  -0.7943  -0.7547  -0.7180  -0.6455  -0.6436  -0.6203  -0.5973
 -0.5518  -0.5364  -0.4258  -0.4007
 -- Virtual --
  0.0482   0.0752   0.0833   0.0867   0.1140   0.1171   0.1239   0.1423
  0.1567   0.1701   0.1798   0.1842   0.1910   0.2028   0.2059   0.2187
  0.2303   0.2365   0.2399   0.2533   0.2703   0.2737   0.2888   0.2933
  0.2965   0.3035   0.3100   0.3120   0.3174   0.3347   0.3403   0.3491
  0.3531   0.3548   0.3639   0.3731   0.4009   0.4055   0.4119   0.4197
  0.4281   0.4334   0.4473   0.4601   0.4656   0.4737   0.4766   0.4876
  0.5008   0.5044   0.5053   0.5140   0.5183   0.5271   0.5303   0.5435
  0.5464   0.5585   0.5758   0.5779   0.6008   0.6093   0.6190   0.6399
  0.6428   0.6636   0.6782   0.6814   0.6912   0.7041   0.7301   0.7470
  0.7800   0.7862   0.7906   0.8053   0.8191   0.8249   0.8385   0.8546
  0.8631   0.8708   0.8914   0.9104   0.9273   0.9542   0.9773   0.9802
  1.0231   1.0441   1.0675   1.0806   1.0871   1.0991   1.1150   1.1267
  1.1486   1.1672   1.2008   1.2182   1.2557   1.3245   1.3672   1.4010
  1.4132   1.4249   1.4653   1.4766   1.5276   1.5452   1.6285   1.6448
  1.6611   1.6728   1.7191   1.7590   1.7832   1.8137   1.8590   1.8708
  1.8772   1.8925   1.9209   1.9647   1.9675   1.9895   2.0102   2.0300
  2.0774   2.0968   2.1605   2.1975   2.2118   2.2203   2.2378   2.2681
  2.2769   2.3440   2.3481   2.3771   2.4160   2.4527   2.4777   2.5248
  2.5475   2.5639   2.5906   2.6204   2.6357   2.6604   2.6816   2.7055
  2.7303   2.7972   2.8169   2.8478   2.8678   2.8993   2.9138   2.9595
  3.0249   3.1152   3.1232   3.1264   3.1599   3.1661   3.2053   3.2222
  3.2580   3.2702   3.2766   3.2980   3.3385   3.3551   3.4098   3.4217
  3.4924   3.5074   3.5356   3.5488   3.5648   3.6475   3.7130   3.7140
  3.7906   3.8488   3.8942   3.9715   4.0392   4.1225   4.1735   4.1954
  4.2612   4.2733   4.3012   4.3330   4.3952   4.4879   4.5675   4.5949
  4.6442   4.8007   4.8324   4.8427   4.8995   4.9679   5.0036   5.0193
  5.0941   5.0965   5.1136   5.1569   5.1868   5.2020   5.2512   5.3360
  5.3731   5.3870   5.4256   5.4303   5.4729   5.4885   5.5600   5.6227
  5.6879   5.7605   5.7886   5.8731   6.1299   6.1688   6.3602   6.4687
 22.6207  23.6442  32.3116  32.4228  32.8064
 --------------------------------------------------------------
 
          Ground-State Mulliken Net Atomic Charges

     Atom                 Charge (a.u.)
  ----------------------------------------
      1 C                    -0.731402
      2 C                     0.620368
      3 N                    -0.265235
      4 N                    -0.092172
      5 N                    -0.217031
      6 H                     0.203374
      7 H                     0.195397
      8 H                     0.219132
      9 H                     0.103587
     10 H                     0.199890
     11 H                     0.277146
     12 H                     0.254502
     13 H                     0.232444
  ----------------------------------------
  Sum of atomic charges =     1.000000

 -----------------------------------------------------------------
                    Cartesian Multipole Moments
 -----------------------------------------------------------------
    Charge (ESU x 10^10)
                 4.8032
    Dipole Moment (Debye)
         X      -7.3447      Y       1.4221      Z       6.3274
       Tot       9.7981
    Quadrupole Moments (Debye-Ang)
        XX      -3.9747     XY       0.0026     YY     -30.7347
        XZ     -11.4003     YZ       5.0489     ZZ      -7.9313
    Octopole Moments (Debye-Ang^2)
       XXX      82.8516    XXY      -5.2828    XYY      57.1821
       YYY     -19.1401    XXZ      -4.7699    XYZ      -4.7521
       YYZ     -43.0722    XZZ      17.6073    YZZ       7.4727
       ZZZ     -74.1060
    Hexadecapole Moments (Debye-Ang^3)
      XXXX    -622.9556   XXXY      24.1715   XXYY    -162.4291
      XYYY      23.4584   YYYY     -54.2247   XXXZ     166.1141
      XXYZ       0.0882   XYYZ      95.8740   YYYZ     -38.5498
      XXZZ    -137.9738   XYZZ      -5.2596   YYZZ    -100.2312
      XZZZ     190.4006   YZZZ       2.4734   ZZZZ    -424.0938
 -----------------------------------------------------------------
Archival summary:
1\1\nid00556\SP\ProcedureUnspecified\BasisUnspecified\328(1+,1)\meili\SunSep2619:44:472021SunSep2619:44:472021\0\\#,ProcedureUnspecified,BasisUnspecified,\\1,1\C\N,1,1.31472\H,2,1.01045,1,119.972\H,2,1.0144,1,119.977,3,179.65,0\N,1,1.31846,2,119.895,3,0.906733,0\H,5,1.00571,1,120.36,2,-176.511,0\H,5,1.00729,1,119.712,2,-2.60004,0\N,1,1.32249,2,119.725,3,-178.806,0\H,8,1.00967,1,117.398,2,5.24475,0\C,8,1.4684,1,124.794,2,-179.94,0\H,10,1.09081,8,113.919,1,-8.60614,0\H,10,1.0921,8,107.265,1,-126.167,0\H,10,1.1,8,110.98,1,116.52,0\\\@

 Total job time:  13698.99s(wall), 27183.79s(cpu) 
 Sun Sep 26 19:44:48 2021

        *************************************************************
        *                                                           *
        *  Thank you very much for using Q-Chem.  Have a nice day.  *
        *                                                           *
        *************************************************************


Done Job For Fragment 1
calling putenv with: QCSCRATCH=/global/cscratch1/sd/meili 
calling putenv with: QCLOCALSCR=/tmp 
calling putenv with: QCTHREADS=32 
Doing General SCFMI
 Exchange:     0.1670 Hartree-Fock + 1.0000 wB97X-V + LR-HF
 Correlation:  1.0000 wB97X-V
 Using Euler-Maclaurin-Lebedev (99,590) quadrature formula
 Nonlocal Correlation:  VV10 with C = 0.0100 and b = 6.00 and scale = 1.00000
 Grid used for NLC:  SG-1 standard quadrature
performing fock build before subrot guess so that all methods have access
Printing subrot_rss_gen Method Specification:
Occupied Subspace Method is 0
Virtual Subspace Method is 0
Energy of the unrelaxed supersystem initial determinant -454.353469294698
performing fock build before subrot guess so that all methods have access
Printing subrot_rss_gen Method Specification:
Occupied Subspace Method is 0
Virtual Subspace Method is 0
Energy of the unrelaxed supersystem initial determinant w/ solvent -454.422650379057
write pseudocanon occs and virts to disk
write pseudocanon orbital energies to disk
Tolerance of ortho_decomp_scf: 1.00e-06
GDM subspace size: 20
Beginning the Orthogonal Decomposition of the Initial Supersystem Wavefunction
    1    -454.2602187914      1.11e-01     ortho_decomp Preconditoned Steepest Descent
    2    -454.2741886437      2.15e-03     ortho_decomp BFGS Step
    3    -454.2742210080      2.02e-04     ortho_decomp BFGS Step
    4    -454.2742211383      9.17e-06     ortho_decomp BFGS Step
    5    -454.2742211387      3.30e-07     ortho_decomp 00000 Convergence criterion met
 Hartree-Fock
 Hartree-Fock
 Hartree-Fock
Doing General SCFMI
 Exchange:     0.1670 Hartree-Fock + 1.0000 wB97X-V + LR-HF
 Correlation:  1.0000 wB97X-V
 Using Euler-Maclaurin-Lebedev (99,590) quadrature formula
 Nonlocal Correlation:  VV10 with C = 0.0100 and b = 6.00 and scale = 1.00000
 Grid used for NLC:  SG-1 standard quadrature
performing fock build at end of subrot_r(subrot) constructor so that all methods have access
<S^2> of initial wavefunction before polarization iterations 0.0000000000
Beginning iterations for the determination of the polarized wavefunction
Energy prior to optimization (guess energy) = -454.422650379057
Begin Timing: Total SCF Calculation
begin iterations for algorithm: DIIS         
the SCF tolerance is set to 1.00e-08
    1    -454.4226503791      2.94e-04     00000 
    2    -454.4270943534      1.27e-04     00000 
    3    -454.4275401591      9.68e-05     00000 
    4    -454.4277798444      2.75e-05     00000 
    5    -454.4278184926      1.27e-05     00000 
    6    -454.4278274598      4.95e-06     00000 
    7    -454.4278289581      1.98e-06     00000 
    8    -454.4278291221      5.60e-07     00000 
    9    -454.4278291373      1.76e-07     00000 
   10    -454.4278291385      8.89e-08     00000 
   11    -454.4278291389      2.68e-08     00000 
   12    -454.4278291390      1.10e-08     00000 
   13    -454.4278291390      3.67e-09     00000 Convergence criterion met
write pseudocanon occs and virts to disk
write pseudocanon orbital energies to disk
Timing for Total SCF: 3319.00s (wall), 6600.55s (cpu)
<S^2> of polarized wavefunction after polarization iterations 0.0000000000
relaxing scfmi constraint to allow all rotations in the entire AO span
Doing General SCFMI
 Exchange:     0.1670 Hartree-Fock + 1.0000 wB97X-V + LR-HF
 Correlation:  1.0000 wB97X-V
 Using Euler-Maclaurin-Lebedev (99,590) quadrature formula
 Nonlocal Correlation:  VV10 with C = 0.0100 and b = 6.00 and scale = 1.00000
 Grid used for NLC:  SG-1 standard quadrature
performing fock build at end of subrot_r(subrot) constructor so that all methods have access
<S^2> of polarized wavefunction before ct-allowed iterations 0.0000000000
Beginning iterations for the determination of the CT-Allowed wavefunction
Energy prior to optimization (guess energy) = -454.427829138968
Begin Timing: Total SCF Calculation
begin iterations for algorithm: DIIS         
the SCF tolerance is set to 1.00e-08
    1    -454.4278291390      2.47e-04     00000 
    2    -454.4347397013      3.90e-05     00000 
    3    -454.4349815413      1.92e-05     00000 
    4    -454.4350043148      7.90e-06     00000 
    5    -454.4350096061      1.74e-06     00000 
    6    -454.4350098870      4.78e-07     00000 
    7    -454.4350099205      1.73e-07     00000 
    8    -454.4350099245      5.72e-08     00000 
    9    -454.4350099251      1.59e-08     00000 
   10    -454.4350099252      7.21e-09     00000 Convergence criterion met
write pseudocanon occs and virts to disk
write pseudocanon orbital energies to disk
Timing for Total SCF: 2495.00s (wall), 4961.77s (cpu)
<S^2> of ct_allowed wavefunction after ct-allowed iterations 0.0000000000

================================
        Results of EDA2         
================================
Basic EDA Quantities
--------------------
Fragment Energies (Ha):
1 -209.2456591321
2 -245.1781534972
--------------------
  E_prp (kJ/mol) = 0.0000
  E_sol (kJ/mol) = 64.6046
  E_frz (kJ/mol) = -61.5531
  E_pol (kJ/mol) = -13.5970
  E_vct (kJ/mol) = -18.8534
  E_int (kJ/mol) = -29.3988
--------------------


Initial Wavefunction Decomposition
--------------------
  --------------------
  Orthogonal Fragment Subspace Decomposition:
  --------------------
     E_elec   (ELEC)   (kJ/mol) = -169.0506
     E_pauli  (PAULI)  (kJ/mol) = 122.1230
     E_disp   (DISP)   (kJ/mol) = -14.6256
     --------------------
     Terms summing to E_pauli:
     --------------------
        E_kep_pauli       (kJ/mol) = 146.5154
        E_disp_free_pauli (kJ/mol) = -24.3923
  --------------------
  Classical Frozen Decomposition:
  --------------------
     E_cls_elec  (CLS ELEC)  (kJ/mol) = -129.7094
     E_cls_pauli (CLS PAULI) (kJ/mol) = 68.1563
    [E_mod_pauli (MOD PAULI) (kJ/mol) = 82.7818 (CLS PAULI - DISP from orthogonal decomposition) ]
  --------------------
--------------------

Simplified EDA Summary (kJ/mol)
--------------------
 PREPARATION     0.0000
 SOLVATION       64.6046
 FROZEN          -46.9276      (does not include dispersion)
[PAULI           122.1230]     (if this is negligible, then frozen describes electrostatics)
 DISPERSION      -14.6256
 POLARIZATION    -13.5970
 CHARGE TRANSFER -18.8534
 TOTAL           -29.3988     (PRP + SOL + FRZ + DISP + POL + CT)
--------------------
 
 --------------------------------------------------------------
 
                    Orbital Energies (a.u.)
 --------------------------------------------------------------
 
 Alpha MOs
 -- Occupied --
-19.1984 -14.4737 -14.4662 -14.4482 -14.4475 -10.4359 -10.3956 -10.3284
-10.2809  -1.1966  -1.1899  -1.0733  -1.0631  -1.0561  -0.8815  -0.8728
 -0.7855  -0.7438  -0.7347  -0.7052  -0.6730  -0.6428  -0.6337  -0.6117
 -0.6065  -0.5866  -0.5809  -0.5453  -0.5348  -0.5273  -0.5133  -0.4970
 -0.4140  -0.4015  -0.3956  -0.3859
 -- Virtual --
  0.0479   0.0642   0.0766   0.0828   0.0858   0.0948   0.0987   0.1116
  0.1154   0.1192   0.1243   0.1361   0.1439   0.1458   0.1549   0.1642
  0.1711   0.1766   0.1856   0.1891   0.1929   0.1988   0.2043   0.2111
  0.2130   0.2279   0.2292   0.2334   0.2388   0.2437   0.2457   0.2543
  0.2604   0.2723   0.2746   0.2767   0.2850   0.2917   0.2945   0.3017
  0.3024   0.3059   0.3100   0.3185   0.3222   0.3263   0.3271   0.3315
  0.3336   0.3398   0.3437   0.3481   0.3551   0.3558   0.3601   0.3639
  0.3708   0.3731   0.3760   0.3852   0.3877   0.3968   0.3977   0.4068
  0.4080   0.4112   0.4190   0.4292   0.4323   0.4436   0.4521   0.4537
  0.4584   0.4668   0.4720   0.4741   0.4756   0.4847   0.4890   0.4904
  0.4921   0.4972   0.5035   0.5103   0.5119   0.5176   0.5196   0.5222
  0.5326   0.5362   0.5412   0.5469   0.5527   0.5544   0.5629   0.5703
  0.5763   0.5775   0.5893   0.5995   0.6013   0.6118   0.6152   0.6248
  0.6356   0.6371   0.6446   0.6490   0.6536   0.6615   0.6716   0.6776
  0.6808   0.6892   0.6968   0.6977   0.7151   0.7238   0.7321   0.7423
  0.7447   0.7526   0.7570   0.7698   0.7734   0.7801   0.7882   0.7942
  0.8026   0.8149   0.8175   0.8256   0.8329   0.8390   0.8406   0.8430
  0.8655   0.8721   0.8747   0.8830   0.8906   0.9056   0.9102   0.9170
  0.9270   0.9327   0.9467   0.9621   0.9754   0.9923   0.9952   1.0082
  1.0186   1.0304   1.0426   1.0577   1.0762   1.0949   1.1006   1.1157
  1.1215   1.1278   1.1387   1.1488   1.1587   1.1705   1.1765   1.1867
  1.1967   1.2061   1.2223   1.2256   1.2469   1.2533   1.2628   1.3069
  1.3326   1.3413   1.3466   1.3783   1.3917   1.4266   1.4352   1.4408
  1.4559   1.4808   1.4931   1.4994   1.5173   1.5306   1.5701   1.6004
  1.6190   1.6462   1.6568   1.6844   1.6922   1.7173   1.7237   1.7310
  1.7758   1.7889   1.8064   1.8147   1.8384   1.8666   1.8750   1.8780
  1.8847   1.8949   1.9020   1.9116   1.9408   1.9556   1.9604   1.9701
  1.9865   1.9909   2.0003   2.0233   2.0265   2.0531   2.0726   2.0754
  2.0914   2.1025   2.1177   2.1221   2.1344   2.2027   2.2107   2.2175
  2.2195   2.2495   2.2560   2.2728   2.3006   2.3121   2.3532   2.3673
  2.3990   2.4096   2.4208   2.4289   2.4356   2.4575   2.4737   2.4823
  2.4908   2.4942   2.5298   2.5540   2.5639   2.5962   2.5981   2.6038
  2.6248   2.6379   2.6449   2.6589   2.6716   2.6819   2.6946   2.7075
  2.7271   2.7643   2.7861   2.8008   2.8205   2.8307   2.8504   2.8735
  2.8825   2.9043   2.9094   2.9424   2.9646   2.9734   2.9813   2.9986
  3.0666   3.0952   3.1206   3.1315   3.1392   3.1575   3.1737   3.1828
  3.2001   3.2104   3.2288   3.2391   3.2561   3.2757   3.2839   3.2854
  3.2921   3.3001   3.3205   3.3240   3.3347   3.3578   3.3644   3.3851
  3.4076   3.4248   3.4469   3.4487   3.4774   3.5036   3.5109   3.5316
  3.5432   3.5591   3.5804   3.5934   3.6208   3.6802   3.6901   3.7038
  3.7280   3.7392   3.7747   3.8036   3.8314   3.8577   3.8767   3.9129
  3.9492   4.0043   4.0256   4.0348   4.0749   4.0829   4.1462   4.2003
  4.2122   4.2315   4.2905   4.2972   4.3432   4.3502   4.3548   4.4124
  4.4143   4.4449   4.5040   4.5803   4.6115   4.6211   4.6510   4.6570
  4.6980   4.8173   4.8504   4.8579   4.8846   4.8905   4.8951   4.9324
  4.9506   5.0237   5.0330   5.0488   5.1142   5.1303   5.1467   5.1621
  5.1733   5.1829   5.2009   5.2410   5.2541   5.3249   5.3527   5.3818
  5.3884   5.3921   5.4070   5.4193   5.4329   5.4481   5.4718   5.4920
  5.5014   5.5295   5.5642   5.5860   5.6808   5.7229   5.7587   5.7900
  5.8113   5.9130   5.9203   6.1526   6.1647   6.1859   6.3233   6.4230
  6.4932   6.6603   6.7050   6.7659   6.8569   7.0022   7.2277   7.5191
 22.6072  22.6299  23.6410  23.6846  32.3759  32.4143  32.5384  32.9019
 44.4548
 --------------------------------------------------------------
 
          Ground-State Mulliken Net Atomic Charges

     Atom                 Charge (a.u.)
  ----------------------------------------
      1 C                    -0.593269
      2 C                     0.368675
      3 O                    -0.670364
      4 N                    -0.258120
      5 H                     0.184439
      6 H                     0.244001
      7 H                     0.205142
      8 H                     0.203169
      9 H                     0.219904
     10 C                    -0.748500
     11 C                     0.614485
     12 N                    -0.168583
     13 N                    -0.080884
     14 N                    -0.188397
     15 H                     0.185144
     16 H                     0.242800
     17 H                     0.223141
     18 H                     0.086038
     19 H                     0.155798
     20 H                     0.286206
     21 H                     0.256811
     22 H                     0.232363
  ----------------------------------------
  Sum of atomic charges =     1.000000

 -----------------------------------------------------------------
                    Cartesian Multipole Moments
 -----------------------------------------------------------------
    Charge (ESU x 10^10)
                 4.8032
    Dipole Moment (Debye)
         X      -2.8136      Y       1.0938      Z       1.1695
       Tot       3.2374
    Quadrupole Moments (Debye-Ang)
        XX     -13.8501     XY      -2.3536     YY     -53.0143
        XZ     -25.3369     YZ       3.2598     ZZ     -15.3433
    Octopole Moments (Debye-Ang^2)
       XXX     -29.2811    XXY      -7.0959    XYY       4.9471
       YYY       2.0196    XXZ      -7.9404    XYZ      -2.9983
       YYZ      -3.6898    XZZ      14.0343    YZZ      24.8959
       ZZZ      -7.5603
    Hexadecapole Moments (Debye-Ang^3)
      XXXX   -1390.9856   XXXY      77.7337   XXYY    -329.0958
      XYYY     100.5078   YYYY    -159.6676   XXXZ     359.3775
      XXYZ       5.2981   XYYZ     197.8065   YYYZ     -63.0180
      XXZZ    -250.2203   XYZZ      31.2929   YYZZ    -211.2348
      XZZZ     344.4064   YZZZ     -66.4466   ZZZZ    -828.0154
 -----------------------------------------------------------------
Archival summary:
1\1\nid00556\SP\ProcedureUnspecified\BasisUnspecified\14413(1+,1)\meili\SunSep2622:25:442021SunSep2622:25:442021\0\\#,ProcedureUnspecified,BasisUnspecified,\\1,1\O\C,1,1.22497\N,2,1.32248,1,121.874\H,3,1.00941,2,118.393,1,-0.614717,0\H,3,1.01037,2,120.797,1,-178.95,0\C,2,1.51635,1,121.098,3,179.649,0\H,6,1.08557,2,105.646,1,-62.5194,0\H,6,1.09211,2,110.185,1,-178.68,0\H,6,1.1,2,112.957,1,59.4595,0\H,1,1.65254,2,166.144,3,-125.93,0\N,10,1.01045,1,171.26,2,-55.5734,0\H,11,1.0144,10,120.049,1,62.5642,0\C,11,1.31472,10,119.972,1,-117.786,0\N,13,1.31846,11,119.895,10,0.906733,0\H,14,1.00571,13,120.36,11,-176.511,0\H,14,1.00729,13,119.712,11,-2.60004,0\N,13,1.32249,11,119.725,10,-178.806,0\H,17,1.00967,13,117.398,11,5.24475,0\C,17,1.4684,13,124.794,11,-179.94,0\H,19,1.09081,17,113.919,13,-8.60614,0\H,19,1.0921,17,107.265,13,-126.167,0\H,19,1.1,17,110.98,13,116.52,0\\\@

 Total job time:  30147.35s(wall), 19223.16s(cpu) 
 Sun Sep 26 22:25:45 2021

        *************************************************************
        *                                                           *
        *  Thank you very much for using Q-Chem.  Have a nice day.  *
        *                                                           *
        *************************************************************


