                  Welcome to Q-Chem
     A Quantum Leap Into The Future Of Chemistry


 Q-Chem 5.2 (devel), Q-Chem, Inc., Pleasanton, CA (2019)

 Yihan Shao,  Zhengting Gan,  E. Epifanovsky,  A. T. B. Gilbert,  M. Wormit,  
 J. Kussmann,  A. W. Lange,  A. Behn,  Jia Deng,  Xintian Feng,  D. Ghosh,  
 M. Goldey,  P. R. Horn,  L. D. Jacobson,  I. Kaliman,  T. Kus,  A. Landau,  
 Jie Liu,  E. I. Proynov,  R. M. Richard,  R. P. Steele,  E. J. Sundstrom,  
 H. L. Woodcock III,  P. M. Zimmerman,  D. Zuev,  B. Albrecht,  E. Alguire,  
 S. A. Baeppler,  D. Barton,  Z. Benda,  Y. A. Bernard,  E. J. Berquist,  
 K. B. Bravaya,  H. Burton,  D. Casanova,  Chun-Min Chang,  Yunqing Chen,  
 A. Chien,  K. D. Closser,  M. P. Coons,  S. Coriani,  S. Dasgupta,  
 A. L. Dempwolff,  M. Diedenhofen,  Hainam Do,  R. G. Edgar,  Po-Tung Fang,  
 S. Faraji,  S. Fatehi,  Qingguo Feng,  K. D. Fenk,  J. Fosso-Tande,  
 J. Gayvert,  Qinghui Ge,  A. Ghysels,  G. Gidofalvi,  J. Gomes,  
 J. Gonthier,  A. Gunina,  D. Hait,  M. W. D. Hanson-Heine,  
 P. H. P. Harbach,  A. W. Hauser,  M. F. Herbst,  J. E. Herr,  
 E. G. Hohenstein,  Z. C. Holden,  Kerwin Hui,  B. C. Huynh,  T.-C. Jagau,  
 Hyunjun Ji,  B. Kaduk,  K. Khistyaev,  Jaehoon Kim,  P. Klunzinger,  K. Koh,  
 D. Kosenkov,  L. Koulias,  T. Kowalczyk,  C. M. Krauter,  A. Kunitsa,  
 Ka Un Lao,  A. Laurent,  K. V. Lawler,  Joonho Lee,  D. Lefrancois,  
 S. Lehtola,  D. S. Levine,  Yi-Pei Li,  You-Sheng Lin,  Fenglai Liu,  
 E. Livshits,  A. Luenser,  P. Manohar,  E. Mansoor,  S. F. Manzer,  
 Shan-Ping Mao,  Yuezhi Mao,  N. Mardirossian,  A. V. Marenich,  
 T. Markovich,  L. A. Martinez-Martinez,  S. A. Maurer,  N. J. Mayhall,  
 S. C. McKenzie,  J.-M. Mewes,  P. Morgante,  A. F. Morrison,  
 J. W. Mullinax,  K. Nanda,  T. S. Nguyen-Beck,  R. Olivares-Amaya,  
 J. A. Parkhill,  Zheng Pei,  T. M. Perrine,  F. Plasser,  P. Pokhilko,  
 S. Prager,  A. Prociuk,  E. Ramos,  D. R. Rehn,  F. Rob,  M. Scheurer,  
 M. Schneider,  N. Sergueev,  S. M. Sharada,  S. Sharma,  D. W. Small,  
 T. Stauch,  T. Stein,  Yu-Chuan Su,  A. J. W. Thom,  A. Tkatchenko,  
 T. Tsuchimochi,  N. M. Tubman,  L. Vogt,  M. L. Vidal,  O. Vydrov,  
 M. A. Watson,  J. Wenzel,  M. de Wergifosse,  T. A. Wesolowski,  A. White,  
 J. Witte,  A. Yamada,  Jun Yang,  K. Yao,  S. Yeganeh,  S. R. Yost,  
 Zhi-Qiang You,  A. Zech,  Igor Ying Zhang,  Xing Zhang,  Yan Zhao,  
 Ying Zhu,  B. R. Brooks,  G. K. L. Chan,  C. J. Cramer,  M. S. Gordon,  
 W. J. Hehre,  A. Klamt,  M. W. Schmidt,  C. D. Sherrill,  D. G. Truhlar,  
 A. Aspuru-Guzik,  R. Baer,  A. T. Bell,  N. A. Besley,  Jeng-Da Chai,  
 A. E. DePrince, III,  R. A. DiStasio Jr.,  A. Dreuw,  B. D. Dunietz,  
 T. R. Furlani,  Chao-Ping Hsu,  Yousung Jung,  Jing Kong,  D. S. Lambrecht,  
 WanZhen Liang,  C. Ochsenfeld,  V. A. Rassolov,  L. V. Slipchenko,  
 J. E. Subotnik,  T. Van Voorhis,  J. M. Herbert,  A. I. Krylov,  
 P. M. W. Gill,  M. Head-Gordon

 Contributors to earlier versions of Q-Chem not listed above: 
 R. D. Adamson,  B. Austin,  J. Baker,  G. J. O. Beran,  K. Brandhorst,  
 S. T. Brown,  E. F. C. Byrd,  A. K. Chakraborty,  C.-L. Cheng,  
 Siu Hung Chien,  D. M. Chipman,  D. L. Crittenden,  H. Dachsel,  
 R. J. Doerksen,  A. D. Dutoi,  L. Fusti-Molnar,  W. A. Goddard III,  
 A. Golubeva-Zadorozhnaya,  S. R. Gwaltney,  G. Hawkins,  A. Heyden,  
 S. Hirata,  G. Kedziora,  F. J. Keil,  C. Kelley,  Jihan Kim,  R. A. King,  
 R. Z. Khaliullin,  P. P. Korambath,  W. Kurlancheek,  A. M. Lee,  M. S. Lee,  
 S. V. Levchenko,  Ching Yeh Lin,  D. Liotard,  R. C. Lochan,  I. Lotan,  
 P. E. Maslen,  N. Nair,  D. P. O'Neill,  D. Neuhauser,  E. Neuscamman,  
 C. M. Oana,  R. Olson,  B. Peters,  R. Peverati,  P. A. Pieniazek,  
 Y. M. Rhee,  J. Ritchie,  M. A. Rohrdanz,  E. Rosta,  N. J. Russ,  
 H. F. Schaefer III,  N. E. Schultz,  N. Shenvi,  A. C. Simmonett,  A. Sodt,  
 D. Stuck,  K. S. Thanthiriwatte,  V. Vanovschi,  Tao Wang,  A. Warshel,  
 C. F. Williams,  Q. Wu,  X. Xu,  W. Zhang

 Please cite Q-Chem as follows:
 Y. Shao et al., Mol. Phys. 113, 184-215 (2015)
 DOI: 10.1080/00268976.2014.952696

 Q-Chem 5.2.1 for Intel X86 EM64T Linux

 Parts of Q-Chem use Armadillo 8.300.2 (Tropical Shenanigans).
 http://arma.sourceforge.net/

 Q-Chem begins on Wed Sep 29 19:49:15 2021  

compute-0-1.local
Host: 0

     Scratch files written to /home/meili/scratch/qchem40832//
NAlpha2: 110
NElect   110
Mult     1
Symmetry turned off for PCM/SM12/SMD calculation

 Q-Chem warning in module libgen/rem_setup.C, line 2813:

 Neither GIA nor STOLL is specified by user. Use STOLL as the default


Checking the input file for inconsistencies... 	...done.

--------------------------------------------------------------
User input:
--------------------------------------------------------------
$comment
SSI-081ASN-100TRP-1.pdb
$end

$molecule
0 1
--
0 1
C   -0.772782264500   -1.888551898332   -1.257543874840
C   -0.303782264500   -3.192551898332   -0.619543874840
C   -2.046782264500   -1.389551898332   -0.608543874840
O   -2.638782264500   -2.101551898332    0.218456125160
N   -2.501782264500   -0.214551898332   -0.994543874840
H   -0.003782264500   -1.134551898332   -1.120543874840
H   -0.930782264500   -2.018551898332   -2.326543874840
H   -0.249782264500   -3.023551898332    0.458456125160
H   -3.346782264500    0.179448101668   -0.613543874840
H   -1.952782264500    0.292448101668   -1.680543874840
H    0.687167735500   -3.482215898332   -0.999155874840
H   -1.026562264500   -3.999643898332   -0.809786874840
--
0 1
C    0.786217735500    3.257448101668   -1.576543874840
C    0.439217735500    0.602448101668    1.119456125160
C    1.147217735500    1.169448101668    0.019456125160
C    0.436217735500    2.350448101668   -0.401543874840
C   -0.628782264500    2.460448101668    0.446456125160
C    0.877217735500   -0.551551898332    1.763456125160
C    2.029217735500   -1.161551898332    1.286456125160
C    2.280217735500    0.496448101668   -0.471543874840
C    2.727217735500   -0.645551898332    0.179456125160
N   -0.625782264500    1.426448101668    1.369456125160
H   -1.317782264500    1.309448101668    2.102456125160
H    0.340217735500   -0.952551898332    2.612456125160
H   -1.378782264500    3.226448101668    0.415456125160
H    2.396217735500   -2.055551898332    1.776456125160
H    2.820217735500    0.896448101668   -1.318543874840
H    1.847217735500    3.148448101668   -1.793543874840
H    0.607217735500    4.293448101668   -1.286543874840
H    3.619217735500   -1.152551898332   -0.159543874840
H    0.226537735500    3.039595501668   -2.498117874840
$end

$rem
JOBTYPE			EDA
EDA2			1
method			wB97X-V
BASIS			def2-TZVPD
XC_GRID			000099000590
NL_GRID			1
UNRESTRICTED		FALSE
MAX_SCF_CYCLES		200
SYMMETRY		FALSE
SYM_IGNORE		TRUE
MEM_STATIC		2000
BASIS_LIN_DEP_THRESH 	6
THRESH 			14
SCF_CONVERGENCE 	8
SCF_PRINT_FRGM 		TRUE
SOLVENT_METHOD          SMD
$end

$SMX
SOLVENT			WATER
$END
--------------------------------------------------------------
 ----------------------------------------------------------------
             Standard Nuclear Orientation (Angstroms)
    I     Atom           X                Y                Z
 ----------------------------------------------------------------
    1      C      -0.7727822645    -1.8885518983    -1.2575438748
    2      C      -0.3037822645    -3.1925518983    -0.6195438748
    3      C      -2.0467822645    -1.3895518983    -0.6085438748
    4      O      -2.6387822645    -2.1015518983     0.2184561252
    5      N      -2.5017822645    -0.2145518983    -0.9945438748
    6      H      -0.0037822645    -1.1345518983    -1.1205438748
    7      H      -0.9307822645    -2.0185518983    -2.3265438748
    8      H      -0.2497822645    -3.0235518983     0.4584561252
    9      H      -3.3467822645     0.1794481017    -0.6135438748
   10      H      -1.9527822645     0.2924481017    -1.6805438748
   11      H       0.6871677355    -3.4822158983    -0.9991558748
   12      H      -1.0265622645    -3.9996438983    -0.8097868748
   13      C       0.7862177355     3.2574481017    -1.5765438748
   14      C       0.4392177355     0.6024481017     1.1194561252
   15      C       1.1472177355     1.1694481017     0.0194561252
   16      C       0.4362177355     2.3504481017    -0.4015438748
   17      C      -0.6287822645     2.4604481017     0.4464561252
   18      C       0.8772177355    -0.5515518983     1.7634561252
   19      C       2.0292177355    -1.1615518983     1.2864561252
   20      C       2.2802177355     0.4964481017    -0.4715438748
   21      C       2.7272177355    -0.6455518983     0.1794561252
   22      N      -0.6257822645     1.4264481017     1.3694561252
   23      H      -1.3177822645     1.3094481017     2.1024561252
   24      H       0.3402177355    -0.9525518983     2.6124561252
   25      H      -1.3787822645     3.2264481017     0.4154561252
   26      H       2.3962177355    -2.0555518983     1.7764561252
   27      H       2.8202177355     0.8964481017    -1.3185438748
   28      H       1.8472177355     3.1484481017    -1.7935438748
   29      H       0.6072177355     4.2934481017    -1.2865438748
   30      H       3.6192177355    -1.1525518983    -0.1595438748
   31      H       0.2265377355     3.0395955017    -2.4981178748
 ----------------------------------------------------------------
 Nuclear Repulsion Energy =         992.04877849 hartrees
 There are       55 alpha and       55 beta electrons
 Requested basis set is def2-TZVPD
 There are 276 shells and 702 basis functions

 Total QAlloc Memory Limit   2000 MB
 Mega-Array Size      1956 MB
 MEM_STATIC part      2000 MB

 Citation of the SMD model:
 Marenich, A.V.; Cramer, C.J.; Truhlar, D.G.
 J. Phys. Chem. B 2009, 113, 6378-6396.
 iSolventCode=           1
 Solvent: water                                                           

 vradii
            1           2           3           4           5           6
    1   1.8500000   1.8500000   1.8500000   1.5200000   1.8900000   1.2000000
            7           8           9          10          11          12
    1   1.2000000   1.2000000   1.2000000   1.2000000   1.2000000   1.2000000
           13          14          15          16          17          18
    1   1.8500000   1.8500000   1.8500000   1.8500000   1.8500000   1.8500000
           19          20          21          22          23          24
    1   1.8500000   1.8500000   1.8500000   1.8900000   1.2000000   1.2000000
           25          26          27          28          29          30
    1   1.2000000   1.2000000   1.2000000   1.2000000   1.2000000   1.2000000
           31
    1   1.2000000
 Changing PCM_VDW_RADII to SMD_RADIUS
 Discretize the solute cavity surface with Lebedev spheres
	Using 110 Lebedev grid points for each H atom
	Using 194 Lebedev grid points for other atoms
	Atomic van der Waals radii will be scaled by 1.20
 Remove points where switching function is < 1.0e-08
 Keep 2259 surface tesserae and discard 2411 interior tesserae
 Molecular Surface Area = 262.621 Angst**2
 A cutoff of  1.0D-14 yielded  34183 shell pairs
 There are    225003 function pairs (    285904 Cartesian)
 Smallest overlap matrix eigenvalue = 4.00E-07
 Linear dependence detected in AO basis
 Tighter screening thresholds may be required for diffuse basis sets
 Use S2THRESH > 14 and THRESH = 14 in case of SCF convergence issues
 Number of orthogonalized atomic orbitals = 698
 Maximum deviation from orthogonality = 3.676E-10

 Scale SEOQF with 1.000000e-01/1.000000e-01/1.000000e-01

 Standard Electronic Orientation quadrupole field applied
 Nucleus-field energy     =     0.0000000258 hartrees

 -----------------------------------------------------------------------
  General SCF calculation program by
  Eric Jon Sundstrom, Paul Horn, Yuezhi Mao, Dmitri Zuev, Alec White,
  David Stuck, Shaama M.S., Shane Yost, Joonho Lee, David Small,
  Daniel Levine, Susi Lehtola, Hugh Burton, Evgeny Epifanovsky,
  Bang C. Huynh
 -----------------------------------------------------------------------
================================================================
                 ALMO-EDA with the EDA2 driver                  
================================================================
 The second-generation ALMO-EDA (for DFT):                      
 P. R. Horn, Y. Mao and M. Head-Gordon, PCCP, 18, 23067 (2016)  
 Decomposition of the frozen energy:                            
 P. R. Horn, Y. Mao and M. Head-Gordon, JCP, 144, 114107 (2016) 
 FERF model for polarization:                                   
 P. R. Horn and M. Head-Gordon, JCP, 143, 114111 (2015)         
Using eda2 option set 1
Option set summary: Frozen orbital wavefunction, initial wavefunction decomposition, and nDQ polarization.
--------------------------------
Printing EDA Options
--------------------------------
eda_child_super_basis      0
fragmo_guess_mode          0
child_mp                   1
child_mp_orders            232
cls_elec                   1
cls_disp                   0
scfmi_mode                 1
scfmi_occs                 0
scfmi_virts                0
frz_relax                  0
frz_relax_method           0
dc_pen_start               0
dc_pen_conv                0
dc_pen_increment           0
dc_pen_steps               0
dc_pen_thresh_factor       0
dc_pen_pre_newton_thresh   0
frz_ortho_decomp           1
frz_ortho_decomp_conv      6
frgm_method                2
scfmi_freeze_ss            0
separate_rehyb             0
plot_diff_den              0
eda_nocv                   0
eda_vct_relax              1
disp_free_x                0
disp_free_c                0
eda_bsse                   0
eda_pct_a                  0
eda_covp                   0
--------------------------------
Attempting to make child job directory: /home/meili/scratch/qchem40832//Frg1/
Attempting to make child job directory: /home/meili/scratch/qchem40832//Frg2/
Creating input file /home/meili/scratch/qchem40832/Frg1.input
using default PutDataFrgm: nothing
calling putenv with: QCSCRATCH=/home/meili/scratch/qchem40832/ 
Spawning Job For Fragment 0
                  Welcome to Q-Chem
     A Quantum Leap Into The Future Of Chemistry


 Q-Chem 5.2 (devel), Q-Chem, Inc., Pleasanton, CA (2019)

 Yihan Shao,  Zhengting Gan,  E. Epifanovsky,  A. T. B. Gilbert,  M. Wormit,  
 J. Kussmann,  A. W. Lange,  A. Behn,  Jia Deng,  Xintian Feng,  D. Ghosh,  
 M. Goldey,  P. R. Horn,  L. D. Jacobson,  I. Kaliman,  T. Kus,  A. Landau,  
 Jie Liu,  E. I. Proynov,  R. M. Richard,  R. P. Steele,  E. J. Sundstrom,  
 H. L. Woodcock III,  P. M. Zimmerman,  D. Zuev,  B. Albrecht,  E. Alguire,  
 S. A. Baeppler,  D. Barton,  Z. Benda,  Y. A. Bernard,  E. J. Berquist,  
 K. B. Bravaya,  H. Burton,  D. Casanova,  Chun-Min Chang,  Yunqing Chen,  
 A. Chien,  K. D. Closser,  M. P. Coons,  S. Coriani,  S. Dasgupta,  
 A. L. Dempwolff,  M. Diedenhofen,  Hainam Do,  R. G. Edgar,  Po-Tung Fang,  
 S. Faraji,  S. Fatehi,  Qingguo Feng,  K. D. Fenk,  J. Fosso-Tande,  
 J. Gayvert,  Qinghui Ge,  A. Ghysels,  G. Gidofalvi,  J. Gomes,  
 J. Gonthier,  A. Gunina,  D. Hait,  M. W. D. Hanson-Heine,  
 P. H. P. Harbach,  A. W. Hauser,  M. F. Herbst,  J. E. Herr,  
 E. G. Hohenstein,  Z. C. Holden,  Kerwin Hui,  B. C. Huynh,  T.-C. Jagau,  
 Hyunjun Ji,  B. Kaduk,  K. Khistyaev,  Jaehoon Kim,  P. Klunzinger,  K. Koh,  
 D. Kosenkov,  L. Koulias,  T. Kowalczyk,  C. M. Krauter,  A. Kunitsa,  
 Ka Un Lao,  A. Laurent,  K. V. Lawler,  Joonho Lee,  D. Lefrancois,  
 S. Lehtola,  D. S. Levine,  Yi-Pei Li,  You-Sheng Lin,  Fenglai Liu,  
 E. Livshits,  A. Luenser,  P. Manohar,  E. Mansoor,  S. F. Manzer,  
 Shan-Ping Mao,  Yuezhi Mao,  N. Mardirossian,  A. V. Marenich,  
 T. Markovich,  L. A. Martinez-Martinez,  S. A. Maurer,  N. J. Mayhall,  
 S. C. McKenzie,  J.-M. Mewes,  P. Morgante,  A. F. Morrison,  
 J. W. Mullinax,  K. Nanda,  T. S. Nguyen-Beck,  R. Olivares-Amaya,  
 J. A. Parkhill,  Zheng Pei,  T. M. Perrine,  F. Plasser,  P. Pokhilko,  
 S. Prager,  A. Prociuk,  E. Ramos,  D. R. Rehn,  F. Rob,  M. Scheurer,  
 M. Schneider,  N. Sergueev,  S. M. Sharada,  S. Sharma,  D. W. Small,  
 T. Stauch,  T. Stein,  Yu-Chuan Su,  A. J. W. Thom,  A. Tkatchenko,  
 T. Tsuchimochi,  N. M. Tubman,  L. Vogt,  M. L. Vidal,  O. Vydrov,  
 M. A. Watson,  J. Wenzel,  M. de Wergifosse,  T. A. Wesolowski,  A. White,  
 J. Witte,  A. Yamada,  Jun Yang,  K. Yao,  S. Yeganeh,  S. R. Yost,  
 Zhi-Qiang You,  A. Zech,  Igor Ying Zhang,  Xing Zhang,  Yan Zhao,  
 Ying Zhu,  B. R. Brooks,  G. K. L. Chan,  C. J. Cramer,  M. S. Gordon,  
 W. J. Hehre,  A. Klamt,  M. W. Schmidt,  C. D. Sherrill,  D. G. Truhlar,  
 A. Aspuru-Guzik,  R. Baer,  A. T. Bell,  N. A. Besley,  Jeng-Da Chai,  
 A. E. DePrince, III,  R. A. DiStasio Jr.,  A. Dreuw,  B. D. Dunietz,  
 T. R. Furlani,  Chao-Ping Hsu,  Yousung Jung,  Jing Kong,  D. S. Lambrecht,  
 WanZhen Liang,  C. Ochsenfeld,  V. A. Rassolov,  L. V. Slipchenko,  
 J. E. Subotnik,  T. Van Voorhis,  J. M. Herbert,  A. I. Krylov,  
 P. M. W. Gill,  M. Head-Gordon

 Contributors to earlier versions of Q-Chem not listed above: 
 R. D. Adamson,  B. Austin,  J. Baker,  G. J. O. Beran,  K. Brandhorst,  
 S. T. Brown,  E. F. C. Byrd,  A. K. Chakraborty,  C.-L. Cheng,  
 Siu Hung Chien,  D. M. Chipman,  D. L. Crittenden,  H. Dachsel,  
 R. J. Doerksen,  A. D. Dutoi,  L. Fusti-Molnar,  W. A. Goddard III,  
 A. Golubeva-Zadorozhnaya,  S. R. Gwaltney,  G. Hawkins,  A. Heyden,  
 S. Hirata,  G. Kedziora,  F. J. Keil,  C. Kelley,  Jihan Kim,  R. A. King,  
 R. Z. Khaliullin,  P. P. Korambath,  W. Kurlancheek,  A. M. Lee,  M. S. Lee,  
 S. V. Levchenko,  Ching Yeh Lin,  D. Liotard,  R. C. Lochan,  I. Lotan,  
 P. E. Maslen,  N. Nair,  D. P. O'Neill,  D. Neuhauser,  E. Neuscamman,  
 C. M. Oana,  R. Olson,  B. Peters,  R. Peverati,  P. A. Pieniazek,  
 Y. M. Rhee,  J. Ritchie,  M. A. Rohrdanz,  E. Rosta,  N. J. Russ,  
 H. F. Schaefer III,  N. E. Schultz,  N. Shenvi,  A. C. Simmonett,  A. Sodt,  
 D. Stuck,  K. S. Thanthiriwatte,  V. Vanovschi,  Tao Wang,  A. Warshel,  
 C. F. Williams,  Q. Wu,  X. Xu,  W. Zhang

 Please cite Q-Chem as follows:
 Y. Shao et al., Mol. Phys. 113, 184-215 (2015)
 DOI: 10.1080/00268976.2014.952696

 Q-Chem 5.2.1 for Intel X86 EM64T Linux

 Parts of Q-Chem use Armadillo 8.300.2 (Tropical Shenanigans).
 http://arma.sourceforge.net/

 Q-Chem begins on Wed Sep 29 19:49:24 2021  

compute-0-1.local
Host: 0

     Scratch files written to /home/meili/scratch/qchem40832//Frg1//
NAlpha2: 40
NElect   40
Mult     1
Symmetry turned off for PCM/SM12/SMD calculation

Checking the input file for inconsistencies... 	...done.

--------------------------------------------------------------
User input:
--------------------------------------------------------------
$molecule
0 1
 6	-0.7727822645	-1.8885518983	-1.2575438748
 6	-0.3037822645	-3.1925518983	-0.6195438748
 6	-2.0467822645	-1.3895518983	-0.6085438748
 8	-2.6387822645	-2.1015518983	0.2184561252
 7	-2.5017822645	-0.2145518983	-0.9945438748
 1	-0.0037822645	-1.1345518983	-1.1205438748
 1	-0.9307822645	-2.0185518983	-2.3265438748
 1	-0.2497822645	-3.0235518983	0.4584561252
 1	-3.3467822645	0.1794481017	-0.6135438748
 1	-1.9527822645	0.2924481017	-1.6805438748
 1	0.6871677355	-3.4822158983	-0.9991558748
 1	-1.0265622645	-3.9996438983	-0.8097868748
$end
$rem
EDA2		1
METHOD		WB97X-V
BASIS		DEF2-TZVPD
XC_GRID		000099000590
NL_GRID		1
UNRESTRICTED		FALSE
MAX_SCF_CYCLES		200
SYMMETRY		FALSE
SYM_IGNORE		TRUE
BASIS_LIN_DEP_THRESH		6
THRESH		14
SCF_CONVERGENCE		8
SCF_PRINT_FRGM		TRUE
SOLVENT_METHOD		SMD
!required keywords
JOBTYPE		SP
SYM_IGNORE		TRUE
SUBSYSTEM		TRUE
GEN_SCFMAN		TRUE
CHILD_INSTRUCTION		2
SYM_IGNORE		TRUE
SCFMI		0
RI_K 0		
PARI_K 0		
MIN_PARI_K 0		
IARI_K 0		
OCC_RI_K 0		
PURECART		1111
MEM_STATIC		2000
MEM_TOTAL		2000
GUI		0
CHILD_MP		1
CHILD_MP_ORDERS		232
FRZ_RELAX		0
FRZ_RELAX_METHOD		0
EDA_CLS_ELEC		1
EDA_CLS_DISP		0
FRZ_ORTHO_DECOMP		1
EDA2		FALSE
FRGM_METHOD		FALSE
CIS_N_ROOTS  0
LOCAL_CIS    0
CIS_RLX_DNS  1
$end
$smx
SOLVENT			WATER
$end
--------------------------------------------------------------
 ----------------------------------------------------------------
             Standard Nuclear Orientation (Angstroms)
    I     Atom           X                Y                Z
 ----------------------------------------------------------------
    1      C      -0.7727822645    -1.8885518983    -1.2575438748
    2      C      -0.3037822645    -3.1925518983    -0.6195438748
    3      C      -2.0467822645    -1.3895518983    -0.6085438748
    4      O      -2.6387822645    -2.1015518983     0.2184561252
    5      N      -2.5017822645    -0.2145518983    -0.9945438748
    6      H      -0.0037822645    -1.1345518983    -1.1205438748
    7      H      -0.9307822645    -2.0185518983    -2.3265438748
    8      H      -0.2497822645    -3.0235518983     0.4584561252
    9      H      -3.3467822645     0.1794481017    -0.6135438748
   10      H      -1.9527822645     0.2924481017    -1.6805438748
   11      H       0.6871677355    -3.4822158983    -0.9991558748
   12      H      -1.0265622645    -3.9996438983    -0.8097868748
 ----------------------------------------------------------------
 Nuclear Repulsion Energy =         180.20613842 hartrees
 There are       20 alpha and       20 beta electrons
 Requested basis set is def2-TZVPD
 There are 101 shells and 251 basis functions

 Total QAlloc Memory Limit   2000 MB
 Mega-Array Size      1956 MB
 MEM_STATIC part      2000 MB

 Citation of the SMD model:
 Marenich, A.V.; Cramer, C.J.; Truhlar, D.G.
 J. Phys. Chem. B 2009, 113, 6378-6396.
 iSolventCode=           1
 Solvent: water                                                           

 vradii
            1           2           3           4           5           6
    1   1.8500000   1.8500000   1.8500000   1.5200000   1.8900000   1.2000000
            7           8           9          10          11          12
    1   1.2000000   1.2000000   1.2000000   1.2000000   1.2000000   1.2000000
 Changing PCM_VDW_RADII to SMD_RADIUS
 Discretize the solute cavity surface with Lebedev spheres
	Using 110 Lebedev grid points for each H atom
	Using 194 Lebedev grid points for other atoms
	Atomic van der Waals radii will be scaled by 1.20
 Remove points where switching function is < 1.0e-08
 Keep 911 surface tesserae and discard 829 interior tesserae
 Molecular Surface Area = 109.620 Angst**2

                       Distance Matrix (Angstroms)
             C (  1)   C (  2)   C (  3)   O (  4)   N (  5)   H (  6)
   C (  2)  1.525589
   C (  3)  1.514357  2.507784
   O (  4)  2.388703  2.710120  1.241506
   N (  5)  2.420927  3.720257  1.317819  2.247422
   H (  6)  1.085655  2.139244  2.121560  3.109861  2.665010
   H (  7)  1.088405  2.164545  2.143040  3.066134  2.738007  1.759324
   H (  8)  2.122831  1.092502  2.652858  2.571965  3.882421  2.474283
   H (  9)  3.364051  4.542056  2.037593  2.529120  1.007185  3.627574
   H ( 10)  2.515570  3.998768  1.996783  3.131778  1.014419  2.479623
   H ( 11)  2.176691  1.099997  3.465011  3.801415  4.565857  2.450239
   H ( 12)  2.172924  1.100000  2.809613  2.694307  4.066612  3.058006
             H (  7)   H (  8)   H (  9)   H ( 10)   H ( 11)
   H (  8)  3.038093
   H (  9)  3.688174  4.582554
   H ( 10)  2.608164  4.297835  1.759117
   H ( 11)  2.553827  1.792451  5.461614  4.656363
   H ( 12)  2.496888  1.778928  4.784009  4.476400  1.800129

 A cutoff of  1.0D-14 yielded   5038 shell pairs
 There are     31634 function pairs (     39776 Cartesian)
 Smallest overlap matrix eigenvalue = 4.74E-06

 Scale SEOQF with 1.000000e-01/1.000000e-01/1.000000e-01

 Standard Electronic Orientation quadrupole field applied
 Nucleus-field energy     =     0.0000000140 hartrees
 Guess from superposition of atomic densities
 Warning:  Energy on first SCF cycle will be non-variational
 SAD guess density has 40.000000 electrons

 -----------------------------------------------------------------------
  General SCF calculation program by
  Eric Jon Sundstrom, Paul Horn, Yuezhi Mao, Dmitri Zuev, Alec White,
  David Stuck, Shaama M.S., Shane Yost, Joonho Lee, David Small,
  Daniel Levine, Susi Lehtola, Hugh Burton, Evgeny Epifanovsky,
  Bang C. Huynh
 -----------------------------------------------------------------------
 Exchange:     0.1670 Hartree-Fock + 1.0000 wB97X-V + LR-HF
 Correlation:  1.0000 wB97X-V
 Using Euler-Maclaurin-Lebedev (99,590) quadrature formula
 Nonlocal Correlation:  VV10 with C = 0.0100 and b = 6.00 and scale = 1.00000
 Grid used for NLC:  SG-1 standard quadrature
Energy prior to optimization (guess energy) = -248.421052129097
Begin Timing: Total SCF Calculation
begin iterations for algorithm: DIIS         
the SCF tolerance is set to 1.00e-08
    1    -248.4210521291      4.37e-03     00000 
    2    -248.3679898636      5.88e-03     00000 
    3    -248.5677569735      6.95e-04     00000 
    4    -248.5724504419      2.47e-04     00000 
    5    -248.5736575413      1.26e-04     00000 
    6    -248.5738427162      3.87e-05     00000 
    7    -248.5738611489      1.56e-05     00000 
    8    -248.5738647695      3.79e-06     00000 
    9    -248.5738652659      1.49e-06     00000 
   10    -248.5738653142      6.23e-07     00000 
   11    -248.5738653195      9.33e-08     00000 
   12    -248.5738653197      1.27e-08     00000 
   13    -248.5738653197      2.44e-09     00000 Convergence criterion met
Timing for Total SCF: 280.00s (wall), 1544.24s (cpu)
(3)  G-ENP(liq) elect-nuc-pol free energy of system     -248.573865320 a.u.
(4)  G-CDS(liq) cavity-dispersion-solvent structure 
     free energy                                                3.6012 kcal/mol
(6)  G-S(liq) free energy of system                     -248.568126412 a.u.
E_pcm = -0.0302681190
E_cds = 0.0057389073
Multipole orders to be included
        2
        3
computing dipole RHS
computing quadrupole RHS
total number of RHS in solve_reponses: 8
RHS batch sizes
        8
Beginning Block Conjugate Gradient Iterations. Batch Number: 0
computing hessian-vector products by finite difference
              1      5.61e-01     00000 Conjugate Gradient Iteration
computing hessian-vector products by finite difference
              2      1.81e-01     00000 Conjugate Gradient Iteration
computing hessian-vector products by finite difference
              3      4.88e-02     00000 Conjugate Gradient Iteration
computing hessian-vector products by finite difference
              4      1.31e-02     00000 Conjugate Gradient Iteration
computing hessian-vector products by finite difference
              5      1.92e-03     00000 Conjugate Gradient Iteration
computing hessian-vector products by finite difference
              6      4.12e-04     00000 Conjugate Gradient Iteration
computing hessian-vector products by finite difference
              7      5.64e-05     00000 Conjugate Gradient Iteration
computing hessian-vector products by finite difference
              8      7.65e-06     00000 Conjugate Gradient Iteration
computing hessian-vector products by finite difference
              9      1.03e-06     00000 Conjugate Gradient Iteration
computing hessian-vector products by finite difference
             10      1.30e-07     00000 Conjugate Gradient Iteration
computing hessian-vector products by finite difference
             11      1.89e-08     00000 Conjugate Gradient Iteration
computing hessian-vector products by finite difference
             12      6.70e-09     00000 CG Converged
batch 0 complete
Done Calculating Responses
TESTING ORTHOGONALIZATION OF MULTIPOLE BASIS
Multipole virts passed orthogonality test
Virts Per Order
           60
          100

 --------------------------------------------------------------

                    Orbital Energies (a.u.)
 --------------------------------------------------------------

 Alpha MOs
 -- Occupied --
-19.1812 -14.4272 -10.3739 -10.2659 -10.2512  -1.1700  -1.0430  -0.9033
 -0.7752  -0.6925  -0.6471  -0.6017  -0.5819  -0.5344  -0.5062  -0.4711
 -0.4581  -0.4447  -0.3816  -0.3731
 -- Virtual --
  0.0641   0.0876   0.0933   0.0962   0.1221   0.1270   0.1318   0.1377
  0.1599   0.1768   0.1892   0.1936   0.2080   0.2136   0.2164   0.2332
  0.2407   0.2437   0.2696   0.2804   0.2842   0.2930   0.2963   0.3092
  0.3231   0.3254   0.3330   0.3461   0.3494   0.3570   0.3686   0.3728
  0.3818   0.3844   0.3954   0.4010   0.4042   0.4079   0.4158   0.4288
  0.4402   0.4414   0.4567   0.4665   0.4731   0.4838   0.4878   0.4943
  0.5077   0.5168   0.5253   0.5321   0.5373   0.5440   0.5577   0.5759
  0.5954   0.6038   0.6126   0.6284   0.6336   0.6518   0.6601   0.6672
  0.6764   0.7018   0.7122   0.7202   0.7432   0.7503   0.7678   0.7779
  0.7834   0.7922   0.7978   0.8081   0.8186   0.8385   0.8482   0.8540
  0.8740   0.8909   0.8961   0.9128   0.9522   0.9585   0.9908   0.9938
  1.0376   1.0509   1.0588   1.0822   1.1258   1.1303   1.1558   1.1603
  1.2644   1.2695   1.2980   1.3186   1.3436   1.3498   1.3762   1.3890
  1.4431   1.4793   1.4999   1.5621   1.5684   1.6343   1.6907   1.7410
  1.8212   1.8424   1.8526   1.9036   1.9128   1.9203   1.9419   1.9764
  1.9802   1.9895   1.9946   2.0232   2.0301   2.0714   2.0889   2.1409
  2.1789   2.2080   2.2396   2.2771   2.2934   2.3179   2.3495   2.3701
  2.4371   2.4774   2.5132   2.5374   2.5557   2.5609   2.6017   2.6194
  2.6692   2.6983   2.7075   2.7662   2.7796   2.8122   2.8276   2.8437
  2.8870   2.9196   2.9241   2.9858   3.0168   3.0320   3.0844   3.1370
  3.1881   3.2199   3.2342   3.2930   3.3025   3.3164   3.3244   3.3394
  3.3532   3.4184   3.4287   3.4568   3.4742   3.4995   3.5151   3.5600
  3.5842   3.6021   3.6415   3.6857   3.7038   3.7157   3.7542   3.7855
  3.9296   3.9798   3.9912   4.0451   4.0738   4.1272   4.1438   4.2586
  4.3347   4.3900   4.4397   4.5702   4.5716   4.6283   4.6478   4.7353
  4.7616   4.8667   4.8992   4.9258   4.9853   5.0836   5.1927   5.2195
  5.2750   5.3695   5.3966   5.4081   5.4424   5.5395   5.6074   5.7583
  5.9213   6.1577   6.2409   6.5119   6.6552   6.7487   6.8332   6.9761
  7.2689   7.3346  22.6564  22.8137  23.6163  32.4471  44.3236
 --------------------------------------------------------------

          Ground-State Mulliken Net Atomic Charges

     Atom                 Charge (a.u.)
  ----------------------------------------
      1 C                     0.020965
      2 C                    -0.950656
      3 C                     0.209401
      4 O                    -0.717520
      5 N                    -0.289255
      6 H                     0.246187
      7 H                     0.249410
      8 H                     0.228742
      9 H                     0.266451
     10 H                     0.245672
     11 H                     0.253438
     12 H                     0.237163
  ----------------------------------------
  Sum of atomic charges =     0.000000

 -----------------------------------------------------------------
                    Cartesian Multipole Moments
 -----------------------------------------------------------------
    Charge (ESU x 10^10)
                -0.0000
    Dipole Moment (Debye)
         X       2.0219      Y       4.2355      Z      -3.8724
       Tot       6.0847
    Quadrupole Moments (Debye-Ang)
        XX     -37.6923     XY     -14.8286     YY     -40.5877
        XZ       7.0992     YZ       3.6901     ZZ     -27.5880
    Octopole Moments (Debye-Ang^2)
       XXX     162.4226    XXY     101.7872    XYY      78.2425
       YYY     195.5591    XXZ       5.2107    XYZ      -6.0589
       YYZ      10.1532    XZZ      45.0445    YZZ      55.7121
       ZZZ      55.9718
    Hexadecapole Moments (Debye-Ang^3)
      XXXX    -717.6075   XXXY    -333.7349   XXYY    -345.6515
      XYYY    -263.7476   YYYY    -941.3914   XXXZ     -40.3985
      XXYZ     -17.7675   XYYZ      -6.8304   YYYZ     -72.8295
      XXZZ    -144.8824   XYZZ     -67.8213   YYZZ    -168.8014
      XZZZ     -68.6687   YZZZ     -93.6001   ZZZZ    -167.8868
 -----------------------------------------------------------------
Archival summary:
1\1\compute-0-1.local\SP\ProcedureUnspecified\BasisUnspecified\1137\meili\WedSep2921:10:062021WedSep2921:10:062021\0\\#,ProcedureUnspecified,BasisUnspecified,\\0,1\C\O,1,1.24151\N,1,1.31782,2,122.808\H,3,1.00719,1,121.848,2,1.8445,0\H,3,1.01442,1,117.184,2,-179.529,0\C,1,1.51436,2,119.845,3,-177.6,0\H,6,1.08565,1,108.238,2,-127.041,0\H,6,1.0884,1,109.765,2,115.254,0\C,6,1.52559,1,111.165,2,-7.54357,0\H,9,1.0925,6,107.195,1,-52.7689,0\H,9,1.1,6,110.96,1,-172.504,0\H,9,1.1,6,110.66,1,65.3244,0\\\@

 Total job time:  4841.76s(wall), 28311.05s(cpu) 
 Wed Sep 29 21:10:06 2021

        *************************************************************
        *                                                           *
        *  Thank you very much for using Q-Chem.  Have a nice day.  *
        *                                                           *
        *************************************************************


Done Job For Fragment 0
calling putenv with: QCSCRATCH=/home/meili/scratch 
calling putenv with: QCTHREADS=8 
Creating input file /home/meili/scratch/qchem40832/Frg2.input
using default PutDataFrgm: nothing
calling putenv with: QCSCRATCH=/home/meili/scratch/qchem40832/ 
Spawning Job For Fragment 1
                  Welcome to Q-Chem
     A Quantum Leap Into The Future Of Chemistry


 Q-Chem 5.2 (devel), Q-Chem, Inc., Pleasanton, CA (2019)

 Yihan Shao,  Zhengting Gan,  E. Epifanovsky,  A. T. B. Gilbert,  M. Wormit,  
 J. Kussmann,  A. W. Lange,  A. Behn,  Jia Deng,  Xintian Feng,  D. Ghosh,  
 M. Goldey,  P. R. Horn,  L. D. Jacobson,  I. Kaliman,  T. Kus,  A. Landau,  
 Jie Liu,  E. I. Proynov,  R. M. Richard,  R. P. Steele,  E. J. Sundstrom,  
 H. L. Woodcock III,  P. M. Zimmerman,  D. Zuev,  B. Albrecht,  E. Alguire,  
 S. A. Baeppler,  D. Barton,  Z. Benda,  Y. A. Bernard,  E. J. Berquist,  
 K. B. Bravaya,  H. Burton,  D. Casanova,  Chun-Min Chang,  Yunqing Chen,  
 A. Chien,  K. D. Closser,  M. P. Coons,  S. Coriani,  S. Dasgupta,  
 A. L. Dempwolff,  M. Diedenhofen,  Hainam Do,  R. G. Edgar,  Po-Tung Fang,  
 S. Faraji,  S. Fatehi,  Qingguo Feng,  K. D. Fenk,  J. Fosso-Tande,  
 J. Gayvert,  Qinghui Ge,  A. Ghysels,  G. Gidofalvi,  J. Gomes,  
 J. Gonthier,  A. Gunina,  D. Hait,  M. W. D. Hanson-Heine,  
 P. H. P. Harbach,  A. W. Hauser,  M. F. Herbst,  J. E. Herr,  
 E. G. Hohenstein,  Z. C. Holden,  Kerwin Hui,  B. C. Huynh,  T.-C. Jagau,  
 Hyunjun Ji,  B. Kaduk,  K. Khistyaev,  Jaehoon Kim,  P. Klunzinger,  K. Koh,  
 D. Kosenkov,  L. Koulias,  T. Kowalczyk,  C. M. Krauter,  A. Kunitsa,  
 Ka Un Lao,  A. Laurent,  K. V. Lawler,  Joonho Lee,  D. Lefrancois,  
 S. Lehtola,  D. S. Levine,  Yi-Pei Li,  You-Sheng Lin,  Fenglai Liu,  
 E. Livshits,  A. Luenser,  P. Manohar,  E. Mansoor,  S. F. Manzer,  
 Shan-Ping Mao,  Yuezhi Mao,  N. Mardirossian,  A. V. Marenich,  
 T. Markovich,  L. A. Martinez-Martinez,  S. A. Maurer,  N. J. Mayhall,  
 S. C. McKenzie,  J.-M. Mewes,  P. Morgante,  A. F. Morrison,  
 J. W. Mullinax,  K. Nanda,  T. S. Nguyen-Beck,  R. Olivares-Amaya,  
 J. A. Parkhill,  Zheng Pei,  T. M. Perrine,  F. Plasser,  P. Pokhilko,  
 S. Prager,  A. Prociuk,  E. Ramos,  D. R. Rehn,  F. Rob,  M. Scheurer,  
 M. Schneider,  N. Sergueev,  S. M. Sharada,  S. Sharma,  D. W. Small,  
 T. Stauch,  T. Stein,  Yu-Chuan Su,  A. J. W. Thom,  A. Tkatchenko,  
 T. Tsuchimochi,  N. M. Tubman,  L. Vogt,  M. L. Vidal,  O. Vydrov,  
 M. A. Watson,  J. Wenzel,  M. de Wergifosse,  T. A. Wesolowski,  A. White,  
 J. Witte,  A. Yamada,  Jun Yang,  K. Yao,  S. Yeganeh,  S. R. Yost,  
 Zhi-Qiang You,  A. Zech,  Igor Ying Zhang,  Xing Zhang,  Yan Zhao,  
 Ying Zhu,  B. R. Brooks,  G. K. L. Chan,  C. J. Cramer,  M. S. Gordon,  
 W. J. Hehre,  A. Klamt,  M. W. Schmidt,  C. D. Sherrill,  D. G. Truhlar,  
 A. Aspuru-Guzik,  R. Baer,  A. T. Bell,  N. A. Besley,  Jeng-Da Chai,  
 A. E. DePrince, III,  R. A. DiStasio Jr.,  A. Dreuw,  B. D. Dunietz,  
 T. R. Furlani,  Chao-Ping Hsu,  Yousung Jung,  Jing Kong,  D. S. Lambrecht,  
 WanZhen Liang,  C. Ochsenfeld,  V. A. Rassolov,  L. V. Slipchenko,  
 J. E. Subotnik,  T. Van Voorhis,  J. M. Herbert,  A. I. Krylov,  
 P. M. W. Gill,  M. Head-Gordon

 Contributors to earlier versions of Q-Chem not listed above: 
 R. D. Adamson,  B. Austin,  J. Baker,  G. J. O. Beran,  K. Brandhorst,  
 S. T. Brown,  E. F. C. Byrd,  A. K. Chakraborty,  C.-L. Cheng,  
 Siu Hung Chien,  D. M. Chipman,  D. L. Crittenden,  H. Dachsel,  
 R. J. Doerksen,  A. D. Dutoi,  L. Fusti-Molnar,  W. A. Goddard III,  
 A. Golubeva-Zadorozhnaya,  S. R. Gwaltney,  G. Hawkins,  A. Heyden,  
 S. Hirata,  G. Kedziora,  F. J. Keil,  C. Kelley,  Jihan Kim,  R. A. King,  
 R. Z. Khaliullin,  P. P. Korambath,  W. Kurlancheek,  A. M. Lee,  M. S. Lee,  
 S. V. Levchenko,  Ching Yeh Lin,  D. Liotard,  R. C. Lochan,  I. Lotan,  
 P. E. Maslen,  N. Nair,  D. P. O'Neill,  D. Neuhauser,  E. Neuscamman,  
 C. M. Oana,  R. Olson,  B. Peters,  R. Peverati,  P. A. Pieniazek,  
 Y. M. Rhee,  J. Ritchie,  M. A. Rohrdanz,  E. Rosta,  N. J. Russ,  
 H. F. Schaefer III,  N. E. Schultz,  N. Shenvi,  A. C. Simmonett,  A. Sodt,  
 D. Stuck,  K. S. Thanthiriwatte,  V. Vanovschi,  Tao Wang,  A. Warshel,  
 C. F. Williams,  Q. Wu,  X. Xu,  W. Zhang

 Please cite Q-Chem as follows:
 Y. Shao et al., Mol. Phys. 113, 184-215 (2015)
 DOI: 10.1080/00268976.2014.952696

 Q-Chem 5.2.1 for Intel X86 EM64T Linux

 Parts of Q-Chem use Armadillo 8.300.2 (Tropical Shenanigans).
 http://arma.sourceforge.net/

 Q-Chem begins on Wed Sep 29 21:10:06 2021  

compute-0-1.local
Host: 0

     Scratch files written to /home/meili/scratch/qchem40832//Frg2//
NAlpha2: 70
NElect   70
Mult     1
Symmetry turned off for PCM/SM12/SMD calculation

Checking the input file for inconsistencies... 	...done.

--------------------------------------------------------------
User input:
--------------------------------------------------------------
$molecule
0 1
 6	0.7862177355	3.2574481017	-1.5765438748
 6	0.4392177355	0.6024481017	1.1194561252
 6	1.1472177355	1.1694481017	0.0194561252
 6	0.4362177355	2.3504481017	-0.4015438748
 6	-0.6287822645	2.4604481017	0.4464561252
 6	0.8772177355	-0.5515518983	1.7634561252
 6	2.0292177355	-1.1615518983	1.2864561252
 6	2.2802177355	0.4964481017	-0.4715438748
 6	2.7272177355	-0.6455518983	0.1794561252
 7	-0.6257822645	1.4264481017	1.3694561252
 1	-1.3177822645	1.3094481017	2.1024561252
 1	0.3402177355	-0.9525518983	2.6124561252
 1	-1.3787822645	3.2264481017	0.4154561252
 1	2.3962177355	-2.0555518983	1.7764561252
 1	2.8202177355	0.8964481017	-1.3185438748
 1	1.8472177355	3.1484481017	-1.7935438748
 1	0.6072177355	4.2934481017	-1.2865438748
 1	3.6192177355	-1.1525518983	-0.1595438748
 1	0.2265377355	3.0395955017	-2.4981178748
$end
$rem
EDA2		1
METHOD		WB97X-V
BASIS		DEF2-TZVPD
XC_GRID		000099000590
NL_GRID		1
UNRESTRICTED		FALSE
MAX_SCF_CYCLES		200
SYMMETRY		FALSE
SYM_IGNORE		TRUE
BASIS_LIN_DEP_THRESH		6
THRESH		14
SCF_CONVERGENCE		8
SCF_PRINT_FRGM		TRUE
SOLVENT_METHOD		SMD
!required keywords
JOBTYPE		SP
SYM_IGNORE		TRUE
SUBSYSTEM		TRUE
GEN_SCFMAN		TRUE
CHILD_INSTRUCTION		2
SYM_IGNORE		TRUE
SCFMI		0
RI_K 0		
PARI_K 0		
MIN_PARI_K 0		
IARI_K 0		
OCC_RI_K 0		
PURECART		1111
MEM_STATIC		2000
MEM_TOTAL		2000
GUI		0
CHILD_MP		1
CHILD_MP_ORDERS		232
FRZ_RELAX		0
FRZ_RELAX_METHOD		0
EDA_CLS_ELEC		1
EDA_CLS_DISP		0
FRZ_ORTHO_DECOMP		1
EDA2		FALSE
FRGM_METHOD		FALSE
CIS_N_ROOTS  0
LOCAL_CIS    0
CIS_RLX_DNS  1
$end
$smx
SOLVENT			WATER
$end
--------------------------------------------------------------
 ----------------------------------------------------------------
             Standard Nuclear Orientation (Angstroms)
    I     Atom           X                Y                Z
 ----------------------------------------------------------------
    1      C       0.7862177355     3.2574481017    -1.5765438748
    2      C       0.4392177355     0.6024481017     1.1194561252
    3      C       1.1472177355     1.1694481017     0.0194561252
    4      C       0.4362177355     2.3504481017    -0.4015438748
    5      C      -0.6287822645     2.4604481017     0.4464561252
    6      C       0.8772177355    -0.5515518983     1.7634561252
    7      C       2.0292177355    -1.1615518983     1.2864561252
    8      C       2.2802177355     0.4964481017    -0.4715438748
    9      C       2.7272177355    -0.6455518983     0.1794561252
   10      N      -0.6257822645     1.4264481017     1.3694561252
   11      H      -1.3177822645     1.3094481017     2.1024561252
   12      H       0.3402177355    -0.9525518983     2.6124561252
   13      H      -1.3787822645     3.2264481017     0.4154561252
   14      H       2.3962177355    -2.0555518983     1.7764561252
   15      H       2.8202177355     0.8964481017    -1.3185438748
   16      H       1.8472177355     3.1484481017    -1.7935438748
   17      H       0.6072177355     4.2934481017    -1.2865438748
   18      H       3.6192177355    -1.1525518983    -0.1595438748
   19      H       0.2265377355     3.0395955017    -2.4981178748
 ----------------------------------------------------------------
 Nuclear Repulsion Energy =         483.17050417 hartrees
 There are       35 alpha and       35 beta electrons
 Requested basis set is def2-TZVPD
 There are 175 shells and 451 basis functions

 Total QAlloc Memory Limit   2000 MB
 Mega-Array Size      1956 MB
 MEM_STATIC part      2000 MB

 Citation of the SMD model:
 Marenich, A.V.; Cramer, C.J.; Truhlar, D.G.
 J. Phys. Chem. B 2009, 113, 6378-6396.
 iSolventCode=           1
 Solvent: water                                                           

 vradii
            1           2           3           4           5           6
    1   1.8500000   1.8500000   1.8500000   1.8500000   1.8500000   1.8500000
            7           8           9          10          11          12
    1   1.8500000   1.8500000   1.8500000   1.8900000   1.2000000   1.2000000
           13          14          15          16          17          18
    1   1.2000000   1.2000000   1.2000000   1.2000000   1.2000000   1.2000000
           19
    1   1.2000000
 Changing PCM_VDW_RADII to SMD_RADIUS
 Discretize the solute cavity surface with Lebedev spheres
	Using 110 Lebedev grid points for each H atom
	Using 194 Lebedev grid points for other atoms
	Atomic van der Waals radii will be scaled by 1.20
 Remove points where switching function is < 1.0e-08
 Keep 1355 surface tesserae and discard 1575 interior tesserae
 Molecular Surface Area = 165.628 Angst**2
 A cutoff of  1.0D-14 yielded  14456 shell pairs
 There are     98206 function pairs (    126374 Cartesian)
 Smallest overlap matrix eigenvalue = 5.52E-07
 Linear dependence detected in AO basis
 Tighter screening thresholds may be required for diffuse basis sets
 Use S2THRESH > 14 and THRESH = 14 in case of SCF convergence issues
 Number of orthogonalized atomic orbitals = 449
 Maximum deviation from orthogonality = 1.660E-10

 Scale SEOQF with 1.000000e-01/1.000000e-01/1.000000e-01

 Standard Electronic Orientation quadrupole field applied
 Nucleus-field energy     =     0.0000000118 hartrees
 Guess from superposition of atomic densities
 Warning:  Energy on first SCF cycle will be non-variational
 SAD guess density has 70.000000 electrons

 -----------------------------------------------------------------------
  General SCF calculation program by
  Eric Jon Sundstrom, Paul Horn, Yuezhi Mao, Dmitri Zuev, Alec White,
  David Stuck, Shaama M.S., Shane Yost, Joonho Lee, David Small,
  Daniel Levine, Susi Lehtola, Hugh Burton, Evgeny Epifanovsky,
  Bang C. Huynh
 -----------------------------------------------------------------------
 Exchange:     0.1670 Hartree-Fock + 1.0000 wB97X-V + LR-HF
 Correlation:  1.0000 wB97X-V
 Using Euler-Maclaurin-Lebedev (99,590) quadrature formula
 Nonlocal Correlation:  VV10 with C = 0.0100 and b = 6.00 and scale = 1.00000
 Grid used for NLC:  SG-1 standard quadrature
Energy prior to optimization (guess energy) = -403.083301641072
Begin Timing: Total SCF Calculation
begin iterations for algorithm: DIIS         
the SCF tolerance is set to 1.00e-08
    1    -403.0833016411      1.63e-03     00000 
    2    -403.1353618979      1.18e-03     00000 
    3    -403.1743763598      2.50e-04     00000 
    4    -403.1762776497      1.17e-04     00000 
    5    -403.1767309024      3.95e-05     00000 
    6    -403.1767799668      1.23e-05     00000 
    7    -403.1767846132      4.27e-06     00000 
    8    -403.1767855673      9.93e-07     00000 
    9    -403.1767856697      4.64e-07     00000 
   10    -403.1767856922      2.23e-07     00000 
   11    -403.1767856990      7.30e-08     00000 
   12    -403.1767856999      3.17e-08     00000 
   13    -403.1767857000      1.13e-08     00000 
   14    -403.1767857000      3.57e-09     00000 Convergence criterion met
Timing for Total SCF: 1558.00s (wall), 9945.64s (cpu)
(3)  G-ENP(liq) elect-nuc-pol free energy of system     -403.176785700 a.u.
(4)  G-CDS(liq) cavity-dispersion-solvent structure 
     free energy                                                3.8712 kcal/mol
(6)  G-S(liq) free energy of system                     -403.170616609 a.u.
E_pcm = -0.0165112947
E_cds = 0.0061690911
Multipole orders to be included
        2
        3
computing dipole RHS
computing quadrupole RHS
total number of RHS in solve_reponses: 8
RHS batch sizes
        8
Beginning Block Conjugate Gradient Iterations. Batch Number: 0
computing hessian-vector products by finite difference
              1      6.31e-01     00000 Conjugate Gradient Iteration
computing hessian-vector products by finite difference
              2      1.93e-01     00000 Conjugate Gradient Iteration
computing hessian-vector products by finite difference
              3      5.63e-02     00000 Conjugate Gradient Iteration
computing hessian-vector products by finite difference
              4      2.38e-02     00000 Conjugate Gradient Iteration
computing hessian-vector products by finite difference
              5      7.58e-03     00000 Conjugate Gradient Iteration
computing hessian-vector products by finite difference
              6      2.23e-03     00000 Conjugate Gradient Iteration
computing hessian-vector products by finite difference
              7      5.00e-04     00000 Conjugate Gradient Iteration
computing hessian-vector products by finite difference
              8      9.56e-05     00000 Conjugate Gradient Iteration
computing hessian-vector products by finite difference
              9      1.63e-05     00000 Conjugate Gradient Iteration
computing hessian-vector products by finite difference
             10      2.88e-06     00000 Conjugate Gradient Iteration
computing hessian-vector products by finite difference
             11      4.96e-07     00000 Conjugate Gradient Iteration
computing hessian-vector products by finite difference
             12      9.97e-08     00000 Conjugate Gradient Iteration
computing hessian-vector products by finite difference
             13      1.69e-08     00000 Conjugate Gradient Iteration
computing hessian-vector products by finite difference
             14      3.12e-09     00000 CG Converged
batch 0 complete
Done Calculating Responses
TESTING ORTHOGONALIZATION OF MULTIPOLE BASIS
Multipole virts passed orthogonality test
Virts Per Order
          105
          175

 --------------------------------------------------------------

                    Orbital Energies (a.u.)
 --------------------------------------------------------------

 Alpha MOs
 -- Occupied --
-14.4443 -10.3001 -10.2911 -10.2687 -10.2677 -10.2659 -10.2657 -10.2621
-10.2611 -10.2574  -1.1085  -0.9749  -0.9246  -0.8650  -0.8551  -0.8116
 -0.7415  -0.7095  -0.6726  -0.6452  -0.5933  -0.5797  -0.5490  -0.5441
 -0.5340  -0.5112  -0.5058  -0.4869  -0.4758  -0.4502  -0.4478  -0.4287
 -0.3772  -0.3131  -0.2901
 -- Virtual --
  0.0556   0.0643   0.0799   0.0825   0.0928   0.1023   0.1041   0.1105
  0.1312   0.1336   0.1394   0.1510   0.1587   0.1679   0.1797   0.1812
  0.1875   0.2005   0.2048   0.2119   0.2191   0.2257   0.2314   0.2431
  0.2501   0.2575   0.2607   0.2654   0.2685   0.2770   0.2787   0.2815
  0.2853   0.2878   0.2948   0.2962   0.3041   0.3102   0.3146   0.3228
  0.3269   0.3330   0.3392   0.3417   0.3446   0.3490   0.3524   0.3539
  0.3592   0.3708   0.3754   0.3776   0.3815   0.3878   0.3917   0.3947
  0.4035   0.4101   0.4145   0.4176   0.4201   0.4221   0.4270   0.4399
  0.4409   0.4467   0.4531   0.4580   0.4601   0.4632   0.4699   0.4726
  0.4831   0.4925   0.4989   0.5005   0.5028   0.5163   0.5210   0.5264
  0.5289   0.5391   0.5415   0.5446   0.5512   0.5540   0.5637   0.5662
  0.5754   0.5780   0.5865   0.5917   0.6007   0.6080   0.6164   0.6242
  0.6367   0.6436   0.6453   0.6493   0.6563   0.6717   0.6752   0.6789
  0.6869   0.6904   0.7062   0.7105   0.7113   0.7148   0.7294   0.7328
  0.7374   0.7398   0.7426   0.7541   0.7594   0.7616   0.7700   0.7752
  0.7780   0.7836   0.7918   0.7944   0.7962   0.8079   0.8090   0.8133
  0.8194   0.8288   0.8370   0.8397   0.8476   0.8492   0.8570   0.8608
  0.8697   0.8774   0.8907   0.8947   0.8965   0.9060   0.9084   0.9191
  0.9371   0.9479   0.9643   0.9739   0.9847   1.0009   1.0039   1.0165
  1.0351   1.0394   1.0451   1.0522   1.0639   1.0682   1.0804   1.0996
  1.1080   1.1159   1.1238   1.1445   1.1452   1.1642   1.1886   1.2034
  1.2261   1.2296   1.2472   1.2626   1.2751   1.3069   1.3298   1.3441
  1.3475   1.3820   1.3907   1.4005   1.4110   1.4307   1.4541   1.4619
  1.4728   1.5159   1.5535   1.5560   1.5645   1.5802   1.5934   1.6114
  1.6214   1.6544   1.6658   1.6946   1.7028   1.7295   1.7432   1.7688
  1.7834   1.7916   1.8271   1.8435   1.8541   1.8637   1.8674   1.8819
  1.8933   1.9043   1.9172   1.9410   1.9508   1.9573   1.9647   1.9720
  1.9829   1.9965   1.9999   2.0058   2.0280   2.0364   2.0570   2.0695
  2.0808   2.0982   2.1228   2.1392   2.1740   2.1859   2.2024   2.2115
  2.2210   2.2466   2.2783   2.3012   2.3127   2.3249   2.3668   2.3743
  2.3795   2.4080   2.4271   2.4534   2.4623   2.4828   2.5011   2.5272
  2.5468   2.5534   2.5635   2.6016   2.6209   2.6362   2.6443   2.6609
  2.6776   2.6889   2.7340   2.7582   2.7620   2.7742   2.7819   2.8066
  2.8148   2.8229   2.8359   2.8487   2.8580   2.8840   2.8879   2.8932
  2.9137   2.9276   2.9393   2.9566   2.9767   2.9946   3.0031   3.0266
  3.0315   3.0392   3.0690   3.0759   3.0826   3.0923   3.1275   3.1515
  3.1559   3.1734   3.1831   3.2063   3.2249   3.2307   3.2531   3.2590
  3.2665   3.2914   3.2950   3.3057   3.3259   3.3596   3.3621   3.3772
  3.3946   3.4011   3.4133   3.4226   3.4397   3.4495   3.4525   3.4669
  3.4804   3.4940   3.4984   3.5199   3.5220   3.5285   3.5429   3.5493
  3.5740   3.5777   3.5897   3.6084   3.6247   3.6427   3.6575   3.6685
  3.6835   3.6951   3.7112   3.7189   3.7221   3.7452   3.7648   3.7794
  3.7900   3.8022   3.8587   3.8680   3.9026   3.9312   3.9423   3.9834
  4.0235   4.0397   4.0534   4.1139   4.1481   4.1584   4.1938   4.2113
  4.2252   4.2515   4.2608   4.2827   4.2983   4.3093   4.3520   4.3566
  4.3625   4.3974   4.4139   4.4262   4.4573   4.4759   4.5230   4.5595
  4.5733   4.6226   4.6411   4.6486   4.7476   4.7865   4.7959   4.8343
  4.9166   4.9297   4.9504   4.9664   4.9814   5.0003   5.0547   5.0681
  5.1132   5.1320   5.1463   5.1974   5.2052   5.2694   5.3742   5.4055
  5.4399   5.4893   5.5309   5.5860   5.6478   5.6984   5.8071   5.8198
  5.9518   5.9699   6.2768   6.3224  22.6316  22.7493  22.9180  22.9446
 22.9696  23.1832  23.2472  23.4138  23.7663  32.8296
 --------------------------------------------------------------

          Ground-State Mulliken Net Atomic Charges

     Atom                 Charge (a.u.)
  ----------------------------------------
      1 C                    -0.958198
      2 C                    -0.235269
      3 C                     0.744370
      4 C                     0.752418
      5 C                    -0.970834
      6 C                    -0.784347
      7 C                    -0.480271
      8 C                    -0.430289
      9 C                    -0.713225
     10 N                     0.121539
     11 H                     0.215493
     12 H                     0.409320
     13 H                     0.324835
     14 H                     0.396734
     15 H                     0.370633
     16 H                     0.289903
     17 H                     0.287695
     18 H                     0.418588
     19 H                     0.240907
  ----------------------------------------
  Sum of atomic charges =     0.000000

 -----------------------------------------------------------------
                    Cartesian Multipole Moments
 -----------------------------------------------------------------
    Charge (ESU x 10^10)
                 0.0000
    Dipole Moment (Debye)
         X      -2.5029      Y       1.0883      Z       1.2647
       Tot       3.0080
    Quadrupole Moments (Debye-Ang)
        XX     -56.8797     XY      -5.7022     YY     -54.4684
        XZ      -7.3563     YZ      -2.3394     ZZ     -53.5417
    Octopole Moments (Debye-Ang^2)
       XXX    -172.7978    XXY     -59.1012    XYY     -64.8156
       YYY    -158.5768    XXZ     -24.1050    XYZ     -12.8100
       YYZ     -19.5459    XZZ     -67.5148    YZZ     -56.3777
       ZZZ     -46.5823
    Hexadecapole Moments (Debye-Ang^3)
      XXXX    -846.7671   XXXY     -17.9289   XXYY    -318.7615
      XYYY     -24.4149   YYYY   -1141.0132   XXXZ     -55.4601
      XXYZ      37.8156   XYYZ     -12.4745   YYYZ     110.3151
      XXZZ    -224.1730   XYZZ      -6.6528   YYZZ    -277.0904
      XZZZ     -40.1939   YZZZ     122.7225   ZZZZ    -493.4601
 -----------------------------------------------------------------
Archival summary:
1\1\compute-0-1.local\SP\ProcedureUnspecified\BasisUnspecified\199\meili\ThuSep3004:58:562021ThuSep3004:58:562021\0\\#,ProcedureUnspecified,BasisUnspecified,\\0,1\C\C,1,1.40631\H,2,1.08121,1,119.924\C,2,1.38844,1,119.294,3,177.087,0\H,4,1.08057,2,120.304,1,-177.507,0\C,4,1.40674,2,120.725,1,2.55297,0\H,6,1.08352,4,119.37,2,179.844,0\C,6,1.38807,4,121.401,2,0.00295086,0\H,8,1.08165,6,121.254,4,179.758,0\C,8,1.39223,6,117.801,4,-0.74937,0\N,10,1.36956,8,131.217,6,-178.555,0\H,11,1.01481,10,126.352,8,-1.1534,0\C,11,1.38604,10,109.206,8,179.43,0\H,13,1.07248,11,123.614,10,178.397,0\C,13,1.36581,11,110.591,10,-1.13373,0\C,15,1.52505,13,127.548,11,178.47,0\H,16,1.08844,15,108.528,13,158.264,0\H,16,1.09061,15,108.809,13,41.0404,0\H,16,1.1,15,114.264,13,-81.1617,0\\\@

 Total job time:  28129.33s(wall), 181298.23s(cpu) 
 Thu Sep 30 04:58:56 2021

        *************************************************************
        *                                                           *
        *  Thank you very much for using Q-Chem.  Have a nice day.  *
        *                                                           *
        *************************************************************


Done Job For Fragment 1
calling putenv with: QCSCRATCH=/home/meili/scratch 
calling putenv with: QCTHREADS=8 
Doing General SCFMI
 Exchange:     0.1670 Hartree-Fock + 1.0000 wB97X-V + LR-HF
 Correlation:  1.0000 wB97X-V
 Using Euler-Maclaurin-Lebedev (99,590) quadrature formula
 Nonlocal Correlation:  VV10 with C = 0.0100 and b = 6.00 and scale = 1.00000
 Grid used for NLC:  SG-1 standard quadrature
performing fock build before subrot guess so that all methods have access
Printing subrot_rss_gen Method Specification:
Occupied Subspace Method is 0
Virtual Subspace Method is 0
Energy of the unrelaxed supersystem initial determinant -651.714304860416
performing fock build before subrot guess so that all methods have access
Printing subrot_rss_gen Method Specification:
Occupied Subspace Method is 0
Virtual Subspace Method is 0
Energy of the unrelaxed supersystem initial determinant w/ solvent -651.755791384032
write pseudocanon occs and virts to disk
write pseudocanon orbital energies to disk
Tolerance of ortho_decomp_scf: 1.00e-06
GDM subspace size: 20
Beginning the Orthogonal Decomposition of the Initial Supersystem Wavefunction
    1    -651.6768373131      2.26e-02     ortho_decomp Preconditoned Steepest Descent
    2    -651.6792273894      5.61e-04     ortho_decomp BFGS Step
    3    -651.6792350980      4.54e-05     ortho_decomp BFGS Step
    4    -651.6792351158      2.03e-06     ortho_decomp BFGS Step
    5    -651.6792351159      7.81e-08     ortho_decomp 00000 Convergence criterion met
 Hartree-Fock
 Hartree-Fock
 Hartree-Fock
Doing General SCFMI
 Exchange:     0.1670 Hartree-Fock + 1.0000 wB97X-V + LR-HF
 Correlation:  1.0000 wB97X-V
 Using Euler-Maclaurin-Lebedev (99,590) quadrature formula
 Nonlocal Correlation:  VV10 with C = 0.0100 and b = 6.00 and scale = 1.00000
 Grid used for NLC:  SG-1 standard quadrature
performing fock build at end of subrot_r(subrot) constructor so that all methods have access
<S^2> of initial wavefunction before polarization iterations 0.0000000000
Beginning iterations for the determination of the polarized wavefunction
Energy prior to optimization (guess energy) = -651.755791384032
Begin Timing: Total SCF Calculation
begin iterations for algorithm: DIIS         
the SCF tolerance is set to 1.00e-08
    1    -651.7557913840      5.00e-05     00000 
    2    -651.7561031650      2.25e-05     00000 
    3    -651.7561433322      1.15e-05     00000 
    4    -651.7561559325      4.88e-06     00000 
    5    -651.7561580989      2.33e-06     00000 
    6    -651.7561589260      9.92e-07     00000 
    7    -651.7561590439      4.92e-07     00000 
    8    -651.7561590773      2.24e-07     00000 
    9    -651.7561590836      1.17e-07     00000 
   10    -651.7561590845      5.94e-08     00000 
   11    -651.7561590847      2.82e-08     00000 
   12    -651.7561590847      1.49e-08     00000 
   13    -651.7561590847      5.53e-09     00000 Convergence criterion met
write pseudocanon occs and virts to disk
write pseudocanon orbital energies to disk
Timing for Total SCF: 5670.00s (wall), 36519.34s (cpu)
<S^2> of polarized wavefunction after polarization iterations 0.0000000000
relaxing scfmi constraint to allow all rotations in the entire AO span
Doing General SCFMI
 Exchange:     0.1670 Hartree-Fock + 1.0000 wB97X-V + LR-HF
 Correlation:  1.0000 wB97X-V
 Using Euler-Maclaurin-Lebedev (99,590) quadrature formula
 Nonlocal Correlation:  VV10 with C = 0.0100 and b = 6.00 and scale = 1.00000
 Grid used for NLC:  SG-1 standard quadrature
performing fock build at end of subrot_r(subrot) constructor so that all methods have access
<S^2> of polarized wavefunction before ct-allowed iterations 0.0000000000
Beginning iterations for the determination of the CT-Allowed wavefunction
Energy prior to optimization (guess energy) = -651.756159084740
Begin Timing: Total SCF Calculation
begin iterations for algorithm: DIIS         
the SCF tolerance is set to 1.00e-08
    1    -651.7561590847      7.50e-05     00000 
    2    -651.7573474415      6.96e-06     00000 
    3    -651.7573801552      1.25e-06     00000 
    4    -651.7573813641      6.28e-07     00000 
    5    -651.7573814759      1.63e-07     00000 
    6    -651.7573814888      8.77e-08     00000 
    7    -651.7573814906      1.99e-08     00000 
    8    -651.7573814907      1.05e-08     00000 
    9    -651.7573814908      1.82e-09     00000 Convergence criterion met
write pseudocanon occs and virts to disk
write pseudocanon orbital energies to disk
Timing for Total SCF: 3791.00s (wall), 24761.34s (cpu)
<S^2> of ct_allowed wavefunction after ct-allowed iterations 0.0000000000

================================
        Results of EDA2         
================================
Basic EDA Quantities
--------------------
Fragment Energies (Ha):
1 -248.5681264125
2 -403.1706166089
--------------------
  E_prp (kJ/mol) = 0.0000
  E_sol (kJ/mol) = 11.0553
  E_frz (kJ/mol) = -27.3928
  E_pol (kJ/mol) = -0.9654
  E_vct (kJ/mol) = -3.2095
  E_int (kJ/mol) = -20.5124
--------------------


Initial Wavefunction Decomposition
--------------------
  --------------------
  Orthogonal Fragment Subspace Decomposition:
  --------------------
     E_elec   (ELEC)   (kJ/mol) = -44.7302
     E_pauli  (PAULI)  (kJ/mol) = 49.3112
     E_disp   (DISP)   (kJ/mol) = -31.9739
     --------------------
     Terms summing to E_pauli:
     --------------------
        E_kep_pauli       (kJ/mol) = 64.6839
        E_disp_free_pauli (kJ/mol) = -15.3727
  --------------------
  Classical Frozen Decomposition:
  --------------------
     E_cls_elec  (CLS ELEC)  (kJ/mol) = -22.9643
     E_cls_pauli (CLS PAULI) (kJ/mol) = -4.4286
    [E_mod_pauli (MOD PAULI) (kJ/mol) = 27.5453 (CLS PAULI - DISP from orthogonal decomposition) ]
  --------------------
--------------------

Simplified EDA Summary (kJ/mol)
--------------------
 PREPARATION     0.0000
 SOLVATION       11.0553
 FROZEN          4.5810      (does not include dispersion)
[PAULI           49.3112]     (if this is negligible, then frozen describes electrostatics)
 DISPERSION      -31.9739
 POLARIZATION    -0.9654
 CHARGE TRANSFER -3.2095
 TOTAL           -20.5124     (PRP + SOL + FRZ + DISP + POL + CT)
--------------------

 --------------------------------------------------------------

                    Orbital Energies (a.u.)
 --------------------------------------------------------------

 Alpha MOs
 -- Occupied --
-19.1808 -14.4437 -14.4260 -10.3730 -10.2999 -10.2910 -10.2685 -10.2679
-10.2657 -10.2656 -10.2640 -10.2622 -10.2614 -10.2577 -10.2500  -1.1693
 -1.1080  -1.0419  -0.9750  -0.9246  -0.9020  -0.8649  -0.8551  -0.8116
 -0.7742  -0.7414  -0.7095  -0.6916  -0.6726  -0.6464  -0.6447  -0.6010
 -0.5932  -0.5854  -0.5796  -0.5461  -0.5440  -0.5341  -0.5334  -0.5112
 -0.5069  -0.5054  -0.4869  -0.4759  -0.4700  -0.4585  -0.4489  -0.4480
 -0.4417  -0.4286  -0.3802  -0.3767  -0.3722  -0.3128  -0.2897
 -- Virtual --
  0.0534   0.0616   0.0727   0.0765   0.0816   0.0895   0.0962   0.0996
  0.1020   0.1061   0.1075   0.1131   0.1240   0.1275   0.1308   0.1325
  0.1416   0.1465   0.1511   0.1532   0.1674   0.1746   0.1764   0.1823
  0.1842   0.1860   0.1994   0.2020   0.2061   0.2119   0.2183   0.2205
  0.2238   0.2291   0.2355   0.2396   0.2439   0.2487   0.2536   0.2597
  0.2639   0.2675   0.2736   0.2737   0.2750   0.2791   0.2826   0.2855
  0.2897   0.2931   0.2965   0.2999   0.3033   0.3054   0.3120   0.3191
  0.3216   0.3232   0.3257   0.3294   0.3311   0.3333   0.3395   0.3416
  0.3443   0.3454   0.3488   0.3536   0.3592   0.3621   0.3642   0.3670
  0.3695   0.3723   0.3748   0.3777   0.3820   0.3829   0.3861   0.3891
  0.3948   0.3983   0.4032   0.4047   0.4084   0.4130   0.4145   0.4184
  0.4217   0.4270   0.4281   0.4330   0.4341   0.4401   0.4426   0.4453
  0.4481   0.4495   0.4588   0.4597   0.4648   0.4671   0.4713   0.4776
  0.4789   0.4810   0.4874   0.4895   0.4959   0.4977   0.5019   0.5021
  0.5058   0.5122   0.5178   0.5191   0.5217   0.5271   0.5306   0.5334
  0.5365   0.5383   0.5446   0.5498   0.5546   0.5596   0.5653   0.5672
  0.5715   0.5757   0.5778   0.5820   0.5882   0.5919   0.5957   0.5973
  0.6047   0.6098   0.6132   0.6167   0.6191   0.6249   0.6311   0.6327
  0.6360   0.6431   0.6489   0.6510   0.6532   0.6619   0.6657   0.6716
  0.6733   0.6792   0.6825   0.6881   0.6912   0.6943   0.7026   0.7043
  0.7104   0.7115   0.7135   0.7196   0.7256   0.7269   0.7317   0.7333
  0.7416   0.7449   0.7491   0.7517   0.7549   0.7598   0.7619   0.7709
  0.7722   0.7764   0.7852   0.7865   0.7886   0.7931   0.7957   0.7976
  0.8068   0.8076   0.8106   0.8110   0.8187   0.8195   0.8238   0.8291
  0.8323   0.8369   0.8394   0.8462   0.8466   0.8516   0.8560   0.8590
  0.8632   0.8642   0.8673   0.8723   0.8794   0.8907   0.8955   0.9010
  0.9044   0.9089   0.9102   0.9189   0.9213   0.9231   0.9275   0.9392
  0.9409   0.9496   0.9558   0.9583   0.9721   0.9761   0.9782   0.9863
  0.9934   0.9959   1.0081   1.0124   1.0200   1.0256   1.0330   1.0380
  1.0513   1.0595   1.0654   1.0691   1.0830   1.0916   1.1000   1.1031
  1.1118   1.1144   1.1239   1.1294   1.1368   1.1498   1.1515   1.1567
  1.1639   1.1695   1.1831   1.1915   1.2006   1.2104   1.2130   1.2303
  1.2374   1.2599   1.2707   1.2715   1.2754   1.2834   1.2872   1.2923
  1.3085   1.3201   1.3328   1.3483   1.3597   1.3670   1.3836   1.3911
  1.4019   1.4061   1.4151   1.4250   1.4348   1.4417   1.4520   1.4594
  1.4614   1.4724   1.4807   1.4852   1.5002   1.5094   1.5259   1.5304
  1.5361   1.5589   1.5753   1.5843   1.5863   1.5950   1.6141   1.6262
  1.6337   1.6427   1.6652   1.6783   1.6848   1.6920   1.7016   1.7115
  1.7303   1.7447   1.7549   1.7815   1.7970   1.8103   1.8363   1.8458
  1.8602   1.8644   1.8817   1.8899   1.9056   1.9086   1.9201   1.9230
  1.9341   1.9441   1.9476   1.9538   1.9688   1.9780   1.9865   1.9912
  1.9952   1.9966   2.0123   2.0169   2.0214   2.0319   2.0362   2.0448
  2.0507   2.0577   2.0686   2.0746   2.0853   2.0910   2.1089   2.1211
  2.1286   2.1331   2.1509   2.1601   2.1760   2.1871   2.2044   2.2090
  2.2181   2.2203   2.2340   2.2426   2.2579   2.2622   2.2639   2.2825
  2.2986   2.3054   2.3184   2.3236   2.3374   2.3410   2.3473   2.3680
  2.3815   2.3927   2.4002   2.4151   2.4163   2.4277   2.4388   2.4483
  2.4742   2.4868   2.4918   2.5039   2.5218   2.5248   2.5390   2.5513
  2.5722   2.5865   2.5889   2.6165   2.6233   2.6306   2.6473   2.6554
  2.6661   2.6688   2.6833   2.6884   2.6984   2.7071   2.7101   2.7202
  2.7394   2.7547   2.7595   2.7788   2.7822   2.7888   2.7917   2.8055
  2.8241   2.8352   2.8449   2.8564   2.8590   2.8644   2.8681   2.8756
  2.8870   2.9003   2.9052   2.9162   2.9260   2.9414   2.9462   2.9648
  2.9686   2.9718   2.9885   2.9923   3.0033   3.0091   3.0186   3.0280
  3.0353   3.0511   3.0578   3.0867   3.0934   3.1051   3.1069   3.1197
  3.1249   3.1330   3.1411   3.1682   3.1741   3.1805   3.2049   3.2135
  3.2326   3.2394   3.2531   3.2673   3.2789   3.2911   3.2944   3.2981
  3.3078   3.3149   3.3282   3.3399   3.3464   3.3510   3.3607   3.3807
  3.3847   3.3902   3.3976   3.4063   3.4139   3.4216   3.4322   3.4339
  3.4497   3.4567   3.4688   3.4696   3.4772   3.4849   3.4890   3.4968
  3.5029   3.5178   3.5251   3.5309   3.5396   3.5440   3.5487   3.5554
  3.5612   3.5681   3.5781   3.5830   3.5909   3.6019   3.6122   3.6177
  3.6248   3.6384   3.6493   3.6585   3.6774   3.6844   3.6900   3.6982
  3.7106   3.7192   3.7304   3.7372   3.7450   3.7549   3.7566   3.7684
  3.7746   3.7874   3.7909   3.7958   3.8065   3.8188   3.8335   3.8423
  3.8779   3.8796   3.9171   3.9375   3.9563   3.9729   4.0007   4.0190
  4.0384   4.0535   4.0641   4.0712   4.1084   4.1182   4.1384   4.1583
  4.1690   4.1735   4.1972   4.2102   4.2198   4.2452   4.2696   4.2824
  4.2967   4.3131   4.3197   4.3382   4.3654   4.3670   4.3724   4.3833
  4.4169   4.4301   4.4332   4.4393   4.4633   4.4778   4.4961   4.5396
  4.5671   4.5856   4.6078   4.6258   4.6419   4.6547   4.6594   4.6649
  4.6783   4.7565   4.7906   4.7980   4.8003   4.8196   4.8418   4.8940
  4.9316   4.9499   4.9584   4.9652   4.9706   4.9912   5.0017   5.0154
  5.0318   5.0656   5.0931   5.1174   5.1294   5.1403   5.1627   5.2173
  5.2224   5.2307   5.2631   5.2814   5.2864   5.3812   5.3913   5.4197
  5.4321   5.4544   5.4649   5.4714   5.5009   5.5356   5.5830   5.5982
  5.6422   5.6469   5.7207   5.7689   5.8154   5.8415   5.9370   5.9673
  5.9789   6.1798   6.2553   6.2945   6.3228   6.5242   6.6941   6.7677
  6.8497   7.0221   7.2859   7.3527  22.6622  22.7276  22.8687  22.9141
 22.9664  22.9926  23.0131  23.2086  23.2911  23.4259  23.6752  23.7669
 32.5994  32.9457  44.4742
 --------------------------------------------------------------

          Ground-State Mulliken Net Atomic Charges

     Atom                 Charge (a.u.)
  ----------------------------------------
      1 C                     0.338269
      2 C                    -0.972838
      3 C                     0.169562
      4 O                    -0.750723
      5 N                    -0.224665
      6 H                    -0.137361
      7 H                     0.325250
      8 H                     0.182009
      9 H                     0.271783
     10 H                     0.237674
     11 H                     0.261126
     12 H                     0.261326
     13 C                    -1.086500
     14 C                    -0.238001
     15 C                     0.126932
     16 C                     0.714588
     17 C                    -0.818054
     18 C                    -0.424164
     19 C                    -0.472909
     20 C                    -0.304233
     21 C                    -0.641963
     22 N                     0.191853
     23 H                     0.246157
     24 H                     0.397243
     25 H                     0.316177
     26 H                     0.417466
     27 H                     0.380898
     28 H                     0.296102
     29 H                     0.288239
     30 H                     0.413682
     31 H                     0.235075
  ----------------------------------------
  Sum of atomic charges =     0.000000

 -----------------------------------------------------------------
                    Cartesian Multipole Moments
 -----------------------------------------------------------------
    Charge (ESU x 10^10)
                -0.0000
    Dipole Moment (Debye)
         X      -0.4303      Y       5.3734      Z      -2.5378
       Tot       5.9581
    Quadrupole Moments (Debye-Ang)
        XX     -94.8354     XY     -20.7527     YY     -95.4337
        XZ      -0.3466     YZ       1.1676     ZZ     -81.4265
    Octopole Moments (Debye-Ang^2)
       XXX      -9.7192    XXY      43.0283    XYY      13.8995
       YYY      38.0282    XXZ     -18.7218    XYZ     -18.8958
       YYZ      -8.9965    XZZ     -22.2787    YZZ      -0.5504
       ZZZ       9.6075
    Hexadecapole Moments (Debye-Ang^3)
      XXXX   -1568.4614   XXXY    -353.0391   XXYY    -665.8510
      XYYY    -289.7864   YYYY   -2089.2826   XXXZ     -96.9098
      XXYZ      19.7652   XYYZ     -19.5143   YYYZ      35.5923
      XXZZ    -370.4361   XYZZ     -74.8789   YYZZ    -447.2984
      XZZZ    -109.6692   YZZZ      28.2226   ZZZZ    -663.7537
 -----------------------------------------------------------------
Archival summary:
1\1\compute-0-1.local\SP\ProcedureUnspecified\BasisUnspecified\121216\meili\ThuSep3009:36:592021ThuSep3009:36:592021\0\\#,ProcedureUnspecified,BasisUnspecified,\\0,1\N\H,1,1.01481\C,1,1.36956,2,126.352\C,1,1.38604,2,124.439,3,179.332,0\H,4,1.07248,1,123.614,2,-1.03415,0\C,4,1.36581,1,110.591,2,179.436,0\C,3,1.39223,1,131.217,2,-1.1534,0\H,7,1.08165,3,120.943,1,0.93921,0\C,7,1.38807,3,117.801,1,-178.555,0\H,9,1.08352,7,119.228,3,179.41,0\C,9,1.40674,7,121.401,3,-0.74937,0\H,11,1.08057,9,118.971,7,-179.938,0\C,11,1.38844,9,120.725,7,0.00295086,0\H,13,1.08121,11,120.717,9,179.617,0\C,13,1.40631,11,119.294,9,2.55297,0\C,6,1.52505,4,127.548,1,178.47,0\H,16,1.08844,6,108.528,4,158.264,0\H,16,1.09061,6,108.809,4,41.0404,0\H,16,1.1,6,114.264,4,-81.1617,0\H,15,2.81653,13,78.2553,11,-72.8422,0\C,20,1.08565,15,155.323,13,158.077,0\H,21,1.0884,20,108.042,15,133.474,0\C,21,1.51436,20,108.238,15,14.6716,0\O,23,1.24151,21,119.845,20,-127.041,0\N,23,1.31782,21,117.306,20,55.2291,0\H,25,1.00719,23,121.848,21,179.502,0\H,25,1.01442,23,117.184,21,-1.8724,0\C,21,1.52559,20,108.851,15,-106.273,0\H,28,1.0925,21,107.195,20,66.3629,0\H,28,1.1,21,110.96,20,-53.3725,0\H,28,1.1,21,110.66,20,-175.544,0\\\@

 Total job time:  49663.88s(wall), 110639.46s(cpu) 
 Thu Sep 30 09:36:59 2021

        *************************************************************
        *                                                           *
        *  Thank you very much for using Q-Chem.  Have a nice day.  *
        *                                                           *
        *************************************************************


