
Running Job 1 of 1 SSI-028ARG-031GLN-1_PCM_TZVPD.in
qchem SSI-028ARG-031GLN-1_PCM_TZVPD.in_12663.0 /tmp/qchem12663/ 0
/global/common/cori/software/qchem/5.2/exe/qcprog.exe_s SSI-028ARG-031GLN-1_PCM_TZVPD.in_12663.0 /tmp/qchem12663/
                  Welcome to Q-Chem
     A Quantum Leap Into The Future Of Chemistry


 Q-Chem 5.2, Q-Chem, Inc., Pleasanton, CA (2019)

 License issued to: National Energy Research Scientific Computing Center

 Yihan Shao,  Zhengting Gan,  E. Epifanovsky,  A. T. B. Gilbert,  M. Wormit,  
 J. Kussmann,  A. W. Lange,  A. Behn,  Jia Deng,  Xintian Feng,  D. Ghosh,  
 M. Goldey,  P. R. Horn,  L. D. Jacobson,  I. Kaliman,  T. Kus,  A. Landau,  
 Jie Liu,  E. I. Proynov,  R. M. Richard,  R. P. Steele,  E. J. Sundstrom,  
 H. L. Woodcock III,  P. M. Zimmerman,  D. Zuev,  B. Albrecht,  E. Alguire,  
 S. A. Baeppler,  D. Barton,  Z. Benda,  Y. A. Bernard,  E. J. Berquist,  
 K. B. Bravaya,  H. Burton,  D. Casanova,  Chun-Min Chang,  Yunqing Chen,  
 A. Chien,  K. D. Closser,  M. P. Coons,  S. Coriani,  S. Dasgupta,  
 A. L. Dempwolff,  M. Diedenhofen,  Hainam Do,  R. G. Edgar,  Po-Tung Fang,  
 S. Faraji,  S. Fatehi,  Qingguo Feng,  K. D. Fenk,  J. Fosso-Tande,  
 J. Gayvert,  Qinghui Ge,  A. Ghysels,  G. Gidofalvi,  J. Gomes,  
 J. Gonthier,  A. Gunina,  D. Hait,  M. W. D. Hanson-Heine,  
 P. H. P. Harbach,  A. W. Hauser,  M. F. Herbst,  J. E. Herr,  
 E. G. Hohenstein,  Z. C. Holden,  Kerwin Hui,  B. C. Huynh,  T.-C. Jagau,  
 Hyunjun Ji,  B. Kaduk,  K. Khistyaev,  Jaehoon Kim,  P. Klunzinger,  K. Koh,  
 D. Kosenkov,  L. Koulias,  T. Kowalczyk,  C. M. Krauter,  A. Kunitsa,  
 Ka Un Lao,  A. Laurent,  K. V. Lawler,  Joonho Lee,  D. Lefrancois,  
 S. Lehtola,  D. S. Levine,  Yi-Pei Li,  You-Sheng Lin,  Fenglai Liu,  
 E. Livshits,  A. Luenser,  P. Manohar,  E. Mansoor,  S. F. Manzer,  
 Shan-Ping Mao,  Yuezhi Mao,  N. Mardirossian,  A. V. Marenich,  
 T. Markovich,  L. A. Martinez-Martinez,  S. A. Maurer,  N. J. Mayhall,  
 S. C. McKenzie,  J.-M. Mewes,  P. Morgante,  A. F. Morrison,  
 J. W. Mullinax,  K. Nanda,  T. S. Nguyen-Beck,  R. Olivares-Amaya,  
 J. A. Parkhill,  Zheng Pei,  T. M. Perrine,  F. Plasser,  P. Pokhilko,  
 S. Prager,  A. Prociuk,  E. Ramos,  D. R. Rehn,  F. Rob,  M. Scheurer,  
 M. Schneider,  N. Sergueev,  S. M. Sharada,  S. Sharma,  D. W. Small,  
 T. Stauch,  T. Stein,  Yu-Chuan Su,  A. J. W. Thom,  A. Tkatchenko,  
 T. Tsuchimochi,  N. M. Tubman,  L. Vogt,  M. L. Vidal,  O. Vydrov,  
 M. A. Watson,  J. Wenzel,  M. de Wergifosse,  T. A. Wesolowski,  A. White,  
 J. Witte,  A. Yamada,  Jun Yang,  K. Yao,  S. Yeganeh,  S. R. Yost,  
 Zhi-Qiang You,  A. Zech,  Igor Ying Zhang,  Xing Zhang,  Yan Zhao,  
 Ying Zhu,  B. R. Brooks,  G. K. L. Chan,  C. J. Cramer,  M. S. Gordon,  
 W. J. Hehre,  A. Klamt,  M. W. Schmidt,  C. D. Sherrill,  D. G. Truhlar,  
 A. Aspuru-Guzik,  R. Baer,  A. T. Bell,  N. A. Besley,  Jeng-Da Chai,  
 A. E. DePrince, III,  R. A. DiStasio Jr.,  A. Dreuw,  B. D. Dunietz,  
 T. R. Furlani,  Chao-Ping Hsu,  Yousung Jung,  Jing Kong,  D. S. Lambrecht,  
 WanZhen Liang,  C. Ochsenfeld,  V. A. Rassolov,  L. V. Slipchenko,  
 J. E. Subotnik,  T. Van Voorhis,  J. M. Herbert,  A. I. Krylov,  
 P. M. W. Gill,  M. Head-Gordon

 Contributors to earlier versions of Q-Chem not listed above: 
 R. D. Adamson,  B. Austin,  J. Baker,  G. J. O. Beran,  K. Brandhorst,  
 S. T. Brown,  E. F. C. Byrd,  A. K. Chakraborty,  C.-L. Cheng,  
 Siu Hung Chien,  D. M. Chipman,  D. L. Crittenden,  H. Dachsel,  
 R. J. Doerksen,  A. D. Dutoi,  L. Fusti-Molnar,  W. A. Goddard III,  
 A. Golubeva-Zadorozhnaya,  S. R. Gwaltney,  G. Hawkins,  A. Heyden,  
 S. Hirata,  G. Kedziora,  F. J. Keil,  C. Kelley,  Jihan Kim,  R. A. King,  
 R. Z. Khaliullin,  P. P. Korambath,  W. Kurlancheek,  A. M. Lee,  M. S. Lee,  
 S. V. Levchenko,  Ching Yeh Lin,  D. Liotard,  R. C. Lochan,  I. Lotan,  
 P. E. Maslen,  N. Nair,  D. P. O'Neill,  D. Neuhauser,  E. Neuscamman,  
 C. M. Oana,  R. Olson,  B. Peters,  R. Peverati,  P. A. Pieniazek,  
 Y. M. Rhee,  J. Ritchie,  M. A. Rohrdanz,  E. Rosta,  N. J. Russ,  
 H. F. Schaefer III,  N. E. Schultz,  N. Shenvi,  A. C. Simmonett,  A. Sodt,  
 D. Stuck,  K. S. Thanthiriwatte,  V. Vanovschi,  Tao Wang,  A. Warshel,  
 C. F. Williams,  Q. Wu,  X. Xu,  W. Zhang

 Please cite Q-Chem as follows:
 Y. Shao et al., Mol. Phys. 113, 184-215 (2015)
 DOI: 10.1080/00268976.2014.952696

 Q-Chem 5.2.0 for Intel X86 EM64T Linux

 Parts of Q-Chem use Armadillo 8.300.2 (Tropical Shenanigans).
 http://arma.sourceforge.net/

 Q-Chem begins on Sun Sep 26 04:34:50 2021  

Host: cori01
0

     Scratch files written to /tmp/qchem12663//
 May1019 |scratch|qcdevops|jenkins|workspace|build_RNUM -1
Processing $rem in /global/common/cori/software/qchem/5.2/config/preferences:
	 MEM_TOTAL  96000 
NAlpha2: 72
NElect   72
Mult     1
Symmetry turned off for PCM/SM12/SMD calculation

 Q-Chem warning in module libgen/rem_setup.C, line 2803:

 Neither GIA nor STOLL is specified by user. Use STOLL as the default


Checking the input file for inconsistencies... 	...done.

--------------------------------------------------------------
User input:
--------------------------------------------------------------
$comment
SSI-028ARG-031GLN-1.pdb
$end

$molecule
1 1
--
1 1
C   -0.943780863852   -1.450951428350   -1.734690119540
C    1.357219136148   -1.738951428350   -0.843690119540
N    1.205219136148   -0.756951428350    0.027309880460
N    0.378219136148   -2.092951428350   -1.668690119540
N    2.504219136148   -2.386951428350   -0.877690119540
H    0.367219136148   -0.184951428350   -0.009690119540
H    1.964219136148   -0.502951428350    0.637309880460
H    0.567219136148   -2.839951428350   -2.321690119540
H    2.651219136148   -3.124951428350   -1.547690119540
H    3.257219136148   -2.126951428350   -0.259690119540
H   -0.883780863852   -0.564951428350   -2.370690119540
H   -1.248780863852   -1.147951428350   -0.733690119540
H   -1.712780863852   -2.129101428350   -2.133140119540
--
0 1
C   -2.431780863852    2.717048571650    1.544309880460
C   -1.104780863852    2.056048571650    1.212309880460
O   -0.973780863852    1.340048571650    0.220309880460
N   -0.103780863852    2.284048571650    2.052309880460
H   -2.243780863852    3.586048571650    2.177309880460
H   -3.033780863852    2.025048571650    2.127309880460
H    0.813219136148    1.933048571650    1.818309880460
H   -0.230780863852    2.920048571650    2.826309880460
H   -2.978900863852    3.066517571650    0.656319880460
$end

$rem
JOBTYPE			EDA
EDA2			1
method			wB97X-V
BASIS			def2-TZVPD
XC_GRID			000099000590
NL_GRID			1
UNRESTRICTED		FALSE
MAX_SCF_CYCLES		200
SYMMETRY		FALSE
SYM_IGNORE		TRUE
MEM_STATIC		2000
BASIS_LIN_DEP_THRESH 	6
THRESH 			14
SCF_CONVERGENCE 	8
SCF_PRINT_FRGM 		TRUE
SOLVENT_METHOD          PCM
$end

$PCM
THEORY                  CPCM
METHOD                  SWIG
SOLVER                  INVERSION
RADII                   UFF
HPOINTS                 302
HEAVYPOINTS             302
PRINTLEVEL              0
$END

$SOLVENT
DIELECTRIC              78.390000 ! water
$END
--------------------------------------------------------------
 ----------------------------------------------------------------
             Standard Nuclear Orientation (Angstroms)
    I     Atom           X                Y                Z
 ----------------------------------------------------------------
    1      C      -0.9437808639    -1.4509514284    -1.7346901195
    2      C       1.3572191361    -1.7389514284    -0.8436901195
    3      N       1.2052191361    -0.7569514284     0.0273098805
    4      N       0.3782191361    -2.0929514284    -1.6686901195
    5      N       2.5042191361    -2.3869514284    -0.8776901195
    6      H       0.3672191361    -0.1849514284    -0.0096901195
    7      H       1.9642191361    -0.5029514283     0.6373098805
    8      H       0.5672191361    -2.8399514284    -2.3216901195
    9      H       2.6512191361    -3.1249514284    -1.5476901195
   10      H       3.2572191361    -2.1269514283    -0.2596901195
   11      H      -0.8837808639    -0.5649514284    -2.3706901195
   12      H      -1.2487808639    -1.1479514284    -0.7336901195
   13      H      -1.7127808639    -2.1291014283    -2.1331401195
   14      C      -2.4317808639     2.7170485716     1.5443098805
   15      C      -1.1047808639     2.0560485716     1.2123098805
   16      O      -0.9737808639     1.3400485716     0.2203098805
   17      N      -0.1037808639     2.2840485717     2.0523098805
   18      H      -2.2437808639     3.5860485717     2.1773098805
   19      H      -3.0337808639     2.0250485717     2.1273098805
   20      H       0.8132191361     1.9330485717     1.8183098805
   21      H      -0.2307808639     2.9200485717     2.8263098805
   22      H      -2.9789008639     3.0665175716     0.6563198805
 ----------------------------------------------------------------
 Nuclear Repulsion Energy =         458.79531553 hartrees
 There are       36 alpha and       36 beta electrons
 Requested basis set is def2-TZVPD
 There are 183 shells and 453 basis functions

 Total QAlloc Memory Limit  96000 MB
 Mega-Array Size      1956 MB
 MEM_STATIC part      2000 MB
 Discretize the solute cavity surface with Lebedev spheres
	Using 302 Lebedev grid points for each H atom
	Using 302 Lebedev grid points for other atoms
	Atomic van der Waals radii will be scaled by 1.20
 Remove points where switching function is < 1.0e-08
 Keep 2538 surface tesserae and discard 4106 interior tesserae
 Molecular Surface Area = 247.717 Angst**2
 A cutoff of  1.0D-14 yielded  14665 shell pairs
 There are     90043 function pairs (    112045 Cartesian)
 Smallest overlap matrix eigenvalue = 8.49E-06

 Scale SEOQF with 1.000000e-01/1.000000e-01/1.000000e-01

 Standard Electronic Orientation quadrupole field applied
 Nucleus-field energy     =     0.0000000121 hartrees

 -----------------------------------------------------------------------
  General SCF calculation program by
  Eric Jon Sundstrom, Paul Horn, Yuezhi Mao, Dmitri Zuev, Alec White,
  David Stuck, Shaama M.S., Shane Yost, Joonho Lee, David Small,
  Daniel Levine, Susi Lehtola, Hugh Burton, Evgeny Epifanovsky
 -----------------------------------------------------------------------
================================================================
                 ALMO-EDA with the EDA2 driver                  
================================================================
 The second-generation ALMO-EDA (for DFT):                      
 P. R. Horn, Y. Mao and M. Head-Gordon, PCCP, 18, 23067 (2016)  
 Decomposition of the frozen energy:                            
 P. R. Horn, Y. Mao and M. Head-Gordon, JCP, 144, 114107 (2016) 
 FERF model for polarization:                                   
 P. R. Horn and M. Head-Gordon, JCP, 143, 114111 (2015)         
Using eda2 option set 1
Option set summary: Frozen orbital wavefunction, initial wavefunction decomposition, and nDQ polarization.
--------------------------------
Printing EDA Options
--------------------------------
eda_child_super_basis      0
fragmo_guess_mode          0
child_mp                   1
child_mp_orders            232
cls_elec                   1
cls_disp                   0
scfmi_mode                 1
scfmi_occs                 0
scfmi_virts                0
frz_relax                  0
frz_relax_method           0
dc_pen_start               0
dc_pen_conv                0
dc_pen_increment           0
dc_pen_steps               0
dc_pen_thresh_factor       0
dc_pen_pre_newton_thresh   0
frz_ortho_decomp           1
frz_ortho_decomp_conv      6
frgm_method                2
scfmi_freeze_ss            0
separate_rehyb             0
plot_diff_den              0
eda_nocv                   0
eda_vct_relax              1
disp_free_x                0
disp_free_c                0
eda_bsse                   0
eda_pct_a                  0
eda_covp                   0
--------------------------------
Attempting to make child job directory: /tmp/qchem12663//Frg1/
Attempting to make child job directory: /tmp/qchem12663//Frg2/
Creating input file /tmp/qchem12663/Frg1.input
using default PutDataFrgm: nothing
calling putenv with: QCSCRATCH=/tmp/qchem12663/ 
calling putenv with: QCLOCALSCR=/tmp/qchem12663/ 
Spawning Job For Fragment 0
                  Welcome to Q-Chem
     A Quantum Leap Into The Future Of Chemistry


 Q-Chem 5.2, Q-Chem, Inc., Pleasanton, CA (2019)

 License issued to: National Energy Research Scientific Computing Center

 Yihan Shao,  Zhengting Gan,  E. Epifanovsky,  A. T. B. Gilbert,  M. Wormit,  
 J. Kussmann,  A. W. Lange,  A. Behn,  Jia Deng,  Xintian Feng,  D. Ghosh,  
 M. Goldey,  P. R. Horn,  L. D. Jacobson,  I. Kaliman,  T. Kus,  A. Landau,  
 Jie Liu,  E. I. Proynov,  R. M. Richard,  R. P. Steele,  E. J. Sundstrom,  
 H. L. Woodcock III,  P. M. Zimmerman,  D. Zuev,  B. Albrecht,  E. Alguire,  
 S. A. Baeppler,  D. Barton,  Z. Benda,  Y. A. Bernard,  E. J. Berquist,  
 K. B. Bravaya,  H. Burton,  D. Casanova,  Chun-Min Chang,  Yunqing Chen,  
 A. Chien,  K. D. Closser,  M. P. Coons,  S. Coriani,  S. Dasgupta,  
 A. L. Dempwolff,  M. Diedenhofen,  Hainam Do,  R. G. Edgar,  Po-Tung Fang,  
 S. Faraji,  S. Fatehi,  Qingguo Feng,  K. D. Fenk,  J. Fosso-Tande,  
 J. Gayvert,  Qinghui Ge,  A. Ghysels,  G. Gidofalvi,  J. Gomes,  
 J. Gonthier,  A. Gunina,  D. Hait,  M. W. D. Hanson-Heine,  
 P. H. P. Harbach,  A. W. Hauser,  M. F. Herbst,  J. E. Herr,  
 E. G. Hohenstein,  Z. C. Holden,  Kerwin Hui,  B. C. Huynh,  T.-C. Jagau,  
 Hyunjun Ji,  B. Kaduk,  K. Khistyaev,  Jaehoon Kim,  P. Klunzinger,  K. Koh,  
 D. Kosenkov,  L. Koulias,  T. Kowalczyk,  C. M. Krauter,  A. Kunitsa,  
 Ka Un Lao,  A. Laurent,  K. V. Lawler,  Joonho Lee,  D. Lefrancois,  
 S. Lehtola,  D. S. Levine,  Yi-Pei Li,  You-Sheng Lin,  Fenglai Liu,  
 E. Livshits,  A. Luenser,  P. Manohar,  E. Mansoor,  S. F. Manzer,  
 Shan-Ping Mao,  Yuezhi Mao,  N. Mardirossian,  A. V. Marenich,  
 T. Markovich,  L. A. Martinez-Martinez,  S. A. Maurer,  N. J. Mayhall,  
 S. C. McKenzie,  J.-M. Mewes,  P. Morgante,  A. F. Morrison,  
 J. W. Mullinax,  K. Nanda,  T. S. Nguyen-Beck,  R. Olivares-Amaya,  
 J. A. Parkhill,  Zheng Pei,  T. M. Perrine,  F. Plasser,  P. Pokhilko,  
 S. Prager,  A. Prociuk,  E. Ramos,  D. R. Rehn,  F. Rob,  M. Scheurer,  
 M. Schneider,  N. Sergueev,  S. M. Sharada,  S. Sharma,  D. W. Small,  
 T. Stauch,  T. Stein,  Yu-Chuan Su,  A. J. W. Thom,  A. Tkatchenko,  
 T. Tsuchimochi,  N. M. Tubman,  L. Vogt,  M. L. Vidal,  O. Vydrov,  
 M. A. Watson,  J. Wenzel,  M. de Wergifosse,  T. A. Wesolowski,  A. White,  
 J. Witte,  A. Yamada,  Jun Yang,  K. Yao,  S. Yeganeh,  S. R. Yost,  
 Zhi-Qiang You,  A. Zech,  Igor Ying Zhang,  Xing Zhang,  Yan Zhao,  
 Ying Zhu,  B. R. Brooks,  G. K. L. Chan,  C. J. Cramer,  M. S. Gordon,  
 W. J. Hehre,  A. Klamt,  M. W. Schmidt,  C. D. Sherrill,  D. G. Truhlar,  
 A. Aspuru-Guzik,  R. Baer,  A. T. Bell,  N. A. Besley,  Jeng-Da Chai,  
 A. E. DePrince, III,  R. A. DiStasio Jr.,  A. Dreuw,  B. D. Dunietz,  
 T. R. Furlani,  Chao-Ping Hsu,  Yousung Jung,  Jing Kong,  D. S. Lambrecht,  
 WanZhen Liang,  C. Ochsenfeld,  V. A. Rassolov,  L. V. Slipchenko,  
 J. E. Subotnik,  T. Van Voorhis,  J. M. Herbert,  A. I. Krylov,  
 P. M. W. Gill,  M. Head-Gordon

 Contributors to earlier versions of Q-Chem not listed above: 
 R. D. Adamson,  B. Austin,  J. Baker,  G. J. O. Beran,  K. Brandhorst,  
 S. T. Brown,  E. F. C. Byrd,  A. K. Chakraborty,  C.-L. Cheng,  
 Siu Hung Chien,  D. M. Chipman,  D. L. Crittenden,  H. Dachsel,  
 R. J. Doerksen,  A. D. Dutoi,  L. Fusti-Molnar,  W. A. Goddard III,  
 A. Golubeva-Zadorozhnaya,  S. R. Gwaltney,  G. Hawkins,  A. Heyden,  
 S. Hirata,  G. Kedziora,  F. J. Keil,  C. Kelley,  Jihan Kim,  R. A. King,  
 R. Z. Khaliullin,  P. P. Korambath,  W. Kurlancheek,  A. M. Lee,  M. S. Lee,  
 S. V. Levchenko,  Ching Yeh Lin,  D. Liotard,  R. C. Lochan,  I. Lotan,  
 P. E. Maslen,  N. Nair,  D. P. O'Neill,  D. Neuhauser,  E. Neuscamman,  
 C. M. Oana,  R. Olson,  B. Peters,  R. Peverati,  P. A. Pieniazek,  
 Y. M. Rhee,  J. Ritchie,  M. A. Rohrdanz,  E. Rosta,  N. J. Russ,  
 H. F. Schaefer III,  N. E. Schultz,  N. Shenvi,  A. C. Simmonett,  A. Sodt,  
 D. Stuck,  K. S. Thanthiriwatte,  V. Vanovschi,  Tao Wang,  A. Warshel,  
 C. F. Williams,  Q. Wu,  X. Xu,  W. Zhang

 Please cite Q-Chem as follows:
 Y. Shao et al., Mol. Phys. 113, 184-215 (2015)
 DOI: 10.1080/00268976.2014.952696

 Q-Chem 5.2.0 for Intel X86 EM64T Linux

 Parts of Q-Chem use Armadillo 8.300.2 (Tropical Shenanigans).
 http://arma.sourceforge.net/

 Q-Chem begins on Sun Sep 26 04:34:53 2021  

Host: cori01
0

     Scratch files written to /tmp/qchem12663//Frg1//
 May1019 |scratch|qcdevops|jenkins|workspace|build_RNUM -1
Processing $rem in /global/common/cori/software/qchem/5.2/config/preferences:
	 MEM_TOTAL  96000 
NAlpha2: 40
NElect   40
Mult     1
Symmetry turned off for PCM/SM12/SMD calculation

Checking the input file for inconsistencies... 	...done.

--------------------------------------------------------------
User input:
--------------------------------------------------------------
$molecule
1 1
 6	-0.9437808639	-1.4509514284	-1.7346901195
 6	1.3572191361	-1.7389514284	-0.8436901195
 7	1.2052191361	-0.7569514284	0.0273098805
 7	0.3782191361	-2.0929514284	-1.6686901195
 7	2.5042191361	-2.3869514284	-0.8776901195
 1	0.3672191361	-0.1849514284	-0.0096901195
 1	1.9642191361	-0.5029514283	0.6373098805
 1	0.5672191361	-2.8399514284	-2.3216901195
 1	2.6512191361	-3.1249514284	-1.5476901195
 1	3.2572191361	-2.1269514283	-0.2596901195
 1	-0.8837808639	-0.5649514284	-2.3706901195
 1	-1.2487808639	-1.1479514284	-0.7336901195
 1	-1.7127808639	-2.1291014283	-2.1331401195
$end
$rem
EDA2		1
METHOD		WB97X-V
BASIS		DEF2-TZVPD
XC_GRID		000099000590
NL_GRID		1
UNRESTRICTED		FALSE
MAX_SCF_CYCLES		200
SYMMETRY		FALSE
SYM_IGNORE		TRUE
BASIS_LIN_DEP_THRESH		6
THRESH		14
SCF_CONVERGENCE		8
SCF_PRINT_FRGM		TRUE
SOLVENT_METHOD		PCM
!required keywords
JOBTYPE		SP
SYM_IGNORE		TRUE
SUBSYSTEM		TRUE
GEN_SCFMAN		TRUE
CHILD_INSTRUCTION		2
SYM_IGNORE		TRUE
SCFMI		0
RI_K 0		
PARI_K 0		
MIN_PARI_K 0		
IARI_K 0		
OCC_RI_K 0		
PURECART		1111
MEM_STATIC		2000
MEM_TOTAL		96000
GUI		0
CHILD_MP		1
CHILD_MP_ORDERS		232
FRZ_RELAX		0
FRZ_RELAX_METHOD		0
EDA_CLS_ELEC		1
EDA_CLS_DISP		0
FRZ_ORTHO_DECOMP		1
EDA2		FALSE
FRGM_METHOD		FALSE
CIS_N_ROOTS  0
LOCAL_CIS    0
CIS_RLX_DNS  1
$end
$pcm
THEORY                  CPCM
METHOD                  SWIG
SOLVER                  INVERSION
RADII                   UFF
HPOINTS                 302
HEAVYPOINTS             302
PRINTLEVEL              0
$end
$solvent
DIELECTRIC              78.390000 ! water
$end
--------------------------------------------------------------
 ----------------------------------------------------------------
             Standard Nuclear Orientation (Angstroms)
    I     Atom           X                Y                Z
 ----------------------------------------------------------------
    1      C      -0.9437808639    -1.4509514284    -1.7346901195
    2      C       1.3572191361    -1.7389514284    -0.8436901195
    3      N       1.2052191361    -0.7569514284     0.0273098805
    4      N       0.3782191361    -2.0929514284    -1.6686901195
    5      N       2.5042191361    -2.3869514284    -0.8776901195
    6      H       0.3672191361    -0.1849514284    -0.0096901195
    7      H       1.9642191361    -0.5029514283     0.6373098805
    8      H       0.5672191361    -2.8399514284    -2.3216901195
    9      H       2.6512191361    -3.1249514284    -1.5476901195
   10      H       3.2572191361    -2.1269514283    -0.2596901195
   11      H      -0.8837808639    -0.5649514284    -2.3706901195
   12      H      -1.2487808639    -1.1479514284    -0.7336901195
   13      H      -1.7127808639    -2.1291014283    -2.1331401195
 ----------------------------------------------------------------
 Nuclear Repulsion Energy =         193.96957091 hartrees
 There are       20 alpha and       20 beta electrons
 Requested basis set is def2-TZVPD
 There are 105 shells and 257 basis functions

 Total QAlloc Memory Limit  96000 MB
 Mega-Array Size      1956 MB
 MEM_STATIC part      2000 MB
 Discretize the solute cavity surface with Lebedev spheres
	Using 302 Lebedev grid points for each H atom
	Using 302 Lebedev grid points for other atoms
	Atomic van der Waals radii will be scaled by 1.20
 Remove points where switching function is < 1.0e-08
 Keep 1558 surface tesserae and discard 2368 interior tesserae
 Molecular Surface Area = 152.400 Angst**2

                       Distance Matrix (Angstroms)
             C (  1)   C (  2)   N (  3)   N (  4)   N (  5)   H (  6)
   C (  2)  2.484235
   N (  3)  2.864347  1.321389
   N (  4)  1.471123  1.328300  2.311978
   N (  5)  3.674132  1.317827  2.272295  2.287355
   H (  6)  2.509403  2.022516  1.015282  2.528412  3.188886
   H (  7)  3.870601  2.022253  1.006328  3.218871  2.477152  1.752182
   H (  8)  2.134716  2.005190  3.203706  1.010019  2.458112  3.526240
   H (  9)  3.970047  2.022634  3.190449  2.499239  1.007548  4.028114
   H ( 10)  4.503443  2.025241  2.483943  3.205476  1.008233  3.490840
   H ( 11)  1.092288  2.955010  3.186093  2.102435  4.126412  2.698837
   H ( 12)  1.089420  2.674438  2.598869  2.101042  3.954853  2.015689
   H ( 13)  1.100005  3.352581  3.881374  2.142266  4.407463  3.551783
             H (  7)   H (  8)   H (  9)   H ( 10)   H ( 11)   H ( 12)
   H (  8)  4.021052
   H (  9)  3.481534  2.241285
   H ( 10)  2.261379  3.463569  1.738443
   H ( 11)  4.142827  2.698783  4.441526  4.903473
   H ( 12)  3.552328  2.946602  4.447598  4.635424  1.775636
   H ( 13)  4.882631  2.395675  4.514307  5.311376  1.786123  1.770992

 
 A cutoff of  1.0D-14 yielded   5439 shell pairs
 There are     33167 function pairs (     41503 Cartesian)
 Smallest overlap matrix eigenvalue = 1.66E-05

 Scale SEOQF with 1.000000e-01/1.000000e-01/1.000000e-01

 Standard Electronic Orientation quadrupole field applied
 Nucleus-field energy     =     0.0000000060 hartrees
 Guess from superposition of atomic densities
 Warning:  Energy on first SCF cycle will be non-variational
 SAD guess density has 40.388232 electrons

 -----------------------------------------------------------------------
  General SCF calculation program by
  Eric Jon Sundstrom, Paul Horn, Yuezhi Mao, Dmitri Zuev, Alec White,
  David Stuck, Shaama M.S., Shane Yost, Joonho Lee, David Small,
  Daniel Levine, Susi Lehtola, Hugh Burton, Evgeny Epifanovsky
 -----------------------------------------------------------------------
 Exchange:     0.1670 Hartree-Fock + 1.0000 wB97X-V + LR-HF
 Correlation:  1.0000 wB97X-V
 Using Euler-Maclaurin-Lebedev (99,590) quadrature formula
 Nonlocal Correlation:  VV10 with C = 0.0100 and b = 6.00 and scale = 1.00000
 Grid used for NLC:  SG-1 standard quadrature
Energy prior to optimization (guess energy) = -244.726359749039
Begin Timing: Total SCF Calculation
begin iterations for algorithm: DIIS         
the SCF tolerance is set to 1.00e-08
    1    -244.7263597490      7.93e-03     00000 
    2    -244.9413119109      6.23e-03     00000 
    3    -245.1799618097      3.05e-04     00000 
    4    -245.1805666945      1.74e-04     00000 
    5    -245.1807717995      3.50e-05     00000 
    6    -245.1807807574      1.39e-05     00000 
    7    -245.1807823639      2.18e-06     00000 
    8    -245.1807824368      7.88e-07     00000 
    9    -245.1807824469      3.08e-07     00000 
   10    -245.1807824485      9.00e-08     00000 
   11    -245.1807824487      3.97e-08     00000 
   12    -245.1807824487      1.07e-08     00000 
   13    -245.1807824487      1.49e-09     00000 Convergence criterion met
Timing for Total SCF: 795.00s (wall), 1571.05s (cpu)

************** Final PCM Free Energy Summary **************
 G_electrostatic  =      -0.08145779 hartree =     -51.11553741 kcal/mol
 G_cavitation     =       0.00000000 hartree =       0.00000000 kcal/mol
 G_dispersion     =       0.00000000 hartree =       0.00000000 kcal/mol
 G_repulsion      =       0.00000000 hartree =       0.00000000 kcal/mol
 --------------------------------------------------
 Non-electrostatic Free Energy =       0.00000000 hartree =       0.00000000 kcal/mol
 Total                         =      -0.08145779 hartree =     -51.11553741 kcal/mol
 --------------------------------------------------
 SCF Energy (H0 + V/2)                       =    -245.18078245 
 Solute Internal Energy (H0)                 =    -245.09932465 
 Total Free Energy (H0 + V/2 + non-elec)     =    -245.18078245 hartree
                                             = -153853.26309374 kcal/mol
***********************************************************

E_pcm = -0.0814577943
Multipole orders to be included
        2
        3
computing dipole RHS
computing quadrupole RHS
total number of RHS in solve_reponses: 8
RHS batch sizes
        8
Beginning Block Conjugate Gradient Iterations. Batch Number: 0
computing hessian-vector products by finite difference
              1      4.44e-01     00000 Conjugate Gradient Iteration
computing hessian-vector products by finite difference
              2      1.64e-01     00000 Conjugate Gradient Iteration
computing hessian-vector products by finite difference
              3      4.63e-02     00000 Conjugate Gradient Iteration
computing hessian-vector products by finite difference
              4      1.25e-02     00000 Conjugate Gradient Iteration
computing hessian-vector products by finite difference
              5      1.80e-03     00000 Conjugate Gradient Iteration
computing hessian-vector products by finite difference
              6      2.85e-04     00000 Conjugate Gradient Iteration
computing hessian-vector products by finite difference
              7      3.47e-05     00000 Conjugate Gradient Iteration
computing hessian-vector products by finite difference
              8      5.05e-06     00000 Conjugate Gradient Iteration
computing hessian-vector products by finite difference
              9      7.46e-07     00000 Conjugate Gradient Iteration
computing hessian-vector products by finite difference
             10      9.71e-08     00000 Conjugate Gradient Iteration
computing hessian-vector products by finite difference
             11      1.18e-08     00000 Conjugate Gradient Iteration
computing hessian-vector products by finite difference
             12      2.03e-09     00000 CG Converged
batch 0 complete
Done Calculating Responses
TESTING ORTHOGONALIZATION OF MULTIPOLE BASIS
Multipole virts passed orthogonality test
Virts Per Order
           60
          100
 
 --------------------------------------------------------------
 
                    Orbital Energies (a.u.)
 --------------------------------------------------------------
 
 Alpha MOs
 -- Occupied --
-14.4827 -14.4775 -14.4740 -10.4503 -10.3315  -1.2005  -1.0826  -1.0706
 -0.8787  -0.7946  -0.7528  -0.7163  -0.6479  -0.6409  -0.6208  -0.5964
 -0.5517  -0.5340  -0.4259  -0.4021
 -- Virtual --
  0.0483   0.0751   0.0798   0.0867   0.1141   0.1151   0.1232   0.1421
  0.1570   0.1631   0.1791   0.1877   0.1917   0.1955   0.2099   0.2218
  0.2320   0.2344   0.2400   0.2538   0.2660   0.2721   0.2830   0.2889
  0.2971   0.3050   0.3092   0.3139   0.3238   0.3309   0.3390   0.3486
  0.3527   0.3613   0.3657   0.3835   0.3957   0.3976   0.4022   0.4181
  0.4298   0.4361   0.4452   0.4487   0.4624   0.4642   0.4776   0.4877
  0.4883   0.4943   0.5040   0.5057   0.5140   0.5230   0.5354   0.5359
  0.5444   0.5541   0.5660   0.5757   0.5931   0.6043   0.6191   0.6384
  0.6452   0.6623   0.6644   0.6895   0.7041   0.7191   0.7294   0.7470
  0.7777   0.7808   0.7968   0.8090   0.8160   0.8206   0.8369   0.8447
  0.8671   0.8690   0.8834   0.9045   0.9167   0.9581   0.9709   0.9790
  1.0170   1.0484   1.0567   1.0706   1.0929   1.0994   1.1079   1.1191
  1.1393   1.1603   1.1956   1.2322   1.2473   1.3115   1.3346   1.3915
  1.4003   1.4255   1.4495   1.4709   1.5317   1.5469   1.6142   1.6464
  1.6502   1.6841   1.7313   1.7672   1.8136   1.8352   1.8527   1.8574
  1.8925   1.8991   1.9097   1.9469   1.9713   1.9863   2.0096   2.0359
  2.0701   2.0972   2.1525   2.1711   2.2043   2.2237   2.2496   2.2620
  2.2880   2.3306   2.3542   2.3968   2.4120   2.4457   2.4671   2.5018
  2.5410   2.5674   2.5987   2.6101   2.6288   2.6465   2.6833   2.7157
  2.7630   2.7908   2.8205   2.8584   2.8664   2.8855   2.9055   2.9251
  3.0175   3.1028   3.1129   3.1279   3.1506   3.1729   3.2009   3.2242
  3.2463   3.2596   3.2814   3.2921   3.3503   3.3747   3.3909   3.4145
  3.4315   3.4658   3.5054   3.5645   3.5743   3.6391   3.6613   3.7218
  3.7859   3.8507   3.9113   3.9494   4.0472   4.1074   4.1512   4.1947
  4.2661   4.2848   4.3157   4.3364   4.3868   4.4433   4.5386   4.5947
  4.6524   4.8137   4.8392   4.8467   4.9062   4.9669   4.9955   5.0264
  5.0885   5.1006   5.1034   5.1322   5.1665   5.1935   5.2492   5.3319
  5.3700   5.3828   5.4250   5.4390   5.4572   5.4801   5.5464   5.6233
  5.6774   5.7517   5.7786   5.8623   6.1283   6.1647   6.3510   6.4502
 22.6279  23.6190  32.3088  32.4214  32.7847
 --------------------------------------------------------------
 
          Ground-State Mulliken Net Atomic Charges

     Atom                 Charge (a.u.)
  ----------------------------------------
      1 C                    -0.789335
      2 C                     0.568199
      3 N                    -0.249820
      4 N                    -0.081196
      5 N                    -0.262457
      6 H                     0.173280
      7 H                     0.199243
      8 H                     0.227942
      9 H                     0.196459
     10 H                     0.195753
     11 H                     0.287881
     12 H                     0.285065
     13 H                     0.248986
  ----------------------------------------
  Sum of atomic charges =     1.000000

 -----------------------------------------------------------------
                    Cartesian Multipole Moments
 -----------------------------------------------------------------
    Charge (ESU x 10^10)
                 4.8032
    Dipole Moment (Debye)
         X       5.9633      Y      -8.1364      Z      -4.5472
       Tot      11.0652
    Quadrupole Moments (Debye-Ang)
        XX      -8.5973     XY     -13.4548     YY      -9.2219
        XZ      -0.7340     YZ      14.5167     ZZ     -19.1770
    Octopole Moments (Debye-Ang^2)
       XXX     -18.6557    XXY       3.3473    XYY      12.1187
       YYY      91.0285    XXZ      22.2833    XYZ      13.5726
       YYZ     -12.7978    XZZ     -20.5484    YZZ      20.0027
       ZZZ      70.8106
    Hexadecapole Moments (Debye-Ang^3)
      XXXX    -254.4879   XXXY      23.1886   XXYY     -55.0723
      XYYY      39.6982   YYYY    -431.6850   XXXZ      21.3286
      XXYZ     -13.9415   XYYZ     -43.8713   YYYZ     -41.3869
      XXZZ    -102.3593   XYZZ      26.1606   YYZZ     -60.0953
      XZZZ      25.0624   YZZZ    -111.0097   ZZZZ    -268.0885
 -----------------------------------------------------------------
Archival summary:
1\1\nid00551\SP\ProcedureUnspecified\BasisUnspecified\328(1+,1)\meili\SunSep2608:20:202021SunSep2608:20:202021\0\\#,ProcedureUnspecified,BasisUnspecified,\\1,1\C\N,1,1.31783\H,2,1.00755,1,120.286\H,2,1.00823,1,120.492,3,177.568,0\N,1,1.32139,2,118.852,3,-178.564,0\H,5,1.00633,1,120.025,2,1.2286,0\H,5,1.01528,1,119.315,2,173.129,0\N,1,1.3283,2,119.632,3,2.20741,0\H,8,1.01002,1,117.435,2,-1.9509,0\C,8,1.47112,1,125.021,2,-179.79,0\H,10,1.08942,8,109.374,1,-35.5141,0\H,10,1.09229,8,109.314,1,83.6986,0\H,10,1.1,8,112.051,1,-155.207,0\\\@

 Total job time:  13526.78s(wall), 26797.07s(cpu) 
 Sun Sep 26 08:20:20 2021

        *************************************************************
        *                                                           *
        *  Thank you very much for using Q-Chem.  Have a nice day.  *
        *                                                           *
        *************************************************************


Done Job For Fragment 0
calling putenv with: QCSCRATCH=/global/cscratch1/sd/meili 
calling putenv with: QCLOCALSCR=/tmp 
calling putenv with: QCTHREADS=32 
Creating input file /tmp/qchem12663/Frg2.input
using default PutDataFrgm: nothing
calling putenv with: QCSCRATCH=/tmp/qchem12663/ 
calling putenv with: QCLOCALSCR=/tmp/qchem12663/ 
Spawning Job For Fragment 1
                  Welcome to Q-Chem
     A Quantum Leap Into The Future Of Chemistry


 Q-Chem 5.2, Q-Chem, Inc., Pleasanton, CA (2019)

 License issued to: National Energy Research Scientific Computing Center

 Yihan Shao,  Zhengting Gan,  E. Epifanovsky,  A. T. B. Gilbert,  M. Wormit,  
 J. Kussmann,  A. W. Lange,  A. Behn,  Jia Deng,  Xintian Feng,  D. Ghosh,  
 M. Goldey,  P. R. Horn,  L. D. Jacobson,  I. Kaliman,  T. Kus,  A. Landau,  
 Jie Liu,  E. I. Proynov,  R. M. Richard,  R. P. Steele,  E. J. Sundstrom,  
 H. L. Woodcock III,  P. M. Zimmerman,  D. Zuev,  B. Albrecht,  E. Alguire,  
 S. A. Baeppler,  D. Barton,  Z. Benda,  Y. A. Bernard,  E. J. Berquist,  
 K. B. Bravaya,  H. Burton,  D. Casanova,  Chun-Min Chang,  Yunqing Chen,  
 A. Chien,  K. D. Closser,  M. P. Coons,  S. Coriani,  S. Dasgupta,  
 A. L. Dempwolff,  M. Diedenhofen,  Hainam Do,  R. G. Edgar,  Po-Tung Fang,  
 S. Faraji,  S. Fatehi,  Qingguo Feng,  K. D. Fenk,  J. Fosso-Tande,  
 J. Gayvert,  Qinghui Ge,  A. Ghysels,  G. Gidofalvi,  J. Gomes,  
 J. Gonthier,  A. Gunina,  D. Hait,  M. W. D. Hanson-Heine,  
 P. H. P. Harbach,  A. W. Hauser,  M. F. Herbst,  J. E. Herr,  
 E. G. Hohenstein,  Z. C. Holden,  Kerwin Hui,  B. C. Huynh,  T.-C. Jagau,  
 Hyunjun Ji,  B. Kaduk,  K. Khistyaev,  Jaehoon Kim,  P. Klunzinger,  K. Koh,  
 D. Kosenkov,  L. Koulias,  T. Kowalczyk,  C. M. Krauter,  A. Kunitsa,  
 Ka Un Lao,  A. Laurent,  K. V. Lawler,  Joonho Lee,  D. Lefrancois,  
 S. Lehtola,  D. S. Levine,  Yi-Pei Li,  You-Sheng Lin,  Fenglai Liu,  
 E. Livshits,  A. Luenser,  P. Manohar,  E. Mansoor,  S. F. Manzer,  
 Shan-Ping Mao,  Yuezhi Mao,  N. Mardirossian,  A. V. Marenich,  
 T. Markovich,  L. A. Martinez-Martinez,  S. A. Maurer,  N. J. Mayhall,  
 S. C. McKenzie,  J.-M. Mewes,  P. Morgante,  A. F. Morrison,  
 J. W. Mullinax,  K. Nanda,  T. S. Nguyen-Beck,  R. Olivares-Amaya,  
 J. A. Parkhill,  Zheng Pei,  T. M. Perrine,  F. Plasser,  P. Pokhilko,  
 S. Prager,  A. Prociuk,  E. Ramos,  D. R. Rehn,  F. Rob,  M. Scheurer,  
 M. Schneider,  N. Sergueev,  S. M. Sharada,  S. Sharma,  D. W. Small,  
 T. Stauch,  T. Stein,  Yu-Chuan Su,  A. J. W. Thom,  A. Tkatchenko,  
 T. Tsuchimochi,  N. M. Tubman,  L. Vogt,  M. L. Vidal,  O. Vydrov,  
 M. A. Watson,  J. Wenzel,  M. de Wergifosse,  T. A. Wesolowski,  A. White,  
 J. Witte,  A. Yamada,  Jun Yang,  K. Yao,  S. Yeganeh,  S. R. Yost,  
 Zhi-Qiang You,  A. Zech,  Igor Ying Zhang,  Xing Zhang,  Yan Zhao,  
 Ying Zhu,  B. R. Brooks,  G. K. L. Chan,  C. J. Cramer,  M. S. Gordon,  
 W. J. Hehre,  A. Klamt,  M. W. Schmidt,  C. D. Sherrill,  D. G. Truhlar,  
 A. Aspuru-Guzik,  R. Baer,  A. T. Bell,  N. A. Besley,  Jeng-Da Chai,  
 A. E. DePrince, III,  R. A. DiStasio Jr.,  A. Dreuw,  B. D. Dunietz,  
 T. R. Furlani,  Chao-Ping Hsu,  Yousung Jung,  Jing Kong,  D. S. Lambrecht,  
 WanZhen Liang,  C. Ochsenfeld,  V. A. Rassolov,  L. V. Slipchenko,  
 J. E. Subotnik,  T. Van Voorhis,  J. M. Herbert,  A. I. Krylov,  
 P. M. W. Gill,  M. Head-Gordon

 Contributors to earlier versions of Q-Chem not listed above: 
 R. D. Adamson,  B. Austin,  J. Baker,  G. J. O. Beran,  K. Brandhorst,  
 S. T. Brown,  E. F. C. Byrd,  A. K. Chakraborty,  C.-L. Cheng,  
 Siu Hung Chien,  D. M. Chipman,  D. L. Crittenden,  H. Dachsel,  
 R. J. Doerksen,  A. D. Dutoi,  L. Fusti-Molnar,  W. A. Goddard III,  
 A. Golubeva-Zadorozhnaya,  S. R. Gwaltney,  G. Hawkins,  A. Heyden,  
 S. Hirata,  G. Kedziora,  F. J. Keil,  C. Kelley,  Jihan Kim,  R. A. King,  
 R. Z. Khaliullin,  P. P. Korambath,  W. Kurlancheek,  A. M. Lee,  M. S. Lee,  
 S. V. Levchenko,  Ching Yeh Lin,  D. Liotard,  R. C. Lochan,  I. Lotan,  
 P. E. Maslen,  N. Nair,  D. P. O'Neill,  D. Neuhauser,  E. Neuscamman,  
 C. M. Oana,  R. Olson,  B. Peters,  R. Peverati,  P. A. Pieniazek,  
 Y. M. Rhee,  J. Ritchie,  M. A. Rohrdanz,  E. Rosta,  N. J. Russ,  
 H. F. Schaefer III,  N. E. Schultz,  N. Shenvi,  A. C. Simmonett,  A. Sodt,  
 D. Stuck,  K. S. Thanthiriwatte,  V. Vanovschi,  Tao Wang,  A. Warshel,  
 C. F. Williams,  Q. Wu,  X. Xu,  W. Zhang

 Please cite Q-Chem as follows:
 Y. Shao et al., Mol. Phys. 113, 184-215 (2015)
 DOI: 10.1080/00268976.2014.952696

 Q-Chem 5.2.0 for Intel X86 EM64T Linux

 Parts of Q-Chem use Armadillo 8.300.2 (Tropical Shenanigans).
 http://arma.sourceforge.net/

 Q-Chem begins on Sun Sep 26 08:20:21 2021  

Host: cori01
0

     Scratch files written to /tmp/qchem12663//Frg2//
 May1019 |scratch|qcdevops|jenkins|workspace|build_RNUM -1
Processing $rem in /global/common/cori/software/qchem/5.2/config/preferences:
	 MEM_TOTAL  96000 
NAlpha2: 32
NElect   32
Mult     1
Symmetry turned off for PCM/SM12/SMD calculation

Checking the input file for inconsistencies... 	...done.

--------------------------------------------------------------
User input:
--------------------------------------------------------------
$molecule
0 1
 6	-2.4317808639	2.7170485716	1.5443098805
 6	-1.1047808639	2.0560485716	1.2123098805
 8	-0.9737808639	1.3400485716	0.2203098805
 7	-0.1037808639	2.2840485717	2.0523098805
 1	-2.2437808639	3.5860485717	2.1773098805
 1	-3.0337808639	2.0250485717	2.1273098805
 1	0.8132191361	1.9330485717	1.8183098805
 1	-0.2307808639	2.9200485717	2.8263098805
 1	-2.9789008639	3.0665175716	0.6563198805
$end
$rem
EDA2		1
METHOD		WB97X-V
BASIS		DEF2-TZVPD
XC_GRID		000099000590
NL_GRID		1
UNRESTRICTED		FALSE
MAX_SCF_CYCLES		200
SYMMETRY		FALSE
SYM_IGNORE		TRUE
BASIS_LIN_DEP_THRESH		6
THRESH		14
SCF_CONVERGENCE		8
SCF_PRINT_FRGM		TRUE
SOLVENT_METHOD		PCM
!required keywords
JOBTYPE		SP
SYM_IGNORE		TRUE
SUBSYSTEM		TRUE
GEN_SCFMAN		TRUE
CHILD_INSTRUCTION		2
SYM_IGNORE		TRUE
SCFMI		0
RI_K 0		
PARI_K 0		
MIN_PARI_K 0		
IARI_K 0		
OCC_RI_K 0		
PURECART		1111
MEM_STATIC		2000
MEM_TOTAL		96000
GUI		0
CHILD_MP		1
CHILD_MP_ORDERS		232
FRZ_RELAX		0
FRZ_RELAX_METHOD		0
EDA_CLS_ELEC		1
EDA_CLS_DISP		0
FRZ_ORTHO_DECOMP		1
EDA2		FALSE
FRGM_METHOD		FALSE
CIS_N_ROOTS  0
LOCAL_CIS    0
CIS_RLX_DNS  1
$end
$pcm
THEORY                  CPCM
METHOD                  SWIG
SOLVER                  INVERSION
RADII                   UFF
HPOINTS                 302
HEAVYPOINTS             302
PRINTLEVEL              0
$end
$solvent
DIELECTRIC              78.390000 ! water
$end
--------------------------------------------------------------
 ----------------------------------------------------------------
             Standard Nuclear Orientation (Angstroms)
    I     Atom           X                Y                Z
 ----------------------------------------------------------------
    1      C      -2.4317808639     2.7170485716     1.5443098805
    2      C      -1.1047808639     2.0560485716     1.2123098805
    3      O      -0.9737808639     1.3400485716     0.2203098805
    4      N      -0.1037808639     2.2840485717     2.0523098805
    5      H      -2.2437808639     3.5860485717     2.1773098805
    6      H      -3.0337808639     2.0250485717     2.1273098805
    7      H       0.8132191361     1.9330485717     1.8183098805
    8      H      -0.2307808639     2.9200485717     2.8263098805
    9      H      -2.9789008639     3.0665175716     0.6563198805
 ----------------------------------------------------------------
 Nuclear Repulsion Energy =         122.18879495 hartrees
 There are       16 alpha and       16 beta electrons
 Requested basis set is def2-TZVPD
 There are 78 shells and 196 basis functions

 Total QAlloc Memory Limit  96000 MB
 Mega-Array Size      1956 MB
 MEM_STATIC part      2000 MB
 Discretize the solute cavity surface with Lebedev spheres
	Using 302 Lebedev grid points for each H atom
	Using 302 Lebedev grid points for other atoms
	Atomic van der Waals radii will be scaled by 1.20
 Remove points where switching function is < 1.0e-08
 Keep 1201 surface tesserae and discard 1517 interior tesserae
 Molecular Surface Area = 128.276 Angst**2

                       Distance Matrix (Angstroms)
             C (  1)   C (  2)   O (  3)   N (  4)   H (  5)   H (  6)
   C (  2)  1.519235
   O (  3)  2.403096  1.230399
   N (  4)  2.421804  1.326493  2.237020
   H (  5)  1.091418  2.137626  3.238405  2.508073
   H (  6)  1.086810  2.135235  2.889546  2.942381  1.750235
   H (  7)  3.349591  2.015214  2.469539  1.009379  3.493786  3.860486
   H (  8)  2.555217  2.028637  3.136827  1.009802  2.217414  3.024307
   H (  9)  1.099998  2.200568  2.681661  3.290496  1.767406  1.803186
             H (  7)   H (  8)
   H (  8)  1.755041
   H (  9)  4.124942  3.504636
 
 A cutoff of  1.0D-14 yielded   3054 shell pairs
 There are     19544 function pairs (     24702 Cartesian)
 Smallest overlap matrix eigenvalue = 1.17E-05

 Scale SEOQF with 1.000000e-01/1.000000e-01/1.000000e-01

 Standard Electronic Orientation quadrupole field applied
 Nucleus-field energy     =     0.0000000061 hartrees
 Guess from superposition of atomic densities
 Warning:  Energy on first SCF cycle will be non-variational
 SAD guess density has 31.604610 electrons

 -----------------------------------------------------------------------
  General SCF calculation program by
  Eric Jon Sundstrom, Paul Horn, Yuezhi Mao, Dmitri Zuev, Alec White,
  David Stuck, Shaama M.S., Shane Yost, Joonho Lee, David Small,
  Daniel Levine, Susi Lehtola, Hugh Burton, Evgeny Epifanovsky
 -----------------------------------------------------------------------
 Exchange:     0.1670 Hartree-Fock + 1.0000 wB97X-V + LR-HF
 Correlation:  1.0000 wB97X-V
 Using Euler-Maclaurin-Lebedev (99,590) quadrature formula
 Nonlocal Correlation:  VV10 with C = 0.0100 and b = 6.00 and scale = 1.00000
 Grid used for NLC:  SG-1 standard quadrature
Energy prior to optimization (guess energy) = -208.703211537901
Begin Timing: Total SCF Calculation
begin iterations for algorithm: DIIS         
the SCF tolerance is set to 1.00e-08
    1    -208.7032115379      1.26e-02     00000 
    2    -208.3158390660      1.56e-02     00000 
    3    -209.2227452451      2.49e-03     00000 
    4    -209.2426877659      8.27e-04     00000 
    5    -209.2453905742      1.25e-04     00000 
    6    -209.2454900405      4.95e-05     00000 
    7    -209.2455074735      1.11e-05     00000 
    8    -209.2455086378      2.10e-06     00000 
    9    -209.2455087289      7.55e-07     00000 
   10    -209.2455087344      3.17e-07     00000 
   11    -209.2455087353      7.21e-08     00000 
   12    -209.2455087354      1.70e-08     00000 
   13    -209.2455087354      4.35e-09     00000 Convergence criterion met
Timing for Total SCF: 377.00s (wall), 745.55s (cpu)

************** Final PCM Free Energy Summary **************
 G_electrostatic  =      -0.01228042 hartree =      -7.70608234 kcal/mol
 G_cavitation     =       0.00000000 hartree =       0.00000000 kcal/mol
 G_dispersion     =       0.00000000 hartree =       0.00000000 kcal/mol
 G_repulsion      =       0.00000000 hartree =       0.00000000 kcal/mol
 --------------------------------------------------
 Non-electrostatic Free Energy =       0.00000000 hartree =       0.00000000 kcal/mol
 Total                         =      -0.01228042 hartree =      -7.70608234 kcal/mol
 --------------------------------------------------
 SCF Energy (H0 + V/2)                       =    -209.24550874 
 Solute Internal Energy (H0)                 =    -209.23322831 
 Total Free Energy (H0 + V/2 + non-elec)     =    -209.24550874 hartree
                                             = -131303.53849571 kcal/mol
***********************************************************

E_pcm = -0.0122804240
Multipole orders to be included
        2
        3
computing dipole RHS
computing quadrupole RHS
total number of RHS in solve_reponses: 8
RHS batch sizes
        8
Beginning Block Conjugate Gradient Iterations. Batch Number: 0
computing hessian-vector products by finite difference
              1      6.21e-01     00000 Conjugate Gradient Iteration
computing hessian-vector products by finite difference
              2      2.03e-01     00000 Conjugate Gradient Iteration
computing hessian-vector products by finite difference
              3      5.23e-02     00000 Conjugate Gradient Iteration
computing hessian-vector products by finite difference
              4      1.34e-02     00000 Conjugate Gradient Iteration
computing hessian-vector products by finite difference
              5      2.04e-03     00000 Conjugate Gradient Iteration
computing hessian-vector products by finite difference
              6      4.44e-04     00000 Conjugate Gradient Iteration
computing hessian-vector products by finite difference
              7      6.71e-05     00000 Conjugate Gradient Iteration
computing hessian-vector products by finite difference
              8      7.90e-06     00000 Conjugate Gradient Iteration
computing hessian-vector products by finite difference
              9      1.33e-06     00000 Conjugate Gradient Iteration
computing hessian-vector products by finite difference
             10      2.45e-07     00000 Conjugate Gradient Iteration
computing hessian-vector products by finite difference
             11      2.97e-08     00000 Conjugate Gradient Iteration
computing hessian-vector products by finite difference
             12      4.99e-09     00000 CG Converged
batch 0 complete
Done Calculating Responses
TESTING ORTHOGONALIZATION OF MULTIPOLE BASIS
Multipole virts passed orthogonality test
Virts Per Order
        48
        80
 
 --------------------------------------------------------------
 
                    Orbital Energies (a.u.)
 --------------------------------------------------------------
 
 Alpha MOs
 -- Occupied --
-19.1783 -14.4350 -10.3782 -10.2735  -1.1712  -1.0472  -0.8712  -0.7147
 -0.6622  -0.5896  -0.5695  -0.5183  -0.5067  -0.4840  -0.3835  -0.3677
 -- Virtual --
  0.0593   0.0908   0.0927   0.0976   0.1261   0.1281   0.1350   0.1427
  0.1730   0.1798   0.1897   0.2111   0.2227   0.2407   0.2480   0.2601
  0.2615   0.2682   0.2921   0.3095   0.3275   0.3307   0.3407   0.3473
  0.3553   0.3616   0.3680   0.3731   0.3892   0.4001   0.4160   0.4168
  0.4346   0.4531   0.4575   0.4687   0.4782   0.4895   0.4948   0.5014
  0.5269   0.5291   0.5442   0.5671   0.5821   0.5943   0.6221   0.6325
  0.6364   0.6564   0.6761   0.6823   0.7061   0.7230   0.7306   0.7648
  0.7697   0.7795   0.7930   0.8080   0.8102   0.8331   0.8455   0.8636
  0.9035   0.9516   0.9852   0.9879   1.0113   1.0180   1.0561   1.0870
  1.1071   1.1768   1.2204   1.2389   1.2841   1.3186   1.3382   1.3721
  1.4765   1.4888   1.5041   1.6212   1.6708   1.7333   1.7357   1.8084
  1.8455   1.8590   1.8946   1.9098   1.9278   1.9474   1.9775   2.0255
  2.0456   2.0857   2.1395   2.1658   2.2056   2.2195   2.3070   2.3422
  2.3996   2.4232   2.4503   2.4718   2.5473   2.5627   2.5801   2.6310
  2.6636   2.6982   2.7728   2.7950   2.8323   2.8805   2.9559   2.9920
  3.0430   3.0909   3.1357   3.1580   3.2025   3.2261   3.2648   3.2845
  3.3138   3.3340   3.3615   3.3950   3.4618   3.4871   3.5497   3.5724
  3.6223   3.6330   3.6669   3.7824   3.8875   3.9390   4.0094   4.0292
  4.0478   4.1837   4.2894   4.4178   4.4981   4.5937   4.6232   4.6609
  4.7765   4.8885   4.8899   4.9328   5.1363   5.1788   5.2613   5.3410
  5.3799   5.4065   5.4077   5.4791   5.5214   5.7705   5.9122   6.1358
  6.2565   6.5225   6.6433   6.7390   6.8280   6.9792   7.2222   7.3231
 22.5726  23.5659  32.4047  44.3130
 --------------------------------------------------------------
 
          Ground-State Mulliken Net Atomic Charges

     Atom                 Charge (a.u.)
  ----------------------------------------
      1 C                    -0.615298
      2 C                     0.416900
      3 O                    -0.582655
      4 N                    -0.260119
      5 H                     0.233256
      6 H                     0.192980
      7 H                     0.212062
      8 H                     0.193902
      9 H                     0.208972
  ----------------------------------------
  Sum of atomic charges =     0.000000

 -----------------------------------------------------------------
                    Cartesian Multipole Moments
 -----------------------------------------------------------------
    Charge (ESU x 10^10)
                -0.0000
    Dipole Moment (Debye)
         X       0.5134      Y       2.9832      Z       4.2395
       Tot       5.2093
    Quadrupole Moments (Debye-Ang)
        XX     -20.9161     XY      -2.3363     YY     -13.2377
        XZ      -2.2995     YZ      11.7036     ZZ     -15.2690
    Octopole Moments (Debye-Ang^2)
       XXX      82.1981    XXY     -41.6126    XYY      18.1347
       YYY    -124.3092    XXZ     -23.0413    XYZ      -6.3830
       YYZ       0.5011    XZZ      25.6027    YZZ     -24.4860
       ZZZ     -73.9031
    Hexadecapole Moments (Debye-Ang^3)
      XXXX    -355.2829   XXXY     189.1024   XXYY    -157.8414
      XYYY     169.9224   YYYY    -659.5531   XXXZ      98.2436
      XXYZ     -60.0461   XYYZ      18.2602   YYYZ    -136.8656
      XXZZ    -106.1632   XYZZ      58.4660   YYZZ     -98.7223
      XZZZ     102.9695   YZZZ    -154.1066   ZZZZ    -296.9610
 -----------------------------------------------------------------
Archival summary:
1\1\nid00551\SP\ProcedureUnspecified\BasisUnspecified\1125\meili\SunSep2610:14:192021SunSep2610:14:192021\0\\#,ProcedureUnspecified,BasisUnspecified,\\0,1\C\O,1,1.2304\N,1,1.32649,2,122.021\H,3,1.00938,1,118.619,2,6.16396,0\H,3,1.0098,1,119.916,2,176.402,0\C,1,1.51923,2,121.492,3,-179.465,0\H,6,1.08681,1,108.906,2,86.5662,0\H,6,1.09142,1,108.827,2,-157.199,0\H,6,1.1,1,113.345,2,-37.6332,0\\\@

 Total job time:  6838.31s(wall), 13511.65s(cpu) 
 Sun Sep 26 10:14:19 2021

        *************************************************************
        *                                                           *
        *  Thank you very much for using Q-Chem.  Have a nice day.  *
        *                                                           *
        *************************************************************


Done Job For Fragment 1
calling putenv with: QCSCRATCH=/global/cscratch1/sd/meili 
calling putenv with: QCLOCALSCR=/tmp 
calling putenv with: QCTHREADS=32 
Doing General SCFMI
 Exchange:     0.1670 Hartree-Fock + 1.0000 wB97X-V + LR-HF
 Correlation:  1.0000 wB97X-V
 Using Euler-Maclaurin-Lebedev (99,590) quadrature formula
 Nonlocal Correlation:  VV10 with C = 0.0100 and b = 6.00 and scale = 1.00000
 Grid used for NLC:  SG-1 standard quadrature
performing fock build before subrot guess so that all methods have access
Printing subrot_rss_gen Method Specification:
Occupied Subspace Method is 0
Virtual Subspace Method is 0
Energy of the unrelaxed supersystem initial determinant -454.354866885318
performing fock build before subrot guess so that all methods have access
Printing subrot_rss_gen Method Specification:
Occupied Subspace Method is 0
Virtual Subspace Method is 0
Energy of the unrelaxed supersystem initial determinant w/ solvent -454.432184297035
write pseudocanon occs and virts to disk
write pseudocanon orbital energies to disk
Tolerance of ortho_decomp_scf: 1.00e-06
GDM subspace size: 20
Beginning the Orthogonal Decomposition of the Initial Supersystem Wavefunction
    1    -454.2984159117      6.54e-02     ortho_decomp Preconditoned Steepest Descent
    2    -454.3049753296      1.66e-03     ortho_decomp BFGS Step
    3    -454.3049989773      1.38e-04     ortho_decomp BFGS Step
    4    -454.3049990214      5.47e-06     ortho_decomp BFGS Step
    5    -454.3049990216      1.65e-07     ortho_decomp 00000 Convergence criterion met
 Hartree-Fock
 Hartree-Fock
 Hartree-Fock
Doing General SCFMI
 Exchange:     0.1670 Hartree-Fock + 1.0000 wB97X-V + LR-HF
 Correlation:  1.0000 wB97X-V
 Using Euler-Maclaurin-Lebedev (99,590) quadrature formula
 Nonlocal Correlation:  VV10 with C = 0.0100 and b = 6.00 and scale = 1.00000
 Grid used for NLC:  SG-1 standard quadrature
performing fock build at end of subrot_r(subrot) constructor so that all methods have access
<S^2> of initial wavefunction before polarization iterations 0.0000000000
Beginning iterations for the determination of the polarized wavefunction
Energy prior to optimization (guess energy) = -454.432184297036
Begin Timing: Total SCF Calculation
begin iterations for algorithm: DIIS         
the SCF tolerance is set to 1.00e-08
    1    -454.4321842970      1.81e-04     00000 
    2    -454.4340387657      5.81e-05     00000 
    3    -454.4342039323      2.97e-05     00000 
    4    -454.4342352591      1.30e-05     00000 
    5    -454.4342408104      4.91e-06     00000 
    6    -454.4342419718      2.49e-06     00000 
    7    -454.4342422503      8.34e-07     00000 
    8    -454.4342422948      3.43e-07     00000 
    9    -454.4342423019      7.47e-08     00000 
   10    -454.4342423024      2.99e-08     00000 
   11    -454.4342423025      1.37e-08     00000 
   12    -454.4342423025      4.05e-09     00000 Convergence criterion met
write pseudocanon occs and virts to disk
write pseudocanon orbital energies to disk
Timing for Total SCF: 3182.00s (wall), 6315.28s (cpu)
<S^2> of polarized wavefunction after polarization iterations 0.0000000000
relaxing scfmi constraint to allow all rotations in the entire AO span
Doing General SCFMI
 Exchange:     0.1670 Hartree-Fock + 1.0000 wB97X-V + LR-HF
 Correlation:  1.0000 wB97X-V
 Using Euler-Maclaurin-Lebedev (99,590) quadrature formula
 Nonlocal Correlation:  VV10 with C = 0.0100 and b = 6.00 and scale = 1.00000
 Grid used for NLC:  SG-1 standard quadrature
performing fock build at end of subrot_r(subrot) constructor so that all methods have access
<S^2> of polarized wavefunction before ct-allowed iterations 0.0000000000
Beginning iterations for the determination of the CT-Allowed wavefunction
Energy prior to optimization (guess energy) = -454.434242302469
Begin Timing: Total SCF Calculation
begin iterations for algorithm: DIIS         
the SCF tolerance is set to 1.00e-08
    1    -454.4342423025      1.42e-04     00000 
    2    -454.4367882705      2.23e-05     00000 
    3    -454.4368942230      1.05e-05     00000 
    4    -454.4369020177      5.68e-06     00000 
    5    -454.4369049844      9.46e-07     00000 
    6    -454.4369051073      3.72e-07     00000 
    7    -454.4369051328      1.17e-07     00000 
    8    -454.4369051352      4.58e-08     00000 
    9    -454.4369051357      1.23e-08     00000 
   10    -454.4369051357      4.73e-09     00000 Convergence criterion met
write pseudocanon occs and virts to disk
write pseudocanon orbital energies to disk
Timing for Total SCF: 2655.00s (wall), 5271.17s (cpu)
<S^2> of ct_allowed wavefunction after ct-allowed iterations 0.0000000000

================================
        Results of EDA2         
================================
Basic EDA Quantities
--------------------
Fragment Energies (Ha):
1 -245.1807824487
2 -209.2455087354
--------------------
  E_prp (kJ/mol) = -0.0000
  E_sol (kJ/mol) = 43.1133
  E_frz (kJ/mol) = -58.5859
  E_pol (kJ/mol) = -5.4034
  E_vct (kJ/mol) = -6.9914
  E_int (kJ/mol) = -27.8673
--------------------


Initial Wavefunction Decomposition
--------------------
  --------------------
  Orthogonal Fragment Subspace Decomposition:
  --------------------
     E_elec   (ELEC)   (kJ/mol) = -103.4044
     E_pauli  (PAULI)  (kJ/mol) = 58.1578
     E_disp   (DISP)   (kJ/mol) = -13.3393
     --------------------
     Terms summing to E_pauli:
     --------------------
        E_kep_pauli       (kJ/mol) = 72.3437
        E_disp_free_pauli (kJ/mol) = -14.1859
  --------------------
  Classical Frozen Decomposition:
  --------------------
     E_cls_elec  (CLS ELEC)  (kJ/mol) = -78.8194
     E_cls_pauli (CLS PAULI) (kJ/mol) = 20.2336
    [E_mod_pauli (MOD PAULI) (kJ/mol) = 33.5729 (CLS PAULI - DISP from orthogonal decomposition) ]
  --------------------
--------------------

Simplified EDA Summary (kJ/mol)
--------------------
 PREPARATION     -0.0000
 SOLVATION       43.1133
 FROZEN          -45.2466      (does not include dispersion)
[PAULI           58.1578]     (if this is negligible, then frozen describes electrostatics)
 DISPERSION      -13.3393
 POLARIZATION    -5.4034
 CHARGE TRANSFER -6.9914
 TOTAL           -27.8673     (PRP + SOL + FRZ + DISP + POL + CT)
--------------------
 
 --------------------------------------------------------------
 
                    Orbital Energies (a.u.)
 --------------------------------------------------------------
 
 Alpha MOs
 -- Occupied --
-19.1937 -14.4778 -14.4698 -14.4651 -14.4448 -10.4440 -10.3908 -10.3248
-10.2792  -1.1944  -1.1862  -1.0772  -1.0633  -1.0578  -0.8783  -0.8728
 -0.7880  -0.7467  -0.7242  -0.7110  -0.6715  -0.6417  -0.6384  -0.6152
 -0.5986  -0.5909  -0.5780  -0.5458  -0.5354  -0.5226  -0.5123  -0.4925
 -0.4189  -0.3984  -0.3950  -0.3838
 -- Virtual --
  0.0472   0.0633   0.0758   0.0808   0.0869   0.0908   0.0997   0.1083
  0.1137   0.1162   0.1255   0.1359   0.1467   0.1484   0.1573   0.1642
  0.1746   0.1747   0.1839   0.1906   0.1962   0.1983   0.2047   0.2112
  0.2198   0.2241   0.2271   0.2324   0.2393   0.2459   0.2495   0.2582
  0.2654   0.2709   0.2764   0.2796   0.2826   0.2880   0.2889   0.2974
  0.2988   0.3028   0.3087   0.3175   0.3194   0.3199   0.3263   0.3285
  0.3359   0.3462   0.3499   0.3514   0.3536   0.3556   0.3634   0.3663
  0.3738   0.3797   0.3837   0.3932   0.3948   0.3963   0.4036   0.4126
  0.4151   0.4196   0.4254   0.4316   0.4364   0.4431   0.4491   0.4581
  0.4635   0.4651   0.4683   0.4750   0.4819   0.4845   0.4906   0.4945
  0.4988   0.5014   0.5066   0.5096   0.5140   0.5186   0.5231   0.5256
  0.5298   0.5335   0.5402   0.5444   0.5513   0.5541   0.5628   0.5686
  0.5736   0.5835   0.5871   0.5941   0.6039   0.6159   0.6196   0.6328
  0.6372   0.6457   0.6467   0.6558   0.6636   0.6663   0.6750   0.6773
  0.6826   0.6970   0.7052   0.7238   0.7260   0.7287   0.7301   0.7380
  0.7504   0.7662   0.7704   0.7815   0.7852   0.7867   0.7892   0.7938
  0.8017   0.8039   0.8158   0.8227   0.8296   0.8379   0.8434   0.8578
  0.8608   0.8664   0.8749   0.8862   0.8877   0.9030   0.9090   0.9136
  0.9283   0.9348   0.9495   0.9698   0.9817   0.9888   0.9961   1.0098
  1.0234   1.0295   1.0415   1.0629   1.0683   1.0734   1.0834   1.0900
  1.1061   1.1125   1.1182   1.1201   1.1398   1.1563   1.1695   1.1770
  1.2037   1.2059   1.2144   1.2425   1.2491   1.2723   1.2750   1.3090
  1.3196   1.3317   1.3407   1.3619   1.3754   1.3943   1.4078   1.4194
  1.4406   1.4499   1.4855   1.5033   1.5125   1.5201   1.5460   1.5874
  1.5943   1.6597   1.6804   1.6860   1.6921   1.7031   1.7242   1.7509
  1.7616   1.7752   1.8085   1.8318   1.8500   1.8561   1.8751   1.8817
  1.8971   1.9069   1.9120   1.9228   1.9360   1.9380   1.9542   1.9632
  1.9739   1.9867   1.9973   2.0164   2.0335   2.0412   2.0583   2.0660
  2.0798   2.1173   2.1253   2.1343   2.1664   2.1875   2.1932   2.2174
  2.2348   2.2473   2.2500   2.2593   2.2903   2.3138   2.3370   2.3559
  2.3688   2.3816   2.3998   2.4360   2.4487   2.4526   2.4597   2.4785
  2.4866   2.5155   2.5442   2.5563   2.5612   2.5753   2.5854   2.6049
  2.6264   2.6405   2.6453   2.6538   2.6618   2.6765   2.6910   2.6959
  2.7484   2.7537   2.7953   2.8057   2.8261   2.8368   2.8482   2.8516
  2.8821   2.8919   2.9006   2.9275   2.9411   2.9529   2.9837   3.0175
  3.0705   3.0859   3.1070   3.1170   3.1301   3.1469   3.1604   3.1785
  3.1947   3.2151   3.2201   3.2291   3.2449   3.2586   3.2627   3.2788
  3.2848   3.3071   3.3219   3.3300   3.3379   3.3451   3.3678   3.3922
  3.4218   3.4290   3.4328   3.4359   3.4579   3.4756   3.4929   3.5018
  3.5324   3.5642   3.5957   3.6026   3.6234   3.6266   3.6596   3.6739
  3.6782   3.6845   3.7524   3.7879   3.8191   3.8842   3.9018   3.9415
  3.9610   3.9734   4.0131   4.0370   4.0577   4.0743   4.1281   4.1736
  4.1925   4.2124   4.2825   4.2941   4.3144   4.3276   4.3584   4.4009
  4.4211   4.4605   4.5026   4.5557   4.5942   4.6081   4.6329   4.6710
  4.6858   4.8232   4.8246   4.8499   4.8808   4.8913   4.9132   4.9192
  4.9597   4.9999   5.0274   5.0406   5.1197   5.1309   5.1426   5.1480
  5.1575   5.1780   5.1803   5.2127   5.2616   5.2639   5.3415   5.3592
  5.3792   5.3864   5.3951   5.4092   5.4165   5.4422   5.4488   5.4835
  5.4959   5.5039   5.5364   5.5723   5.6561   5.7185   5.7627   5.7701
  5.8001   5.8792   5.9064   6.1416   6.1488   6.1860   6.2843   6.3822
  6.4670   6.6010   6.6729   6.7738   6.8297   6.9897   7.2363   7.3814
 22.5854  22.6603  23.5825  23.6495  32.3696  32.4273  32.4758  32.8384
 44.3770
 --------------------------------------------------------------
 
          Ground-State Mulliken Net Atomic Charges

     Atom                 Charge (a.u.)
  ----------------------------------------
      1 C                    -0.763342
      2 C                     0.534141
      3 N                    -0.075963
      4 N                    -0.065769
      5 N                    -0.257031
      6 H                     0.078635
      7 H                     0.212424
      8 H                     0.220406
      9 H                     0.198645
     10 H                     0.199109
     11 H                     0.260800
     12 H                     0.282281
     13 H                     0.249281
     14 C                    -0.757399
     15 C                     0.485100
     16 O                    -0.642536
     17 N                    -0.235912
     18 H                     0.271004
     19 H                     0.209334
     20 H                     0.180292
     21 H                     0.193017
     22 H                     0.223482
  ----------------------------------------
  Sum of atomic charges =     1.000000

 -----------------------------------------------------------------
                    Cartesian Multipole Moments
 -----------------------------------------------------------------
    Charge (ESU x 10^10)
                 4.8032
    Dipole Moment (Debye)
         X       6.0031      Y      -4.3974      Z       0.1026
       Tot       7.4421
    Quadrupole Moments (Debye-Ang)
        XX     -29.5155     XY     -16.1242     YY     -21.8708
        XZ      -3.4006     YZ      26.5969     ZZ     -34.1623
    Octopole Moments (Debye-Ang^2)
       XXX      59.5064    XXY     -34.6560    XYY      27.2681
       YYY     -25.9824    XXZ       0.9159    XYZ       6.1748
       YYZ      -8.5096    XZZ       4.1640    YZZ      -1.0936
       ZZZ       0.5358
    Hexadecapole Moments (Debye-Ang^3)
      XXXX    -608.1121   XXXY     209.1739   XXYY    -210.4674
      XYYY     205.3433   YYYY   -1082.2085   XXXZ     116.6471
      XXYZ     -72.5186   XYYZ     -28.1714   YYYZ    -173.2666
      XXZZ    -207.4813   XYZZ      82.4469   YYZZ    -154.9379
      XZZZ     125.4299   YZZZ    -261.5816   ZZZZ    -561.9031
 -----------------------------------------------------------------
Archival summary:
1\1\nid00551\SP\ProcedureUnspecified\BasisUnspecified\14413(1+,1)\meili\SunSep2612:58:372021SunSep2612:58:372021\0\\#,ProcedureUnspecified,BasisUnspecified,\\1,1\O\C,1,1.2304\N,2,1.32649,1,122.021\H,3,1.00938,2,118.619,1,6.16396,0\H,3,1.0098,2,119.916,1,176.402,0\C,2,1.51923,1,121.492,3,-179.465,0\H,6,1.08681,2,108.906,1,86.5662,0\H,6,1.09142,2,108.827,1,-157.199,0\H,6,1.1,2,113.345,1,-37.6332,0\H,1,2.04372,2,126.5,3,26.2974,0\N,10,1.01528,1,163.31,2,-37.3918,0\H,11,1.00633,10,120.16,1,11.9558,0\C,11,1.32139,10,119.315,1,-159.934,0\N,13,1.31783,11,118.852,10,173.129,0\H,14,1.00755,13,120.286,11,-178.564,0\H,14,1.00823,13,120.492,11,-0.996619,0\N,13,1.3283,11,121.512,10,-7.65762,0\H,17,1.01002,13,117.435,11,178.842,0\C,17,1.47112,13,125.021,11,1.0027,0\H,19,1.08942,17,109.374,13,-35.5141,0\H,19,1.09229,17,109.314,13,83.6986,0\H,19,1.1,17,112.051,13,-155.207,0\\\@

 Total job time:  30229.00s(wall), 19601.42s(cpu) 
 Sun Sep 26 12:58:39 2021

        *************************************************************
        *                                                           *
        *  Thank you very much for using Q-Chem.  Have a nice day.  *
        *                                                           *
        *************************************************************


