
Running Job 1 of 1 SSI-124ASP-134ARG-1_SMD_TZVPD.in
qchem SSI-124ASP-134ARG-1_SMD_TZVPD.in_44821.0 /tmp/qchem44821/ 0
/global/common/cori/software/qchem/5.2/exe/qcprog.exe_s SSI-124ASP-134ARG-1_SMD_TZVPD.in_44821.0 /tmp/qchem44821/
                  Welcome to Q-Chem
     A Quantum Leap Into The Future Of Chemistry


 Q-Chem 5.2, Q-Chem, Inc., Pleasanton, CA (2019)

 License issued to: National Energy Research Scientific Computing Center

 Yihan Shao,  Zhengting Gan,  E. Epifanovsky,  A. T. B. Gilbert,  M. Wormit,  
 J. Kussmann,  A. W. Lange,  A. Behn,  Jia Deng,  Xintian Feng,  D. Ghosh,  
 M. Goldey,  P. R. Horn,  L. D. Jacobson,  I. Kaliman,  T. Kus,  A. Landau,  
 Jie Liu,  E. I. Proynov,  R. M. Richard,  R. P. Steele,  E. J. Sundstrom,  
 H. L. Woodcock III,  P. M. Zimmerman,  D. Zuev,  B. Albrecht,  E. Alguire,  
 S. A. Baeppler,  D. Barton,  Z. Benda,  Y. A. Bernard,  E. J. Berquist,  
 K. B. Bravaya,  H. Burton,  D. Casanova,  Chun-Min Chang,  Yunqing Chen,  
 A. Chien,  K. D. Closser,  M. P. Coons,  S. Coriani,  S. Dasgupta,  
 A. L. Dempwolff,  M. Diedenhofen,  Hainam Do,  R. G. Edgar,  Po-Tung Fang,  
 S. Faraji,  S. Fatehi,  Qingguo Feng,  K. D. Fenk,  J. Fosso-Tande,  
 J. Gayvert,  Qinghui Ge,  A. Ghysels,  G. Gidofalvi,  J. Gomes,  
 J. Gonthier,  A. Gunina,  D. Hait,  M. W. D. Hanson-Heine,  
 P. H. P. Harbach,  A. W. Hauser,  M. F. Herbst,  J. E. Herr,  
 E. G. Hohenstein,  Z. C. Holden,  Kerwin Hui,  B. C. Huynh,  T.-C. Jagau,  
 Hyunjun Ji,  B. Kaduk,  K. Khistyaev,  Jaehoon Kim,  P. Klunzinger,  K. Koh,  
 D. Kosenkov,  L. Koulias,  T. Kowalczyk,  C. M. Krauter,  A. Kunitsa,  
 Ka Un Lao,  A. Laurent,  K. V. Lawler,  Joonho Lee,  D. Lefrancois,  
 S. Lehtola,  D. S. Levine,  Yi-Pei Li,  You-Sheng Lin,  Fenglai Liu,  
 E. Livshits,  A. Luenser,  P. Manohar,  E. Mansoor,  S. F. Manzer,  
 Shan-Ping Mao,  Yuezhi Mao,  N. Mardirossian,  A. V. Marenich,  
 T. Markovich,  L. A. Martinez-Martinez,  S. A. Maurer,  N. J. Mayhall,  
 S. C. McKenzie,  J.-M. Mewes,  P. Morgante,  A. F. Morrison,  
 J. W. Mullinax,  K. Nanda,  T. S. Nguyen-Beck,  R. Olivares-Amaya,  
 J. A. Parkhill,  Zheng Pei,  T. M. Perrine,  F. Plasser,  P. Pokhilko,  
 S. Prager,  A. Prociuk,  E. Ramos,  D. R. Rehn,  F. Rob,  M. Scheurer,  
 M. Schneider,  N. Sergueev,  S. M. Sharada,  S. Sharma,  D. W. Small,  
 T. Stauch,  T. Stein,  Yu-Chuan Su,  A. J. W. Thom,  A. Tkatchenko,  
 T. Tsuchimochi,  N. M. Tubman,  L. Vogt,  M. L. Vidal,  O. Vydrov,  
 M. A. Watson,  J. Wenzel,  M. de Wergifosse,  T. A. Wesolowski,  A. White,  
 J. Witte,  A. Yamada,  Jun Yang,  K. Yao,  S. Yeganeh,  S. R. Yost,  
 Zhi-Qiang You,  A. Zech,  Igor Ying Zhang,  Xing Zhang,  Yan Zhao,  
 Ying Zhu,  B. R. Brooks,  G. K. L. Chan,  C. J. Cramer,  M. S. Gordon,  
 W. J. Hehre,  A. Klamt,  M. W. Schmidt,  C. D. Sherrill,  D. G. Truhlar,  
 A. Aspuru-Guzik,  R. Baer,  A. T. Bell,  N. A. Besley,  Jeng-Da Chai,  
 A. E. DePrince, III,  R. A. DiStasio Jr.,  A. Dreuw,  B. D. Dunietz,  
 T. R. Furlani,  Chao-Ping Hsu,  Yousung Jung,  Jing Kong,  D. S. Lambrecht,  
 WanZhen Liang,  C. Ochsenfeld,  V. A. Rassolov,  L. V. Slipchenko,  
 J. E. Subotnik,  T. Van Voorhis,  J. M. Herbert,  A. I. Krylov,  
 P. M. W. Gill,  M. Head-Gordon

 Contributors to earlier versions of Q-Chem not listed above: 
 R. D. Adamson,  B. Austin,  J. Baker,  G. J. O. Beran,  K. Brandhorst,  
 S. T. Brown,  E. F. C. Byrd,  A. K. Chakraborty,  C.-L. Cheng,  
 Siu Hung Chien,  D. M. Chipman,  D. L. Crittenden,  H. Dachsel,  
 R. J. Doerksen,  A. D. Dutoi,  L. Fusti-Molnar,  W. A. Goddard III,  
 A. Golubeva-Zadorozhnaya,  S. R. Gwaltney,  G. Hawkins,  A. Heyden,  
 S. Hirata,  G. Kedziora,  F. J. Keil,  C. Kelley,  Jihan Kim,  R. A. King,  
 R. Z. Khaliullin,  P. P. Korambath,  W. Kurlancheek,  A. M. Lee,  M. S. Lee,  
 S. V. Levchenko,  Ching Yeh Lin,  D. Liotard,  R. C. Lochan,  I. Lotan,  
 P. E. Maslen,  N. Nair,  D. P. O'Neill,  D. Neuhauser,  E. Neuscamman,  
 C. M. Oana,  R. Olson,  B. Peters,  R. Peverati,  P. A. Pieniazek,  
 Y. M. Rhee,  J. Ritchie,  M. A. Rohrdanz,  E. Rosta,  N. J. Russ,  
 H. F. Schaefer III,  N. E. Schultz,  N. Shenvi,  A. C. Simmonett,  A. Sodt,  
 D. Stuck,  K. S. Thanthiriwatte,  V. Vanovschi,  Tao Wang,  A. Warshel,  
 C. F. Williams,  Q. Wu,  X. Xu,  W. Zhang

 Please cite Q-Chem as follows:
 Y. Shao et al., Mol. Phys. 113, 184-215 (2015)
 DOI: 10.1080/00268976.2014.952696

 Q-Chem 5.2.0 for Intel X86 EM64T Linux

 Parts of Q-Chem use Armadillo 8.300.2 (Tropical Shenanigans).
 http://arma.sourceforge.net/

 Q-Chem begins on Sun Sep 26 14:09:09 2021  

Host: cori01
0

     Scratch files written to /tmp/qchem44821//
 May1019 |scratch|qcdevops|jenkins|workspace|build_RNUM -1
Processing $rem in /global/common/cori/software/qchem/5.2/config/preferences:
	 MEM_TOTAL  96000 
NAlpha2: 72
NElect   72
Mult     1
Symmetry turned off for PCM/SM12/SMD calculation

 Q-Chem warning in module libgen/rem_setup.C, line 2803:

 Neither GIA nor STOLL is specified by user. Use STOLL as the default


Checking the input file for inconsistencies... 	...done.

--------------------------------------------------------------
User input:
--------------------------------------------------------------
$comment
SSI-124ASP-134ARG-1.pdb
$end

$molecule
0 1
--
-1 1
C   -2.754770278584   -1.766106557172   -1.532989940639
C   -1.887770278584   -0.616106557172   -1.074989940639
O   -1.760770278584   -0.474106557172    0.154010059361
O   -1.321770278584    0.119893442828   -1.917989940639
H   -3.097770278584   -1.588106557172   -2.548989940639
H   -3.634770278584   -1.819106557172   -0.887989940639
H   -2.217877278584   -2.725046557172   -1.486329940639
--
1 1
C    1.079229721416   -0.598106557172    2.448010059361
C    1.649229721416    0.821893442828    0.483010059361
N    0.888229721416   -0.076106557172    1.086010059361
N    1.334229721416    1.220893442828   -0.732989940639
N    2.723229721416    1.310893442828    1.069010059361
H    0.013229721416   -0.320106557172    0.623010059361
H    0.478229721416    0.000893442828    3.135010059361
H    2.122229721416   -0.540106557172    2.767010059361
H    0.471229721416    0.875893442828   -1.150989940639
H    1.857229721416    1.956893442828   -1.175989940639
H    2.956229721416    1.017893442828    2.003010059361
H    3.304229721416    1.985893442828    0.598010059361
H    0.743463721416   -1.643446557172    2.515310059361
$end

$rem
JOBTYPE			EDA
EDA2			1
method			wB97X-V
BASIS			def2-TZVPD
XC_GRID			000099000590
NL_GRID			1
UNRESTRICTED		FALSE
MAX_SCF_CYCLES		200
SYMMETRY		FALSE
SYM_IGNORE		TRUE
MEM_STATIC		2000
BASIS_LIN_DEP_THRESH 	6
THRESH 			14
SCF_CONVERGENCE 	8
SCF_PRINT_FRGM 		TRUE
SOLVENT_METHOD          SMD
$end

$SMX
SOLVENT			WATER
$END
--------------------------------------------------------------
 ----------------------------------------------------------------
             Standard Nuclear Orientation (Angstroms)
    I     Atom           X                Y                Z
 ----------------------------------------------------------------
    1      C      -2.7547702786    -1.7661065572    -1.5329899406
    2      C      -1.8877702786    -0.6161065572    -1.0749899406
    3      O      -1.7607702786    -0.4741065572     0.1540100594
    4      O      -1.3217702786     0.1198934428    -1.9179899406
    5      H      -3.0977702786    -1.5881065572    -2.5489899406
    6      H      -3.6347702786    -1.8191065572    -0.8879899406
    7      H      -2.2178772786    -2.7250465572    -1.4863299406
    8      C       1.0792297214    -0.5981065572     2.4480100594
    9      C       1.6492297214     0.8218934428     0.4830100594
   10      N       0.8882297214    -0.0761065572     1.0860100594
   11      N       1.3342297214     1.2208934428    -0.7329899406
   12      N       2.7232297214     1.3108934428     1.0690100594
   13      H       0.0132297214    -0.3201065572     0.6230100594
   14      H       0.4782297214     0.0008934428     3.1350100594
   15      H       2.1222297214    -0.5401065572     2.7670100594
   16      H       0.4712297214     0.8758934428    -1.1509899406
   17      H       1.8572297214     1.9568934428    -1.1759899406
   18      H       2.9562297214     1.0178934428     2.0030100594
   19      H       3.3042297214     1.9858934428     0.5980100594
   20      H       0.7434637214    -1.6434465572     2.5153100594
 ----------------------------------------------------------------
 Nuclear Repulsion Energy =         464.03597279 hartrees
 There are       36 alpha and       36 beta electrons
 Requested basis set is def2-TZVPD
 There are 174 shells and 438 basis functions

 Total QAlloc Memory Limit  96000 MB
 Mega-Array Size      1956 MB
 MEM_STATIC part      2000 MB
 
 Citation of the SMD model:
 Marenich, A.V.; Cramer, C.J.; Truhlar, D.G.
 J. Phys. Chem. B 2009, 113, 6378-6396.
 iSolventCode=           1
 Solvent: water                                                           
 
 vradii
            1           2           3           4           5           6
    1   1.8500000   1.8500000   1.5200000   1.5200000   1.2000000   1.2000000
            7           8           9          10          11          12
    1   1.2000000   1.8500000   1.8500000   1.8900000   1.8900000   1.8900000
           13          14          15          16          17          18
    1   1.2000000   1.2000000   1.2000000   1.2000000   1.2000000   1.2000000
           19          20
    1   1.2000000   1.2000000
 Changing PCM_VDW_RADII to SMD_RADIUS
 Discretize the solute cavity surface with Lebedev spheres
	Using 110 Lebedev grid points for each H atom
	Using 194 Lebedev grid points for other atoms
	Atomic van der Waals radii will be scaled by 1.20
 Remove points where switching function is < 1.0e-08
 Keep 1498 surface tesserae and discard 1458 interior tesserae
 Molecular Surface Area = 179.456 Angst**2
 A cutoff of  1.0D-14 yielded  13627 shell pairs
 There are     87477 function pairs (    110086 Cartesian)
 Smallest overlap matrix eigenvalue = 8.83E-06

 Scale SEOQF with 1.000000e-01/1.000000e-01/1.000000e-01

 Standard Electronic Orientation quadrupole field applied
 Nucleus-field energy     =    -0.0000000013 hartrees

 -----------------------------------------------------------------------
  General SCF calculation program by
  Eric Jon Sundstrom, Paul Horn, Yuezhi Mao, Dmitri Zuev, Alec White,
  David Stuck, Shaama M.S., Shane Yost, Joonho Lee, David Small,
  Daniel Levine, Susi Lehtola, Hugh Burton, Evgeny Epifanovsky
 -----------------------------------------------------------------------
================================================================
                 ALMO-EDA with the EDA2 driver                  
================================================================
 The second-generation ALMO-EDA (for DFT):                      
 P. R. Horn, Y. Mao and M. Head-Gordon, PCCP, 18, 23067 (2016)  
 Decomposition of the frozen energy:                            
 P. R. Horn, Y. Mao and M. Head-Gordon, JCP, 144, 114107 (2016) 
 FERF model for polarization:                                   
 P. R. Horn and M. Head-Gordon, JCP, 143, 114111 (2015)         
Using eda2 option set 1
Option set summary: Frozen orbital wavefunction, initial wavefunction decomposition, and nDQ polarization.
--------------------------------
Printing EDA Options
--------------------------------
eda_child_super_basis      0
fragmo_guess_mode          0
child_mp                   1
child_mp_orders            232
cls_elec                   1
cls_disp                   0
scfmi_mode                 1
scfmi_occs                 0
scfmi_virts                0
frz_relax                  0
frz_relax_method           0
dc_pen_start               0
dc_pen_conv                0
dc_pen_increment           0
dc_pen_steps               0
dc_pen_thresh_factor       0
dc_pen_pre_newton_thresh   0
frz_ortho_decomp           1
frz_ortho_decomp_conv      6
frgm_method                2
scfmi_freeze_ss            0
separate_rehyb             0
plot_diff_den              0
eda_nocv                   0
eda_vct_relax              1
disp_free_x                0
disp_free_c                0
eda_bsse                   0
eda_pct_a                  0
eda_covp                   0
--------------------------------
Attempting to make child job directory: /tmp/qchem44821//Frg1/
Attempting to make child job directory: /tmp/qchem44821//Frg2/
Creating input file /tmp/qchem44821/Frg1.input
using default PutDataFrgm: nothing
calling putenv with: QCSCRATCH=/tmp/qchem44821/ 
calling putenv with: QCLOCALSCR=/tmp/qchem44821/ 
Spawning Job For Fragment 0
                  Welcome to Q-Chem
     A Quantum Leap Into The Future Of Chemistry


 Q-Chem 5.2, Q-Chem, Inc., Pleasanton, CA (2019)

 License issued to: National Energy Research Scientific Computing Center

 Yihan Shao,  Zhengting Gan,  E. Epifanovsky,  A. T. B. Gilbert,  M. Wormit,  
 J. Kussmann,  A. W. Lange,  A. Behn,  Jia Deng,  Xintian Feng,  D. Ghosh,  
 M. Goldey,  P. R. Horn,  L. D. Jacobson,  I. Kaliman,  T. Kus,  A. Landau,  
 Jie Liu,  E. I. Proynov,  R. M. Richard,  R. P. Steele,  E. J. Sundstrom,  
 H. L. Woodcock III,  P. M. Zimmerman,  D. Zuev,  B. Albrecht,  E. Alguire,  
 S. A. Baeppler,  D. Barton,  Z. Benda,  Y. A. Bernard,  E. J. Berquist,  
 K. B. Bravaya,  H. Burton,  D. Casanova,  Chun-Min Chang,  Yunqing Chen,  
 A. Chien,  K. D. Closser,  M. P. Coons,  S. Coriani,  S. Dasgupta,  
 A. L. Dempwolff,  M. Diedenhofen,  Hainam Do,  R. G. Edgar,  Po-Tung Fang,  
 S. Faraji,  S. Fatehi,  Qingguo Feng,  K. D. Fenk,  J. Fosso-Tande,  
 J. Gayvert,  Qinghui Ge,  A. Ghysels,  G. Gidofalvi,  J. Gomes,  
 J. Gonthier,  A. Gunina,  D. Hait,  M. W. D. Hanson-Heine,  
 P. H. P. Harbach,  A. W. Hauser,  M. F. Herbst,  J. E. Herr,  
 E. G. Hohenstein,  Z. C. Holden,  Kerwin Hui,  B. C. Huynh,  T.-C. Jagau,  
 Hyunjun Ji,  B. Kaduk,  K. Khistyaev,  Jaehoon Kim,  P. Klunzinger,  K. Koh,  
 D. Kosenkov,  L. Koulias,  T. Kowalczyk,  C. M. Krauter,  A. Kunitsa,  
 Ka Un Lao,  A. Laurent,  K. V. Lawler,  Joonho Lee,  D. Lefrancois,  
 S. Lehtola,  D. S. Levine,  Yi-Pei Li,  You-Sheng Lin,  Fenglai Liu,  
 E. Livshits,  A. Luenser,  P. Manohar,  E. Mansoor,  S. F. Manzer,  
 Shan-Ping Mao,  Yuezhi Mao,  N. Mardirossian,  A. V. Marenich,  
 T. Markovich,  L. A. Martinez-Martinez,  S. A. Maurer,  N. J. Mayhall,  
 S. C. McKenzie,  J.-M. Mewes,  P. Morgante,  A. F. Morrison,  
 J. W. Mullinax,  K. Nanda,  T. S. Nguyen-Beck,  R. Olivares-Amaya,  
 J. A. Parkhill,  Zheng Pei,  T. M. Perrine,  F. Plasser,  P. Pokhilko,  
 S. Prager,  A. Prociuk,  E. Ramos,  D. R. Rehn,  F. Rob,  M. Scheurer,  
 M. Schneider,  N. Sergueev,  S. M. Sharada,  S. Sharma,  D. W. Small,  
 T. Stauch,  T. Stein,  Yu-Chuan Su,  A. J. W. Thom,  A. Tkatchenko,  
 T. Tsuchimochi,  N. M. Tubman,  L. Vogt,  M. L. Vidal,  O. Vydrov,  
 M. A. Watson,  J. Wenzel,  M. de Wergifosse,  T. A. Wesolowski,  A. White,  
 J. Witte,  A. Yamada,  Jun Yang,  K. Yao,  S. Yeganeh,  S. R. Yost,  
 Zhi-Qiang You,  A. Zech,  Igor Ying Zhang,  Xing Zhang,  Yan Zhao,  
 Ying Zhu,  B. R. Brooks,  G. K. L. Chan,  C. J. Cramer,  M. S. Gordon,  
 W. J. Hehre,  A. Klamt,  M. W. Schmidt,  C. D. Sherrill,  D. G. Truhlar,  
 A. Aspuru-Guzik,  R. Baer,  A. T. Bell,  N. A. Besley,  Jeng-Da Chai,  
 A. E. DePrince, III,  R. A. DiStasio Jr.,  A. Dreuw,  B. D. Dunietz,  
 T. R. Furlani,  Chao-Ping Hsu,  Yousung Jung,  Jing Kong,  D. S. Lambrecht,  
 WanZhen Liang,  C. Ochsenfeld,  V. A. Rassolov,  L. V. Slipchenko,  
 J. E. Subotnik,  T. Van Voorhis,  J. M. Herbert,  A. I. Krylov,  
 P. M. W. Gill,  M. Head-Gordon

 Contributors to earlier versions of Q-Chem not listed above: 
 R. D. Adamson,  B. Austin,  J. Baker,  G. J. O. Beran,  K. Brandhorst,  
 S. T. Brown,  E. F. C. Byrd,  A. K. Chakraborty,  C.-L. Cheng,  
 Siu Hung Chien,  D. M. Chipman,  D. L. Crittenden,  H. Dachsel,  
 R. J. Doerksen,  A. D. Dutoi,  L. Fusti-Molnar,  W. A. Goddard III,  
 A. Golubeva-Zadorozhnaya,  S. R. Gwaltney,  G. Hawkins,  A. Heyden,  
 S. Hirata,  G. Kedziora,  F. J. Keil,  C. Kelley,  Jihan Kim,  R. A. King,  
 R. Z. Khaliullin,  P. P. Korambath,  W. Kurlancheek,  A. M. Lee,  M. S. Lee,  
 S. V. Levchenko,  Ching Yeh Lin,  D. Liotard,  R. C. Lochan,  I. Lotan,  
 P. E. Maslen,  N. Nair,  D. P. O'Neill,  D. Neuhauser,  E. Neuscamman,  
 C. M. Oana,  R. Olson,  B. Peters,  R. Peverati,  P. A. Pieniazek,  
 Y. M. Rhee,  J. Ritchie,  M. A. Rohrdanz,  E. Rosta,  N. J. Russ,  
 H. F. Schaefer III,  N. E. Schultz,  N. Shenvi,  A. C. Simmonett,  A. Sodt,  
 D. Stuck,  K. S. Thanthiriwatte,  V. Vanovschi,  Tao Wang,  A. Warshel,  
 C. F. Williams,  Q. Wu,  X. Xu,  W. Zhang

 Please cite Q-Chem as follows:
 Y. Shao et al., Mol. Phys. 113, 184-215 (2015)
 DOI: 10.1080/00268976.2014.952696

 Q-Chem 5.2.0 for Intel X86 EM64T Linux

 Parts of Q-Chem use Armadillo 8.300.2 (Tropical Shenanigans).
 http://arma.sourceforge.net/

 Q-Chem begins on Sun Sep 26 14:09:13 2021  

Host: cori01
0

     Scratch files written to /tmp/qchem44821//Frg1//
 May1019 |scratch|qcdevops|jenkins|workspace|build_RNUM -1
Processing $rem in /global/common/cori/software/qchem/5.2/config/preferences:
	 MEM_TOTAL  96000 
NAlpha2: 32
NElect   32
Mult     1
Symmetry turned off for PCM/SM12/SMD calculation

Checking the input file for inconsistencies... 	...done.

--------------------------------------------------------------
User input:
--------------------------------------------------------------
$molecule
-1 1
 6	-2.7547702786	-1.7661065572	-1.5329899406
 6	-1.8877702786	-0.6161065572	-1.0749899406
 8	-1.7607702786	-0.4741065572	0.1540100594
 8	-1.3217702786	0.1198934428	-1.9179899406
 1	-3.0977702786	-1.5881065572	-2.5489899406
 1	-3.6347702786	-1.8191065572	-0.8879899406
 1	-2.2178772786	-2.7250465572	-1.4863299406
$end
$rem
EDA2		1
METHOD		WB97X-V
BASIS		DEF2-TZVPD
XC_GRID		000099000590
NL_GRID		1
UNRESTRICTED		FALSE
MAX_SCF_CYCLES		200
SYMMETRY		FALSE
SYM_IGNORE		TRUE
BASIS_LIN_DEP_THRESH		6
THRESH		14
SCF_CONVERGENCE		8
SCF_PRINT_FRGM		TRUE
SOLVENT_METHOD		SMD
!required keywords
JOBTYPE		SP
SYM_IGNORE		TRUE
SUBSYSTEM		TRUE
GEN_SCFMAN		TRUE
CHILD_INSTRUCTION		2
SYM_IGNORE		TRUE
SCFMI		0
RI_K 0		
PARI_K 0		
MIN_PARI_K 0		
IARI_K 0		
OCC_RI_K 0		
PURECART		1111
MEM_STATIC		2000
MEM_TOTAL		96000
GUI		0
CHILD_MP		1
CHILD_MP_ORDERS		232
FRZ_RELAX		0
FRZ_RELAX_METHOD		0
EDA_CLS_ELEC		1
EDA_CLS_DISP		0
FRZ_ORTHO_DECOMP		1
EDA2		FALSE
FRGM_METHOD		FALSE
CIS_N_ROOTS  0
LOCAL_CIS    0
CIS_RLX_DNS  1
$end
$smx
SOLVENT			WATER
$end
--------------------------------------------------------------
 ----------------------------------------------------------------
             Standard Nuclear Orientation (Angstroms)
    I     Atom           X                Y                Z
 ----------------------------------------------------------------
    1      C      -2.7547702786    -1.7661065572    -1.5329899406
    2      C      -1.8877702786    -0.6161065572    -1.0749899406
    3      O      -1.7607702786    -0.4741065572     0.1540100594
    4      O      -1.3217702786     0.1198934428    -1.9179899406
    5      H      -3.0977702786    -1.5881065572    -2.5489899406
    6      H      -3.6347702786    -1.8191065572    -0.8879899406
    7      H      -2.2178772786    -2.7250465572    -1.4863299406
 ----------------------------------------------------------------
 Nuclear Repulsion Energy =         113.01990073 hartrees
 There are       16 alpha and       16 beta electrons
 Requested basis set is def2-TZVPD
 There are 69 shells and 181 basis functions

 Total QAlloc Memory Limit  96000 MB
 Mega-Array Size      1956 MB
 MEM_STATIC part      2000 MB
 
 Citation of the SMD model:
 Marenich, A.V.; Cramer, C.J.; Truhlar, D.G.
 J. Phys. Chem. B 2009, 113, 6378-6396.
 iSolventCode=           1
 Solvent: water                                                           
 
 vradii
            1           2           3           4           5           6
    1   1.8500000   1.8500000   1.5200000   1.5200000   1.2000000   1.2000000
            7
    1   1.2000000
 Changing PCM_VDW_RADII to SMD_RADIUS
 Discretize the solute cavity surface with Lebedev spheres
	Using 110 Lebedev grid points for each H atom
	Using 194 Lebedev grid points for other atoms
	Atomic van der Waals radii will be scaled by 1.20
 Remove points where switching function is < 1.0e-08
 Keep 639 surface tesserae and discard 467 interior tesserae
 Molecular Surface Area = 79.614 Angst**2

                       Distance Matrix (Angstroms)
             C (  1)   C (  2)   O (  3)   O (  4)   H (  5)   H (  6)
   C (  2)  1.511275
   O (  3)  2.345905  1.243678
   O (  4)  2.399731  1.254074  2.199714
   H (  5)  1.087009  2.140458  3.214774  2.543541
   H (  6)  1.092353  2.129363  2.531139  3.189136  1.760867
   H (  7)  1.099999  2.173890  2.822480  3.013805  1.787761  1.785028

 
 A cutoff of  1.0D-14 yielded   2391 shell pairs
 There are     16695 function pairs (     21491 Cartesian)
 Smallest overlap matrix eigenvalue = 1.61E-05

 Scale SEOQF with 1.000000e-01/1.000000e-01/1.000000e-01

 Standard Electronic Orientation quadrupole field applied
 Nucleus-field energy     =     0.0000000009 hartrees
 Guess from superposition of atomic densities
 Warning:  Energy on first SCF cycle will be non-variational
 SAD guess density has 30.625312 electrons

 -----------------------------------------------------------------------
  General SCF calculation program by
  Eric Jon Sundstrom, Paul Horn, Yuezhi Mao, Dmitri Zuev, Alec White,
  David Stuck, Shaama M.S., Shane Yost, Joonho Lee, David Small,
  Daniel Levine, Susi Lehtola, Hugh Burton, Evgeny Epifanovsky
 -----------------------------------------------------------------------
 Exchange:     0.1670 Hartree-Fock + 1.0000 wB97X-V + LR-HF
 Correlation:  1.0000 wB97X-V
 Using Euler-Maclaurin-Lebedev (99,590) quadrature formula
 Nonlocal Correlation:  VV10 with C = 0.0100 and b = 6.00 and scale = 1.00000
 Grid used for NLC:  SG-1 standard quadrature
Energy prior to optimization (guess energy) = -227.765494107310
Begin Timing: Total SCF Calculation
begin iterations for algorithm: DIIS         
the SCF tolerance is set to 1.00e-08
    1    -227.7654941073      1.66e-02     00000 
    2    -225.6432014771      2.49e-02     00000 
    3    -228.6062484205      4.07e-03     00000 
    4    -228.6589781382      1.37e-03     00000 
    5    -228.6648306055      2.45e-04     00000 
    6    -228.6650745972      1.62e-04     00000 
    7    -228.6651426305      5.39e-05     00000 
    8    -228.6651529979      1.30e-05     00000 
    9    -228.6651540756      3.64e-06     00000 
   10    -228.6651541780      1.07e-06     00000 
   11    -228.6651541872      2.14e-07     00000 
   12    -228.6651541875      4.72e-08     00000 
   13    -228.6651541875      1.13e-08     00000 
   14    -228.6651541875      2.82e-09     00000 Convergence criterion met
Timing for Total SCF: 279.00s (wall), 531.04s (cpu)
(3)  G-ENP(liq) elect-nuc-pol free energy of system     -228.665154188 a.u.
(4)  G-CDS(liq) cavity-dispersion-solvent structure 
     free energy                                                3.9066 kcal/mol
(6)  G-S(liq) free energy of system                     -228.658928600 a.u.
E_pcm = -0.1306598274
E_cds = 0.0062255873
Multipole orders to be included
        2
        3
computing dipole RHS
computing quadrupole RHS
total number of RHS in solve_reponses: 8
RHS batch sizes
        8
Beginning Block Conjugate Gradient Iterations. Batch Number: 0
computing hessian-vector products by finite difference
              1      7.54e-01     00000 Conjugate Gradient Iteration
computing hessian-vector products by finite difference
              2      2.39e-01     00000 Conjugate Gradient Iteration
computing hessian-vector products by finite difference
              3      6.56e-02     00000 Conjugate Gradient Iteration
computing hessian-vector products by finite difference
              4      1.75e-02     00000 Conjugate Gradient Iteration
computing hessian-vector products by finite difference
              5      2.60e-03     00000 Conjugate Gradient Iteration
computing hessian-vector products by finite difference
              6      6.88e-04     00000 Conjugate Gradient Iteration
computing hessian-vector products by finite difference
              7      9.82e-05     00000 Conjugate Gradient Iteration
computing hessian-vector products by finite difference
              8      1.21e-05     00000 Conjugate Gradient Iteration
computing hessian-vector products by finite difference
              9      1.85e-06     00000 Conjugate Gradient Iteration
computing hessian-vector products by finite difference
             10      1.82e-07     00000 Conjugate Gradient Iteration
computing hessian-vector products by finite difference
             11      2.56e-08     00000 Conjugate Gradient Iteration
computing hessian-vector products by finite difference
             12      4.16e-09     00000 CG Converged
batch 0 complete
Done Calculating Responses
TESTING ORTHOGONALIZATION OF MULTIPOLE BASIS
Multipole virts passed orthogonality test
Virts Per Order
        48
        80
 
 --------------------------------------------------------------
 
                    Orbital Energies (a.u.)
 --------------------------------------------------------------
 
 Alpha MOs
 -- Occupied --
-19.1532 -19.1517 -10.3522 -10.2446  -1.1666  -1.0668  -0.8412  -0.6172
 -0.5492  -0.5465  -0.5424  -0.4811  -0.4632  -0.3658  -0.3570  -0.3448
 -- Virtual --
  0.0670   0.0999   0.1011   0.1071   0.1354   0.1438   0.1466   0.1503
  0.1566   0.1898   0.2057   0.2235   0.2364   0.2387   0.2580   0.2670
  0.2977   0.3150   0.3335   0.3477   0.3568   0.3624   0.3746   0.3798
  0.3854   0.4072   0.4162   0.4233   0.4305   0.4547   0.4667   0.4724
  0.4849   0.4927   0.5039   0.5077   0.5504   0.5661   0.5786   0.6015
  0.6185   0.6248   0.6319   0.6414   0.6501   0.6728   0.6857   0.6870
  0.7078   0.7233   0.7786   0.7931   0.8006   0.8099   0.8349   0.8488
  0.8601   0.9565   0.9789   0.9870   0.9931   1.0274   1.0476   1.0912
  1.1457   1.2094   1.2471   1.2545   1.2611   1.3012   1.3414   1.3684
  1.4275   1.5445   1.5859   1.7367   1.8062   1.8517   1.8583   1.8933
  1.9200   1.9276   1.9465   1.9642   2.0022   2.1008   2.1190   2.1793
  2.1955   2.2056   2.2986   2.3246   2.4012   2.4232   2.4538   2.4741
  2.5609   2.5930   2.6043   2.6435   2.7960   2.8137   2.8585   2.8982
  2.9375   2.9939   3.0428   3.1292   3.2133   3.2454   3.2536   3.2784
  3.3320   3.3483   3.3778   3.3925   3.4137   3.5276   3.5683   3.5744
  3.5907   3.6425   3.6894   3.7322   3.7448   3.8540   3.9609   4.0523
  4.0884   4.1787   4.3201   4.5476   4.6389   4.6676   4.7708   4.8067
  4.9775   5.2966   5.3258   5.3333   5.3443   5.4765   5.6900   5.7367
  5.7934   5.9972   6.2254   6.3091   6.3341   6.5994   6.6036   6.6837
  6.7167   6.7281   6.9346   6.9471   7.0170   7.2140   7.3386   7.3554
  7.3873  22.5972  23.7390  44.1859  44.3456
 --------------------------------------------------------------
 
          Ground-State Mulliken Net Atomic Charges

     Atom                 Charge (a.u.)
  ----------------------------------------
      1 C                    -0.592174
      2 C                     0.502548
      3 O                    -0.765666
      4 O                    -0.779165
      5 H                     0.213669
      6 H                     0.213679
      7 H                     0.207109
  ----------------------------------------
  Sum of atomic charges =    -1.000000

 -----------------------------------------------------------------
                    Cartesian Multipole Moments
 -----------------------------------------------------------------
    Charge (ESU x 10^10)
                -4.8032
    Dipole Moment (Debye)
         X       6.0624      Y      -0.8953      Z       3.5781
       Tot       7.0963
    Quadrupole Moments (Debye-Ang)
        XX     -32.4214     XY       1.3022     YY     -24.6885
        XZ      -2.2023     YZ       3.8109     ZZ     -37.4864
    Octopole Moments (Debye-Ang^2)
       XXX     156.0943    XXY      16.4716    XYY      49.4049
       YYY      53.6857    XXZ      26.4437    XYZ      -6.3727
       YYZ      26.0718    XZZ      63.7163    YZZ      15.0382
       ZZZ     112.1667
    Hexadecapole Moments (Debye-Ang^3)
      XXXX    -672.9963   XXXY    -139.3464   XXYY    -147.8843
      XYYY    -143.6345   YYYY    -196.7808   XXXZ    -159.8706
      XXYZ     -12.0100   XYYZ     -54.3415   YYYZ     -62.5377
      XXZZ    -180.4707   XYZZ     -41.9105   YYZZ     -88.1952
      XZZZ    -202.2576   YZZZ     -61.9311   ZZZZ    -383.2354
 -----------------------------------------------------------------
Archival summary:
1\1\nid00558\SP\ProcedureUnspecified\BasisUnspecified\223(1-,1)\meili\SunSep2615:26:412021SunSep2615:26:412021\0\\#,ProcedureUnspecified,BasisUnspecified,\\-1,1\C\O,1,1.24368\O,1,1.25407,2,123.448\C,1,1.51128,2,116.42,3,178.664,0\H,4,1.08701,1,109.857,2,158.937,0\H,4,1.09235,1,108.671,2,41.2234,0\H,4,1.1,1,111.747,2,-79.1152,0\\\@

 Total job time:  4649.23s(wall), 8644.60s(cpu) 
 Sun Sep 26 15:26:42 2021

        *************************************************************
        *                                                           *
        *  Thank you very much for using Q-Chem.  Have a nice day.  *
        *                                                           *
        *************************************************************


Done Job For Fragment 0
calling putenv with: QCSCRATCH=/global/cscratch1/sd/meili 
calling putenv with: QCLOCALSCR=/tmp 
calling putenv with: QCTHREADS=32 
Creating input file /tmp/qchem44821/Frg2.input
using default PutDataFrgm: nothing
calling putenv with: QCSCRATCH=/tmp/qchem44821/ 
calling putenv with: QCLOCALSCR=/tmp/qchem44821/ 
Spawning Job For Fragment 1
                  Welcome to Q-Chem
     A Quantum Leap Into The Future Of Chemistry


 Q-Chem 5.2, Q-Chem, Inc., Pleasanton, CA (2019)

 License issued to: National Energy Research Scientific Computing Center

 Yihan Shao,  Zhengting Gan,  E. Epifanovsky,  A. T. B. Gilbert,  M. Wormit,  
 J. Kussmann,  A. W. Lange,  A. Behn,  Jia Deng,  Xintian Feng,  D. Ghosh,  
 M. Goldey,  P. R. Horn,  L. D. Jacobson,  I. Kaliman,  T. Kus,  A. Landau,  
 Jie Liu,  E. I. Proynov,  R. M. Richard,  R. P. Steele,  E. J. Sundstrom,  
 H. L. Woodcock III,  P. M. Zimmerman,  D. Zuev,  B. Albrecht,  E. Alguire,  
 S. A. Baeppler,  D. Barton,  Z. Benda,  Y. A. Bernard,  E. J. Berquist,  
 K. B. Bravaya,  H. Burton,  D. Casanova,  Chun-Min Chang,  Yunqing Chen,  
 A. Chien,  K. D. Closser,  M. P. Coons,  S. Coriani,  S. Dasgupta,  
 A. L. Dempwolff,  M. Diedenhofen,  Hainam Do,  R. G. Edgar,  Po-Tung Fang,  
 S. Faraji,  S. Fatehi,  Qingguo Feng,  K. D. Fenk,  J. Fosso-Tande,  
 J. Gayvert,  Qinghui Ge,  A. Ghysels,  G. Gidofalvi,  J. Gomes,  
 J. Gonthier,  A. Gunina,  D. Hait,  M. W. D. Hanson-Heine,  
 P. H. P. Harbach,  A. W. Hauser,  M. F. Herbst,  J. E. Herr,  
 E. G. Hohenstein,  Z. C. Holden,  Kerwin Hui,  B. C. Huynh,  T.-C. Jagau,  
 Hyunjun Ji,  B. Kaduk,  K. Khistyaev,  Jaehoon Kim,  P. Klunzinger,  K. Koh,  
 D. Kosenkov,  L. Koulias,  T. Kowalczyk,  C. M. Krauter,  A. Kunitsa,  
 Ka Un Lao,  A. Laurent,  K. V. Lawler,  Joonho Lee,  D. Lefrancois,  
 S. Lehtola,  D. S. Levine,  Yi-Pei Li,  You-Sheng Lin,  Fenglai Liu,  
 E. Livshits,  A. Luenser,  P. Manohar,  E. Mansoor,  S. F. Manzer,  
 Shan-Ping Mao,  Yuezhi Mao,  N. Mardirossian,  A. V. Marenich,  
 T. Markovich,  L. A. Martinez-Martinez,  S. A. Maurer,  N. J. Mayhall,  
 S. C. McKenzie,  J.-M. Mewes,  P. Morgante,  A. F. Morrison,  
 J. W. Mullinax,  K. Nanda,  T. S. Nguyen-Beck,  R. Olivares-Amaya,  
 J. A. Parkhill,  Zheng Pei,  T. M. Perrine,  F. Plasser,  P. Pokhilko,  
 S. Prager,  A. Prociuk,  E. Ramos,  D. R. Rehn,  F. Rob,  M. Scheurer,  
 M. Schneider,  N. Sergueev,  S. M. Sharada,  S. Sharma,  D. W. Small,  
 T. Stauch,  T. Stein,  Yu-Chuan Su,  A. J. W. Thom,  A. Tkatchenko,  
 T. Tsuchimochi,  N. M. Tubman,  L. Vogt,  M. L. Vidal,  O. Vydrov,  
 M. A. Watson,  J. Wenzel,  M. de Wergifosse,  T. A. Wesolowski,  A. White,  
 J. Witte,  A. Yamada,  Jun Yang,  K. Yao,  S. Yeganeh,  S. R. Yost,  
 Zhi-Qiang You,  A. Zech,  Igor Ying Zhang,  Xing Zhang,  Yan Zhao,  
 Ying Zhu,  B. R. Brooks,  G. K. L. Chan,  C. J. Cramer,  M. S. Gordon,  
 W. J. Hehre,  A. Klamt,  M. W. Schmidt,  C. D. Sherrill,  D. G. Truhlar,  
 A. Aspuru-Guzik,  R. Baer,  A. T. Bell,  N. A. Besley,  Jeng-Da Chai,  
 A. E. DePrince, III,  R. A. DiStasio Jr.,  A. Dreuw,  B. D. Dunietz,  
 T. R. Furlani,  Chao-Ping Hsu,  Yousung Jung,  Jing Kong,  D. S. Lambrecht,  
 WanZhen Liang,  C. Ochsenfeld,  V. A. Rassolov,  L. V. Slipchenko,  
 J. E. Subotnik,  T. Van Voorhis,  J. M. Herbert,  A. I. Krylov,  
 P. M. W. Gill,  M. Head-Gordon

 Contributors to earlier versions of Q-Chem not listed above: 
 R. D. Adamson,  B. Austin,  J. Baker,  G. J. O. Beran,  K. Brandhorst,  
 S. T. Brown,  E. F. C. Byrd,  A. K. Chakraborty,  C.-L. Cheng,  
 Siu Hung Chien,  D. M. Chipman,  D. L. Crittenden,  H. Dachsel,  
 R. J. Doerksen,  A. D. Dutoi,  L. Fusti-Molnar,  W. A. Goddard III,  
 A. Golubeva-Zadorozhnaya,  S. R. Gwaltney,  G. Hawkins,  A. Heyden,  
 S. Hirata,  G. Kedziora,  F. J. Keil,  C. Kelley,  Jihan Kim,  R. A. King,  
 R. Z. Khaliullin,  P. P. Korambath,  W. Kurlancheek,  A. M. Lee,  M. S. Lee,  
 S. V. Levchenko,  Ching Yeh Lin,  D. Liotard,  R. C. Lochan,  I. Lotan,  
 P. E. Maslen,  N. Nair,  D. P. O'Neill,  D. Neuhauser,  E. Neuscamman,  
 C. M. Oana,  R. Olson,  B. Peters,  R. Peverati,  P. A. Pieniazek,  
 Y. M. Rhee,  J. Ritchie,  M. A. Rohrdanz,  E. Rosta,  N. J. Russ,  
 H. F. Schaefer III,  N. E. Schultz,  N. Shenvi,  A. C. Simmonett,  A. Sodt,  
 D. Stuck,  K. S. Thanthiriwatte,  V. Vanovschi,  Tao Wang,  A. Warshel,  
 C. F. Williams,  Q. Wu,  X. Xu,  W. Zhang

 Please cite Q-Chem as follows:
 Y. Shao et al., Mol. Phys. 113, 184-215 (2015)
 DOI: 10.1080/00268976.2014.952696

 Q-Chem 5.2.0 for Intel X86 EM64T Linux

 Parts of Q-Chem use Armadillo 8.300.2 (Tropical Shenanigans).
 http://arma.sourceforge.net/

 Q-Chem begins on Sun Sep 26 15:26:46 2021  

Host: cori01
0

     Scratch files written to /tmp/qchem44821//Frg2//
 May1019 |scratch|qcdevops|jenkins|workspace|build_RNUM -1
Processing $rem in /global/common/cori/software/qchem/5.2/config/preferences:
	 MEM_TOTAL  96000 
NAlpha2: 40
NElect   40
Mult     1
Symmetry turned off for PCM/SM12/SMD calculation

Checking the input file for inconsistencies... 	...done.

--------------------------------------------------------------
User input:
--------------------------------------------------------------
$molecule
1 1
 6	1.0792297214	-0.5981065572	2.4480100594
 6	1.6492297214	0.8218934428	0.4830100594
 7	0.8882297214	-0.0761065572	1.0860100594
 7	1.3342297214	1.2208934428	-0.7329899406
 7	2.7232297214	1.3108934428	1.0690100594
 1	0.0132297214	-0.3201065572	0.6230100594
 1	0.4782297214	0.0008934428	3.1350100594
 1	2.1222297214	-0.5401065572	2.7670100594
 1	0.4712297214	0.8758934428	-1.1509899406
 1	1.8572297214	1.9568934428	-1.1759899406
 1	2.9562297214	1.0178934428	2.0030100594
 1	3.3042297214	1.9858934428	0.5980100594
 1	0.7434637214	-1.6434465572	2.5153100594
$end
$rem
EDA2		1
METHOD		WB97X-V
BASIS		DEF2-TZVPD
XC_GRID		000099000590
NL_GRID		1
UNRESTRICTED		FALSE
MAX_SCF_CYCLES		200
SYMMETRY		FALSE
SYM_IGNORE		TRUE
BASIS_LIN_DEP_THRESH		6
THRESH		14
SCF_CONVERGENCE		8
SCF_PRINT_FRGM		TRUE
SOLVENT_METHOD		SMD
!required keywords
JOBTYPE		SP
SYM_IGNORE		TRUE
SUBSYSTEM		TRUE
GEN_SCFMAN		TRUE
CHILD_INSTRUCTION		2
SYM_IGNORE		TRUE
SCFMI		0
RI_K 0		
PARI_K 0		
MIN_PARI_K 0		
IARI_K 0		
OCC_RI_K 0		
PURECART		1111
MEM_STATIC		2000
MEM_TOTAL		96000
GUI		0
CHILD_MP		1
CHILD_MP_ORDERS		232
FRZ_RELAX		0
FRZ_RELAX_METHOD		0
EDA_CLS_ELEC		1
EDA_CLS_DISP		0
FRZ_ORTHO_DECOMP		1
EDA2		FALSE
FRGM_METHOD		FALSE
CIS_N_ROOTS  0
LOCAL_CIS    0
CIS_RLX_DNS  1
$end
$smx
SOLVENT			WATER
$end
--------------------------------------------------------------
 ----------------------------------------------------------------
             Standard Nuclear Orientation (Angstroms)
    I     Atom           X                Y                Z
 ----------------------------------------------------------------
    1      C       1.0792297214    -0.5981065572     2.4480100594
    2      C       1.6492297214     0.8218934428     0.4830100594
    3      N       0.8882297214    -0.0761065572     1.0860100594
    4      N       1.3342297214     1.2208934428    -0.7329899406
    5      N       2.7232297214     1.3108934428     1.0690100594
    6      H       0.0132297214    -0.3201065572     0.6230100594
    7      H       0.4782297214     0.0008934428     3.1350100594
    8      H       2.1222297214    -0.5401065572     2.7670100594
    9      H       0.4712297214     0.8758934428    -1.1509899406
   10      H       1.8572297214     1.9568934428    -1.1759899406
   11      H       2.9562297214     1.0178934428     2.0030100594
   12      H       3.3042297214     1.9858934428     0.5980100594
   13      H       0.7434637214    -1.6434465572     2.5153100594
 ----------------------------------------------------------------
 Nuclear Repulsion Energy =         194.08038123 hartrees
 There are       20 alpha and       20 beta electrons
 Requested basis set is def2-TZVPD
 There are 105 shells and 257 basis functions

 Total QAlloc Memory Limit  96000 MB
 Mega-Array Size      1956 MB
 MEM_STATIC part      2000 MB
 
 Citation of the SMD model:
 Marenich, A.V.; Cramer, C.J.; Truhlar, D.G.
 J. Phys. Chem. B 2009, 113, 6378-6396.
 iSolventCode=           1
 Solvent: water                                                           
 
 vradii
            1           2           3           4           5           6
    1   1.8500000   1.8500000   1.8900000   1.8900000   1.8900000   1.2000000
            7           8           9          10          11          12
    1   1.2000000   1.2000000   1.2000000   1.2000000   1.2000000   1.2000000
           13
    1   1.2000000
 Changing PCM_VDW_RADII to SMD_RADIUS
 Discretize the solute cavity surface with Lebedev spheres
	Using 110 Lebedev grid points for each H atom
	Using 194 Lebedev grid points for other atoms
	Atomic van der Waals radii will be scaled by 1.20
 Remove points where switching function is < 1.0e-08
 Keep 918 surface tesserae and discard 932 interior tesserae
 Molecular Surface Area = 113.531 Angst**2

                       Distance Matrix (Angstroms)
             C (  1)   C (  2)   N (  3)   N (  4)   N (  5)   H (  6)
   C (  2)  2.490487
   N (  3)  1.471057  1.322548
   N (  4)  3.673220  1.317984  2.278132
   N (  5)  2.872048  1.317571  2.300279  2.276977
   H (  6)  2.131728  2.000065  1.019573  2.440995  3.194241
   H (  7)  1.091774  3.013036  2.091036  4.145185  3.320313  2.574764
   H (  8)  1.092233  2.701005  2.136308  3.996507  2.582752  3.015463
   H (  9)  3.936387  2.015082  2.466650  1.019077  3.192042  2.187980
   H ( 10)  4.501854  2.020834  3.191973  1.005721  2.491445  3.438236
   H ( 11)  2.516468  2.014216  2.512837  3.187129  1.006228  3.515095
   H ( 12)  3.879456  2.026609  3.213572  2.497536  1.007485  4.018575
   H ( 13)  1.100002  3.320927  2.126126  4.370915  3.839190  2.421832
             H (  7)   H (  8)   H (  9)   H ( 10)   H ( 11)   H ( 12)
   H (  8)  1.769418
   H (  9)  4.374411  4.481248
   H ( 10)  4.930750  4.674664  1.757891
   H ( 11)  2.907954  1.925257  4.017848  3.492215
   H ( 12)  4.285192  3.533038  3.509557  2.289482  1.741308
   H ( 13)  1.777141  1.783734  4.456786  5.275284  3.498788  4.837941

 
 A cutoff of  1.0D-14 yielded   5440 shell pairs
 There are     33176 function pairs (     41512 Cartesian)
 Smallest overlap matrix eigenvalue = 1.54E-05

 Scale SEOQF with 1.000000e-01/1.000000e-01/1.000000e-01

 Standard Electronic Orientation quadrupole field applied
 Nucleus-field energy     =    -0.0000000022 hartrees
 Guess from superposition of atomic densities
 Warning:  Energy on first SCF cycle will be non-variational
 SAD guess density has 40.388232 electrons

 -----------------------------------------------------------------------
  General SCF calculation program by
  Eric Jon Sundstrom, Paul Horn, Yuezhi Mao, Dmitri Zuev, Alec White,
  David Stuck, Shaama M.S., Shane Yost, Joonho Lee, David Small,
  Daniel Levine, Susi Lehtola, Hugh Burton, Evgeny Epifanovsky
 -----------------------------------------------------------------------
 Exchange:     0.1670 Hartree-Fock + 1.0000 wB97X-V + LR-HF
 Correlation:  1.0000 wB97X-V
 Using Euler-Maclaurin-Lebedev (99,590) quadrature formula
 Nonlocal Correlation:  VV10 with C = 0.0100 and b = 6.00 and scale = 1.00000
 Grid used for NLC:  SG-1 standard quadrature
Energy prior to optimization (guess energy) = -244.724322704626
Begin Timing: Total SCF Calculation
begin iterations for algorithm: DIIS         
the SCF tolerance is set to 1.00e-08
    1    -244.7243227046      7.93e-03     00000 
    2    -244.9642820291      6.23e-03     00000 
    3    -245.2041640151      3.26e-04     00000 
    4    -245.2051158290      1.69e-04     00000 
    5    -245.2053400291      4.67e-05     00000 
    6    -245.2053588773      1.94e-05     00000 
    7    -245.2053620006      3.42e-06     00000 
    8    -245.2053621991      9.47e-07     00000 
    9    -245.2053622132      3.87e-07     00000 
   10    -245.2053622157      1.02e-07     00000 
   11    -245.2053622159      3.80e-08     00000 
   12    -245.2053622160      1.86e-08     00000 
   13    -245.2053622160      2.30e-09     00000 Convergence criterion met
Timing for Total SCF: 750.00s (wall), 1410.23s (cpu)
(3)  G-ENP(liq) elect-nuc-pol free energy of system     -245.205362216 a.u.
(4)  G-CDS(liq) cavity-dispersion-solvent structure 
     free energy                                                2.7752 kcal/mol
(6)  G-S(liq) free energy of system                     -245.200939624 a.u.
E_pcm = -0.1086992532
E_cds = 0.0044225921
Multipole orders to be included
        2
        3
computing dipole RHS
computing quadrupole RHS
total number of RHS in solve_reponses: 8
RHS batch sizes
        8
Beginning Block Conjugate Gradient Iterations. Batch Number: 0
computing hessian-vector products by finite difference
              1      4.69e-01     00000 Conjugate Gradient Iteration
computing hessian-vector products by finite difference
              2      1.71e-01     00000 Conjugate Gradient Iteration
computing hessian-vector products by finite difference
              3      4.92e-02     00000 Conjugate Gradient Iteration
computing hessian-vector products by finite difference
              4      1.30e-02     00000 Conjugate Gradient Iteration
computing hessian-vector products by finite difference
              5      1.67e-03     00000 Conjugate Gradient Iteration
computing hessian-vector products by finite difference
              6      2.77e-04     00000 Conjugate Gradient Iteration
computing hessian-vector products by finite difference
              7      3.66e-05     00000 Conjugate Gradient Iteration
computing hessian-vector products by finite difference
              8      5.28e-06     00000 Conjugate Gradient Iteration
computing hessian-vector products by finite difference
              9      8.11e-07     00000 Conjugate Gradient Iteration
computing hessian-vector products by finite difference
             10      9.91e-08     00000 Conjugate Gradient Iteration
computing hessian-vector products by finite difference
             11      1.07e-08     00000 Conjugate Gradient Iteration
computing hessian-vector products by finite difference
             12      1.45e-09     00000 CG Converged
batch 0 complete
Done Calculating Responses
TESTING ORTHOGONALIZATION OF MULTIPOLE BASIS
Multipole virts passed orthogonality test
Virts Per Order
           60
          100
 
 --------------------------------------------------------------
 
                    Orbital Energies (a.u.)
 --------------------------------------------------------------
 
 Alpha MOs
 -- Occupied --
-14.4555 -14.4471 -14.4452 -10.4214 -10.3067  -1.1738  -1.0541  -1.0426
 -0.8532  -0.7641  -0.7214  -0.6886  -0.6170  -0.6095  -0.5949  -0.5688
 -0.5260  -0.5094  -0.3993  -0.3754
 -- Virtual --
  0.0584   0.0853   0.0985   0.1045   0.1236   0.1281   0.1384   0.1528
  0.1710   0.1770   0.1958   0.1980   0.2034   0.2115   0.2230   0.2378
  0.2413   0.2465   0.2487   0.2708   0.2802   0.2852   0.3000   0.3076
  0.3088   0.3211   0.3248   0.3256   0.3360   0.3483   0.3519   0.3608
  0.3681   0.3727   0.3781   0.3912   0.4112   0.4129   0.4211   0.4295
  0.4388   0.4478   0.4608   0.4632   0.4772   0.4825   0.4941   0.5002
  0.5044   0.5149   0.5169   0.5242   0.5314   0.5432   0.5494   0.5546
  0.5613   0.5733   0.5851   0.5971   0.6049   0.6223   0.6352   0.6436
  0.6649   0.6767   0.6905   0.7072   0.7294   0.7344   0.7424   0.7714
  0.7996   0.8026   0.8081   0.8236   0.8373   0.8437   0.8582   0.8672
  0.8735   0.8852   0.8964   0.9330   0.9415   0.9828   0.9895   0.9981
  1.0300   1.0639   1.0804   1.0889   1.1101   1.1144   1.1270   1.1543
  1.1643   1.1952   1.2248   1.2610   1.2720   1.3395   1.3566   1.4138
  1.4252   1.4507   1.4854   1.5048   1.5575   1.5772   1.6302   1.6736
  1.6911   1.7152   1.7546   1.7861   1.8361   1.8566   1.8752   1.8818
  1.9158   1.9313   1.9517   1.9694   2.0032   2.0241   2.0347   2.0540
  2.0841   2.1176   2.1591   2.2102   2.2320   2.2629   2.2756   2.2979
  2.3157   2.3621   2.3725   2.4186   2.4369   2.4853   2.5090   2.5208
  2.5684   2.6087   2.6198   2.6325   2.6483   2.6709   2.7059   2.7343
  2.7805   2.8104   2.8443   2.8689   2.8953   2.9187   2.9437   2.9609
  3.0373   3.1232   3.1402   3.1616   3.1778   3.2020   3.2284   3.2449
  3.2810   3.2876   3.2955   3.3195   3.3844   3.3873   3.4292   3.4484
  3.4965   3.5176   3.5266   3.5693   3.5939   3.6636   3.7271   3.7564
  3.8061   3.8990   3.9106   3.9967   4.0397   4.1343   4.1733   4.2163
  4.2634   4.3160   4.3371   4.3756   4.4654   4.4949   4.5481   4.6162
  4.6610   4.8448   4.8679   4.8779   4.9252   4.9979   5.0250   5.0537
  5.1159   5.1252   5.1296   5.1700   5.2037   5.2255   5.2830   5.3421
  5.3951   5.4171   5.4371   5.4758   5.4985   5.5086   5.5833   5.6628
  5.7083   5.7727   5.8057   5.9014   6.1383   6.2099   6.3728   6.4926
 22.6367  23.6678  32.3393  32.4488  32.8283
 --------------------------------------------------------------
 
          Ground-State Mulliken Net Atomic Charges

     Atom                 Charge (a.u.)
  ----------------------------------------
      1 C                    -0.775957
      2 C                     0.466759
      3 N                    -0.130432
      4 N                    -0.312870
      5 N                    -0.269972
      6 H                     0.272561
      7 H                     0.260629
      8 H                     0.308026
      9 H                     0.257647
     10 H                     0.244366
     11 H                     0.176982
     12 H                     0.244367
     13 H                     0.257894
  ----------------------------------------
  Sum of atomic charges =     1.000000

 -----------------------------------------------------------------
                    Cartesian Multipole Moments
 -----------------------------------------------------------------
    Charge (ESU x 10^10)
                 4.8032
    Dipole Moment (Debye)
         X       7.3975      Y       3.9649      Z       3.0244
       Tot       8.9214
    Quadrupole Moments (Debye-Ang)
        XX      -9.0006     XY      12.9323     YY     -21.1019
        XZ       7.7418     YZ      -3.5247     ZZ     -16.3683
    Octopole Moments (Debye-Ang^2)
       XXX     -74.5028    XXY      24.2846    XYY     -20.8680
       YYY     -31.5805    XXZ      -5.0878    XYZ       0.1500
       YYZ     -30.8336    XZZ     -22.1364    YZZ     -12.0775
       ZZZ     -59.9724
    Hexadecapole Moments (Debye-Ang^3)
      XXXX    -352.2776   XXXY      18.2482   XXYY     -47.6726
      XYYY     -55.7915   YYYY    -167.3430   XXXZ     -50.7544
      XXYZ      20.3590   XYYZ     -44.9053   YYYZ       4.3528
      XXZZ    -101.4422   XYZZ     -22.0591   YYZZ     -88.9185
      XZZZ     -74.3221   YZZZ      11.7901   ZZZZ    -352.3759
 -----------------------------------------------------------------
Archival summary:
1\1\nid00558\SP\ProcedureUnspecified\BasisUnspecified\328(1+,1)\meili\SunSep2618:52:072021SunSep2618:52:072021\0\\#,ProcedureUnspecified,BasisUnspecified,\\1,1\C\N,1,1.31757\H,2,1.00623,1,119.572\H,2,1.00749,1,120.718,3,-178.97,0\N,1,1.31798,2,119.525,3,179.024,0\H,5,1.00572,1,120.242,2,-5.85818,0\H,5,1.01908,1,118.577,2,-176.415,0\N,1,1.32255,2,121.215,3,-1.8234,0\H,8,1.01957,1,116.696,2,172.492,0\C,8,1.47106,1,126.041,2,2.5566,0\H,10,1.09177,8,108.448,1,93.3586,0\H,10,1.09223,8,112.058,1,-26.0416,0\H,10,1.1,8,110.746,1,-147.872,0\\\@

 Total job time:  12326.15s(wall), 24121.46s(cpu) 
 Sun Sep 26 18:52:11 2021

        *************************************************************
        *                                                           *
        *  Thank you very much for using Q-Chem.  Have a nice day.  *
        *                                                           *
        *************************************************************


Done Job For Fragment 1
calling putenv with: QCSCRATCH=/global/cscratch1/sd/meili 
calling putenv with: QCLOCALSCR=/tmp 
calling putenv with: QCTHREADS=32 
Doing General SCFMI
 Exchange:     0.1670 Hartree-Fock + 1.0000 wB97X-V + LR-HF
 Correlation:  1.0000 wB97X-V
 Using Euler-Maclaurin-Lebedev (99,590) quadrature formula
 Nonlocal Correlation:  VV10 with C = 0.0100 and b = 6.00 and scale = 1.00000
 Grid used for NLC:  SG-1 standard quadrature
performing fock build before subrot guess so that all methods have access
Printing subrot_rss_gen Method Specification:
Occupied Subspace Method is 0
Virtual Subspace Method is 0
Energy of the unrelaxed supersystem initial determinant -473.791669521888
performing fock build before subrot guess so that all methods have access
Printing subrot_rss_gen Method Specification:
Occupied Subspace Method is 0
Virtual Subspace Method is 0
Energy of the unrelaxed supersystem initial determinant w/ solvent -473.871798526482
write pseudocanon occs and virts to disk
write pseudocanon orbital energies to disk
Tolerance of ortho_decomp_scf: 1.00e-06
GDM subspace size: 20
Beginning the Orthogonal Decomposition of the Initial Supersystem Wavefunction
    1    -473.5499758971      9.22e-02     ortho_decomp Preconditoned Steepest Descent
    2    -473.5639046667      2.59e-03     ortho_decomp BFGS Step
    3    -473.5639627786      2.15e-04     ortho_decomp BFGS Step
    4    -473.5639628861      9.36e-06     ortho_decomp BFGS Step
    5    -473.5639628866      3.58e-07     ortho_decomp 00000 Convergence criterion met
 Hartree-Fock
 Hartree-Fock
 Hartree-Fock
Doing General SCFMI
 Exchange:     0.1670 Hartree-Fock + 1.0000 wB97X-V + LR-HF
 Correlation:  1.0000 wB97X-V
 Using Euler-Maclaurin-Lebedev (99,590) quadrature formula
 Nonlocal Correlation:  VV10 with C = 0.0100 and b = 6.00 and scale = 1.00000
 Grid used for NLC:  SG-1 standard quadrature
performing fock build at end of subrot_r(subrot) constructor so that all methods have access
<S^2> of initial wavefunction before polarization iterations 0.0000000000
Beginning iterations for the determination of the polarized wavefunction
Energy prior to optimization (guess energy) = -473.871798526482
Begin Timing: Total SCF Calculation
begin iterations for algorithm: DIIS         
the SCF tolerance is set to 1.00e-08
    1    -473.8717985265      2.01e-04     00000 
    2    -473.8737544356      8.99e-05     00000 
    3    -473.8739753515      5.40e-05     00000 
    4    -473.8740573841      1.36e-05     00000 
    5    -473.8740659343      5.78e-06     00000 
    6    -473.8740680754      2.35e-06     00000 
    7    -473.8740684045      1.15e-06     00000 
    8    -473.8740684680      4.72e-07     00000 
    9    -473.8740684777      2.08e-07     00000 
   10    -473.8740684787      7.49e-08     00000 
   11    -473.8740684789      2.95e-08     00000 
   12    -473.8740684789      1.42e-08     00000 
   13    -473.8740684789      4.57e-09     00000 Convergence criterion met
write pseudocanon occs and virts to disk
write pseudocanon orbital energies to disk
Timing for Total SCF: 2939.00s (wall), 5844.70s (cpu)
<S^2> of polarized wavefunction after polarization iterations 0.0000000000
relaxing scfmi constraint to allow all rotations in the entire AO span
Doing General SCFMI
 Exchange:     0.1670 Hartree-Fock + 1.0000 wB97X-V + LR-HF
 Correlation:  1.0000 wB97X-V
 Using Euler-Maclaurin-Lebedev (99,590) quadrature formula
 Nonlocal Correlation:  VV10 with C = 0.0100 and b = 6.00 and scale = 1.00000
 Grid used for NLC:  SG-1 standard quadrature
performing fock build at end of subrot_r(subrot) constructor so that all methods have access
<S^2> of polarized wavefunction before ct-allowed iterations 0.0000000000
Beginning iterations for the determination of the CT-Allowed wavefunction
Energy prior to optimization (guess energy) = -473.874068478948
Begin Timing: Total SCF Calculation
begin iterations for algorithm: DIIS         
the SCF tolerance is set to 1.00e-08
    1    -473.8740684789      2.43e-04     00000 
    2    -473.8813299457      4.11e-05     00000 
    3    -473.8816613679      1.76e-05     00000 
    4    -473.8816847219      8.48e-06     00000 
    5    -473.8816915807      1.79e-06     00000 
    6    -473.8816919640      7.31e-07     00000 
    7    -473.8816920427      3.70e-07     00000 
    8    -473.8816920562      7.59e-08     00000 
    9    -473.8816920576      3.15e-08     00000 
   10    -473.8816920579      1.19e-08     00000 
   11    -473.8816920579      3.63e-09     00000 Convergence criterion met
write pseudocanon occs and virts to disk
write pseudocanon orbital energies to disk
Timing for Total SCF: 2467.00s (wall), 4907.19s (cpu)
<S^2> of ct_allowed wavefunction after ct-allowed iterations 0.0000000000

================================
        Results of EDA2         
================================
Basic EDA Quantities
--------------------
Fragment Energies (Ha):
1 -228.6589286002
2 -245.2009396239
--------------------
  E_prp (kJ/mol) = 0.0000
  E_sol (kJ/mol) = 412.0893
  E_frz (kJ/mol) = -421.4298
  E_pol (kJ/mol) = -5.9598
  E_vct (kJ/mol) = -20.0159
  E_int (kJ/mol) = -35.3162
--------------------


Initial Wavefunction Decomposition
--------------------
  --------------------
  Orthogonal Fragment Subspace Decomposition:
  --------------------
     E_elec   (ELEC)   (kJ/mol) = -543.7331
     E_pauli  (PAULI)  (kJ/mol) = 144.7413
     E_disp   (DISP)   (kJ/mol) = -22.4379
     --------------------
     Terms summing to E_pauli:
     --------------------
        E_kep_pauli       (kJ/mol) = 176.4211
        E_disp_free_pauli (kJ/mol) = -31.6798
  --------------------
  Classical Frozen Decomposition:
  --------------------
     E_cls_elec  (CLS ELEC)  (kJ/mol) = -488.5202
     E_cls_pauli (CLS PAULI) (kJ/mol) = 67.0905
    [E_mod_pauli (MOD PAULI) (kJ/mol) = 89.5284 (CLS PAULI - DISP from orthogonal decomposition) ]
  --------------------
--------------------

Simplified EDA Summary (kJ/mol)
--------------------
 PREPARATION     0.0000
 SOLVATION       412.0893
 FROZEN          -398.9919      (does not include dispersion)
[PAULI           144.7413]     (if this is negligible, then frozen describes electrostatics)
 DISPERSION      -22.4379
 POLARIZATION    -5.9598
 CHARGE TRANSFER -20.0159
 TOTAL           -35.3162     (PRP + SOL + FRZ + DISP + POL + CT)
--------------------
 
 --------------------------------------------------------------
 
                    Orbital Energies (a.u.)
 --------------------------------------------------------------
 
 Alpha MOs
 -- Occupied --
-19.1622 -19.1612 -14.4405 -14.4378 -14.4325 -10.4113 -10.3604 -10.3014
-10.2479  -1.1772  -1.1636  -1.0772  -1.0432  -1.0340  -0.8458  -0.8457
 -0.7562  -0.7132  -0.6803  -0.6320  -0.6066  -0.6010  -0.5869  -0.5645
 -0.5542  -0.5522  -0.5451  -0.5203  -0.5037  -0.4854  -0.4672  -0.3926
 -0.3753  -0.3669  -0.3619  -0.3533
 -- Virtual --
  0.0582   0.0780   0.0838   0.0951   0.1035   0.1072   0.1169   0.1236
  0.1280   0.1363   0.1389   0.1448   0.1513   0.1597   0.1718   0.1768
  0.1836   0.1885   0.2007   0.2055   0.2112   0.2191   0.2228   0.2303
  0.2326   0.2420   0.2506   0.2521   0.2582   0.2613   0.2698   0.2718
  0.2833   0.2870   0.2926   0.2974   0.3095   0.3155   0.3196   0.3238
  0.3292   0.3322   0.3358   0.3406   0.3461   0.3532   0.3565   0.3586
  0.3631   0.3675   0.3694   0.3821   0.3841   0.3878   0.3909   0.3967
  0.4038   0.4048   0.4101   0.4218   0.4246   0.4301   0.4363   0.4421
  0.4476   0.4512   0.4663   0.4717   0.4742   0.4773   0.4809   0.4870
  0.4895   0.4952   0.5025   0.5056   0.5132   0.5168   0.5213   0.5244
  0.5353   0.5392   0.5488   0.5586   0.5593   0.5650   0.5674   0.5716
  0.5759   0.5828   0.5927   0.5946   0.6049   0.6202   0.6282   0.6351
  0.6408   0.6456   0.6528   0.6574   0.6669   0.6755   0.6820   0.6859
  0.6926   0.7002   0.7075   0.7088   0.7223   0.7292   0.7365   0.7472
  0.7487   0.7606   0.7667   0.7771   0.7909   0.7927   0.8050   0.8067
  0.8120   0.8158   0.8257   0.8341   0.8372   0.8434   0.8583   0.8661
  0.8698   0.8781   0.8862   0.8959   0.9094   0.9113   0.9284   0.9428
  0.9484   0.9520   0.9664   0.9824   0.9979   1.0033   1.0243   1.0322
  1.0369   1.0507   1.0592   1.0748   1.0804   1.0990   1.1046   1.1165
  1.1325   1.1384   1.1396   1.1684   1.1772   1.1859   1.2006   1.2117
  1.2241   1.2422   1.2469   1.2571   1.2672   1.2901   1.3114   1.3196
  1.3273   1.3568   1.3690   1.3786   1.4007   1.4218   1.4325   1.4513
  1.4605   1.4972   1.5296   1.5332   1.5630   1.5983   1.6048   1.6459
  1.6604   1.6879   1.7060   1.7357   1.7481   1.7672   1.7793   1.8420
  1.8735   1.8828   1.8898   1.9084   1.9155   1.9198   1.9222   1.9291
  1.9410   1.9626   1.9637   1.9734   1.9852   1.9925   2.0160   2.0230
  2.0351   2.0443   2.0579   2.0661   2.1077   2.1147   2.1429   2.1502
  2.1963   2.2137   2.2325   2.2379   2.2475   2.2711   2.2743   2.2957
  2.3214   2.3274   2.3496   2.3676   2.3785   2.4201   2.4382   2.4490
  2.4631   2.4834   2.4867   2.5036   2.5191   2.5389   2.5555   2.6082
  2.6132   2.6205   2.6240   2.6404   2.6540   2.6681   2.6812   2.7018
  2.7084   2.7202   2.7502   2.7696   2.8148   2.8390   2.8498   2.8702
  2.8727   2.8962   2.8983   2.9196   2.9333   2.9545   3.0014   3.0079
  3.0251   3.0569   3.0906   3.1034   3.1530   3.1721   3.1860   3.1986
  3.2034   3.2262   3.2436   3.2568   3.2692   3.2954   3.3008   3.3086
  3.3112   3.3208   3.3353   3.3565   3.3822   3.3985   3.4057   3.4149
  3.4227   3.4431   3.4530   3.4675   3.4836   3.5237   3.5360   3.5694
  3.5798   3.5928   3.6069   3.6168   3.6358   3.6552   3.6665   3.6995
  3.7098   3.7453   3.7539   3.7598   3.7823   3.8353   3.8631   3.9238
  3.9507   3.9987   4.0233   4.0616   4.0748   4.1057   4.1682   4.1846
  4.2161   4.2512   4.2897   4.3342   4.3428   4.3577   4.3989   4.4864
  4.5250   4.5650   4.5829   4.6316   4.6607   4.6804   4.6896   4.8294
  4.8435   4.8676   4.8886   4.9021   4.9735   4.9966   5.0368   5.0574
  5.0867   5.1394   5.1485   5.1716   5.2076   5.2252   5.2520   5.3005
  5.3087   5.3269   5.3465   5.3778   5.3861   5.4206   5.4420   5.4603
  5.4937   5.5124   5.5352   5.5624   5.6114   5.6919   5.7203   5.7399
  5.7454   5.7879   5.8056   5.8432   5.9394   6.0076   6.1736   6.2354
  6.2555   6.3297   6.3462   6.4066   6.5198   6.6260   6.6729   6.7168
  6.7660   6.7830   6.9639   7.0078   7.0519   7.2381   7.3538   7.3815
  7.4285  22.6125  22.6713  23.7125  23.7647  32.3978  32.5397  32.9769
 44.2656  44.3851
 --------------------------------------------------------------
 
          Ground-State Mulliken Net Atomic Charges

     Atom                 Charge (a.u.)
  ----------------------------------------
      1 C                    -0.756394
      2 C                     0.671831
      3 O                    -0.824342
      4 O                    -0.803093
      5 H                     0.234931
      6 H                     0.235310
      7 H                     0.219789
      8 C                    -0.814408
      9 C                     0.468557
     10 N                     0.073255
     11 N                    -0.166905
     12 N                    -0.258640
     13 H                     0.060366
     14 H                     0.272793
     15 H                     0.326381
     16 H                     0.117360
     17 H                     0.253702
     18 H                     0.173127
     19 H                     0.253511
     20 H                     0.262869
  ----------------------------------------
  Sum of atomic charges =     0.000000

 -----------------------------------------------------------------
                    Cartesian Multipole Moments
 -----------------------------------------------------------------
    Charge (ESU x 10^10)
                 0.0000
    Dipole Moment (Debye)
         X      12.4725      Y       2.8135      Z       6.1308
       Tot      14.1798
    Quadrupole Moments (Debye-Ang)
        XX     -41.6096     XY      14.0335     YY     -45.9791
        XZ       5.5090     YZ       0.4928     ZZ     -54.0163
    Octopole Moments (Debye-Ang^2)
       XXX      74.0354    XXY      38.3003    XYY      26.2359
       YYY      20.5001    XXZ      18.9790    XYZ      -6.5658
       YYZ      -5.6221    XZZ      38.5018    YZZ       2.7277
       ZZZ      47.9805
    Hexadecapole Moments (Debye-Ang^3)
      XXXX   -1026.0555   XXXY    -121.8524   XXYY    -196.0575
      XYYY    -199.7218   YYYY    -364.7442   XXXZ    -210.7157
      XXYZ       9.2581   XYYZ     -98.5932   YYYZ     -56.7677
      XXZZ    -282.1256   XYZZ     -63.4610   YYZZ    -177.4390
      XZZZ    -276.6697   YZZZ     -48.4297   ZZZZ    -738.6625
 -----------------------------------------------------------------
Archival summary:
1\1\nid00558\SP\ProcedureUnspecified\BasisUnspecified\23411\meili\SunSep2621:25:242021SunSep2621:25:242021\0\\#,ProcedureUnspecified,BasisUnspecified,\\0,1\N\H,1,1.01957\C,1,1.32255,2,116.696\N,3,1.31757,1,121.215,2,172.492,0\H,4,1.00623,3,119.572,1,-1.8234,0\H,4,1.00749,3,120.718,1,179.206,0\N,3,1.31798,1,119.255,2,-8.3538,0\H,7,1.00572,3,120.242,1,174.973,0\H,7,1.01908,3,118.577,1,4.41577,0\C,1,1.47106,2,116.548,3,170.911,0\H,10,1.09177,1,108.448,2,-76.5897,0\H,10,1.09223,1,112.058,2,164.01,0\H,10,1.1,1,110.746,2,42.1797,0\O,2,1.8414,1,164.252,3,-104.963,0\C,14,1.24368,2,111.077,1,149.228,0\O,15,1.25407,14,123.448,2,-48.9892,0\C,15,1.51128,14,116.42,2,129.675,0\H,17,1.08701,15,109.857,14,158.937,0\H,17,1.09235,15,108.671,14,41.2234,0\H,17,1.1,15,111.747,14,-79.1152,0\\\@

 Total job time:  26179.84s(wall), 18285.25s(cpu) 
 Sun Sep 26 21:25:28 2021

        *************************************************************
        *                                                           *
        *  Thank you very much for using Q-Chem.  Have a nice day.  *
        *                                                           *
        *************************************************************


