
Running Job 1 of 1 SSI-117PHE-125TYR-1_PCM_TZVPD.in
qchem SSI-117PHE-125TYR-1_PCM_TZVPD.in_61964.0 /tmp/qchem61964/ 0
/global/common/cori/software/qchem/5.2/exe/qcprog.exe_s SSI-117PHE-125TYR-1_PCM_TZVPD.in_61964.0 /tmp/qchem61964/
                  Welcome to Q-Chem
     A Quantum Leap Into The Future Of Chemistry


 Q-Chem 5.2, Q-Chem, Inc., Pleasanton, CA (2019)

 License issued to: National Energy Research Scientific Computing Center

 Yihan Shao,  Zhengting Gan,  E. Epifanovsky,  A. T. B. Gilbert,  M. Wormit,  
 J. Kussmann,  A. W. Lange,  A. Behn,  Jia Deng,  Xintian Feng,  D. Ghosh,  
 M. Goldey,  P. R. Horn,  L. D. Jacobson,  I. Kaliman,  T. Kus,  A. Landau,  
 Jie Liu,  E. I. Proynov,  R. M. Richard,  R. P. Steele,  E. J. Sundstrom,  
 H. L. Woodcock III,  P. M. Zimmerman,  D. Zuev,  B. Albrecht,  E. Alguire,  
 S. A. Baeppler,  D. Barton,  Z. Benda,  Y. A. Bernard,  E. J. Berquist,  
 K. B. Bravaya,  H. Burton,  D. Casanova,  Chun-Min Chang,  Yunqing Chen,  
 A. Chien,  K. D. Closser,  M. P. Coons,  S. Coriani,  S. Dasgupta,  
 A. L. Dempwolff,  M. Diedenhofen,  Hainam Do,  R. G. Edgar,  Po-Tung Fang,  
 S. Faraji,  S. Fatehi,  Qingguo Feng,  K. D. Fenk,  J. Fosso-Tande,  
 J. Gayvert,  Qinghui Ge,  A. Ghysels,  G. Gidofalvi,  J. Gomes,  
 J. Gonthier,  A. Gunina,  D. Hait,  M. W. D. Hanson-Heine,  
 P. H. P. Harbach,  A. W. Hauser,  M. F. Herbst,  J. E. Herr,  
 E. G. Hohenstein,  Z. C. Holden,  Kerwin Hui,  B. C. Huynh,  T.-C. Jagau,  
 Hyunjun Ji,  B. Kaduk,  K. Khistyaev,  Jaehoon Kim,  P. Klunzinger,  K. Koh,  
 D. Kosenkov,  L. Koulias,  T. Kowalczyk,  C. M. Krauter,  A. Kunitsa,  
 Ka Un Lao,  A. Laurent,  K. V. Lawler,  Joonho Lee,  D. Lefrancois,  
 S. Lehtola,  D. S. Levine,  Yi-Pei Li,  You-Sheng Lin,  Fenglai Liu,  
 E. Livshits,  A. Luenser,  P. Manohar,  E. Mansoor,  S. F. Manzer,  
 Shan-Ping Mao,  Yuezhi Mao,  N. Mardirossian,  A. V. Marenich,  
 T. Markovich,  L. A. Martinez-Martinez,  S. A. Maurer,  N. J. Mayhall,  
 S. C. McKenzie,  J.-M. Mewes,  P. Morgante,  A. F. Morrison,  
 J. W. Mullinax,  K. Nanda,  T. S. Nguyen-Beck,  R. Olivares-Amaya,  
 J. A. Parkhill,  Zheng Pei,  T. M. Perrine,  F. Plasser,  P. Pokhilko,  
 S. Prager,  A. Prociuk,  E. Ramos,  D. R. Rehn,  F. Rob,  M. Scheurer,  
 M. Schneider,  N. Sergueev,  S. M. Sharada,  S. Sharma,  D. W. Small,  
 T. Stauch,  T. Stein,  Yu-Chuan Su,  A. J. W. Thom,  A. Tkatchenko,  
 T. Tsuchimochi,  N. M. Tubman,  L. Vogt,  M. L. Vidal,  O. Vydrov,  
 M. A. Watson,  J. Wenzel,  M. de Wergifosse,  T. A. Wesolowski,  A. White,  
 J. Witte,  A. Yamada,  Jun Yang,  K. Yao,  S. Yeganeh,  S. R. Yost,  
 Zhi-Qiang You,  A. Zech,  Igor Ying Zhang,  Xing Zhang,  Yan Zhao,  
 Ying Zhu,  B. R. Brooks,  G. K. L. Chan,  C. J. Cramer,  M. S. Gordon,  
 W. J. Hehre,  A. Klamt,  M. W. Schmidt,  C. D. Sherrill,  D. G. Truhlar,  
 A. Aspuru-Guzik,  R. Baer,  A. T. Bell,  N. A. Besley,  Jeng-Da Chai,  
 A. E. DePrince, III,  R. A. DiStasio Jr.,  A. Dreuw,  B. D. Dunietz,  
 T. R. Furlani,  Chao-Ping Hsu,  Yousung Jung,  Jing Kong,  D. S. Lambrecht,  
 WanZhen Liang,  C. Ochsenfeld,  V. A. Rassolov,  L. V. Slipchenko,  
 J. E. Subotnik,  T. Van Voorhis,  J. M. Herbert,  A. I. Krylov,  
 P. M. W. Gill,  M. Head-Gordon

 Contributors to earlier versions of Q-Chem not listed above: 
 R. D. Adamson,  B. Austin,  J. Baker,  G. J. O. Beran,  K. Brandhorst,  
 S. T. Brown,  E. F. C. Byrd,  A. K. Chakraborty,  C.-L. Cheng,  
 Siu Hung Chien,  D. M. Chipman,  D. L. Crittenden,  H. Dachsel,  
 R. J. Doerksen,  A. D. Dutoi,  L. Fusti-Molnar,  W. A. Goddard III,  
 A. Golubeva-Zadorozhnaya,  S. R. Gwaltney,  G. Hawkins,  A. Heyden,  
 S. Hirata,  G. Kedziora,  F. J. Keil,  C. Kelley,  Jihan Kim,  R. A. King,  
 R. Z. Khaliullin,  P. P. Korambath,  W. Kurlancheek,  A. M. Lee,  M. S. Lee,  
 S. V. Levchenko,  Ching Yeh Lin,  D. Liotard,  R. C. Lochan,  I. Lotan,  
 P. E. Maslen,  N. Nair,  D. P. O'Neill,  D. Neuhauser,  E. Neuscamman,  
 C. M. Oana,  R. Olson,  B. Peters,  R. Peverati,  P. A. Pieniazek,  
 Y. M. Rhee,  J. Ritchie,  M. A. Rohrdanz,  E. Rosta,  N. J. Russ,  
 H. F. Schaefer III,  N. E. Schultz,  N. Shenvi,  A. C. Simmonett,  A. Sodt,  
 D. Stuck,  K. S. Thanthiriwatte,  V. Vanovschi,  Tao Wang,  A. Warshel,  
 C. F. Williams,  Q. Wu,  X. Xu,  W. Zhang

 Please cite Q-Chem as follows:
 Y. Shao et al., Mol. Phys. 113, 184-215 (2015)
 DOI: 10.1080/00268976.2014.952696

 Q-Chem 5.2.0 for Intel X86 EM64T Linux

 Parts of Q-Chem use Armadillo 8.300.2 (Tropical Shenanigans).
 http://arma.sourceforge.net/

 Q-Chem begins on Sun Sep 26 13:54:23 2021  

Host: cori01
0

     Scratch files written to /tmp/qchem61964//
 May1019 |scratch|qcdevops|jenkins|workspace|build_RNUM -1
Processing $rem in /global/common/cori/software/qchem/5.2/config/preferences:
	 MEM_TOTAL  96000 
NAlpha2: 108
NElect   108
Mult     1
Symmetry turned off for PCM/SM12/SMD calculation

 Q-Chem warning in module libgen/rem_setup.C, line 2803:

 Neither GIA nor STOLL is specified by user. Use STOLL as the default


Checking the input file for inconsistencies... 	...done.

--------------------------------------------------------------
User input:
--------------------------------------------------------------
$comment
SSI-117PHE-125TYR-1.pdb
$end

$molecule
0 1
--
0 1
C    4.658426686649    0.485379424025    2.890086108344
C    1.168426686649   -0.848620575975    0.780086108344
C    2.148426686649   -0.151620575975    0.110086108344
C    1.346426686649   -1.151620575975    2.120086108344
C    3.297426686649    0.290379424025    0.785086108344
C    2.477426686649   -0.729620575975    2.773086108344
C    3.466426686649   -0.002620575975    2.144086108344
H    0.274426686649   -1.168620575975    0.262086108344
H    2.033426686649    0.061379424025   -0.941913891656
H    0.615426686649   -1.722620575975    2.658086108344
H    4.050426686649    0.856379424025    0.258086108344
H    2.589426686649   -0.971620575975    3.821086108344
H    4.474426686649    0.421379424025    3.964086108344
H    4.768426686649    1.541379424025    2.648086108344
H    5.599156686649   -0.031554575975    2.649666108344
--
0 1
C    0.096426686649    1.828379424025   -2.098913891656
C   -1.097573313351    0.986379424025   -1.723913891656
C   -1.571573313351   -0.008620575975   -2.582913891656
C   -1.833573313351    1.251379424025   -0.554913891656
C   -2.696573313351   -0.750620575975   -2.279913891656
C   -2.985573313351    0.518379424025   -0.263913891656
C   -3.413573313351   -0.482620575975   -1.118913891656
O   -4.539573313351   -1.190620575975   -0.835913891656
H    0.891426686649    1.193379424025   -2.482913891656
H    0.468426686649    2.324379424025   -1.200913891656
H   -1.030573313351   -0.214620575975   -3.496913891656
H   -1.509573313351    2.029379424025    0.126086108344
H   -3.023573313351   -1.533620575975   -2.950913891656
H   -3.545573313351    0.717379424025    0.637086108344
H   -4.709573313351   -1.883620575975   -1.483913891656
H   -0.159953313351    2.580514424025   -2.859543891656
$end

$rem
JOBTYPE			EDA
EDA2			1
method			wB97X-V
BASIS			def2-TZVPD
XC_GRID			000099000590
NL_GRID			1
UNRESTRICTED		FALSE
MAX_SCF_CYCLES		200
SYMMETRY		FALSE
SYM_IGNORE		TRUE
MEM_STATIC		2000
BASIS_LIN_DEP_THRESH 	6
THRESH 			14
SCF_CONVERGENCE 	8
SCF_PRINT_FRGM 		TRUE
SOLVENT_METHOD          PCM
$end

$PCM
THEORY                  CPCM
METHOD                  SWIG
SOLVER                  INVERSION
RADII                   UFF
HPOINTS                 302
HEAVYPOINTS             302
PRINTLEVEL              0
$END

$SOLVENT
DIELECTRIC              78.390000 ! water
$END
--------------------------------------------------------------
 ----------------------------------------------------------------
             Standard Nuclear Orientation (Angstroms)
    I     Atom           X                Y                Z
 ----------------------------------------------------------------
    1      C       4.6584266866     0.4853794240     2.8900861083
    2      C       1.1684266866    -0.8486205760     0.7800861083
    3      C       2.1484266866    -0.1516205760     0.1100861083
    4      C       1.3464266866    -1.1516205760     2.1200861083
    5      C       3.2974266866     0.2903794240     0.7850861083
    6      C       2.4774266866    -0.7296205760     2.7730861083
    7      C       3.4664266866    -0.0026205760     2.1440861083
    8      H       0.2744266866    -1.1686205760     0.2620861083
    9      H       2.0334266866     0.0613794240    -0.9419138917
   10      H       0.6154266866    -1.7226205760     2.6580861083
   11      H       4.0504266866     0.8563794240     0.2580861083
   12      H       2.5894266866    -0.9716205760     3.8210861083
   13      H       4.4744266866     0.4213794240     3.9640861083
   14      H       4.7684266866     1.5413794240     2.6480861083
   15      H       5.5991566866    -0.0315545760     2.6496661083
   16      C       0.0964266866     1.8283794240    -2.0989138917
   17      C      -1.0975733134     0.9863794240    -1.7239138917
   18      C      -1.5715733134    -0.0086205760    -2.5829138917
   19      C      -1.8335733134     1.2513794240    -0.5549138917
   20      C      -2.6965733134    -0.7506205760    -2.2799138917
   21      C      -2.9855733134     0.5183794240    -0.2639138917
   22      C      -3.4135733134    -0.4826205760    -1.1189138917
   23      O      -4.5395733134    -1.1906205760    -0.8359138917
   24      H       0.8914266866     1.1933794240    -2.4829138917
   25      H       0.4684266866     2.3243794240    -1.2009138917
   26      H      -1.0305733134    -0.2146205760    -3.4969138917
   27      H      -1.5095733134     2.0293794240     0.1260861083
   28      H      -3.0235733134    -1.5336205760    -2.9509138917
   29      H      -3.5455733134     0.7173794240     0.6370861083
   30      H      -4.7095733134    -1.8836205760    -1.4839138917
   31      H      -0.1599533134     2.5805144240    -2.8595438917
 ----------------------------------------------------------------
 Nuclear Repulsion Energy =         874.48891537 hartrees
 There are       54 alpha and       54 beta electrons
 Requested basis set is def2-TZVPD
 There are 276 shells and 702 basis functions

 Total QAlloc Memory Limit  96000 MB
 Mega-Array Size      1956 MB
 MEM_STATIC part      2000 MB
 Discretize the solute cavity surface with Lebedev spheres
	Using 302 Lebedev grid points for each H atom
	Using 302 Lebedev grid points for other atoms
	Atomic van der Waals radii will be scaled by 1.20
 Remove points where switching function is < 1.0e-08
 Keep 3420 surface tesserae and discard 5942 interior tesserae
 Molecular Surface Area = 334.064 Angst**2
 A cutoff of  1.0D-14 yielded  31648 shell pairs
 There are    204992 function pairs (    258749 Cartesian)
 Smallest overlap matrix eigenvalue = 4.23E-07
 Linear dependence detected in AO basis
 Tighter screening thresholds may be required for diffuse basis sets
 Use S2THRESH > 14 and THRESH = 14 in case of SCF convergence issues
 Number of orthogonalized atomic orbitals = 699
 Maximum deviation from orthogonality = 1.768E-10

 Scale SEOQF with 1.000000e-02/1.000000e-01/1.000000e-01

 Standard Electronic Orientation quadrupole field applied
 Nucleus-field energy     =    -0.0000000303 hartrees

 -----------------------------------------------------------------------
  General SCF calculation program by
  Eric Jon Sundstrom, Paul Horn, Yuezhi Mao, Dmitri Zuev, Alec White,
  David Stuck, Shaama M.S., Shane Yost, Joonho Lee, David Small,
  Daniel Levine, Susi Lehtola, Hugh Burton, Evgeny Epifanovsky
 -----------------------------------------------------------------------
================================================================
                 ALMO-EDA with the EDA2 driver                  
================================================================
 The second-generation ALMO-EDA (for DFT):                      
 P. R. Horn, Y. Mao and M. Head-Gordon, PCCP, 18, 23067 (2016)  
 Decomposition of the frozen energy:                            
 P. R. Horn, Y. Mao and M. Head-Gordon, JCP, 144, 114107 (2016) 
 FERF model for polarization:                                   
 P. R. Horn and M. Head-Gordon, JCP, 143, 114111 (2015)         
Using eda2 option set 1
Option set summary: Frozen orbital wavefunction, initial wavefunction decomposition, and nDQ polarization.
--------------------------------
Printing EDA Options
--------------------------------
eda_child_super_basis      0
fragmo_guess_mode          0
child_mp                   1
child_mp_orders            232
cls_elec                   1
cls_disp                   0
scfmi_mode                 1
scfmi_occs                 0
scfmi_virts                0
frz_relax                  0
frz_relax_method           0
dc_pen_start               0
dc_pen_conv                0
dc_pen_increment           0
dc_pen_steps               0
dc_pen_thresh_factor       0
dc_pen_pre_newton_thresh   0
frz_ortho_decomp           1
frz_ortho_decomp_conv      6
frgm_method                2
scfmi_freeze_ss            0
separate_rehyb             0
plot_diff_den              0
eda_nocv                   0
eda_vct_relax              1
disp_free_x                0
disp_free_c                0
eda_bsse                   0
eda_pct_a                  0
eda_covp                   0
--------------------------------
Attempting to make child job directory: /tmp/qchem61964//Frg1/
Attempting to make child job directory: /tmp/qchem61964//Frg2/
Creating input file /tmp/qchem61964/Frg1.input
using default PutDataFrgm: nothing
calling putenv with: QCSCRATCH=/tmp/qchem61964/ 
calling putenv with: QCLOCALSCR=/tmp/qchem61964/ 
Spawning Job For Fragment 0
                  Welcome to Q-Chem
     A Quantum Leap Into The Future Of Chemistry


 Q-Chem 5.2, Q-Chem, Inc., Pleasanton, CA (2019)

 License issued to: National Energy Research Scientific Computing Center

 Yihan Shao,  Zhengting Gan,  E. Epifanovsky,  A. T. B. Gilbert,  M. Wormit,  
 J. Kussmann,  A. W. Lange,  A. Behn,  Jia Deng,  Xintian Feng,  D. Ghosh,  
 M. Goldey,  P. R. Horn,  L. D. Jacobson,  I. Kaliman,  T. Kus,  A. Landau,  
 Jie Liu,  E. I. Proynov,  R. M. Richard,  R. P. Steele,  E. J. Sundstrom,  
 H. L. Woodcock III,  P. M. Zimmerman,  D. Zuev,  B. Albrecht,  E. Alguire,  
 S. A. Baeppler,  D. Barton,  Z. Benda,  Y. A. Bernard,  E. J. Berquist,  
 K. B. Bravaya,  H. Burton,  D. Casanova,  Chun-Min Chang,  Yunqing Chen,  
 A. Chien,  K. D. Closser,  M. P. Coons,  S. Coriani,  S. Dasgupta,  
 A. L. Dempwolff,  M. Diedenhofen,  Hainam Do,  R. G. Edgar,  Po-Tung Fang,  
 S. Faraji,  S. Fatehi,  Qingguo Feng,  K. D. Fenk,  J. Fosso-Tande,  
 J. Gayvert,  Qinghui Ge,  A. Ghysels,  G. Gidofalvi,  J. Gomes,  
 J. Gonthier,  A. Gunina,  D. Hait,  M. W. D. Hanson-Heine,  
 P. H. P. Harbach,  A. W. Hauser,  M. F. Herbst,  J. E. Herr,  
 E. G. Hohenstein,  Z. C. Holden,  Kerwin Hui,  B. C. Huynh,  T.-C. Jagau,  
 Hyunjun Ji,  B. Kaduk,  K. Khistyaev,  Jaehoon Kim,  P. Klunzinger,  K. Koh,  
 D. Kosenkov,  L. Koulias,  T. Kowalczyk,  C. M. Krauter,  A. Kunitsa,  
 Ka Un Lao,  A. Laurent,  K. V. Lawler,  Joonho Lee,  D. Lefrancois,  
 S. Lehtola,  D. S. Levine,  Yi-Pei Li,  You-Sheng Lin,  Fenglai Liu,  
 E. Livshits,  A. Luenser,  P. Manohar,  E. Mansoor,  S. F. Manzer,  
 Shan-Ping Mao,  Yuezhi Mao,  N. Mardirossian,  A. V. Marenich,  
 T. Markovich,  L. A. Martinez-Martinez,  S. A. Maurer,  N. J. Mayhall,  
 S. C. McKenzie,  J.-M. Mewes,  P. Morgante,  A. F. Morrison,  
 J. W. Mullinax,  K. Nanda,  T. S. Nguyen-Beck,  R. Olivares-Amaya,  
 J. A. Parkhill,  Zheng Pei,  T. M. Perrine,  F. Plasser,  P. Pokhilko,  
 S. Prager,  A. Prociuk,  E. Ramos,  D. R. Rehn,  F. Rob,  M. Scheurer,  
 M. Schneider,  N. Sergueev,  S. M. Sharada,  S. Sharma,  D. W. Small,  
 T. Stauch,  T. Stein,  Yu-Chuan Su,  A. J. W. Thom,  A. Tkatchenko,  
 T. Tsuchimochi,  N. M. Tubman,  L. Vogt,  M. L. Vidal,  O. Vydrov,  
 M. A. Watson,  J. Wenzel,  M. de Wergifosse,  T. A. Wesolowski,  A. White,  
 J. Witte,  A. Yamada,  Jun Yang,  K. Yao,  S. Yeganeh,  S. R. Yost,  
 Zhi-Qiang You,  A. Zech,  Igor Ying Zhang,  Xing Zhang,  Yan Zhao,  
 Ying Zhu,  B. R. Brooks,  G. K. L. Chan,  C. J. Cramer,  M. S. Gordon,  
 W. J. Hehre,  A. Klamt,  M. W. Schmidt,  C. D. Sherrill,  D. G. Truhlar,  
 A. Aspuru-Guzik,  R. Baer,  A. T. Bell,  N. A. Besley,  Jeng-Da Chai,  
 A. E. DePrince, III,  R. A. DiStasio Jr.,  A. Dreuw,  B. D. Dunietz,  
 T. R. Furlani,  Chao-Ping Hsu,  Yousung Jung,  Jing Kong,  D. S. Lambrecht,  
 WanZhen Liang,  C. Ochsenfeld,  V. A. Rassolov,  L. V. Slipchenko,  
 J. E. Subotnik,  T. Van Voorhis,  J. M. Herbert,  A. I. Krylov,  
 P. M. W. Gill,  M. Head-Gordon

 Contributors to earlier versions of Q-Chem not listed above: 
 R. D. Adamson,  B. Austin,  J. Baker,  G. J. O. Beran,  K. Brandhorst,  
 S. T. Brown,  E. F. C. Byrd,  A. K. Chakraborty,  C.-L. Cheng,  
 Siu Hung Chien,  D. M. Chipman,  D. L. Crittenden,  H. Dachsel,  
 R. J. Doerksen,  A. D. Dutoi,  L. Fusti-Molnar,  W. A. Goddard III,  
 A. Golubeva-Zadorozhnaya,  S. R. Gwaltney,  G. Hawkins,  A. Heyden,  
 S. Hirata,  G. Kedziora,  F. J. Keil,  C. Kelley,  Jihan Kim,  R. A. King,  
 R. Z. Khaliullin,  P. P. Korambath,  W. Kurlancheek,  A. M. Lee,  M. S. Lee,  
 S. V. Levchenko,  Ching Yeh Lin,  D. Liotard,  R. C. Lochan,  I. Lotan,  
 P. E. Maslen,  N. Nair,  D. P. O'Neill,  D. Neuhauser,  E. Neuscamman,  
 C. M. Oana,  R. Olson,  B. Peters,  R. Peverati,  P. A. Pieniazek,  
 Y. M. Rhee,  J. Ritchie,  M. A. Rohrdanz,  E. Rosta,  N. J. Russ,  
 H. F. Schaefer III,  N. E. Schultz,  N. Shenvi,  A. C. Simmonett,  A. Sodt,  
 D. Stuck,  K. S. Thanthiriwatte,  V. Vanovschi,  Tao Wang,  A. Warshel,  
 C. F. Williams,  Q. Wu,  X. Xu,  W. Zhang

 Please cite Q-Chem as follows:
 Y. Shao et al., Mol. Phys. 113, 184-215 (2015)
 DOI: 10.1080/00268976.2014.952696

 Q-Chem 5.2.0 for Intel X86 EM64T Linux

 Parts of Q-Chem use Armadillo 8.300.2 (Tropical Shenanigans).
 http://arma.sourceforge.net/

 Q-Chem begins on Sun Sep 26 13:54:30 2021  

Host: cori01
0

     Scratch files written to /tmp/qchem61964//Frg1//
 May1019 |scratch|qcdevops|jenkins|workspace|build_RNUM -1
Processing $rem in /global/common/cori/software/qchem/5.2/config/preferences:
	 MEM_TOTAL  96000 
NAlpha2: 50
NElect   50
Mult     1
Symmetry turned off for PCM/SM12/SMD calculation

Checking the input file for inconsistencies... 	...done.

--------------------------------------------------------------
User input:
--------------------------------------------------------------
$molecule
0 1
 6	4.6584266866	0.4853794240	2.8900861083
 6	1.1684266866	-0.8486205760	0.7800861083
 6	2.1484266866	-0.1516205760	0.1100861083
 6	1.3464266866	-1.1516205760	2.1200861083
 6	3.2974266866	0.2903794240	0.7850861083
 6	2.4774266866	-0.7296205760	2.7730861083
 6	3.4664266866	-0.0026205760	2.1440861083
 1	0.2744266866	-1.1686205760	0.2620861083
 1	2.0334266866	0.0613794240	-0.9419138917
 1	0.6154266866	-1.7226205760	2.6580861083
 1	4.0504266866	0.8563794240	0.2580861083
 1	2.5894266866	-0.9716205760	3.8210861083
 1	4.4744266866	0.4213794240	3.9640861083
 1	4.7684266866	1.5413794240	2.6480861083
 1	5.5991566866	-0.0315545760	2.6496661083
$end
$rem
EDA2		1
METHOD		WB97X-V
BASIS		DEF2-TZVPD
XC_GRID		000099000590
NL_GRID		1
UNRESTRICTED		FALSE
MAX_SCF_CYCLES		200
SYMMETRY		FALSE
SYM_IGNORE		TRUE
BASIS_LIN_DEP_THRESH		6
THRESH		14
SCF_CONVERGENCE		8
SCF_PRINT_FRGM		TRUE
SOLVENT_METHOD		PCM
!required keywords
JOBTYPE		SP
SYM_IGNORE		TRUE
SUBSYSTEM		TRUE
GEN_SCFMAN		TRUE
CHILD_INSTRUCTION		2
SYM_IGNORE		TRUE
SCFMI		0
RI_K 0		
PARI_K 0		
MIN_PARI_K 0		
IARI_K 0		
OCC_RI_K 0		
PURECART		1111
MEM_STATIC		2000
MEM_TOTAL		96000
GUI		0
CHILD_MP		1
CHILD_MP_ORDERS		232
FRZ_RELAX		0
FRZ_RELAX_METHOD		0
EDA_CLS_ELEC		1
EDA_CLS_DISP		0
FRZ_ORTHO_DECOMP		1
EDA2		FALSE
FRGM_METHOD		FALSE
CIS_N_ROOTS  0
LOCAL_CIS    0
CIS_RLX_DNS  1
$end
$pcm
THEORY                  CPCM
METHOD                  SWIG
SOLVER                  INVERSION
RADII                   UFF
HPOINTS                 302
HEAVYPOINTS             302
PRINTLEVEL              0
$end
$solvent
DIELECTRIC              78.390000 ! water
$end
--------------------------------------------------------------
 ----------------------------------------------------------------
             Standard Nuclear Orientation (Angstroms)
    I     Atom           X                Y                Z
 ----------------------------------------------------------------
    1      C       4.6584266866     0.4853794240     2.8900861083
    2      C       1.1684266866    -0.8486205760     0.7800861083
    3      C       2.1484266866    -0.1516205760     0.1100861083
    4      C       1.3464266866    -1.1516205760     2.1200861083
    5      C       3.2974266866     0.2903794240     0.7850861083
    6      C       2.4774266866    -0.7296205760     2.7730861083
    7      C       3.4664266866    -0.0026205760     2.1440861083
    8      H       0.2744266866    -1.1686205760     0.2620861083
    9      H       2.0334266866     0.0613794240    -0.9419138917
   10      H       0.6154266866    -1.7226205760     2.6580861083
   11      H       4.0504266866     0.8563794240     0.2580861083
   12      H       2.5894266866    -0.9716205760     3.8210861083
   13      H       4.4744266866     0.4213794240     3.9640861083
   14      H       4.7684266866     1.5413794240     2.6480861083
   15      H       5.5991566866    -0.0315545760     2.6496661083
 ----------------------------------------------------------------
 Nuclear Repulsion Energy =         271.04453541 hartrees
 There are       25 alpha and       25 beta electrons
 Requested basis set is def2-TZVPD
 There are 131 shells and 331 basis functions

 Total QAlloc Memory Limit  96000 MB
 Mega-Array Size      1956 MB
 MEM_STATIC part      2000 MB
 Discretize the solute cavity surface with Lebedev spheres
	Using 302 Lebedev grid points for each H atom
	Using 302 Lebedev grid points for other atoms
	Atomic van der Waals radii will be scaled by 1.20
 Remove points where switching function is < 1.0e-08
 Keep 1798 surface tesserae and discard 2732 interior tesserae
 Molecular Surface Area = 177.340 Angst**2

                       Distance Matrix (Angstroms)
             C (  1)   C (  2)   C (  3)   C (  4)   C (  5)   C (  6)
   C (  2)  4.290892
   C (  3)  3.799246  1.376630
   C (  4)  3.773859  1.385313  2.383968
   C (  5)  2.514234  2.414537  1.403991  2.769114
   C (  6)  2.499335  2.387403  2.744794  1.372463  2.380114
   C (  7)  1.488464  2.803037  2.428267  2.411468  1.400461  1.379236
   H (  8)  5.372295  1.081647  2.137585  2.145143  3.397166  3.369132
   H (  9)  4.664185  2.131105  1.079490  3.364399  2.152363  3.824139
   H ( 10)  4.612476  2.143961  3.363099  1.072309  3.841018  2.113367
   H ( 11)  2.726670  3.389017  2.157677  3.848470  1.079395  3.363770
   H ( 12)  2.696363  3.358876  3.826016  2.114438  3.363213  1.081394
   H ( 13)  1.091526  4.762394  4.537832  3.957152  3.392423  2.594473
   H ( 14)  1.088944  4.707603  4.021454  4.386470  2.683209  3.228273
   H ( 15)  1.099998  4.877940  4.286189  4.429528  2.979641  3.201207
             C (  7)   H (  8)   H (  9)   H ( 10)   H ( 11)   H ( 12)
   H (  8)  3.884629
   H (  9)  3.403084  2.461015
   H ( 10)  3.369094  2.482743  4.260678
   H ( 11)  2.153122  4.284719  2.477966  4.920413
   H ( 12)  2.126128  4.250237  4.905343  2.411067  4.262754
   H ( 13)  2.123262  5.820043  5.491531  4.603722  3.755454  2.348217
   H ( 14)  2.081623  5.764818  4.749603  5.282159  2.587827  3.526916
   H ( 15)  2.192028  5.945268  5.061869  5.262826  2.984400  3.363692
             H ( 13)   H ( 14)
   H ( 14)  1.752910
   H ( 15)  1.788258  1.778830
 
 A cutoff of  1.0D-14 yielded   8365 shell pairs
 There are     54525 function pairs (     69479 Cartesian)
 Smallest overlap matrix eigenvalue = 5.22E-07
 Linear dependence detected in AO basis
 Tighter screening thresholds may be required for diffuse basis sets
 Use S2THRESH > 14 and THRESH = 14 in case of SCF convergence issues
 Number of orthogonalized atomic orbitals = 330
 Maximum deviation from orthogonality = 1.147E-10

 Scale SEOQF with 1.000000e-02/1.000000e-01/1.000000e-01

 Standard Electronic Orientation quadrupole field applied
 Nucleus-field energy     =    -0.0000000191 hartrees
 Guess from superposition of atomic densities
 Warning:  Energy on first SCF cycle will be non-variational
 SAD guess density has 49.913408 electrons

 -----------------------------------------------------------------------
  General SCF calculation program by
  Eric Jon Sundstrom, Paul Horn, Yuezhi Mao, Dmitri Zuev, Alec White,
  David Stuck, Shaama M.S., Shane Yost, Joonho Lee, David Small,
  Daniel Levine, Susi Lehtola, Hugh Burton, Evgeny Epifanovsky
 -----------------------------------------------------------------------
 Exchange:     0.1670 Hartree-Fock + 1.0000 wB97X-V + LR-HF
 Correlation:  1.0000 wB97X-V
 Using Euler-Maclaurin-Lebedev (99,590) quadrature formula
 Nonlocal Correlation:  VV10 with C = 0.0100 and b = 6.00 and scale = 1.00000
 Grid used for NLC:  SG-1 standard quadrature
Energy prior to optimization (guess energy) = -271.516193730512
Begin Timing: Total SCF Calculation
begin iterations for algorithm: DIIS         
the SCF tolerance is set to 1.00e-08
    1    -271.5161937305      2.01e-03     00000 
    2    -271.5560999928      1.30e-03     00000 
    3    -271.5795575689      1.41e-04     00000 
    4    -271.5799734462      5.34e-05     00000 
    5    -271.5800141808      1.78e-05     00000 
    6    -271.5800195883      4.86e-06     00000 
    7    -271.5800200269      1.96e-06     00000 
    8    -271.5800200953      3.20e-07     00000 
    9    -271.5800200982      7.45e-08     00000 
   10    -271.5800200984      4.68e-08     00000 
   11    -271.5800200984      6.95e-09     00000 Convergence criterion met
Timing for Total SCF: 1295.00s (wall), 2570.66s (cpu)

************** Final PCM Free Energy Summary **************
 G_electrostatic  =      -0.00240924 hartree =      -1.51182111 kcal/mol
 G_cavitation     =       0.00000000 hartree =       0.00000000 kcal/mol
 G_dispersion     =       0.00000000 hartree =       0.00000000 kcal/mol
 G_repulsion      =       0.00000000 hartree =       0.00000000 kcal/mol
 --------------------------------------------------
 Non-electrostatic Free Energy =       0.00000000 hartree =       0.00000000 kcal/mol
 Total                         =      -0.00240924 hartree =      -1.51182111 kcal/mol
 --------------------------------------------------
 SCF Energy (H0 + V/2)                       =    -271.58002010 
 Solute Internal Energy (H0)                 =    -271.57761086 
 Total Free Energy (H0 + V/2 + non-elec)     =    -271.58002010 hartree
                                             = -170419.03474612 kcal/mol
***********************************************************

E_pcm = -0.0024092403
Multipole orders to be included
        2
        3
computing dipole RHS
computing quadrupole RHS
total number of RHS in solve_reponses: 8
RHS batch sizes
        8
Beginning Block Conjugate Gradient Iterations. Batch Number: 0
computing hessian-vector products by finite difference
              1      5.72e-01     00000 Conjugate Gradient Iteration
computing hessian-vector products by finite difference
              2      1.89e-01     00000 Conjugate Gradient Iteration
computing hessian-vector products by finite difference
              3      4.39e-02     00000 Conjugate Gradient Iteration
computing hessian-vector products by finite difference
              4      9.91e-03     00000 Conjugate Gradient Iteration
computing hessian-vector products by finite difference
              5      1.99e-03     00000 Conjugate Gradient Iteration
computing hessian-vector products by finite difference
              6      5.43e-04     00000 Conjugate Gradient Iteration
computing hessian-vector products by finite difference
              7      1.69e-04     00000 Conjugate Gradient Iteration
computing hessian-vector products by finite difference
              8      2.57e-05     00000 Conjugate Gradient Iteration
computing hessian-vector products by finite difference
              9      3.24e-06     00000 Conjugate Gradient Iteration
computing hessian-vector products by finite difference
             10      5.79e-07     00000 Conjugate Gradient Iteration
computing hessian-vector products by finite difference
             11      1.11e-07     00000 Conjugate Gradient Iteration
computing hessian-vector products by finite difference
             12      1.83e-08     00000 Conjugate Gradient Iteration
computing hessian-vector products by finite difference
             13      3.82e-09     00000 CG Converged
batch 0 complete
Done Calculating Responses
TESTING ORTHOGONALIZATION OF MULTIPOLE BASIS
Multipole virts passed orthogonality test
Virts Per Order
           75
          125
 
 --------------------------------------------------------------
 
                    Orbital Energies (a.u.)
 --------------------------------------------------------------
 
 Alpha MOs
 -- Occupied --
-10.2798 -10.2723 -10.2709 -10.2686 -10.2679 -10.2644 -10.2618  -1.0007
 -0.9113  -0.8797  -0.8155  -0.7316  -0.7071  -0.6321  -0.5762  -0.5670
 -0.5381  -0.5288  -0.5173  -0.4883  -0.4750  -0.4443  -0.4389  -0.3496
 -0.3388
 -- Virtual --
  0.0623   0.0629   0.0714   0.0790   0.0845   0.1044   0.1103   0.1135
  0.1357   0.1536   0.1648   0.1709   0.1825   0.1890   0.1944   0.1999
  0.2213   0.2253   0.2343   0.2409   0.2495   0.2577   0.2605   0.2685
  0.2804   0.2834   0.2873   0.2910   0.2934   0.2997   0.3022   0.3116
  0.3191   0.3250   0.3328   0.3404   0.3486   0.3529   0.3647   0.3738
  0.3764   0.3814   0.3873   0.3889   0.3925   0.4001   0.4024   0.4051
  0.4144   0.4290   0.4314   0.4365   0.4415   0.4475   0.4506   0.4548
  0.4701   0.4721   0.4746   0.4839   0.4915   0.5009   0.5123   0.5152
  0.5166   0.5249   0.5343   0.5424   0.5475   0.5496   0.5534   0.5674
  0.5753   0.5836   0.5911   0.5953   0.6010   0.6244   0.6348   0.6421
  0.6677   0.6756   0.6845   0.6890   0.6952   0.6990   0.7205   0.7248
  0.7273   0.7338   0.7447   0.7591   0.7631   0.7667   0.7764   0.7838
  0.7919   0.7975   0.7984   0.8033   0.8081   0.8202   0.8268   0.8294
  0.8350   0.8406   0.8503   0.8538   0.8597   0.8687   0.8861   0.8940
  0.9136   0.9211   0.9354   0.9485   0.9527   1.0092   1.0304   1.0390
  1.0494   1.0622   1.0738   1.0774   1.0927   1.0997   1.1071   1.1415
  1.1637   1.1749   1.2624   1.2776   1.2965   1.3354   1.3569   1.3584
  1.3840   1.4409   1.4514   1.4603   1.4725   1.4815   1.5312   1.5444
  1.6060   1.6131   1.6214   1.6271   1.6606   1.6902   1.7337   1.7748
  1.7889   1.8009   1.8108   1.8130   1.8373   1.8649   1.8823   1.9125
  1.9156   1.9242   1.9332   1.9663   1.9850   1.9942   2.0113   2.0285
  2.0355   2.0465   2.0726   2.0927   2.1074   2.1270   2.1747   2.1900
  2.2071   2.2345   2.2453   2.2813   2.2830   2.3183   2.3835   2.4007
  2.4193   2.4215   2.4773   2.5162   2.5386   2.5602   2.5660   2.6060
  2.6153   2.6436   2.6718   2.6830   2.7069   2.7200   2.7685   2.7797
  2.7897   2.8110   2.8165   2.8592   2.8646   2.8978   2.9129   2.9221
  2.9375   2.9448   2.9756   2.9847   2.9981   3.0144   3.0267   3.0486
  3.0648   3.0973   3.1091   3.1240   3.1815   3.1866   3.2082   3.2160
  3.2354   3.2459   3.2821   3.2922   3.3434   3.3568   3.3599   3.3860
  3.4126   3.4379   3.4406   3.4487   3.4626   3.4752   3.4904   3.5032
  3.5108   3.5393   3.5450   3.5521   3.5652   3.5823   3.5841   3.6189
  3.6264   3.6401   3.6615   3.7065   3.7267   3.7607   3.7769   3.8169
  3.8686   3.9031   3.9198   3.9617   3.9634   3.9996   4.0518   4.0588
  4.1383   4.2058   4.2790   4.2868   4.2972   4.3167   4.3330   4.3558
  4.3687   4.3944   4.4115   4.4139   4.4365   4.4711   4.5148   4.5507
  4.6044   4.6342   4.7519   4.7921   4.8456   4.8815   4.9185   4.9532
  5.0446   5.0510   5.1844   5.2731   5.3939   5.4127   5.5111   5.5395
  5.6872   5.8643  22.5874  22.6878  22.9011  22.9313  23.0481  23.1178
 23.4709
 --------------------------------------------------------------
 
          Ground-State Mulliken Net Atomic Charges

     Atom                 Charge (a.u.)
  ----------------------------------------
      1 C                    -1.026029
      2 C                    -0.499624
      3 C                    -0.462571
      4 C                    -0.512983
      5 C                    -0.333121
      6 C                    -0.356580
      7 C                     0.855550
      8 H                     0.331027
      9 H                     0.315250
     10 H                     0.317463
     11 H                     0.342467
     12 H                     0.285902
     13 H                     0.276617
     14 H                     0.242885
     15 H                     0.223747
  ----------------------------------------
  Sum of atomic charges =     0.000000

 -----------------------------------------------------------------
                    Cartesian Multipole Moments
 -----------------------------------------------------------------
    Charge (ESU x 10^10)
                -0.0000
    Dipole Moment (Debye)
         X       0.4032      Y       0.1841      Z       0.2442
       Tot       0.5061
    Quadrupole Moments (Debye-Ang)
        XX     -37.5534     XY       3.6188     YY     -44.1004
        XZ       2.3119     YZ      -1.2860     ZZ     -38.0309
    Octopole Moments (Debye-Ang^2)
       XXX    -314.5092    XXY      25.3694    XYY    -120.7268
       YYY      38.8822    XXZ     -58.0092    XYZ       1.2268
       YYZ     -72.3022    XZZ    -100.4894    YZZ       6.2783
       ZZZ    -196.8255
    Hexadecapole Moments (Debye-Ang^3)
      XXXX   -2168.3367   XXXY      50.5616   XXYY    -430.7178
      XYYY      17.6075   YYYY    -186.8572   XXXZ    -592.6420
      XXYZ      27.4441   XYYZ    -228.2004   YYYZ      64.3921
      XXZZ    -519.1683   XYZZ      -0.8480   YYZZ    -212.2137
      XZZZ    -604.2682   YZZZ      36.7196   ZZZZ   -1019.6486
 -----------------------------------------------------------------
Archival summary:
1\1\nid00567\SP\ProcedureUnspecified\BasisUnspecified\78\meili\SunSep2621:53:502021SunSep2621:53:502021\0\\#,ProcedureUnspecified,BasisUnspecified,\\0,1\C\C,1,1.37924\H,2,1.08139,1,119.056\C,2,1.37246,1,122.412,3,179.508,0\H,4,1.07231,2,119.13,1,179.384,0\C,4,1.38531,2,119.924,1,-0.0133982,0\H,6,1.08165,4,120.313,2,-179.321,0\C,6,1.37663,4,119.344,2,1.52684,0\H,8,1.07949,6,119.892,4,178.021,0\C,1,1.40046,2,117.794,3,179.697,0\H,10,1.0794,1,119.954,2,-179.937,0\C,1,1.48846,2,121.231,3,-1.82093,0\H,12,1.08894,1,106.705,2,-130.87,0\H,12,1.09153,1,109.811,2,-15.2258,0\H,12,1.1,1,114.914,2,108.556,0\\\@

 Total job time:  28761.75s(wall), 56977.95s(cpu) 
 Sun Sep 26 21:53:52 2021

        *************************************************************
        *                                                           *
        *  Thank you very much for using Q-Chem.  Have a nice day.  *
        *                                                           *
        *************************************************************


Done Job For Fragment 0
calling putenv with: QCSCRATCH=/global/cscratch1/sd/meili 
calling putenv with: QCLOCALSCR=/tmp 
calling putenv with: QCTHREADS=32 
Creating input file /tmp/qchem61964/Frg2.input
using default PutDataFrgm: nothing
calling putenv with: QCSCRATCH=/tmp/qchem61964/ 
calling putenv with: QCLOCALSCR=/tmp/qchem61964/ 
Spawning Job For Fragment 1
                  Welcome to Q-Chem
     A Quantum Leap Into The Future Of Chemistry


 Q-Chem 5.2, Q-Chem, Inc., Pleasanton, CA (2019)

 License issued to: National Energy Research Scientific Computing Center

 Yihan Shao,  Zhengting Gan,  E. Epifanovsky,  A. T. B. Gilbert,  M. Wormit,  
 J. Kussmann,  A. W. Lange,  A. Behn,  Jia Deng,  Xintian Feng,  D. Ghosh,  
 M. Goldey,  P. R. Horn,  L. D. Jacobson,  I. Kaliman,  T. Kus,  A. Landau,  
 Jie Liu,  E. I. Proynov,  R. M. Richard,  R. P. Steele,  E. J. Sundstrom,  
 H. L. Woodcock III,  P. M. Zimmerman,  D. Zuev,  B. Albrecht,  E. Alguire,  
 S. A. Baeppler,  D. Barton,  Z. Benda,  Y. A. Bernard,  E. J. Berquist,  
 K. B. Bravaya,  H. Burton,  D. Casanova,  Chun-Min Chang,  Yunqing Chen,  
 A. Chien,  K. D. Closser,  M. P. Coons,  S. Coriani,  S. Dasgupta,  
 A. L. Dempwolff,  M. Diedenhofen,  Hainam Do,  R. G. Edgar,  Po-Tung Fang,  
 S. Faraji,  S. Fatehi,  Qingguo Feng,  K. D. Fenk,  J. Fosso-Tande,  
 J. Gayvert,  Qinghui Ge,  A. Ghysels,  G. Gidofalvi,  J. Gomes,  
 J. Gonthier,  A. Gunina,  D. Hait,  M. W. D. Hanson-Heine,  
 P. H. P. Harbach,  A. W. Hauser,  M. F. Herbst,  J. E. Herr,  
 E. G. Hohenstein,  Z. C. Holden,  Kerwin Hui,  B. C. Huynh,  T.-C. Jagau,  
 Hyunjun Ji,  B. Kaduk,  K. Khistyaev,  Jaehoon Kim,  P. Klunzinger,  K. Koh,  
 D. Kosenkov,  L. Koulias,  T. Kowalczyk,  C. M. Krauter,  A. Kunitsa,  
 Ka Un Lao,  A. Laurent,  K. V. Lawler,  Joonho Lee,  D. Lefrancois,  
 S. Lehtola,  D. S. Levine,  Yi-Pei Li,  You-Sheng Lin,  Fenglai Liu,  
 E. Livshits,  A. Luenser,  P. Manohar,  E. Mansoor,  S. F. Manzer,  
 Shan-Ping Mao,  Yuezhi Mao,  N. Mardirossian,  A. V. Marenich,  
 T. Markovich,  L. A. Martinez-Martinez,  S. A. Maurer,  N. J. Mayhall,  
 S. C. McKenzie,  J.-M. Mewes,  P. Morgante,  A. F. Morrison,  
 J. W. Mullinax,  K. Nanda,  T. S. Nguyen-Beck,  R. Olivares-Amaya,  
 J. A. Parkhill,  Zheng Pei,  T. M. Perrine,  F. Plasser,  P. Pokhilko,  
 S. Prager,  A. Prociuk,  E. Ramos,  D. R. Rehn,  F. Rob,  M. Scheurer,  
 M. Schneider,  N. Sergueev,  S. M. Sharada,  S. Sharma,  D. W. Small,  
 T. Stauch,  T. Stein,  Yu-Chuan Su,  A. J. W. Thom,  A. Tkatchenko,  
 T. Tsuchimochi,  N. M. Tubman,  L. Vogt,  M. L. Vidal,  O. Vydrov,  
 M. A. Watson,  J. Wenzel,  M. de Wergifosse,  T. A. Wesolowski,  A. White,  
 J. Witte,  A. Yamada,  Jun Yang,  K. Yao,  S. Yeganeh,  S. R. Yost,  
 Zhi-Qiang You,  A. Zech,  Igor Ying Zhang,  Xing Zhang,  Yan Zhao,  
 Ying Zhu,  B. R. Brooks,  G. K. L. Chan,  C. J. Cramer,  M. S. Gordon,  
 W. J. Hehre,  A. Klamt,  M. W. Schmidt,  C. D. Sherrill,  D. G. Truhlar,  
 A. Aspuru-Guzik,  R. Baer,  A. T. Bell,  N. A. Besley,  Jeng-Da Chai,  
 A. E. DePrince, III,  R. A. DiStasio Jr.,  A. Dreuw,  B. D. Dunietz,  
 T. R. Furlani,  Chao-Ping Hsu,  Yousung Jung,  Jing Kong,  D. S. Lambrecht,  
 WanZhen Liang,  C. Ochsenfeld,  V. A. Rassolov,  L. V. Slipchenko,  
 J. E. Subotnik,  T. Van Voorhis,  J. M. Herbert,  A. I. Krylov,  
 P. M. W. Gill,  M. Head-Gordon

 Contributors to earlier versions of Q-Chem not listed above: 
 R. D. Adamson,  B. Austin,  J. Baker,  G. J. O. Beran,  K. Brandhorst,  
 S. T. Brown,  E. F. C. Byrd,  A. K. Chakraborty,  C.-L. Cheng,  
 Siu Hung Chien,  D. M. Chipman,  D. L. Crittenden,  H. Dachsel,  
 R. J. Doerksen,  A. D. Dutoi,  L. Fusti-Molnar,  W. A. Goddard III,  
 A. Golubeva-Zadorozhnaya,  S. R. Gwaltney,  G. Hawkins,  A. Heyden,  
 S. Hirata,  G. Kedziora,  F. J. Keil,  C. Kelley,  Jihan Kim,  R. A. King,  
 R. Z. Khaliullin,  P. P. Korambath,  W. Kurlancheek,  A. M. Lee,  M. S. Lee,  
 S. V. Levchenko,  Ching Yeh Lin,  D. Liotard,  R. C. Lochan,  I. Lotan,  
 P. E. Maslen,  N. Nair,  D. P. O'Neill,  D. Neuhauser,  E. Neuscamman,  
 C. M. Oana,  R. Olson,  B. Peters,  R. Peverati,  P. A. Pieniazek,  
 Y. M. Rhee,  J. Ritchie,  M. A. Rohrdanz,  E. Rosta,  N. J. Russ,  
 H. F. Schaefer III,  N. E. Schultz,  N. Shenvi,  A. C. Simmonett,  A. Sodt,  
 D. Stuck,  K. S. Thanthiriwatte,  V. Vanovschi,  Tao Wang,  A. Warshel,  
 C. F. Williams,  Q. Wu,  X. Xu,  W. Zhang

 Please cite Q-Chem as follows:
 Y. Shao et al., Mol. Phys. 113, 184-215 (2015)
 DOI: 10.1080/00268976.2014.952696

 Q-Chem 5.2.0 for Intel X86 EM64T Linux

 Parts of Q-Chem use Armadillo 8.300.2 (Tropical Shenanigans).
 http://arma.sourceforge.net/

 Q-Chem begins on Sun Sep 26 21:53:55 2021  

Host: cori01
0

     Scratch files written to /tmp/qchem61964//Frg2//
 May1019 |scratch|qcdevops|jenkins|workspace|build_RNUM -1
Processing $rem in /global/common/cori/software/qchem/5.2/config/preferences:
	 MEM_TOTAL  96000 
NAlpha2: 58
NElect   58
Mult     1
Symmetry turned off for PCM/SM12/SMD calculation

Checking the input file for inconsistencies... 	...done.

--------------------------------------------------------------
User input:
--------------------------------------------------------------
$molecule
0 1
 6	0.0964266866	1.8283794240	-2.0989138917
 6	-1.0975733134	0.9863794240	-1.7239138917
 6	-1.5715733134	-0.0086205760	-2.5829138917
 6	-1.8335733134	1.2513794240	-0.5549138917
 6	-2.6965733134	-0.7506205760	-2.2799138917
 6	-2.9855733134	0.5183794240	-0.2639138917
 6	-3.4135733134	-0.4826205760	-1.1189138917
 8	-4.5395733134	-1.1906205760	-0.8359138917
 1	0.8914266866	1.1933794240	-2.4829138917
 1	0.4684266866	2.3243794240	-1.2009138917
 1	-1.0305733134	-0.2146205760	-3.4969138917
 1	-1.5095733134	2.0293794240	0.1260861083
 1	-3.0235733134	-1.5336205760	-2.9509138917
 1	-3.5455733134	0.7173794240	0.6370861083
 1	-4.7095733134	-1.8836205760	-1.4839138917
 1	-0.1599533134	2.5805144240	-2.8595438917
$end
$rem
EDA2		1
METHOD		WB97X-V
BASIS		DEF2-TZVPD
XC_GRID		000099000590
NL_GRID		1
UNRESTRICTED		FALSE
MAX_SCF_CYCLES		200
SYMMETRY		FALSE
SYM_IGNORE		TRUE
BASIS_LIN_DEP_THRESH		6
THRESH		14
SCF_CONVERGENCE		8
SCF_PRINT_FRGM		TRUE
SOLVENT_METHOD		PCM
!required keywords
JOBTYPE		SP
SYM_IGNORE		TRUE
SUBSYSTEM		TRUE
GEN_SCFMAN		TRUE
CHILD_INSTRUCTION		2
SYM_IGNORE		TRUE
SCFMI		0
RI_K 0		
PARI_K 0		
MIN_PARI_K 0		
IARI_K 0		
OCC_RI_K 0		
PURECART		1111
MEM_STATIC		2000
MEM_TOTAL		96000
GUI		0
CHILD_MP		1
CHILD_MP_ORDERS		232
FRZ_RELAX		0
FRZ_RELAX_METHOD		0
EDA_CLS_ELEC		1
EDA_CLS_DISP		0
FRZ_ORTHO_DECOMP		1
EDA2		FALSE
FRGM_METHOD		FALSE
CIS_N_ROOTS  0
LOCAL_CIS    0
CIS_RLX_DNS  1
$end
$pcm
THEORY                  CPCM
METHOD                  SWIG
SOLVER                  INVERSION
RADII                   UFF
HPOINTS                 302
HEAVYPOINTS             302
PRINTLEVEL              0
$end
$solvent
DIELECTRIC              78.390000 ! water
$end
--------------------------------------------------------------
 ----------------------------------------------------------------
             Standard Nuclear Orientation (Angstroms)
    I     Atom           X                Y                Z
 ----------------------------------------------------------------
    1      C       0.0964266866     1.8283794240    -2.0989138917
    2      C      -1.0975733134     0.9863794240    -1.7239138917
    3      C      -1.5715733134    -0.0086205760    -2.5829138917
    4      C      -1.8335733134     1.2513794240    -0.5549138917
    5      C      -2.6965733134    -0.7506205760    -2.2799138917
    6      C      -2.9855733134     0.5183794240    -0.2639138917
    7      C      -3.4135733134    -0.4826205760    -1.1189138917
    8      O      -4.5395733134    -1.1906205760    -0.8359138917
    9      H       0.8914266866     1.1933794240    -2.4829138917
   10      H       0.4684266866     2.3243794240    -1.2009138917
   11      H      -1.0305733134    -0.2146205760    -3.4969138917
   12      H      -1.5095733134     2.0293794240     0.1260861083
   13      H      -3.0235733134    -1.5336205760    -2.9509138917
   14      H      -3.5455733134     0.7173794240     0.6370861083
   15      H      -4.7095733134    -1.8836205760    -1.4839138917
   16      H      -0.1599533134     2.5805144240    -2.8595438917
 ----------------------------------------------------------------
 Nuclear Repulsion Energy =         343.12677235 hartrees
 There are       29 alpha and       29 beta electrons
 Requested basis set is def2-TZVPD
 There are 145 shells and 371 basis functions

 Total QAlloc Memory Limit  96000 MB
 Mega-Array Size      1956 MB
 MEM_STATIC part      2000 MB
 Discretize the solute cavity surface with Lebedev spheres
	Using 302 Lebedev grid points for each H atom
	Using 302 Lebedev grid points for other atoms
	Atomic van der Waals radii will be scaled by 1.20
 Remove points where switching function is < 1.0e-08
 Keep 1857 surface tesserae and discard 2975 interior tesserae
 Molecular Surface Area = 190.513 Angst**2
 A cutoff of  1.0D-14 yielded  10042 shell pairs
 There are     67084 function pairs (     85786 Cartesian)
 Smallest overlap matrix eigenvalue = 5.53E-07
 Linear dependence detected in AO basis
 Tighter screening thresholds may be required for diffuse basis sets
 Use S2THRESH > 14 and THRESH = 14 in case of SCF convergence issues
 Number of orthogonalized atomic orbitals = 370
 Maximum deviation from orthogonality = 3.233E-10

 Scale SEOQF with 1.000000e-01/1.000000e-01/1.000000e-01

 Standard Electronic Orientation quadrupole field applied
 Nucleus-field energy     =     0.0000000024 hartrees
 Guess from superposition of atomic densities
 Warning:  Energy on first SCF cycle will be non-variational
 SAD guess density has 57.738434 electrons

 -----------------------------------------------------------------------
  General SCF calculation program by
  Eric Jon Sundstrom, Paul Horn, Yuezhi Mao, Dmitri Zuev, Alec White,
  David Stuck, Shaama M.S., Shane Yost, Joonho Lee, David Small,
  Daniel Levine, Susi Lehtola, Hugh Burton, Evgeny Epifanovsky
 -----------------------------------------------------------------------
 Exchange:     0.1670 Hartree-Fock + 1.0000 wB97X-V + LR-HF
 Correlation:  1.0000 wB97X-V
 Using Euler-Maclaurin-Lebedev (99,590) quadrature formula
 Nonlocal Correlation:  VV10 with C = 0.0100 and b = 6.00 and scale = 1.00000
 Grid used for NLC:  SG-1 standard quadrature
Energy prior to optimization (guess energy) = -346.497871660493
Begin Timing: Total SCF Calculation
begin iterations for algorithm: DIIS         
the SCF tolerance is set to 1.00e-08
    1    -346.4978716605      5.16e-03     00000 
    2    -346.4350148646      5.58e-03     00000 
    3    -346.8121951840      5.34e-04     00000 
    4    -346.8162995295      1.81e-04     00000 
    5    -346.8169116498      2.50e-05     00000 
    6    -346.8169311914      1.25e-05     00000 
    7    -346.8169344834      3.93e-06     00000 
    8    -346.8169349244      1.28e-06     00000 
    9    -346.8169349884      5.89e-07     00000 
   10    -346.8169350011      1.64e-07     00000 
   11    -346.8169350038      7.37e-08     00000 
   12    -346.8169350042      3.73e-08     00000 
   13    -346.8169350043      8.00e-09     00000 Convergence criterion met
Timing for Total SCF: 2081.00s (wall), 4134.96s (cpu)

************** Final PCM Free Energy Summary **************
 G_electrostatic  =      -0.00560197 hartree =      -3.51529071 kcal/mol
 G_cavitation     =       0.00000000 hartree =       0.00000000 kcal/mol
 G_dispersion     =       0.00000000 hartree =       0.00000000 kcal/mol
 G_repulsion      =       0.00000000 hartree =       0.00000000 kcal/mol
 --------------------------------------------------
 Non-electrostatic Free Energy =       0.00000000 hartree =       0.00000000 kcal/mol
 Total                         =      -0.00560197 hartree =      -3.51529071 kcal/mol
 --------------------------------------------------
 SCF Energy (H0 + V/2)                       =    -346.81693500 
 Solute Internal Energy (H0)                 =    -346.81133303 
 Total Free Energy (H0 + V/2 + non-elec)     =    -346.81693500 hartree
                                             = -217630.91141837 kcal/mol
***********************************************************

E_pcm = -0.0056019724
Multipole orders to be included
        2
        3
computing dipole RHS
computing quadrupole RHS
total number of RHS in solve_reponses: 8
RHS batch sizes
        8
Beginning Block Conjugate Gradient Iterations. Batch Number: 0
computing hessian-vector products by finite difference
              1      5.91e-01     00000 Conjugate Gradient Iteration
computing hessian-vector products by finite difference
              2      1.79e-01     00000 Conjugate Gradient Iteration
computing hessian-vector products by finite difference
              3      4.49e-02     00000 Conjugate Gradient Iteration
computing hessian-vector products by finite difference
              4      1.24e-02     00000 Conjugate Gradient Iteration
computing hessian-vector products by finite difference
              5      3.82e-03     00000 Conjugate Gradient Iteration
computing hessian-vector products by finite difference
              6      1.45e-03     00000 Conjugate Gradient Iteration
computing hessian-vector products by finite difference
              7      3.53e-04     00000 Conjugate Gradient Iteration
computing hessian-vector products by finite difference
              8      6.89e-05     00000 Conjugate Gradient Iteration
computing hessian-vector products by finite difference
              9      1.27e-05     00000 Conjugate Gradient Iteration
computing hessian-vector products by finite difference
             10      1.64e-06     00000 Conjugate Gradient Iteration
computing hessian-vector products by finite difference
             11      2.49e-07     00000 Conjugate Gradient Iteration
computing hessian-vector products by finite difference
             12      4.61e-08     00000 Conjugate Gradient Iteration
computing hessian-vector products by finite difference
             13      7.05e-09     00000 CG Converged
batch 0 complete
Done Calculating Responses
TESTING ORTHOGONALIZATION OF MULTIPOLE BASIS
Multipole virts passed orthogonality test
Virts Per Order
           87
          145
 
 --------------------------------------------------------------
 
                    Orbital Energies (a.u.)
 --------------------------------------------------------------
 
 Alpha MOs
 -- Occupied --
-19.2454 -10.3345 -10.2775 -10.2765 -10.2731 -10.2710 -10.2704 -10.2619
 -1.1964  -0.9953  -0.9021  -0.8847  -0.8113  -0.7484  -0.7146  -0.6678
 -0.6035  -0.5807  -0.5504  -0.5419  -0.5335  -0.5228  -0.5106  -0.4787
 -0.4575  -0.4433  -0.4388  -0.3535  -0.3127
 -- Virtual --
  0.0576   0.0602   0.0681   0.0774   0.0830   0.0943   0.1086   0.1096
  0.1140   0.1312   0.1438   0.1480   0.1548   0.1700   0.1765   0.1918
  0.1988   0.2037   0.2159   0.2243   0.2331   0.2392   0.2476   0.2521
  0.2628   0.2660   0.2686   0.2731   0.2831   0.2948   0.2958   0.3025
  0.3041   0.3102   0.3118   0.3205   0.3332   0.3408   0.3439   0.3491
  0.3536   0.3561   0.3632   0.3732   0.3753   0.3783   0.3802   0.3924
  0.3927   0.3956   0.3978   0.4063   0.4142   0.4182   0.4249   0.4321
  0.4354   0.4520   0.4577   0.4593   0.4718   0.4720   0.4788   0.4830
  0.4851   0.4925   0.4948   0.5018   0.5104   0.5131   0.5259   0.5379
  0.5410   0.5460   0.5482   0.5528   0.5586   0.5689   0.5803   0.5913
  0.6020   0.6084   0.6153   0.6285   0.6394   0.6542   0.6595   0.6730
  0.6793   0.6840   0.6884   0.6937   0.6980   0.7049   0.7159   0.7291
  0.7300   0.7368   0.7439   0.7506   0.7577   0.7709   0.7828   0.7858
  0.7866   0.7919   0.7939   0.7983   0.8040   0.8123   0.8278   0.8364
  0.8459   0.8491   0.8531   0.8579   0.8598   0.8746   0.8822   0.8868
  0.9015   0.9131   0.9266   0.9460   0.9623   0.9782   0.9976   1.0048
  1.0161   1.0369   1.0447   1.0470   1.0531   1.0704   1.0732   1.0847
  1.0997   1.1169   1.1346   1.1710   1.1957   1.2321   1.2670   1.2924
  1.3104   1.3163   1.3278   1.3558   1.3581   1.3840   1.3967   1.4342
  1.4570   1.4679   1.4718   1.4798   1.5315   1.5615   1.6028   1.6206
  1.6309   1.6393   1.6833   1.6878   1.7044   1.7236   1.7752   1.7994
  1.8176   1.8244   1.8336   1.8554   1.8626   1.8799   1.9168   1.9252
  1.9390   1.9558   1.9753   1.9872   1.9991   2.0269   2.0398   2.0489
  2.0560   2.0767   2.0864   2.1040   2.1170   2.1497   2.1950   2.2034
  2.2244   2.2370   2.2674   2.2766   2.3044   2.3216   2.3407   2.3682
  2.4042   2.4076   2.4302   2.4633   2.4884   2.4954   2.5191   2.5602
  2.5796   2.6014   2.6157   2.6409   2.6478   2.6654   2.6851   2.7454
  2.7578   2.7640   2.7755   2.8035   2.8183   2.8306   2.8641   2.8761
  2.9098   2.9214   2.9388   2.9461   2.9626   2.9734   2.9794   3.0069
  3.0146   3.0405   3.0629   3.0787   3.0991   3.1352   3.1510   3.1662
  3.1778   3.1939   3.2150   3.2214   3.2424   3.2633   3.2803   3.2926
  3.3251   3.3538   3.3847   3.3911   3.3964   3.4062   3.4444   3.4501
  3.4636   3.4734   3.4911   3.5138   3.5243   3.5257   3.5345   3.5414
  3.5542   3.5693   3.5762   3.5940   3.6039   3.6242   3.6474   3.6735
  3.6857   3.7092   3.7375   3.7618   3.7952   3.8263   3.8424   3.8983
  3.9332   3.9595   3.9716   3.9981   4.0434   4.0851   4.1388   4.1550
  4.2494   4.2711   4.2856   4.2896   4.3098   4.3286   4.3450   4.3615
  4.3841   4.3926   4.4345   4.4545   4.4885   4.5427   4.6078   4.6127
  4.7416   4.7475   4.7831   4.8067   4.8633   4.9278   5.0228   5.0627
  5.0825   5.1282   5.1608   5.2990   5.3397   5.3955   5.4412   5.5412
  5.6159   5.6477   5.7067   5.7523   5.9541   6.2191   6.5026   6.5975
  6.6322   6.8755   7.0094   7.3004   7.4597  22.6642  22.6783  22.9366
 22.9953  23.0491  23.1809  23.5151  44.4206
 --------------------------------------------------------------
 
          Ground-State Mulliken Net Atomic Charges

     Atom                 Charge (a.u.)
  ----------------------------------------
      1 C                    -1.008400
      2 C                     0.546144
      3 C                    -0.621869
      4 C                    -0.429058
      5 C                    -0.372818
      6 C                    -0.742308
      7 C                     0.841917
      8 O                    -0.486866
      9 H                     0.269271
     10 H                     0.270678
     11 H                     0.328894
     12 H                     0.300318
     13 H                     0.269333
     14 H                     0.330470
     15 H                     0.293876
     16 H                     0.210419
  ----------------------------------------
  Sum of atomic charges =     0.000000

 -----------------------------------------------------------------
                    Cartesian Multipole Moments
 -----------------------------------------------------------------
    Charge (ESU x 10^10)
                 0.0000
    Dipole Moment (Debye)
         X       0.6427      Y      -0.6239      Z      -1.5274
       Tot       1.7707
    Quadrupole Moments (Debye-Ang)
        XX     -50.7739     XY       6.3482     YY     -43.5998
        XZ       4.0663     YZ       5.7481     ZZ     -41.7191
    Octopole Moments (Debye-Ang^2)
       XXX     328.4995    XXY     -45.7184    XYY      87.9032
       YYY     -52.6983    XXZ      49.5310    XYZ     -25.9791
       YYZ      61.1666    XZZ      90.1870    YZZ     -27.0530
       ZZZ     191.7912
    Hexadecapole Moments (Debye-Ang^3)
      XXXX   -2115.3619   XXXY      46.3033   XXYY    -330.1072
      XYYY     -41.3774   YYYY    -396.9630   XXXZ    -262.4323
      XXYZ     131.7415   XYYZ     -80.0529   YYYZ      80.8838
      XXZZ    -426.7261   XYZZ      22.4537   YYZZ    -195.0925
      XZZZ    -338.0698   YZZZ      90.1603   ZZZZ    -843.8627
 -----------------------------------------------------------------
Archival summary:
1\1\nid00567\SP\ProcedureUnspecified\BasisUnspecified\178\meili\MonSep2708:11:492021MonSep2708:11:492021\0\\#,ProcedureUnspecified,BasisUnspecified,\\0,1\C\O,1,1.35986\H,2,0.963874,1,112.362\C,1,1.38427,2,120.263,3,-177.389,0\H,4,1.07935,1,119.242,2,1.09265,0\C,1,1.39062,2,120.022,3,3.46484,0\H,6,1.08179,1,120.098,2,-1.04787,0\C,6,1.3813,1,119.97,2,178.402,0\H,8,1.0819,6,119.36,1,-178.994,0\C,4,1.39609,1,120.401,2,-179.69,0\H,10,1.08352,4,119.52,1,-179.785,0\C,8,1.39735,6,121.596,1,2.29709,0\C,12,1.50838,8,120.875,6,-177.267,0\H,13,1.08752,12,109.907,8,-46.0983,0\H,13,1.09124,12,108.601,8,-163.882,0\H,13,1.1,12,111.66,8,74.9841,0\\\@

 Total job time:  37074.34s(wall), 73664.51s(cpu) 
 Mon Sep 27 08:11:50 2021

        *************************************************************
        *                                                           *
        *  Thank you very much for using Q-Chem.  Have a nice day.  *
        *                                                           *
        *************************************************************


Done Job For Fragment 1
calling putenv with: QCSCRATCH=/global/cscratch1/sd/meili 
calling putenv with: QCLOCALSCR=/tmp 
calling putenv with: QCTHREADS=32 
Doing General SCFMI
 Exchange:     0.1670 Hartree-Fock + 1.0000 wB97X-V + LR-HF
 Correlation:  1.0000 wB97X-V
 Using Euler-Maclaurin-Lebedev (99,590) quadrature formula
 Nonlocal Correlation:  VV10 with C = 0.0100 and b = 6.00 and scale = 1.00000
 Grid used for NLC:  SG-1 standard quadrature
performing fock build before subrot guess so that all methods have access
Printing subrot_rss_gen Method Specification:
Occupied Subspace Method is 0
Virtual Subspace Method is 0
Energy of the unrelaxed supersystem initial determinant -618.391492609727
performing fock build before subrot guess so that all methods have access
Printing subrot_rss_gen Method Specification:
Occupied Subspace Method is 0
Virtual Subspace Method is 0
Energy of the unrelaxed supersystem initial determinant w/ solvent -618.399047924170
write pseudocanon occs and virts to disk
write pseudocanon orbital energies to disk
Tolerance of ortho_decomp_scf: 1.00e-06
GDM subspace size: 20
Beginning the Orthogonal Decomposition of the Initial Supersystem Wavefunction
    1    -618.3769484576      1.53e-02     ortho_decomp Preconditoned Steepest Descent
    2    -618.3780894582      3.60e-04     ortho_decomp BFGS Step
    3    -618.3780926841      2.82e-05     ortho_decomp BFGS Step
    4    -618.3780926917      1.24e-06     ortho_decomp BFGS Step
    5    -618.3780926917      5.36e-08     ortho_decomp 00000 Convergence criterion met
 Hartree-Fock
 Hartree-Fock
 Hartree-Fock
Doing General SCFMI
 Exchange:     0.1670 Hartree-Fock + 1.0000 wB97X-V + LR-HF
 Correlation:  1.0000 wB97X-V
 Using Euler-Maclaurin-Lebedev (99,590) quadrature formula
 Nonlocal Correlation:  VV10 with C = 0.0100 and b = 6.00 and scale = 1.00000
 Grid used for NLC:  SG-1 standard quadrature
performing fock build at end of subrot_r(subrot) constructor so that all methods have access
<S^2> of initial wavefunction before polarization iterations 0.0000000000
Beginning iterations for the determination of the polarized wavefunction
Energy prior to optimization (guess energy) = -618.399047924171
Begin Timing: Total SCF Calculation
begin iterations for algorithm: DIIS         
the SCF tolerance is set to 1.00e-08
    1    -618.3990479242      3.46e-05     00000 
    2    -618.3991880764      1.58e-05     00000 
    3    -618.3992045808      8.86e-06     00000 
    4    -618.3992111185      2.46e-06     00000 
    5    -618.3992117629      1.21e-06     00000 
    6    -618.3992119497      4.05e-07     00000 
    7    -618.3992119668      1.75e-07     00000 
    8    -618.3992119691      7.10e-08     00000 
    9    -618.3992119694      2.54e-08     00000 
   10    -618.3992119695      1.21e-08     00000 
   11    -618.3992119695      4.04e-09     00000 Convergence criterion met
write pseudocanon occs and virts to disk
write pseudocanon orbital energies to disk
Timing for Total SCF: 10125.00s (wall), 20148.73s (cpu)
<S^2> of polarized wavefunction after polarization iterations 0.0000000000
relaxing scfmi constraint to allow all rotations in the entire AO span
Doing General SCFMI
 Exchange:     0.1670 Hartree-Fock + 1.0000 wB97X-V + LR-HF
 Correlation:  1.0000 wB97X-V
 Using Euler-Maclaurin-Lebedev (99,590) quadrature formula
 Nonlocal Correlation:  VV10 with C = 0.0100 and b = 6.00 and scale = 1.00000
 Grid used for NLC:  SG-1 standard quadrature
performing fock build at end of subrot_r(subrot) constructor so that all methods have access
<S^2> of polarized wavefunction before ct-allowed iterations 0.0000000000
Beginning iterations for the determination of the CT-Allowed wavefunction
Energy prior to optimization (guess energy) = -618.399211969491
Begin Timing: Total SCF Calculation
begin iterations for algorithm: DIIS         
the SCF tolerance is set to 1.00e-08
    1    -618.3992119695      4.98e-05     00000 
    2    -618.3998288976      5.11e-06     00000 
    3    -618.3998463145      7.58e-07     00000 
    4    -618.3998468178      2.04e-07     00000 
    5    -618.3998468318      9.26e-08     00000 
    6    -618.3998468349      1.96e-08     00000 
    7    -618.3998468351      7.84e-09     00000 Convergence criterion met
write pseudocanon occs and virts to disk
write pseudocanon orbital energies to disk
Timing for Total SCF: 6577.00s (wall), 13088.72s (cpu)
<S^2> of ct_allowed wavefunction after ct-allowed iterations 0.0000000000

================================
        Results of EDA2         
================================
Basic EDA Quantities
--------------------
Fragment Energies (Ha):
1 -271.5800200984
2 -346.8169350043
--------------------
  E_prp (kJ/mol) = 0.0000
  E_sol (kJ/mol) = 1.1970
  E_frz (kJ/mol) = -6.6917
  E_pol (kJ/mol) = -0.4307
  E_vct (kJ/mol) = -1.6669
  E_int (kJ/mol) = -7.5923
--------------------


Initial Wavefunction Decomposition
--------------------
  --------------------
  Orthogonal Fragment Subspace Decomposition:
  --------------------
     E_elec   (ELEC)   (kJ/mol) = -13.7397
     E_pauli  (PAULI)  (kJ/mol) = 21.7681
     E_disp   (DISP)   (kJ/mol) = -14.7201
     --------------------
     Terms summing to E_pauli:
     --------------------
        E_kep_pauli       (kJ/mol) = 28.4902
        E_disp_free_pauli (kJ/mol) = -6.7221
  --------------------
  Classical Frozen Decomposition:
  --------------------
     E_cls_elec  (CLS ELEC)  (kJ/mol) = -4.6784
     E_cls_pauli (CLS PAULI) (kJ/mol) = -2.0134
    [E_mod_pauli (MOD PAULI) (kJ/mol) = 12.7067 (CLS PAULI - DISP from orthogonal decomposition) ]
  --------------------
--------------------

Simplified EDA Summary (kJ/mol)
--------------------
 PREPARATION     0.0000
 SOLVATION       1.1970
 FROZEN          8.0284      (does not include dispersion)
[PAULI           21.7681]     (if this is negligible, then frozen describes electrostatics)
 DISPERSION      -14.7201
 POLARIZATION    -0.4307
 CHARGE TRANSFER -1.6669
 TOTAL           -7.5923     (PRP + SOL + FRZ + DISP + POL + CT)
--------------------
 
 --------------------------------------------------------------
 
                    Orbital Energies (a.u.)
 --------------------------------------------------------------
 
 Alpha MOs
 -- Occupied --
-19.2455 -10.3348 -10.2792 -10.2776 -10.2766 -10.2733 -10.2714 -10.2711
-10.2706 -10.2704 -10.2678 -10.2668 -10.2639 -10.2625 -10.2616  -1.1965
 -1.0001  -0.9954  -0.9107  -0.9024  -0.8848  -0.8791  -0.8149  -0.8119
 -0.7485  -0.7310  -0.7149  -0.7064  -0.6679  -0.6315  -0.6037  -0.5811
 -0.5758  -0.5671  -0.5506  -0.5436  -0.5379  -0.5336  -0.5304  -0.5206
 -0.5152  -0.5109  -0.4880  -0.4793  -0.4742  -0.4576  -0.4467  -0.4421
 -0.4393  -0.4356  -0.3540  -0.3488  -0.3378  -0.3126
 -- Virtual --
  0.0534   0.0572   0.0611   0.0648   0.0692   0.0712   0.0750   0.0775
  0.0846   0.0929   0.0996   0.1017   0.1057   0.1108   0.1132   0.1229
  0.1322   0.1340   0.1379   0.1478   0.1538   0.1561   0.1637   0.1671
  0.1720   0.1741   0.1810   0.1876   0.1916   0.1978   0.2003   0.2093
  0.2155   0.2164   0.2204   0.2314   0.2348   0.2360   0.2366   0.2471
  0.2480   0.2490   0.2553   0.2583   0.2623   0.2626   0.2653   0.2725
  0.2739   0.2772   0.2782   0.2822   0.2914   0.2928   0.2960   0.3004
  0.3028   0.3058   0.3081   0.3099   0.3175   0.3179   0.3227   0.3258
  0.3283   0.3296   0.3360   0.3382   0.3445   0.3456   0.3460   0.3480
  0.3563   0.3572   0.3617   0.3626   0.3633   0.3667   0.3697   0.3757
  0.3768   0.3788   0.3805   0.3823   0.3879   0.3889   0.3926   0.3983
  0.4004   0.4024   0.4066   0.4090   0.4152   0.4184   0.4230   0.4246
  0.4295   0.4305   0.4331   0.4354   0.4377   0.4429   0.4456   0.4525
  0.4541   0.4565   0.4587   0.4660   0.4669   0.4695   0.4742   0.4752
  0.4781   0.4795   0.4857   0.4865   0.4955   0.4992   0.4998   0.5038
  0.5045   0.5071   0.5107   0.5114   0.5197   0.5218   0.5232   0.5268
  0.5286   0.5356   0.5416   0.5451   0.5460   0.5509   0.5540   0.5598
  0.5633   0.5667   0.5706   0.5740   0.5762   0.5800   0.5860   0.5890
  0.5954   0.6008   0.6045   0.6078   0.6105   0.6148   0.6216   0.6305
  0.6352   0.6368   0.6425   0.6472   0.6548   0.6563   0.6605   0.6658
  0.6724   0.6752   0.6780   0.6844   0.6905   0.6913   0.6940   0.6987
  0.7044   0.7072   0.7106   0.7167   0.7217   0.7243   0.7292   0.7339
  0.7381   0.7398   0.7430   0.7437   0.7481   0.7509   0.7541   0.7550
  0.7626   0.7670   0.7725   0.7728   0.7817   0.7829   0.7866   0.7903
  0.7922   0.7935   0.7967   0.8011   0.8023   0.8082   0.8107   0.8124
  0.8193   0.8212   0.8243   0.8341   0.8375   0.8392   0.8435   0.8466
  0.8501   0.8530   0.8553   0.8600   0.8621   0.8678   0.8715   0.8740
  0.8771   0.8840   0.8868   0.8916   0.8950   0.8996   0.9016   0.9089
  0.9135   0.9210   0.9277   0.9306   0.9396   0.9421   0.9517   0.9580
  0.9611   0.9628   0.9803   0.9859   0.9987   1.0020   1.0047   1.0143
  1.0192   1.0223   1.0328   1.0405   1.0466   1.0473   1.0654   1.0701
  1.0733   1.0804   1.0834   1.0876   1.0927   1.0951   1.0971   1.1083
  1.1123   1.1242   1.1342   1.1543   1.1598   1.1655   1.1710   1.1842
  1.1871   1.1988   1.2219   1.2372   1.2501   1.2570   1.2821   1.2919
  1.3007   1.3237   1.3266   1.3382   1.3470   1.3483   1.3541   1.3730
  1.3744   1.3889   1.4096   1.4162   1.4187   1.4272   1.4414   1.4619
  1.4652   1.4762   1.4826   1.4904   1.4965   1.4998   1.5098   1.5240
  1.5350   1.5427   1.5567   1.5626   1.5788   1.6204   1.6270   1.6430
  1.6460   1.6486   1.6591   1.6646   1.6671   1.6838   1.7024   1.7107
  1.7209   1.7428   1.7527   1.7660   1.7931   1.7989   1.8075   1.8157
  1.8171   1.8328   1.8332   1.8405   1.8574   1.8649   1.8785   1.8948
  1.8970   1.9081   1.9161   1.9291   1.9324   1.9458   1.9545   1.9552
  1.9662   1.9804   1.9852   1.9903   2.0010   2.0038   2.0083   2.0263
  2.0373   2.0429   2.0533   2.0574   2.0617   2.0645   2.0726   2.0791
  2.0862   2.0947   2.1041   2.1164   2.1237   2.1314   2.1488   2.1554
  2.1595   2.1846   2.1976   2.2035   2.2098   2.2221   2.2343   2.2438
  2.2574   2.2656   2.2739   2.2796   2.2925   2.2985   2.3077   2.3178
  2.3266   2.3306   2.3533   2.3627   2.3861   2.4034   2.4120   2.4215
  2.4260   2.4292   2.4492   2.4668   2.4859   2.4983   2.5130   2.5203
  2.5294   2.5624   2.5791   2.5863   2.5934   2.6005   2.6118   2.6187
  2.6287   2.6391   2.6428   2.6591   2.6721   2.6806   2.6951   2.7026
  2.7086   2.7195   2.7279   2.7380   2.7584   2.7697   2.7808   2.7862
  2.7951   2.8061   2.8108   2.8199   2.8242   2.8312   2.8436   2.8644
  2.8740   2.8768   2.8813   2.8952   2.9198   2.9299   2.9333   2.9423
  2.9476   2.9559   2.9639   2.9646   2.9734   2.9865   2.9889   2.9919
  2.9976   3.0070   3.0195   3.0270   3.0347   3.0397   3.0487   3.0569
  3.0786   3.0845   3.0897   3.0993   3.1129   3.1208   3.1283   3.1467
  3.1633   3.1726   3.1810   3.1963   3.2002   3.2100   3.2308   3.2329
  3.2351   3.2429   3.2538   3.2667   3.2729   3.2895   3.2938   3.2980
  3.3053   3.3304   3.3394   3.3447   3.3604   3.3762   3.3827   3.3887
  3.4001   3.4091   3.4115   3.4279   3.4384   3.4506   3.4555   3.4619
  3.4649   3.4765   3.4816   3.4839   3.4875   3.4982   3.5025   3.5041
  3.5192   3.5285   3.5318   3.5342   3.5380   3.5479   3.5536   3.5604
  3.5613   3.5655   3.5688   3.5773   3.5840   3.5858   3.5947   3.5985
  3.6101   3.6138   3.6305   3.6338   3.6423   3.6502   3.6626   3.6635
  3.6690   3.6900   3.7005   3.7209   3.7265   3.7296   3.7419   3.7476
  3.7819   3.7927   3.8039   3.8312   3.8355   3.8649   3.8756   3.9105
  3.9176   3.9277   3.9429   3.9696   3.9753   3.9755   3.9884   4.0109
  4.0179   4.0481   4.0689   4.0811   4.0953   4.1485   4.1577   4.1621
  4.2314   4.2633   4.2796   4.2923   4.2971   4.3034   4.3056   4.3170
  4.3234   4.3325   4.3359   4.3487   4.3522   4.3641   4.3700   4.3815
  4.3907   4.4003   4.4031   4.4229   4.4268   4.4443   4.4520   4.4615
  4.4870   4.4989   4.5229   4.5504   4.5689   4.6181   4.6228   4.6425
  4.6596   4.7499   4.7537   4.7581   4.7950   4.7967   4.8169   4.8515
  4.8831   4.8901   4.9320   4.9393   4.9747   5.0277   5.0580   5.0653
  5.0711   5.0958   5.1352   5.1669   5.1989   5.2884   5.3103   5.3425
  5.3962   5.4048   5.4174   5.4474   5.5158   5.5442   5.5480   5.6176
  5.6518   5.7063   5.7123   5.7588   5.8435   5.9552   6.2206   6.5036
  6.6001   6.6361   6.8804   7.0132   7.3073   7.4636  22.6229  22.6940
 22.7176  22.7405  22.9419  22.9601  22.9651  23.0256  23.0610  23.0746
 23.1357  23.1988  23.4900  23.5213  44.4412
 --------------------------------------------------------------
 
          Ground-State Mulliken Net Atomic Charges

     Atom                 Charge (a.u.)
  ----------------------------------------
      1 C                    -1.067921
      2 C                    -0.365354
      3 C                    -0.281982
      4 C                    -0.542406
      5 C                    -0.514472
      6 C                    -0.358463
      7 C                     0.668056
      8 H                     0.352609
      9 H                     0.329291
     10 H                     0.333606
     11 H                     0.357652
     12 H                     0.314862
     13 H                     0.279641
     14 H                     0.245400
     15 H                     0.224441
     16 C                    -1.201278
     17 C                     0.680992
     18 C                    -0.595776
     19 C                    -0.343982
     20 C                    -0.370950
     21 C                    -0.796567
     22 C                     0.787801
     23 O                    -0.495006
     24 H                     0.255262
     25 H                     0.301017
     26 H                     0.320397
     27 H                     0.297364
     28 H                     0.277630
     29 H                     0.343052
     30 H                     0.298542
     31 H                     0.266542
  ----------------------------------------
  Sum of atomic charges =     0.000000

 -----------------------------------------------------------------
                    Cartesian Multipole Moments
 -----------------------------------------------------------------
    Charge (ESU x 10^10)
                -0.0000
    Dipole Moment (Debye)
         X       0.9396      Y      -0.4029      Z      -1.3049
       Tot       1.6576
    Quadrupole Moments (Debye-Ang)
        XX     -88.5995     XY       9.9793     YY     -87.7647
        XZ       6.3095     YZ       4.4754     ZZ     -79.9791
    Octopole Moments (Debye-Ang^2)
       XXX      12.5390    XXY     -20.4039    XYY     -32.9393
       YYY     -13.5820    XXZ      -8.9506    XYZ     -24.7879
       YYZ     -11.2377    XZZ     -10.8179    YZZ     -20.7198
       ZZZ      -5.4095
    Hexadecapole Moments (Debye-Ang^3)
      XXXX   -4289.0473   XXXY      97.0603   XXYY    -761.5987
      XYYY     -23.5153   YYYY    -584.4479   XXXZ    -857.0457
      XXYZ     159.2942   XYYZ    -308.5511   YYYZ     145.2896
      XXZZ    -947.7697   XYZZ      21.7495   YYZZ    -407.7159
      XZZZ    -943.6287   YZZZ     127.2698   ZZZZ   -1865.9714
 -----------------------------------------------------------------
Archival summary:
1\1\nid00567\SP\ProcedureUnspecified\BasisUnspecified\11416\meili\MonSep2717:01:042021MonSep2717:01:042021\0\\#,ProcedureUnspecified,BasisUnspecified,\\0,1\C\C,1,1.39735\H,2,1.0819,1,119.032\C,2,1.3813,1,121.596,3,178.713,0\H,4,1.08179,2,119.93,1,-178.252,0\C,4,1.39062,2,119.97,1,2.29709,0\O,6,1.35986,4,120.022,2,178.402,0\H,7,0.963874,6,112.362,4,3.46484,0\C,6,1.38427,4,119.71,2,-0.748986,0\H,9,1.07935,6,119.242,4,-179.758,0\C,9,1.39609,6,120.401,4,-0.541232,0\H,11,1.08352,9,119.52,6,-179.785,0\C,1,1.50838,2,120.875,3,4.02031,0\H,13,1.08752,1,109.907,2,-46.0983,0\H,13,1.09124,1,108.601,2,-163.882,0\H,13,1.1,1,111.66,2,74.9841,0\H,14,2.22717,13,115.296,1,-76.7148,0\C,17,1.07949,14,146.017,13,0.34574,0\C,18,1.37663,17,119.892,14,67.6613,0\H,19,1.08165,18,120.338,17,-1.13037,0\C,19,1.38531,18,119.344,17,178.021,0\H,21,1.07231,19,120.943,18,-177.86,0\C,21,1.37246,19,119.924,18,1.52684,0\H,23,1.08139,21,118.531,19,179.497,0\C,23,1.37924,21,122.412,19,-0.0133982,0\C,25,1.40046,23,117.794,21,-0.795226,0\H,26,1.0794,25,119.954,23,-179.937,0\C,25,1.48846,23,121.231,21,177.687,0\H,28,1.08894,25,106.705,23,-130.87,0\H,28,1.09153,25,109.811,23,-15.2258,0\H,28,1.1,25,114.914,23,108.556,0\\\@

 Total job time:  97602.22s(wall), 63266.11s(cpu) 
 Mon Sep 27 17:01:05 2021

        *************************************************************
        *                                                           *
        *  Thank you very much for using Q-Chem.  Have a nice day.  *
        *                                                           *
        *************************************************************


