
Running Job 1 of 1 SSI-021PHE-251HIE-1_SMD_TZVPD.in
qchem SSI-021PHE-251HIE-1_SMD_TZVPD.in_45818.0 /tmp/qchem45818/ 0
/global/common/cori/software/qchem/5.2/exe/qcprog.exe_s SSI-021PHE-251HIE-1_SMD_TZVPD.in_45818.0 /tmp/qchem45818/
                  Welcome to Q-Chem
     A Quantum Leap Into The Future Of Chemistry


 Q-Chem 5.2, Q-Chem, Inc., Pleasanton, CA (2019)

 License issued to: National Energy Research Scientific Computing Center

 Yihan Shao,  Zhengting Gan,  E. Epifanovsky,  A. T. B. Gilbert,  M. Wormit,  
 J. Kussmann,  A. W. Lange,  A. Behn,  Jia Deng,  Xintian Feng,  D. Ghosh,  
 M. Goldey,  P. R. Horn,  L. D. Jacobson,  I. Kaliman,  T. Kus,  A. Landau,  
 Jie Liu,  E. I. Proynov,  R. M. Richard,  R. P. Steele,  E. J. Sundstrom,  
 H. L. Woodcock III,  P. M. Zimmerman,  D. Zuev,  B. Albrecht,  E. Alguire,  
 S. A. Baeppler,  D. Barton,  Z. Benda,  Y. A. Bernard,  E. J. Berquist,  
 K. B. Bravaya,  H. Burton,  D. Casanova,  Chun-Min Chang,  Yunqing Chen,  
 A. Chien,  K. D. Closser,  M. P. Coons,  S. Coriani,  S. Dasgupta,  
 A. L. Dempwolff,  M. Diedenhofen,  Hainam Do,  R. G. Edgar,  Po-Tung Fang,  
 S. Faraji,  S. Fatehi,  Qingguo Feng,  K. D. Fenk,  J. Fosso-Tande,  
 J. Gayvert,  Qinghui Ge,  A. Ghysels,  G. Gidofalvi,  J. Gomes,  
 J. Gonthier,  A. Gunina,  D. Hait,  M. W. D. Hanson-Heine,  
 P. H. P. Harbach,  A. W. Hauser,  M. F. Herbst,  J. E. Herr,  
 E. G. Hohenstein,  Z. C. Holden,  Kerwin Hui,  B. C. Huynh,  T.-C. Jagau,  
 Hyunjun Ji,  B. Kaduk,  K. Khistyaev,  Jaehoon Kim,  P. Klunzinger,  K. Koh,  
 D. Kosenkov,  L. Koulias,  T. Kowalczyk,  C. M. Krauter,  A. Kunitsa,  
 Ka Un Lao,  A. Laurent,  K. V. Lawler,  Joonho Lee,  D. Lefrancois,  
 S. Lehtola,  D. S. Levine,  Yi-Pei Li,  You-Sheng Lin,  Fenglai Liu,  
 E. Livshits,  A. Luenser,  P. Manohar,  E. Mansoor,  S. F. Manzer,  
 Shan-Ping Mao,  Yuezhi Mao,  N. Mardirossian,  A. V. Marenich,  
 T. Markovich,  L. A. Martinez-Martinez,  S. A. Maurer,  N. J. Mayhall,  
 S. C. McKenzie,  J.-M. Mewes,  P. Morgante,  A. F. Morrison,  
 J. W. Mullinax,  K. Nanda,  T. S. Nguyen-Beck,  R. Olivares-Amaya,  
 J. A. Parkhill,  Zheng Pei,  T. M. Perrine,  F. Plasser,  P. Pokhilko,  
 S. Prager,  A. Prociuk,  E. Ramos,  D. R. Rehn,  F. Rob,  M. Scheurer,  
 M. Schneider,  N. Sergueev,  S. M. Sharada,  S. Sharma,  D. W. Small,  
 T. Stauch,  T. Stein,  Yu-Chuan Su,  A. J. W. Thom,  A. Tkatchenko,  
 T. Tsuchimochi,  N. M. Tubman,  L. Vogt,  M. L. Vidal,  O. Vydrov,  
 M. A. Watson,  J. Wenzel,  M. de Wergifosse,  T. A. Wesolowski,  A. White,  
 J. Witte,  A. Yamada,  Jun Yang,  K. Yao,  S. Yeganeh,  S. R. Yost,  
 Zhi-Qiang You,  A. Zech,  Igor Ying Zhang,  Xing Zhang,  Yan Zhao,  
 Ying Zhu,  B. R. Brooks,  G. K. L. Chan,  C. J. Cramer,  M. S. Gordon,  
 W. J. Hehre,  A. Klamt,  M. W. Schmidt,  C. D. Sherrill,  D. G. Truhlar,  
 A. Aspuru-Guzik,  R. Baer,  A. T. Bell,  N. A. Besley,  Jeng-Da Chai,  
 A. E. DePrince, III,  R. A. DiStasio Jr.,  A. Dreuw,  B. D. Dunietz,  
 T. R. Furlani,  Chao-Ping Hsu,  Yousung Jung,  Jing Kong,  D. S. Lambrecht,  
 WanZhen Liang,  C. Ochsenfeld,  V. A. Rassolov,  L. V. Slipchenko,  
 J. E. Subotnik,  T. Van Voorhis,  J. M. Herbert,  A. I. Krylov,  
 P. M. W. Gill,  M. Head-Gordon

 Contributors to earlier versions of Q-Chem not listed above: 
 R. D. Adamson,  B. Austin,  J. Baker,  G. J. O. Beran,  K. Brandhorst,  
 S. T. Brown,  E. F. C. Byrd,  A. K. Chakraborty,  C.-L. Cheng,  
 Siu Hung Chien,  D. M. Chipman,  D. L. Crittenden,  H. Dachsel,  
 R. J. Doerksen,  A. D. Dutoi,  L. Fusti-Molnar,  W. A. Goddard III,  
 A. Golubeva-Zadorozhnaya,  S. R. Gwaltney,  G. Hawkins,  A. Heyden,  
 S. Hirata,  G. Kedziora,  F. J. Keil,  C. Kelley,  Jihan Kim,  R. A. King,  
 R. Z. Khaliullin,  P. P. Korambath,  W. Kurlancheek,  A. M. Lee,  M. S. Lee,  
 S. V. Levchenko,  Ching Yeh Lin,  D. Liotard,  R. C. Lochan,  I. Lotan,  
 P. E. Maslen,  N. Nair,  D. P. O'Neill,  D. Neuhauser,  E. Neuscamman,  
 C. M. Oana,  R. Olson,  B. Peters,  R. Peverati,  P. A. Pieniazek,  
 Y. M. Rhee,  J. Ritchie,  M. A. Rohrdanz,  E. Rosta,  N. J. Russ,  
 H. F. Schaefer III,  N. E. Schultz,  N. Shenvi,  A. C. Simmonett,  A. Sodt,  
 D. Stuck,  K. S. Thanthiriwatte,  V. Vanovschi,  Tao Wang,  A. Warshel,  
 C. F. Williams,  Q. Wu,  X. Xu,  W. Zhang

 Please cite Q-Chem as follows:
 Y. Shao et al., Mol. Phys. 113, 184-215 (2015)
 DOI: 10.1080/00268976.2014.952696

 Q-Chem 5.2.0 for Intel X86 EM64T Linux

 Parts of Q-Chem use Armadillo 8.300.2 (Tropical Shenanigans).
 http://arma.sourceforge.net/

 Q-Chem begins on Sun Sep 26 03:51:56 2021  

Host: cori01
0

     Scratch files written to /tmp/qchem45818//
 May1019 |scratch|qcdevops|jenkins|workspace|build_RNUM -1
Processing $rem in /global/common/cori/software/qchem/5.2/config/preferences:
	 MEM_TOTAL  96000 
NAlpha2: 102
NElect   102
Mult     1
Symmetry turned off for PCM/SM12/SMD calculation

 Q-Chem warning in module libgen/rem_setup.C, line 2803:

 Neither GIA nor STOLL is specified by user. Use STOLL as the default


Checking the input file for inconsistencies... 	...done.

--------------------------------------------------------------
User input:
--------------------------------------------------------------
$comment
SSI-021PHE-251HIE-1.pdb
$end

$molecule
0 1
--
0 1
C   -3.139614679212    2.398526746818    1.203787972768
C    0.173385320788    1.258526746818   -0.286212027232
C   -0.982614679212    1.296526746818    0.484787972768
C    0.397385320788    2.233526746818   -1.248212027232
C   -1.923614679212    2.317526746818    0.311787972768
C   -0.500614679212    3.264526746818   -1.388212027232
C   -1.655614679212    3.305526746818   -0.628212027232
H    0.905385320788    0.495526746818   -0.129212027232
H   -1.144614679212    0.532526746818    1.233787972768
H    1.293385320788    2.208526746818   -1.854212027232
H   -0.306614679212    4.029526746818   -2.122212027232
H   -3.493614679212    1.386526746818    1.398787972768
H   -3.938614679212    2.939526746818    0.692787972768
H   -2.334614679212    4.137526746818   -0.744212027232
H   -2.920244679212    2.879436746818    2.168467972768
--
0 1
C    0.672385320788   -2.201473253182   -1.557212027232
C    1.240385320788   -3.446473253182   -2.222212027232
C    0.963385320788   -2.087473253182   -0.092212027232
C    2.077385320788   -1.618473253182    0.503787972768
C    0.615385320788   -2.046473253182    2.076787972768
N    0.041385320788   -2.330473253182    0.904787972768
N    1.857385320788   -1.632473253182    1.863787972768
H    1.051385320788   -1.306473253182   -2.048212027232
H   -0.407614679212   -2.183473253182   -1.651212027232
H    2.320385320788   -3.476473253182   -2.072212027232
H    2.772385320788   -1.065473253182   -0.079212027232
H    0.135385320788   -2.123473253182    3.045787972768
H    2.466385320788   -1.290473253182    2.603787972768
H    0.990255320788   -3.410313253182   -3.292782027232
H    0.785155320788   -4.346743253182   -1.783712027232
$end

$rem
JOBTYPE			EDA
EDA2			1
method			wB97X-V
BASIS			def2-TZVPD
XC_GRID			000099000590
NL_GRID			1
UNRESTRICTED		FALSE
MAX_SCF_CYCLES		200
SYMMETRY		FALSE
SYM_IGNORE		TRUE
MEM_STATIC		2000
BASIS_LIN_DEP_THRESH 	6
THRESH 			14
SCF_CONVERGENCE 	8
SCF_PRINT_FRGM 		TRUE
SOLVENT_METHOD          SMD
$end

$SMX
SOLVENT			WATER
$END
--------------------------------------------------------------
 ----------------------------------------------------------------
             Standard Nuclear Orientation (Angstroms)
    I     Atom           X                Y                Z
 ----------------------------------------------------------------
    1      C      -3.1396146792     2.3985267468     1.2037879728
    2      C       0.1733853208     1.2585267468    -0.2862120272
    3      C      -0.9826146792     1.2965267468     0.4847879728
    4      C       0.3973853208     2.2335267468    -1.2482120272
    5      C      -1.9236146792     2.3175267468     0.3117879728
    6      C      -0.5006146792     3.2645267468    -1.3882120272
    7      C      -1.6556146792     3.3055267468    -0.6282120272
    8      H       0.9053853208     0.4955267468    -0.1292120272
    9      H      -1.1446146792     0.5325267468     1.2337879728
   10      H       1.2933853208     2.2085267468    -1.8542120272
   11      H      -0.3066146792     4.0295267468    -2.1222120272
   12      H      -3.4936146792     1.3865267468     1.3987879728
   13      H      -3.9386146792     2.9395267468     0.6927879728
   14      H      -2.3346146792     4.1375267468    -0.7442120272
   15      H      -2.9202446792     2.8794367468     2.1684679728
   16      C       0.6723853208    -2.2014732532    -1.5572120272
   17      C       1.2403853208    -3.4464732532    -2.2222120272
   18      C       0.9633853208    -2.0874732532    -0.0922120272
   19      C       2.0773853208    -1.6184732532     0.5037879728
   20      C       0.6153853208    -2.0464732532     2.0767879728
   21      N       0.0413853208    -2.3304732532     0.9047879728
   22      N       1.8573853208    -1.6324732532     1.8637879728
   23      H       1.0513853208    -1.3064732532    -2.0482120272
   24      H      -0.4076146792    -2.1834732532    -1.6512120272
   25      H       2.3203853208    -3.4764732532    -2.0722120272
   26      H       2.7723853208    -1.0654732532    -0.0792120272
   27      H       0.1353853208    -2.1234732532     3.0457879728
   28      H       2.4663853208    -1.2904732532     2.6037879728
   29      H       0.9902553208    -3.4103132532    -3.2927820272
   30      H       0.7851553208    -4.3467432532    -1.7837120272
 ----------------------------------------------------------------
 Nuclear Repulsion Energy =         822.08124003 hartrees
 There are       51 alpha and       51 beta electrons
 Requested basis set is def2-TZVPD
 There are 262 shells and 662 basis functions

 Total QAlloc Memory Limit  96000 MB
 Mega-Array Size      1956 MB
 MEM_STATIC part      2000 MB
 
 Citation of the SMD model:
 Marenich, A.V.; Cramer, C.J.; Truhlar, D.G.
 J. Phys. Chem. B 2009, 113, 6378-6396.
 iSolventCode=           1
 Solvent: water                                                           
 
 vradii
            1           2           3           4           5           6
    1   1.8500000   1.8500000   1.8500000   1.8500000   1.8500000   1.8500000
            7           8           9          10          11          12
    1   1.8500000   1.2000000   1.2000000   1.2000000   1.2000000   1.2000000
           13          14          15          16          17          18
    1   1.2000000   1.2000000   1.2000000   1.8500000   1.8500000   1.8500000
           19          20          21          22          23          24
    1   1.8500000   1.8500000   1.8900000   1.8900000   1.2000000   1.2000000
           25          26          27          28          29          30
    1   1.2000000   1.2000000   1.2000000   1.2000000   1.2000000   1.2000000
 Changing PCM_VDW_RADII to SMD_RADIUS
 Discretize the solute cavity surface with Lebedev spheres
	Using 110 Lebedev grid points for each H atom
	Using 194 Lebedev grid points for other atoms
	Atomic van der Waals radii will be scaled by 1.20
 Remove points where switching function is < 1.0e-08
 Keep 2124 surface tesserae and discard 2352 interior tesserae
 Molecular Surface Area = 260.385 Angst**2
 A cutoff of  1.0D-14 yielded  29482 shell pairs
 There are    189542 function pairs (    239171 Cartesian)
 Smallest overlap matrix eigenvalue = 4.13E-07
 Linear dependence detected in AO basis
 Tighter screening thresholds may be required for diffuse basis sets
 Use S2THRESH > 14 and THRESH = 14 in case of SCF convergence issues
 Number of orthogonalized atomic orbitals = 660
 Maximum deviation from orthogonality = 2.628E-10

 Scale SEOQF with 1.000000e-01/1.000000e-01/1.000000e-01

 Standard Electronic Orientation quadrupole field applied
 Nucleus-field energy     =     0.0000000295 hartrees

 -----------------------------------------------------------------------
  General SCF calculation program by
  Eric Jon Sundstrom, Paul Horn, Yuezhi Mao, Dmitri Zuev, Alec White,
  David Stuck, Shaama M.S., Shane Yost, Joonho Lee, David Small,
  Daniel Levine, Susi Lehtola, Hugh Burton, Evgeny Epifanovsky
 -----------------------------------------------------------------------
================================================================
                 ALMO-EDA with the EDA2 driver                  
================================================================
 The second-generation ALMO-EDA (for DFT):                      
 P. R. Horn, Y. Mao and M. Head-Gordon, PCCP, 18, 23067 (2016)  
 Decomposition of the frozen energy:                            
 P. R. Horn, Y. Mao and M. Head-Gordon, JCP, 144, 114107 (2016) 
 FERF model for polarization:                                   
 P. R. Horn and M. Head-Gordon, JCP, 143, 114111 (2015)         
Using eda2 option set 1
Option set summary: Frozen orbital wavefunction, initial wavefunction decomposition, and nDQ polarization.
--------------------------------
Printing EDA Options
--------------------------------
eda_child_super_basis      0
fragmo_guess_mode          0
child_mp                   1
child_mp_orders            232
cls_elec                   1
cls_disp                   0
scfmi_mode                 1
scfmi_occs                 0
scfmi_virts                0
frz_relax                  0
frz_relax_method           0
dc_pen_start               0
dc_pen_conv                0
dc_pen_increment           0
dc_pen_steps               0
dc_pen_thresh_factor       0
dc_pen_pre_newton_thresh   0
frz_ortho_decomp           1
frz_ortho_decomp_conv      6
frgm_method                2
scfmi_freeze_ss            0
separate_rehyb             0
plot_diff_den              0
eda_nocv                   0
eda_vct_relax              1
disp_free_x                0
disp_free_c                0
eda_bsse                   0
eda_pct_a                  0
eda_covp                   0
--------------------------------
Attempting to make child job directory: /tmp/qchem45818//Frg1/
Attempting to make child job directory: /tmp/qchem45818//Frg2/
Creating input file /tmp/qchem45818/Frg1.input
using default PutDataFrgm: nothing
calling putenv with: QCSCRATCH=/tmp/qchem45818/ 
calling putenv with: QCLOCALSCR=/tmp/qchem45818/ 
Spawning Job For Fragment 0
                  Welcome to Q-Chem
     A Quantum Leap Into The Future Of Chemistry


 Q-Chem 5.2, Q-Chem, Inc., Pleasanton, CA (2019)

 License issued to: National Energy Research Scientific Computing Center

 Yihan Shao,  Zhengting Gan,  E. Epifanovsky,  A. T. B. Gilbert,  M. Wormit,  
 J. Kussmann,  A. W. Lange,  A. Behn,  Jia Deng,  Xintian Feng,  D. Ghosh,  
 M. Goldey,  P. R. Horn,  L. D. Jacobson,  I. Kaliman,  T. Kus,  A. Landau,  
 Jie Liu,  E. I. Proynov,  R. M. Richard,  R. P. Steele,  E. J. Sundstrom,  
 H. L. Woodcock III,  P. M. Zimmerman,  D. Zuev,  B. Albrecht,  E. Alguire,  
 S. A. Baeppler,  D. Barton,  Z. Benda,  Y. A. Bernard,  E. J. Berquist,  
 K. B. Bravaya,  H. Burton,  D. Casanova,  Chun-Min Chang,  Yunqing Chen,  
 A. Chien,  K. D. Closser,  M. P. Coons,  S. Coriani,  S. Dasgupta,  
 A. L. Dempwolff,  M. Diedenhofen,  Hainam Do,  R. G. Edgar,  Po-Tung Fang,  
 S. Faraji,  S. Fatehi,  Qingguo Feng,  K. D. Fenk,  J. Fosso-Tande,  
 J. Gayvert,  Qinghui Ge,  A. Ghysels,  G. Gidofalvi,  J. Gomes,  
 J. Gonthier,  A. Gunina,  D. Hait,  M. W. D. Hanson-Heine,  
 P. H. P. Harbach,  A. W. Hauser,  M. F. Herbst,  J. E. Herr,  
 E. G. Hohenstein,  Z. C. Holden,  Kerwin Hui,  B. C. Huynh,  T.-C. Jagau,  
 Hyunjun Ji,  B. Kaduk,  K. Khistyaev,  Jaehoon Kim,  P. Klunzinger,  K. Koh,  
 D. Kosenkov,  L. Koulias,  T. Kowalczyk,  C. M. Krauter,  A. Kunitsa,  
 Ka Un Lao,  A. Laurent,  K. V. Lawler,  Joonho Lee,  D. Lefrancois,  
 S. Lehtola,  D. S. Levine,  Yi-Pei Li,  You-Sheng Lin,  Fenglai Liu,  
 E. Livshits,  A. Luenser,  P. Manohar,  E. Mansoor,  S. F. Manzer,  
 Shan-Ping Mao,  Yuezhi Mao,  N. Mardirossian,  A. V. Marenich,  
 T. Markovich,  L. A. Martinez-Martinez,  S. A. Maurer,  N. J. Mayhall,  
 S. C. McKenzie,  J.-M. Mewes,  P. Morgante,  A. F. Morrison,  
 J. W. Mullinax,  K. Nanda,  T. S. Nguyen-Beck,  R. Olivares-Amaya,  
 J. A. Parkhill,  Zheng Pei,  T. M. Perrine,  F. Plasser,  P. Pokhilko,  
 S. Prager,  A. Prociuk,  E. Ramos,  D. R. Rehn,  F. Rob,  M. Scheurer,  
 M. Schneider,  N. Sergueev,  S. M. Sharada,  S. Sharma,  D. W. Small,  
 T. Stauch,  T. Stein,  Yu-Chuan Su,  A. J. W. Thom,  A. Tkatchenko,  
 T. Tsuchimochi,  N. M. Tubman,  L. Vogt,  M. L. Vidal,  O. Vydrov,  
 M. A. Watson,  J. Wenzel,  M. de Wergifosse,  T. A. Wesolowski,  A. White,  
 J. Witte,  A. Yamada,  Jun Yang,  K. Yao,  S. Yeganeh,  S. R. Yost,  
 Zhi-Qiang You,  A. Zech,  Igor Ying Zhang,  Xing Zhang,  Yan Zhao,  
 Ying Zhu,  B. R. Brooks,  G. K. L. Chan,  C. J. Cramer,  M. S. Gordon,  
 W. J. Hehre,  A. Klamt,  M. W. Schmidt,  C. D. Sherrill,  D. G. Truhlar,  
 A. Aspuru-Guzik,  R. Baer,  A. T. Bell,  N. A. Besley,  Jeng-Da Chai,  
 A. E. DePrince, III,  R. A. DiStasio Jr.,  A. Dreuw,  B. D. Dunietz,  
 T. R. Furlani,  Chao-Ping Hsu,  Yousung Jung,  Jing Kong,  D. S. Lambrecht,  
 WanZhen Liang,  C. Ochsenfeld,  V. A. Rassolov,  L. V. Slipchenko,  
 J. E. Subotnik,  T. Van Voorhis,  J. M. Herbert,  A. I. Krylov,  
 P. M. W. Gill,  M. Head-Gordon

 Contributors to earlier versions of Q-Chem not listed above: 
 R. D. Adamson,  B. Austin,  J. Baker,  G. J. O. Beran,  K. Brandhorst,  
 S. T. Brown,  E. F. C. Byrd,  A. K. Chakraborty,  C.-L. Cheng,  
 Siu Hung Chien,  D. M. Chipman,  D. L. Crittenden,  H. Dachsel,  
 R. J. Doerksen,  A. D. Dutoi,  L. Fusti-Molnar,  W. A. Goddard III,  
 A. Golubeva-Zadorozhnaya,  S. R. Gwaltney,  G. Hawkins,  A. Heyden,  
 S. Hirata,  G. Kedziora,  F. J. Keil,  C. Kelley,  Jihan Kim,  R. A. King,  
 R. Z. Khaliullin,  P. P. Korambath,  W. Kurlancheek,  A. M. Lee,  M. S. Lee,  
 S. V. Levchenko,  Ching Yeh Lin,  D. Liotard,  R. C. Lochan,  I. Lotan,  
 P. E. Maslen,  N. Nair,  D. P. O'Neill,  D. Neuhauser,  E. Neuscamman,  
 C. M. Oana,  R. Olson,  B. Peters,  R. Peverati,  P. A. Pieniazek,  
 Y. M. Rhee,  J. Ritchie,  M. A. Rohrdanz,  E. Rosta,  N. J. Russ,  
 H. F. Schaefer III,  N. E. Schultz,  N. Shenvi,  A. C. Simmonett,  A. Sodt,  
 D. Stuck,  K. S. Thanthiriwatte,  V. Vanovschi,  Tao Wang,  A. Warshel,  
 C. F. Williams,  Q. Wu,  X. Xu,  W. Zhang

 Please cite Q-Chem as follows:
 Y. Shao et al., Mol. Phys. 113, 184-215 (2015)
 DOI: 10.1080/00268976.2014.952696

 Q-Chem 5.2.0 for Intel X86 EM64T Linux

 Parts of Q-Chem use Armadillo 8.300.2 (Tropical Shenanigans).
 http://arma.sourceforge.net/

 Q-Chem begins on Sun Sep 26 03:52:03 2021  

Host: cori01
0

     Scratch files written to /tmp/qchem45818//Frg1//
 May1019 |scratch|qcdevops|jenkins|workspace|build_RNUM -1
Processing $rem in /global/common/cori/software/qchem/5.2/config/preferences:
	 MEM_TOTAL  96000 
NAlpha2: 50
NElect   50
Mult     1
Symmetry turned off for PCM/SM12/SMD calculation

Checking the input file for inconsistencies... 	...done.

--------------------------------------------------------------
User input:
--------------------------------------------------------------
$molecule
0 1
 6	-3.1396146792	2.3985267468	1.2037879728
 6	0.1733853208	1.2585267468	-0.2862120272
 6	-0.9826146792	1.2965267468	0.4847879728
 6	0.3973853208	2.2335267468	-1.2482120272
 6	-1.9236146792	2.3175267468	0.3117879728
 6	-0.5006146792	3.2645267468	-1.3882120272
 6	-1.6556146792	3.3055267468	-0.6282120272
 1	0.9053853208	0.4955267468	-0.1292120272
 1	-1.1446146792	0.5325267468	1.2337879728
 1	1.2933853208	2.2085267468	-1.8542120272
 1	-0.3066146792	4.0295267468	-2.1222120272
 1	-3.4936146792	1.3865267468	1.3987879728
 1	-3.9386146792	2.9395267468	0.6927879728
 1	-2.3346146792	4.1375267468	-0.7442120272
 1	-2.9202446792	2.8794367468	2.1684679728
$end
$rem
EDA2		1
METHOD		WB97X-V
BASIS		DEF2-TZVPD
XC_GRID		000099000590
NL_GRID		1
UNRESTRICTED		FALSE
MAX_SCF_CYCLES		200
SYMMETRY		FALSE
SYM_IGNORE		TRUE
BASIS_LIN_DEP_THRESH		6
THRESH		14
SCF_CONVERGENCE		8
SCF_PRINT_FRGM		TRUE
SOLVENT_METHOD		SMD
!required keywords
JOBTYPE		SP
SYM_IGNORE		TRUE
SUBSYSTEM		TRUE
GEN_SCFMAN		TRUE
CHILD_INSTRUCTION		2
SYM_IGNORE		TRUE
SCFMI		0
RI_K 0		
PARI_K 0		
MIN_PARI_K 0		
IARI_K 0		
OCC_RI_K 0		
PURECART		1111
MEM_STATIC		2000
MEM_TOTAL		96000
GUI		0
CHILD_MP		1
CHILD_MP_ORDERS		232
FRZ_RELAX		0
FRZ_RELAX_METHOD		0
EDA_CLS_ELEC		1
EDA_CLS_DISP		0
FRZ_ORTHO_DECOMP		1
EDA2		FALSE
FRGM_METHOD		FALSE
CIS_N_ROOTS  0
LOCAL_CIS    0
CIS_RLX_DNS  1
$end
$smx
SOLVENT			WATER
$end
--------------------------------------------------------------
 ----------------------------------------------------------------
             Standard Nuclear Orientation (Angstroms)
    I     Atom           X                Y                Z
 ----------------------------------------------------------------
    1      C      -3.1396146792     2.3985267468     1.2037879728
    2      C       0.1733853208     1.2585267468    -0.2862120272
    3      C      -0.9826146792     1.2965267468     0.4847879728
    4      C       0.3973853208     2.2335267468    -1.2482120272
    5      C      -1.9236146792     2.3175267468     0.3117879728
    6      C      -0.5006146792     3.2645267468    -1.3882120272
    7      C      -1.6556146792     3.3055267468    -0.6282120272
    8      H       0.9053853208     0.4955267468    -0.1292120272
    9      H      -1.1446146792     0.5325267468     1.2337879728
   10      H       1.2933853208     2.2085267468    -1.8542120272
   11      H      -0.3066146792     4.0295267468    -2.1222120272
   12      H      -3.4936146792     1.3865267468     1.3987879728
   13      H      -3.9386146792     2.9395267468     0.6927879728
   14      H      -2.3346146792     4.1375267468    -0.7442120272
   15      H      -2.9202446792     2.8794367468     2.1684679728
 ----------------------------------------------------------------
 Nuclear Repulsion Energy =         270.41424472 hartrees
 There are       25 alpha and       25 beta electrons
 Requested basis set is def2-TZVPD
 There are 131 shells and 331 basis functions

 Total QAlloc Memory Limit  96000 MB
 Mega-Array Size      1956 MB
 MEM_STATIC part      2000 MB
 
 Citation of the SMD model:
 Marenich, A.V.; Cramer, C.J.; Truhlar, D.G.
 J. Phys. Chem. B 2009, 113, 6378-6396.
 iSolventCode=           1
 Solvent: water                                                           
 
 vradii
            1           2           3           4           5           6
    1   1.8500000   1.8500000   1.8500000   1.8500000   1.8500000   1.8500000
            7           8           9          10          11          12
    1   1.8500000   1.2000000   1.2000000   1.2000000   1.2000000   1.2000000
           13          14          15
    1   1.2000000   1.2000000   1.2000000
 Changing PCM_VDW_RADII to SMD_RADIUS
 Discretize the solute cavity surface with Lebedev spheres
	Using 110 Lebedev grid points for each H atom
	Using 194 Lebedev grid points for other atoms
	Atomic van der Waals radii will be scaled by 1.20
 Remove points where switching function is < 1.0e-08
 Keep 1054 surface tesserae and discard 1184 interior tesserae
 Molecular Surface Area = 131.854 Angst**2

                       Distance Matrix (Angstroms)
             C (  1)   C (  2)   C (  3)   C (  4)   C (  5)   C (  6)
   C (  2)  3.807318
   C (  3)  2.526661  1.390044
   C (  4)  4.306959  1.387892  2.405339
   C (  5)  1.510259  2.424148  1.399232  2.797802
   C (  6)  3.799045  2.385941  2.759253  1.374396  2.410755
   C (  7)  2.526090  2.766300  2.393278  2.397581  1.389809  1.383223
   H (  8)  4.664796  1.068944  2.140827  2.128584  3.393730  3.351011
   H (  9)  2.731827  2.138831  1.082100  3.381049  2.154797  3.841021
   H ( 10)  5.388780  2.148377  3.388634  1.081978  3.879758  2.133244
   H ( 11)  4.663510  3.358532  3.837019  2.117807  3.386737  1.077783
   H ( 12)  1.089718  4.037635  2.673690  4.781621  2.124436  4.500256
   H ( 13)  1.091880  4.548928  3.388311  4.802792  2.142958  4.031877
   H ( 14)  2.732554  3.845578  3.377814  3.367945  2.143935  2.130826
   H ( 15)  1.100002  4.268882  3.015757  4.805993  2.180889  4.318898
             C (  7)   H (  8)   H (  9)   H ( 10)   H ( 11)   H ( 12)
   H (  8)  3.834556
   H (  9)  3.379008  2.462039
   H ( 10)  3.376846  2.461816  4.276513
   H ( 11)  2.139162  4.234401  4.918739  2.438825
   H ( 12)  3.342085  4.741294  2.504864  5.845773  5.435058
   H ( 13)  2.662909  5.487546  3.727300  5.864759  4.722685  1.763029
   H ( 14)  1.080149  4.913246  4.280725  4.256234  2.454248  3.674742
   H ( 15)  3.098751  5.059427  3.087795  5.864022  5.153999  1.774807
             H ( 13)   H ( 14)
   H ( 14)  2.464344
   H ( 15)  1.793968  3.226369
 
 A cutoff of  1.0D-14 yielded   8358 shell pairs
 There are     54478 function pairs (     69422 Cartesian)
 Smallest overlap matrix eigenvalue = 5.40E-07
 Linear dependence detected in AO basis
 Tighter screening thresholds may be required for diffuse basis sets
 Use S2THRESH > 14 and THRESH = 14 in case of SCF convergence issues
 Number of orthogonalized atomic orbitals = 330
 Maximum deviation from orthogonality = 2.688E-10

 Scale SEOQF with 1.000000e-01/1.000000e-01/1.000000e-01

 Standard Electronic Orientation quadrupole field applied
 Nucleus-field energy     =     0.0000000216 hartrees
 Guess from superposition of atomic densities
 Warning:  Energy on first SCF cycle will be non-variational
 SAD guess density has 49.913408 electrons

 -----------------------------------------------------------------------
  General SCF calculation program by
  Eric Jon Sundstrom, Paul Horn, Yuezhi Mao, Dmitri Zuev, Alec White,
  David Stuck, Shaama M.S., Shane Yost, Joonho Lee, David Small,
  Daniel Levine, Susi Lehtola, Hugh Burton, Evgeny Epifanovsky
 -----------------------------------------------------------------------
 Exchange:     0.1670 Hartree-Fock + 1.0000 wB97X-V + LR-HF
 Correlation:  1.0000 wB97X-V
 Using Euler-Maclaurin-Lebedev (99,590) quadrature formula
 Nonlocal Correlation:  VV10 with C = 0.0100 and b = 6.00 and scale = 1.00000
 Grid used for NLC:  SG-1 standard quadrature
Energy prior to optimization (guess energy) = -271.518337621339
Begin Timing: Total SCF Calculation
begin iterations for algorithm: DIIS         
the SCF tolerance is set to 1.00e-08
    1    -271.5183376213      1.99e-03     00000 
    2    -271.5597413273      1.30e-03     00000 
    3    -271.5843614474      1.56e-04     00000 
    4    -271.5850474608      4.93e-05     00000 
    5    -271.5851003157      2.42e-05     00000 
    6    -271.5851100519      5.93e-06     00000 
    7    -271.5851108606      2.32e-06     00000 
    8    -271.5851109514      3.85e-07     00000 
    9    -271.5851109571      9.93e-08     00000 
   10    -271.5851109575      4.00e-08     00000 
   11    -271.5851109575      1.97e-08     00000 
   12    -271.5851109576      6.38e-09     00000 Convergence criterion met
Timing for Total SCF: 1305.00s (wall), 2579.83s (cpu)
(3)  G-ENP(liq) elect-nuc-pol free energy of system     -271.585110958 a.u.
(4)  G-CDS(liq) cavity-dispersion-solvent structure 
     free energy                                                3.1480 kcal/mol
(6)  G-S(liq) free energy of system                     -271.580094344 a.u.
E_pcm = -0.0072514973
E_cds = 0.0050166138
Multipole orders to be included
        2
        3
computing dipole RHS
computing quadrupole RHS
total number of RHS in solve_reponses: 8
RHS batch sizes
        8
Beginning Block Conjugate Gradient Iterations. Batch Number: 0
computing hessian-vector products by finite difference
              1      5.98e-01     00000 Conjugate Gradient Iteration
computing hessian-vector products by finite difference
              2      1.77e-01     00000 Conjugate Gradient Iteration
computing hessian-vector products by finite difference
              3      4.27e-02     00000 Conjugate Gradient Iteration
computing hessian-vector products by finite difference
              4      1.08e-02     00000 Conjugate Gradient Iteration
computing hessian-vector products by finite difference
              5      2.31e-03     00000 Conjugate Gradient Iteration
computing hessian-vector products by finite difference
              6      7.16e-04     00000 Conjugate Gradient Iteration
computing hessian-vector products by finite difference
              7      1.41e-04     00000 Conjugate Gradient Iteration
computing hessian-vector products by finite difference
              8      2.32e-05     00000 Conjugate Gradient Iteration
computing hessian-vector products by finite difference
              9      3.60e-06     00000 Conjugate Gradient Iteration
computing hessian-vector products by finite difference
             10      5.22e-07     00000 Conjugate Gradient Iteration
computing hessian-vector products by finite difference
             11      6.90e-08     00000 Conjugate Gradient Iteration
computing hessian-vector products by finite difference
             12      1.26e-08     00000 Conjugate Gradient Iteration
computing hessian-vector products by finite difference
             13      2.23e-09     00000 CG Converged
batch 0 complete
Done Calculating Responses
TESTING ORTHOGONALIZATION OF MULTIPOLE BASIS
Multipole virts passed orthogonality test
Virts Per Order
           75
          125
 
 --------------------------------------------------------------
 
                    Orbital Energies (a.u.)
 --------------------------------------------------------------
 
 Alpha MOs
 -- Occupied --
-10.2776 -10.2654 -10.2642 -10.2635 -10.2621 -10.2618 -10.2546  -0.9951
 -0.9023  -0.8752  -0.8078  -0.7253  -0.7007  -0.6254  -0.5694  -0.5594
 -0.5286  -0.5233  -0.5085  -0.4813  -0.4711  -0.4356  -0.4332  -0.3467
 -0.3353
 -- Virtual --
  0.0674   0.0689   0.0730   0.0844   0.0899   0.1097   0.1160   0.1186
  0.1410   0.1585   0.1709   0.1739   0.1903   0.1928   0.2015   0.2086
  0.2279   0.2317   0.2414   0.2449   0.2537   0.2636   0.2658   0.2713
  0.2840   0.2876   0.2923   0.2973   0.2981   0.3081   0.3103   0.3173
  0.3228   0.3314   0.3390   0.3416   0.3551   0.3566   0.3721   0.3764
  0.3815   0.3889   0.3897   0.3935   0.3966   0.4084   0.4108   0.4128
  0.4156   0.4306   0.4346   0.4416   0.4474   0.4526   0.4579   0.4598
  0.4670   0.4740   0.4810   0.4840   0.4979   0.5029   0.5161   0.5222
  0.5245   0.5303   0.5376   0.5415   0.5455   0.5518   0.5557   0.5709
  0.5813   0.5915   0.5972   0.6034   0.6146   0.6263   0.6458   0.6496
  0.6660   0.6753   0.6867   0.6921   0.6951   0.7032   0.7220   0.7258
  0.7321   0.7363   0.7497   0.7631   0.7676   0.7721   0.7845   0.7909
  0.7952   0.8008   0.8029   0.8074   0.8090   0.8252   0.8284   0.8389
  0.8420   0.8435   0.8481   0.8563   0.8594   0.8817   0.8950   0.9018
  0.9153   0.9246   0.9329   0.9525   0.9609   1.0188   1.0270   1.0487
  1.0516   1.0667   1.0763   1.0785   1.0850   1.0888   1.1158   1.1483
  1.1727   1.1853   1.2540   1.2865   1.3008   1.3176   1.3512   1.3543
  1.3918   1.4433   1.4514   1.4664   1.4772   1.4922   1.5330   1.5472
  1.6036   1.6050   1.6256   1.6288   1.6676   1.6910   1.7406   1.7897
  1.7983   1.7998   1.8160   1.8237   1.8387   1.8730   1.8900   1.9161
  1.9252   1.9337   1.9558   1.9706   1.9900   2.0031   2.0196   2.0328
  2.0403   2.0545   2.0786   2.1050   2.1165   2.1286   2.1711   2.1813
  2.2051   2.2421   2.2479   2.2656   2.2927   2.3194   2.3964   2.4014
  2.4160   2.4209   2.4965   2.5127   2.5370   2.5571   2.5729   2.6097
  2.6247   2.6364   2.6696   2.6753   2.7065   2.7259   2.7689   2.7829
  2.7980   2.8264   2.8293   2.8577   2.8723   2.9113   2.9160   2.9227
  2.9461   2.9510   2.9753   2.9865   3.0014   3.0163   3.0262   3.0558
  3.0666   3.0921   3.1145   3.1427   3.1827   3.1904   3.2001   3.2301
  3.2411   3.2461   3.3008   3.3132   3.3358   3.3615   3.3696   3.3807
  3.4041   3.4414   3.4518   3.4556   3.4679   3.4708   3.4891   3.5129
  3.5163   3.5396   3.5473   3.5530   3.5768   3.5933   3.6010   3.6091
  3.6169   3.6419   3.6675   3.6941   3.7256   3.7625   3.8008   3.8156
  3.8519   3.8873   3.9109   3.9674   3.9749   3.9894   4.0495   4.0643
  4.1266   4.2084   4.2833   4.2917   4.3021   4.3165   4.3288   4.3451
  4.3746   4.3838   4.3914   4.4136   4.4576   4.4653   4.4964   4.5512
  4.6109   4.6419   4.7635   4.7772   4.8329   4.8993   4.9147   4.9523
  5.0444   5.0525   5.1807   5.2733   5.3954   5.4103   5.5070   5.5293
  5.6918   5.8502  22.5830  22.6634  22.9178  22.9314  23.0390  23.1087
 23.4451
 --------------------------------------------------------------
 
          Ground-State Mulliken Net Atomic Charges

     Atom                 Charge (a.u.)
  ----------------------------------------
      1 C                    -1.069005
      2 C                    -0.563732
      3 C                    -0.401115
      4 C                    -0.544135
      5 C                     0.795281
      6 C                    -0.548891
      7 C                    -0.416691
      8 H                     0.387033
      9 H                     0.389890
     10 H                     0.386063
     11 H                     0.370489
     12 H                     0.288418
     13 H                     0.300220
     14 H                     0.384783
     15 H                     0.241392
  ----------------------------------------
  Sum of atomic charges =     0.000000

 -----------------------------------------------------------------
                    Cartesian Multipole Moments
 -----------------------------------------------------------------
    Charge (ESU x 10^10)
                -0.0000
    Dipole Moment (Debye)
         X      -0.3338      Y       0.0914      Z       0.4166
       Tot       0.5416
    Quadrupole Moments (Debye-Ang)
        XX     -38.7035     XY      -3.1792     YY     -39.9106
        XZ      -3.4888     YZ      -2.3012     ZZ     -41.6850
    Octopole Moments (Debye-Ang^2)
       XXX     136.7458    XXY     -85.8692    XYY      33.3621
       YYY    -276.7274    XXZ      10.9122    XYZ      -4.6042
       YYZ      -5.1821    XZZ      50.6112    YZZ     -92.0462
       ZZZ      24.6007
    Hexadecapole Moments (Debye-Ang^3)
      XXXX    -772.1855   XXXY     338.7081   XXYY    -351.7953
      XYYY     307.6174   YYYY   -1503.9548   XXXZ      81.5852
      XXYZ      34.3941   XYYZ      27.3690   YYYZ      35.6375
      XXZZ    -182.9487   XYZZ     129.1598   YYZZ    -284.9898
      XZZZ      78.6558   YZZZ      92.8315   ZZZZ    -301.6003
 -----------------------------------------------------------------
Archival summary:
1\1\nid00527\SP\ProcedureUnspecified\BasisUnspecified\78\meili\SunSep2611:50:222021SunSep2611:50:222021\0\\#,ProcedureUnspecified,BasisUnspecified,\\0,1\C\C,1,1.38981\H,2,1.08015,1,119.933\C,2,1.38322,1,120.768,3,177.621,0\H,4,1.07778,2,120.228,1,179.338,0\C,4,1.3744,2,120.787,1,1.15066,0\H,6,1.08198,4,120.089,2,179.505,0\C,6,1.38789,4,119.481,2,-3.20319,0\H,8,1.06894,6,119.52,4,-175.665,0\C,8,1.39004,6,119.965,4,2.91312,0\H,10,1.0821,8,119.283,6,-179.811,0\C,1,1.51026,2,121.105,3,-1.35789,0\H,12,1.08972,1,108.508,2,146.86,0\H,12,1.09188,1,109.837,2,29.215,0\H,12,1.1,1,112.386,2,-93.4143,0\\\@

 Total job time:  28703.15s(wall), 57082.26s(cpu) 
 Sun Sep 26 11:50:25 2021

        *************************************************************
        *                                                           *
        *  Thank you very much for using Q-Chem.  Have a nice day.  *
        *                                                           *
        *************************************************************


Done Job For Fragment 0
calling putenv with: QCSCRATCH=/global/cscratch1/sd/meili 
calling putenv with: QCLOCALSCR=/tmp 
calling putenv with: QCTHREADS=32 
Creating input file /tmp/qchem45818/Frg2.input
using default PutDataFrgm: nothing
calling putenv with: QCSCRATCH=/tmp/qchem45818/ 
calling putenv with: QCLOCALSCR=/tmp/qchem45818/ 
Spawning Job For Fragment 1
                  Welcome to Q-Chem
     A Quantum Leap Into The Future Of Chemistry


 Q-Chem 5.2, Q-Chem, Inc., Pleasanton, CA (2019)

 License issued to: National Energy Research Scientific Computing Center

 Yihan Shao,  Zhengting Gan,  E. Epifanovsky,  A. T. B. Gilbert,  M. Wormit,  
 J. Kussmann,  A. W. Lange,  A. Behn,  Jia Deng,  Xintian Feng,  D. Ghosh,  
 M. Goldey,  P. R. Horn,  L. D. Jacobson,  I. Kaliman,  T. Kus,  A. Landau,  
 Jie Liu,  E. I. Proynov,  R. M. Richard,  R. P. Steele,  E. J. Sundstrom,  
 H. L. Woodcock III,  P. M. Zimmerman,  D. Zuev,  B. Albrecht,  E. Alguire,  
 S. A. Baeppler,  D. Barton,  Z. Benda,  Y. A. Bernard,  E. J. Berquist,  
 K. B. Bravaya,  H. Burton,  D. Casanova,  Chun-Min Chang,  Yunqing Chen,  
 A. Chien,  K. D. Closser,  M. P. Coons,  S. Coriani,  S. Dasgupta,  
 A. L. Dempwolff,  M. Diedenhofen,  Hainam Do,  R. G. Edgar,  Po-Tung Fang,  
 S. Faraji,  S. Fatehi,  Qingguo Feng,  K. D. Fenk,  J. Fosso-Tande,  
 J. Gayvert,  Qinghui Ge,  A. Ghysels,  G. Gidofalvi,  J. Gomes,  
 J. Gonthier,  A. Gunina,  D. Hait,  M. W. D. Hanson-Heine,  
 P. H. P. Harbach,  A. W. Hauser,  M. F. Herbst,  J. E. Herr,  
 E. G. Hohenstein,  Z. C. Holden,  Kerwin Hui,  B. C. Huynh,  T.-C. Jagau,  
 Hyunjun Ji,  B. Kaduk,  K. Khistyaev,  Jaehoon Kim,  P. Klunzinger,  K. Koh,  
 D. Kosenkov,  L. Koulias,  T. Kowalczyk,  C. M. Krauter,  A. Kunitsa,  
 Ka Un Lao,  A. Laurent,  K. V. Lawler,  Joonho Lee,  D. Lefrancois,  
 S. Lehtola,  D. S. Levine,  Yi-Pei Li,  You-Sheng Lin,  Fenglai Liu,  
 E. Livshits,  A. Luenser,  P. Manohar,  E. Mansoor,  S. F. Manzer,  
 Shan-Ping Mao,  Yuezhi Mao,  N. Mardirossian,  A. V. Marenich,  
 T. Markovich,  L. A. Martinez-Martinez,  S. A. Maurer,  N. J. Mayhall,  
 S. C. McKenzie,  J.-M. Mewes,  P. Morgante,  A. F. Morrison,  
 J. W. Mullinax,  K. Nanda,  T. S. Nguyen-Beck,  R. Olivares-Amaya,  
 J. A. Parkhill,  Zheng Pei,  T. M. Perrine,  F. Plasser,  P. Pokhilko,  
 S. Prager,  A. Prociuk,  E. Ramos,  D. R. Rehn,  F. Rob,  M. Scheurer,  
 M. Schneider,  N. Sergueev,  S. M. Sharada,  S. Sharma,  D. W. Small,  
 T. Stauch,  T. Stein,  Yu-Chuan Su,  A. J. W. Thom,  A. Tkatchenko,  
 T. Tsuchimochi,  N. M. Tubman,  L. Vogt,  M. L. Vidal,  O. Vydrov,  
 M. A. Watson,  J. Wenzel,  M. de Wergifosse,  T. A. Wesolowski,  A. White,  
 J. Witte,  A. Yamada,  Jun Yang,  K. Yao,  S. Yeganeh,  S. R. Yost,  
 Zhi-Qiang You,  A. Zech,  Igor Ying Zhang,  Xing Zhang,  Yan Zhao,  
 Ying Zhu,  B. R. Brooks,  G. K. L. Chan,  C. J. Cramer,  M. S. Gordon,  
 W. J. Hehre,  A. Klamt,  M. W. Schmidt,  C. D. Sherrill,  D. G. Truhlar,  
 A. Aspuru-Guzik,  R. Baer,  A. T. Bell,  N. A. Besley,  Jeng-Da Chai,  
 A. E. DePrince, III,  R. A. DiStasio Jr.,  A. Dreuw,  B. D. Dunietz,  
 T. R. Furlani,  Chao-Ping Hsu,  Yousung Jung,  Jing Kong,  D. S. Lambrecht,  
 WanZhen Liang,  C. Ochsenfeld,  V. A. Rassolov,  L. V. Slipchenko,  
 J. E. Subotnik,  T. Van Voorhis,  J. M. Herbert,  A. I. Krylov,  
 P. M. W. Gill,  M. Head-Gordon

 Contributors to earlier versions of Q-Chem not listed above: 
 R. D. Adamson,  B. Austin,  J. Baker,  G. J. O. Beran,  K. Brandhorst,  
 S. T. Brown,  E. F. C. Byrd,  A. K. Chakraborty,  C.-L. Cheng,  
 Siu Hung Chien,  D. M. Chipman,  D. L. Crittenden,  H. Dachsel,  
 R. J. Doerksen,  A. D. Dutoi,  L. Fusti-Molnar,  W. A. Goddard III,  
 A. Golubeva-Zadorozhnaya,  S. R. Gwaltney,  G. Hawkins,  A. Heyden,  
 S. Hirata,  G. Kedziora,  F. J. Keil,  C. Kelley,  Jihan Kim,  R. A. King,  
 R. Z. Khaliullin,  P. P. Korambath,  W. Kurlancheek,  A. M. Lee,  M. S. Lee,  
 S. V. Levchenko,  Ching Yeh Lin,  D. Liotard,  R. C. Lochan,  I. Lotan,  
 P. E. Maslen,  N. Nair,  D. P. O'Neill,  D. Neuhauser,  E. Neuscamman,  
 C. M. Oana,  R. Olson,  B. Peters,  R. Peverati,  P. A. Pieniazek,  
 Y. M. Rhee,  J. Ritchie,  M. A. Rohrdanz,  E. Rosta,  N. J. Russ,  
 H. F. Schaefer III,  N. E. Schultz,  N. Shenvi,  A. C. Simmonett,  A. Sodt,  
 D. Stuck,  K. S. Thanthiriwatte,  V. Vanovschi,  Tao Wang,  A. Warshel,  
 C. F. Williams,  Q. Wu,  X. Xu,  W. Zhang

 Please cite Q-Chem as follows:
 Y. Shao et al., Mol. Phys. 113, 184-215 (2015)
 DOI: 10.1080/00268976.2014.952696

 Q-Chem 5.2.0 for Intel X86 EM64T Linux

 Parts of Q-Chem use Armadillo 8.300.2 (Tropical Shenanigans).
 http://arma.sourceforge.net/

 Q-Chem begins on Sun Sep 26 11:50:30 2021  

Host: cori01
0

     Scratch files written to /tmp/qchem45818//Frg2//
 May1019 |scratch|qcdevops|jenkins|workspace|build_RNUM -1
Processing $rem in /global/common/cori/software/qchem/5.2/config/preferences:
	 MEM_TOTAL  96000 
NAlpha2: 52
NElect   52
Mult     1
Symmetry turned off for PCM/SM12/SMD calculation

Checking the input file for inconsistencies... 	...done.

--------------------------------------------------------------
User input:
--------------------------------------------------------------
$molecule
0 1
 6	0.6723853208	-2.2014732532	-1.5572120272
 6	1.2403853208	-3.4464732532	-2.2222120272
 6	0.9633853208	-2.0874732532	-0.0922120272
 6	2.0773853208	-1.6184732532	0.5037879728
 6	0.6153853208	-2.0464732532	2.0767879728
 7	0.0413853208	-2.3304732532	0.9047879728
 7	1.8573853208	-1.6324732532	1.8637879728
 1	1.0513853208	-1.3064732532	-2.0482120272
 1	-0.4076146792	-2.1834732532	-1.6512120272
 1	2.3203853208	-3.4764732532	-2.0722120272
 1	2.7723853208	-1.0654732532	-0.0792120272
 1	0.1353853208	-2.1234732532	3.0457879728
 1	2.4663853208	-1.2904732532	2.6037879728
 1	0.9902553208	-3.4103132532	-3.2927820272
 1	0.7851553208	-4.3467432532	-1.7837120272
$end
$rem
EDA2		1
METHOD		WB97X-V
BASIS		DEF2-TZVPD
XC_GRID		000099000590
NL_GRID		1
UNRESTRICTED		FALSE
MAX_SCF_CYCLES		200
SYMMETRY		FALSE
SYM_IGNORE		TRUE
BASIS_LIN_DEP_THRESH		6
THRESH		14
SCF_CONVERGENCE		8
SCF_PRINT_FRGM		TRUE
SOLVENT_METHOD		SMD
!required keywords
JOBTYPE		SP
SYM_IGNORE		TRUE
SUBSYSTEM		TRUE
GEN_SCFMAN		TRUE
CHILD_INSTRUCTION		2
SYM_IGNORE		TRUE
SCFMI		0
RI_K 0		
PARI_K 0		
MIN_PARI_K 0		
IARI_K 0		
OCC_RI_K 0		
PURECART		1111
MEM_STATIC		2000
MEM_TOTAL		96000
GUI		0
CHILD_MP		1
CHILD_MP_ORDERS		232
FRZ_RELAX		0
FRZ_RELAX_METHOD		0
EDA_CLS_ELEC		1
EDA_CLS_DISP		0
FRZ_ORTHO_DECOMP		1
EDA2		FALSE
FRGM_METHOD		FALSE
CIS_N_ROOTS  0
LOCAL_CIS    0
CIS_RLX_DNS  1
$end
$smx
SOLVENT			WATER
$end
--------------------------------------------------------------
 ----------------------------------------------------------------
             Standard Nuclear Orientation (Angstroms)
    I     Atom           X                Y                Z
 ----------------------------------------------------------------
    1      C       0.6723853208    -2.2014732532    -1.5572120272
    2      C       1.2403853208    -3.4464732532    -2.2222120272
    3      C       0.9633853208    -2.0874732532    -0.0922120272
    4      C       2.0773853208    -1.6184732532     0.5037879728
    5      C       0.6153853208    -2.0464732532     2.0767879728
    6      N       0.0413853208    -2.3304732532     0.9047879728
    7      N       1.8573853208    -1.6324732532     1.8637879728
    8      H       1.0513853208    -1.3064732532    -2.0482120272
    9      H      -0.4076146792    -2.1834732532    -1.6512120272
   10      H       2.3203853208    -3.4764732532    -2.0722120272
   11      H       2.7723853208    -1.0654732532    -0.0792120272
   12      H       0.1353853208    -2.1234732532     3.0457879728
   13      H       2.4663853208    -1.2904732532     2.6037879728
   14      H       0.9902553208    -3.4103132532    -3.2927820272
   15      H       0.7851553208    -4.3467432532    -1.7837120272
 ----------------------------------------------------------------
 Nuclear Repulsion Energy =         291.11674557 hartrees
 There are       26 alpha and       26 beta electrons
 Requested basis set is def2-TZVPD
 There are 131 shells and 331 basis functions

 Total QAlloc Memory Limit  96000 MB
 Mega-Array Size      1956 MB
 MEM_STATIC part      2000 MB
 
 Citation of the SMD model:
 Marenich, A.V.; Cramer, C.J.; Truhlar, D.G.
 J. Phys. Chem. B 2009, 113, 6378-6396.
 iSolventCode=           1
 Solvent: water                                                           
 
 vradii
            1           2           3           4           5           6
    1   1.8500000   1.8500000   1.8500000   1.8500000   1.8500000   1.8900000
            7           8           9          10          11          12
    1   1.8900000   1.2000000   1.2000000   1.2000000   1.2000000   1.2000000
           13          14          15
    1   1.2000000   1.2000000   1.2000000
 Changing PCM_VDW_RADII to SMD_RADIUS
 Discretize the solute cavity surface with Lebedev spheres
	Using 110 Lebedev grid points for each H atom
	Using 194 Lebedev grid points for other atoms
	Atomic van der Waals radii will be scaled by 1.20
 Remove points where switching function is < 1.0e-08
 Keep 1091 surface tesserae and discard 1147 interior tesserae
 Molecular Surface Area = 136.217 Angst**2

                       Distance Matrix (Angstroms)
             C (  1)   C (  2)   C (  3)   C (  4)   C (  5)   N (  6)
   C (  2)  1.521471
   C (  3)  1.497966  2.541753
   C (  4)  2.561569  3.387216  1.347655
   C (  5)  3.637751  4.564211  2.197122  2.189739
   N (  6)  2.544847  3.530041  1.379544  2.193864  1.335558
   N (  7)  3.664864  4.512946  2.198226  1.377750  1.326397  2.169041
   H (  8)  1.088920  2.155365  2.107995  2.768163  4.213469  3.284644
   H (  9)  1.084232  2.153396  2.078302  3.337435  3.868240  2.599297
   H ( 10)  2.146335  1.090780  2.773296  3.185434  4.708092  3.920419
   H ( 11)  2.808021  3.550864  2.077771  1.062414  3.203646  3.166519
   H ( 12)  4.634875  5.542849  3.245601  3.238542  1.084108  2.153036
   H ( 13)  4.621934  5.426020  3.187889  2.160765  2.067720  3.138284
   H ( 14)  2.138817  1.099997  3.463275  4.336645  5.552735  4.436891
   H ( 15)  2.160140  1.100001  2.827939  3.787608  4.497057  3.441885
             N (  7)   H (  8)   H (  9)   H ( 10)   H ( 11)   H ( 12)
   H (  8)  4.007450
   H (  9)  4.217707  1.747976
   H ( 10)  4.371133  2.513929  3.048126
   H ( 11)  2.221253  2.626192  3.719342  3.160581
   H ( 12)  2.145574  5.239788  4.728663  5.727020  4.223595
   H ( 13)  1.017568  4.862467  5.211751  5.163806  2.709751  2.514521
   H ( 14)  5.522938  2.445165  2.480711  1.806492  4.359047  6.524127
   H ( 15)  4.671316  3.063345  2.473862  1.788165  4.197754  5.356230
             H ( 13)   H ( 14)
   H ( 14)  6.437563
   H ( 15)  5.605130  1.787809
 
 A cutoff of  1.0D-14 yielded   8279 shell pairs
 There are     53783 function pairs (     68452 Cartesian)
 Smallest overlap matrix eigenvalue = 1.97E-06

 Scale SEOQF with 1.000000e-01/1.000000e-01/1.000000e-01

 Standard Electronic Orientation quadrupole field applied
 Nucleus-field energy     =     0.0000000080 hartrees
 Guess from superposition of atomic densities
 Warning:  Energy on first SCF cycle will be non-variational
 SAD guess density has 51.546797 electrons

 -----------------------------------------------------------------------
  General SCF calculation program by
  Eric Jon Sundstrom, Paul Horn, Yuezhi Mao, Dmitri Zuev, Alec White,
  David Stuck, Shaama M.S., Shane Yost, Joonho Lee, David Small,
  Daniel Levine, Susi Lehtola, Hugh Burton, Evgeny Epifanovsky
 -----------------------------------------------------------------------
 Exchange:     0.1670 Hartree-Fock + 1.0000 wB97X-V + LR-HF
 Correlation:  1.0000 wB97X-V
 Using Euler-Maclaurin-Lebedev (99,590) quadrature formula
 Nonlocal Correlation:  VV10 with C = 0.0100 and b = 6.00 and scale = 1.00000
 Grid used for NLC:  SG-1 standard quadrature
Energy prior to optimization (guess energy) = -304.444638286292
Begin Timing: Total SCF Calculation
begin iterations for algorithm: DIIS         
the SCF tolerance is set to 1.00e-08
    1    -304.4446382863      6.04e-03     00000 
    2    -304.4094885752      6.15e-03     00000 
    3    -304.8743016501      6.40e-04     00000 
    4    -304.8794864788      3.24e-04     00000 
    5    -304.8809862779      9.65e-05     00000 
    6    -304.8811545471      3.70e-05     00000 
    7    -304.8811824994      1.04e-05     00000 
    8    -304.8811856144      2.98e-06     00000 
    9    -304.8811859627      1.49e-06     00000 
   10    -304.8811860216      4.01e-07     00000 
   11    -304.8811860285      8.03e-08     00000 
   12    -304.8811860289      3.93e-08     00000 
   13    -304.8811860289      1.19e-08     00000 
   14    -304.8811860289      4.24e-09     00000 Convergence criterion met
Timing for Total SCF: 1696.00s (wall), 3374.13s (cpu)
(3)  G-ENP(liq) elect-nuc-pol free energy of system     -304.881186029 a.u.
(4)  G-CDS(liq) cavity-dispersion-solvent structure 
     free energy                                                2.2800 kcal/mol
(6)  G-S(liq) free energy of system                     -304.877552575 a.u.
E_pcm = -0.0230173543
E_cds = 0.0036334535
Multipole orders to be included
        2
        3
computing dipole RHS
computing quadrupole RHS
total number of RHS in solve_reponses: 8
RHS batch sizes
        8
Beginning Block Conjugate Gradient Iterations. Batch Number: 0
computing hessian-vector products by finite difference
              1      6.30e-01     00000 Conjugate Gradient Iteration
computing hessian-vector products by finite difference
              2      2.05e-01     00000 Conjugate Gradient Iteration
computing hessian-vector products by finite difference
              3      5.08e-02     00000 Conjugate Gradient Iteration
computing hessian-vector products by finite difference
              4      1.39e-02     00000 Conjugate Gradient Iteration
computing hessian-vector products by finite difference
              5      2.64e-03     00000 Conjugate Gradient Iteration
computing hessian-vector products by finite difference
              6      6.03e-04     00000 Conjugate Gradient Iteration
computing hessian-vector products by finite difference
              7      1.22e-04     00000 Conjugate Gradient Iteration
computing hessian-vector products by finite difference
              8      2.14e-05     00000 Conjugate Gradient Iteration
computing hessian-vector products by finite difference
              9      4.19e-06     00000 Conjugate Gradient Iteration
computing hessian-vector products by finite difference
             10      6.97e-07     00000 Conjugate Gradient Iteration
computing hessian-vector products by finite difference
             11      1.09e-07     00000 Conjugate Gradient Iteration
computing hessian-vector products by finite difference
             12      1.47e-08     00000 Conjugate Gradient Iteration
computing hessian-vector products by finite difference
             13      2.08e-09     00000 CG Converged
batch 0 complete
Done Calculating Responses
TESTING ORTHOGONALIZATION OF MULTIPOLE BASIS
Multipole virts passed orthogonality test
Virts Per Order
           78
          130
 
 --------------------------------------------------------------
 
                    Orbital Energies (a.u.)
 --------------------------------------------------------------
 
 Alpha MOs
 -- Occupied --
-14.4607 -14.3865 -10.3179 -10.2772 -10.2763 -10.2591 -10.2502  -1.1518
 -0.9937  -0.9139  -0.8575  -0.7578  -0.7220  -0.6778  -0.6600  -0.5680
 -0.5624  -0.5352  -0.5330  -0.5139  -0.4769  -0.4491  -0.4380  -0.3783
 -0.3735  -0.3204
 -- Virtual --
  0.0688   0.0856   0.0928   0.0980   0.1054   0.1173   0.1291   0.1384
  0.1456   0.1622   0.1706   0.1747   0.1819   0.1906   0.2046   0.2140
  0.2225   0.2284   0.2340   0.2440   0.2493   0.2645   0.2706   0.2801
  0.2835   0.2909   0.2983   0.3057   0.3079   0.3152   0.3185   0.3265
  0.3335   0.3438   0.3466   0.3532   0.3566   0.3616   0.3657   0.3707
  0.3757   0.3796   0.3856   0.3999   0.4056   0.4100   0.4151   0.4213
  0.4258   0.4366   0.4483   0.4577   0.4619   0.4650   0.4799   0.4833
  0.4877   0.4971   0.5008   0.5054   0.5115   0.5158   0.5204   0.5277
  0.5390   0.5473   0.5576   0.5664   0.5703   0.5871   0.5953   0.6043
  0.6106   0.6139   0.6262   0.6303   0.6366   0.6385   0.6525   0.6590
  0.6835   0.6885   0.6933   0.7022   0.7114   0.7230   0.7354   0.7424
  0.7639   0.7711   0.7750   0.7854   0.7903   0.7940   0.8053   0.8100
  0.8138   0.8181   0.8257   0.8289   0.8371   0.8412   0.8579   0.8685
  0.8821   0.8893   0.9180   0.9252   0.9519   0.9624   0.9861   1.0047
  1.0188   1.0254   1.0291   1.0404   1.0576   1.0629   1.1056   1.1185
  1.1264   1.1519   1.1760   1.1937   1.2031   1.2370   1.2440   1.2605
  1.2828   1.3014   1.3439   1.3495   1.3627   1.3775   1.4082   1.4471
  1.4544   1.4776   1.4845   1.5152   1.5433   1.6173   1.6268   1.6768
  1.6958   1.7023   1.7616   1.7742   1.8258   1.8429   1.8729   1.8775
  1.8886   1.8968   1.9219   1.9281   1.9484   1.9541   1.9700   1.9759
  1.9940   1.9989   2.0079   2.0307   2.0330   2.0437   2.0933   2.1142
  2.1255   2.1607   2.2026   2.2292   2.2530   2.2857   2.3009   2.3068
  2.3441   2.3825   2.4018   2.4470   2.4876   2.5067   2.5199   2.5249
  2.5485   2.5721   2.5943   2.6094   2.6415   2.6510   2.6624   2.6951
  2.7149   2.7252   2.7775   2.7998   2.8092   2.8246   2.8528   2.8573
  2.8934   2.9052   2.9253   2.9854   2.9925   3.0043   3.0212   3.0535
  3.0646   3.0762   3.0880   3.1060   3.1504   3.1881   3.2001   3.2274
  3.2499   3.2584   3.2750   3.3132   3.3179   3.3305   3.3479   3.3692
  3.3912   3.3982   3.4139   3.4357   3.4506   3.4810   3.4968   3.5003
  3.5412   3.5564   3.5948   3.6012   3.6308   3.6522   3.6628   3.6764
  3.6987   3.7106   3.7278   3.7880   3.8170   3.8311   3.8521   3.8643
  3.9590   3.9710   3.9998   4.0185   4.0619   4.0884   4.1340   4.1701
  4.1829   4.2247   4.2915   4.3539   4.4010   4.4655   4.4892   4.5484
  4.5846   4.6164   4.6648   4.6959   4.7982   4.8543   4.8604   4.8843
  4.9359   4.9586   4.9851   5.0165   5.0537   5.0836   5.0938   5.1435
  5.1858   5.2233   5.2432   5.3161   5.3881   5.4427   5.4788   5.5586
  5.5863   5.6098   5.6667   5.7078   5.7675   5.8162   5.8643   6.0608
  6.2108   6.3053  22.6510  22.7931  22.9056  23.1352  23.4430  32.6871
 32.7976
 --------------------------------------------------------------
 
          Ground-State Mulliken Net Atomic Charges

     Atom                 Charge (a.u.)
  ----------------------------------------
      1 C                    -0.221028
      2 C                    -0.921118
      3 C                     0.262025
      4 C                    -0.465346
      5 C                    -0.250515
      6 N                    -0.568298
      7 N                     0.073649
      8 H                     0.241850
      9 H                     0.211941
     10 H                     0.276483
     11 H                     0.319792
     12 H                     0.342529
     13 H                     0.208130
     14 H                     0.228790
     15 H                     0.261117
  ----------------------------------------
  Sum of atomic charges =     0.000000

 -----------------------------------------------------------------
                    Cartesian Multipole Moments
 -----------------------------------------------------------------
    Charge (ESU x 10^10)
                 0.0000
    Dipole Moment (Debye)
         X       3.8611      Y       2.2726      Z       2.0088
       Tot       4.9100
    Quadrupole Moments (Debye-Ang)
        XX     -36.3270     XY      -3.6309     YY     -53.4667
        XZ       6.9440     YZ      -1.2655     ZZ     -28.5873
    Octopole Moments (Debye-Ang^2)
       XXX    -116.4825    XXY      96.0036    XYY     -45.6326
       YYY     326.5741    XXZ      11.9334    XYZ      -8.9726
       YYZ      -6.7311    XZZ     -24.1366    YZZ      75.4053
       ZZZ      29.2211
    Hexadecapole Moments (Debye-Ang^3)
      XXXX    -430.9746   XXXY     282.0034   XXYY    -346.2099
      XYYY     306.5981   YYYY   -1587.6518   XXXZ      28.6960
      XXYZ     -38.2914   XYYZ       8.1595   YYYZ     -52.1932
      XXZZ    -150.1098   XYZZ      75.7799   YYZZ    -341.9901
      XZZZ      46.1009   YZZZ    -132.1709   ZZZZ    -585.9475
 -----------------------------------------------------------------
Archival summary:
1\1\nid00527\SP\ProcedureUnspecified\BasisUnspecified\258\meili\SunSep2619:47:072021SunSep2619:47:072021\0\\#,ProcedureUnspecified,BasisUnspecified,\\0,1\N\C,1,1.33556\H,2,1.08411,1,125.378\N,2,1.3264,1,109.141,3,-178.88,0\H,4,1.01757,2,123.266,1,175.079,0\C,4,1.37775,2,108.132,1,1.53143,0\H,6,1.06241,4,130.649,2,156.335,0\C,6,1.34765,4,107.519,2,-2.62952,0\C,8,1.49797,6,128.286,4,176.456,0\H,9,1.08423,8,106.083,6,-155.139,0\H,9,1.08892,8,108.109,6,-40.5466,0\C,9,1.52147,8,114.659,6,82.8311,0\H,12,1.09078,9,109.392,8,-57.2884,0\H,12,1.1,9,108.276,8,-178.49,0\H,12,1.1,9,109.936,8,62.8813,0\\\@

 Total job time:  28600.90s(wall), 56834.47s(cpu) 
 Sun Sep 26 19:47:11 2021

        *************************************************************
        *                                                           *
        *  Thank you very much for using Q-Chem.  Have a nice day.  *
        *                                                           *
        *************************************************************


Done Job For Fragment 1
calling putenv with: QCSCRATCH=/global/cscratch1/sd/meili 
calling putenv with: QCLOCALSCR=/tmp 
calling putenv with: QCTHREADS=32 
Doing General SCFMI
 Exchange:     0.1670 Hartree-Fock + 1.0000 wB97X-V + LR-HF
 Correlation:  1.0000 wB97X-V
 Using Euler-Maclaurin-Lebedev (99,590) quadrature formula
 Nonlocal Correlation:  VV10 with C = 0.0100 and b = 6.00 and scale = 1.00000
 Grid used for NLC:  SG-1 standard quadrature
performing fock build before subrot guess so that all methods have access
Printing subrot_rss_gen Method Specification:
Occupied Subspace Method is 0
Virtual Subspace Method is 0
Energy of the unrelaxed supersystem initial determinant -576.437158674600
performing fock build before subrot guess so that all methods have access
Printing subrot_rss_gen Method Specification:
Occupied Subspace Method is 0
Virtual Subspace Method is 0
Energy of the unrelaxed supersystem initial determinant w/ solvent -576.467106794451
write pseudocanon occs and virts to disk
write pseudocanon orbital energies to disk
Tolerance of ortho_decomp_scf: 1.00e-06
GDM subspace size: 20
Beginning the Orthogonal Decomposition of the Initial Supersystem Wavefunction
    1    -576.4124666138      2.34e-02     ortho_decomp Preconditoned Steepest Descent
    2    -576.4150085704      6.47e-04     ortho_decomp BFGS Step
    3    -576.4150183534      5.38e-05     ortho_decomp BFGS Step
    4    -576.4150183754      2.46e-06     ortho_decomp BFGS Step
    5    -576.4150183755      9.43e-08     ortho_decomp 00000 Convergence criterion met
 Hartree-Fock
 Hartree-Fock
 Hartree-Fock
Doing General SCFMI
 Exchange:     0.1670 Hartree-Fock + 1.0000 wB97X-V + LR-HF
 Correlation:  1.0000 wB97X-V
 Using Euler-Maclaurin-Lebedev (99,590) quadrature formula
 Nonlocal Correlation:  VV10 with C = 0.0100 and b = 6.00 and scale = 1.00000
 Grid used for NLC:  SG-1 standard quadrature
performing fock build at end of subrot_r(subrot) constructor so that all methods have access
<S^2> of initial wavefunction before polarization iterations 0.0000000000
Beginning iterations for the determination of the polarized wavefunction
Energy prior to optimization (guess energy) = -576.467106794451
Begin Timing: Total SCF Calculation
begin iterations for algorithm: DIIS         
the SCF tolerance is set to 1.00e-08
    1    -576.4671067945      5.21e-05     00000 
    2    -576.4673836341      2.17e-05     00000 
    3    -576.4674142730      1.24e-05     00000 
    4    -576.4674253007      3.92e-06     00000 
    5    -576.4674266566      2.46e-06     00000 
    6    -576.4674271840      1.19e-06     00000 
    7    -576.4674272767      5.86e-07     00000 
    8    -576.4674272922      2.27e-07     00000 
    9    -576.4674272951      9.78e-08     00000 
   10    -576.4674272961      5.05e-08     00000 
   11    -576.4674272965      1.86e-08     00000 
   12    -576.4674272965      8.61e-09     00000 Convergence criterion met
write pseudocanon occs and virts to disk
write pseudocanon orbital energies to disk
Timing for Total SCF: 9899.00s (wall), 19709.92s (cpu)
<S^2> of polarized wavefunction after polarization iterations 0.0000000000
relaxing scfmi constraint to allow all rotations in the entire AO span
Doing General SCFMI
 Exchange:     0.1670 Hartree-Fock + 1.0000 wB97X-V + LR-HF
 Correlation:  1.0000 wB97X-V
 Using Euler-Maclaurin-Lebedev (99,590) quadrature formula
 Nonlocal Correlation:  VV10 with C = 0.0100 and b = 6.00 and scale = 1.00000
 Grid used for NLC:  SG-1 standard quadrature
performing fock build at end of subrot_r(subrot) constructor so that all methods have access
<S^2> of polarized wavefunction before ct-allowed iterations 0.0000000000
Beginning iterations for the determination of the CT-Allowed wavefunction
Energy prior to optimization (guess energy) = -576.467427296500
Begin Timing: Total SCF Calculation
begin iterations for algorithm: DIIS         
the SCF tolerance is set to 1.00e-08
    1    -576.4674272965      7.86e-05     00000 
    2    -576.4687627398      8.62e-06     00000 
    3    -576.4688046678      1.57e-06     00000 
    4    -576.4688062059      8.67e-07     00000 
    5    -576.4688063949      2.03e-07     00000 
    6    -576.4688064165      9.97e-08     00000 
    7    -576.4688064192      2.73e-08     00000 
    8    -576.4688064196      1.25e-08     00000 
    9    -576.4688064197      2.89e-09     00000 Convergence criterion met
write pseudocanon occs and virts to disk
write pseudocanon orbital energies to disk
Timing for Total SCF: 7238.00s (wall), 14309.96s (cpu)
<S^2> of ct_allowed wavefunction after ct-allowed iterations 0.0000000000

================================
        Results of EDA2         
================================
Basic EDA Quantities
--------------------
Fragment Energies (Ha):
1 -271.5800943438
2 -304.8775525754
--------------------
  E_prp (kJ/mol) = 0.0000
  E_sol (kJ/mol) = -1.5826
  E_frz (kJ/mol) = -2.9683
  E_pol (kJ/mol) = -0.8415
  E_vct (kJ/mol) = -3.6209
  E_int (kJ/mol) = -9.0133
--------------------


Initial Wavefunction Decomposition
--------------------
  --------------------
  Orthogonal Fragment Subspace Decomposition:
  --------------------
     E_elec   (ELEC)   (kJ/mol) = -26.3966
     E_pauli  (PAULI)  (kJ/mol) = 43.4026
     E_disp   (DISP)   (kJ/mol) = -19.9742
     --------------------
     Terms summing to E_pauli:
     --------------------
        E_kep_pauli       (kJ/mol) = 55.1618
        E_disp_free_pauli (kJ/mol) = -11.7592
  --------------------
  Classical Frozen Decomposition:
  --------------------
     E_cls_elec  (CLS ELEC)  (kJ/mol) = -11.0839
     E_cls_pauli (CLS PAULI) (kJ/mol) = 8.1157
    [E_mod_pauli (MOD PAULI) (kJ/mol) = 28.0899 (CLS PAULI - DISP from orthogonal decomposition) ]
  --------------------
--------------------

Simplified EDA Summary (kJ/mol)
--------------------
 PREPARATION     0.0000
 SOLVATION       -1.5826
 FROZEN          17.0059      (does not include dispersion)
[PAULI           43.4026]     (if this is negligible, then frozen describes electrostatics)
 DISPERSION      -19.9742
 POLARIZATION    -0.8415
 CHARGE TRANSFER -3.6209
 TOTAL           -9.0133     (PRP + SOL + FRZ + DISP + POL + CT)
--------------------
 
 --------------------------------------------------------------
 
                    Orbital Energies (a.u.)
 --------------------------------------------------------------
 
 Alpha MOs
 -- Occupied --
-14.4614 -14.3869 -10.3185 -10.2773 -10.2771 -10.2763 -10.2634 -10.2631
-10.2626 -10.2615 -10.2611 -10.2594 -10.2544 -10.2504  -1.1523  -0.9947
 -0.9937  -0.9144  -0.9017  -0.8744  -0.8580  -0.8074  -0.7581  -0.7253
 -0.7218  -0.7004  -0.6784  -0.6604  -0.6253  -0.5717  -0.5689  -0.5640
 -0.5560  -0.5362  -0.5334  -0.5283  -0.5201  -0.5142  -0.5081  -0.4811
 -0.4779  -0.4698  -0.4493  -0.4387  -0.4346  -0.4327  -0.3786  -0.3739
 -0.3456  -0.3348  -0.3195
 -- Virtual --
  0.0620   0.0679   0.0723   0.0759   0.0785   0.0869   0.0924   0.0965
  0.1004   0.1093   0.1161   0.1192   0.1267   0.1293   0.1373   0.1457
  0.1470   0.1497   0.1583   0.1632   0.1688   0.1754   0.1792   0.1852
  0.1918   0.1987   0.2055   0.2092   0.2126   0.2154   0.2197   0.2235
  0.2269   0.2350   0.2412   0.2458   0.2466   0.2526   0.2614   0.2627
  0.2674   0.2720   0.2739   0.2800   0.2812   0.2832   0.2877   0.2913
  0.2934   0.2967   0.3011   0.3040   0.3104   0.3136   0.3155   0.3197
  0.3208   0.3233   0.3262   0.3324   0.3365   0.3405   0.3446   0.3466
  0.3501   0.3528   0.3543   0.3587   0.3614   0.3651   0.3675   0.3676
  0.3714   0.3759   0.3788   0.3795   0.3849   0.3896   0.3914   0.3960
  0.3971   0.4038   0.4055   0.4066   0.4084   0.4119   0.4195   0.4213
  0.4241   0.4294   0.4315   0.4371   0.4399   0.4419   0.4436   0.4458
  0.4521   0.4543   0.4601   0.4645   0.4655   0.4669   0.4745   0.4778
  0.4800   0.4817   0.4864   0.4905   0.4938   0.4972   0.4987   0.5071
  0.5135   0.5162   0.5175   0.5215   0.5255   0.5287   0.5322   0.5371
  0.5376   0.5419   0.5462   0.5514   0.5545   0.5576   0.5644   0.5668
  0.5736   0.5771   0.5812   0.5833   0.5895   0.5908   0.5955   0.6049
  0.6084   0.6144   0.6164   0.6219   0.6323   0.6338   0.6369   0.6400
  0.6457   0.6481   0.6549   0.6617   0.6633   0.6703   0.6716   0.6793
  0.6854   0.6948   0.6990   0.7002   0.7022   0.7047   0.7128   0.7153
  0.7206   0.7227   0.7326   0.7352   0.7369   0.7384   0.7448   0.7501
  0.7519   0.7612   0.7641   0.7707   0.7748   0.7802   0.7827   0.7836
  0.7863   0.7921   0.7952   0.7969   0.8035   0.8040   0.8075   0.8117
  0.8135   0.8171   0.8214   0.8253   0.8260   0.8327   0.8332   0.8421
  0.8505   0.8514   0.8546   0.8594   0.8644   0.8670   0.8708   0.8739
  0.8835   0.8876   0.8886   0.8969   0.9060   0.9110   0.9164   0.9212
  0.9264   0.9305   0.9375   0.9498   0.9553   0.9594   0.9659   0.9681
  0.9780   0.9827   0.9868   0.9971   1.0059   1.0137   1.0228   1.0327
  1.0409   1.0460   1.0489   1.0572   1.0607   1.0638   1.0741   1.0805
  1.0942   1.1034   1.1039   1.1129   1.1188   1.1314   1.1343   1.1417
  1.1512   1.1569   1.1645   1.1712   1.1772   1.1857   1.1919   1.2085
  1.2147   1.2289   1.2468   1.2542   1.2646   1.2703   1.2915   1.2942
  1.3023   1.3076   1.3163   1.3352   1.3453   1.3629   1.3727   1.3757
  1.3981   1.3987   1.4024   1.4114   1.4259   1.4439   1.4532   1.4625
  1.4931   1.4938   1.4975   1.5067   1.5175   1.5240   1.5438   1.5532
  1.5614   1.5683   1.5824   1.5946   1.6268   1.6328   1.6527   1.6618
  1.6757   1.6855   1.6976   1.7082   1.7306   1.7388   1.7502   1.7686
  1.7883   1.8011   1.8096   1.8200   1.8282   1.8405   1.8481   1.8689
  1.8835   1.8990   1.9021   1.9068   1.9111   1.9188   1.9324   1.9422
  1.9430   1.9535   1.9610   1.9682   1.9751   1.9833   1.9920   1.9943
  2.0017   2.0100   2.0216   2.0255   2.0336   2.0450   2.0539   2.0581
  2.0752   2.0820   2.0935   2.1008   2.1108   2.1128   2.1257   2.1385
  2.1422   2.1511   2.1594   2.1744   2.1751   2.1965   2.2088   2.2248
  2.2409   2.2547   2.2612   2.2739   2.2818   2.2892   2.3034   2.3100
  2.3289   2.3328   2.3456   2.3647   2.3706   2.3837   2.4047   2.4165
  2.4271   2.4459   2.4571   2.4815   2.4955   2.5105   2.5164   2.5377
  2.5447   2.5647   2.5698   2.5809   2.5921   2.6021   2.6092   2.6135
  2.6246   2.6272   2.6484   2.6499   2.6668   2.6791   2.6901   2.7049
  2.7091   2.7337   2.7366   2.7489   2.7621   2.7690   2.7784   2.7847
  2.7983   2.8114   2.8207   2.8362   2.8440   2.8529   2.8585   2.8729
  2.8856   2.9024   2.9075   2.9198   2.9251   2.9381   2.9411   2.9427
  2.9481   2.9558   2.9771   2.9834   2.9948   3.0033   3.0152   3.0227
  3.0272   3.0381   3.0460   3.0541   3.0702   3.0756   3.0849   3.1031
  3.1167   3.1213   3.1277   3.1412   3.1485   3.1512   3.1578   3.1712
  3.2077   3.2125   3.2195   3.2320   3.2404   3.2536   3.2566   3.2699
  3.2810   3.2910   3.3032   3.3093   3.3190   3.3370   3.3388   3.3585
  3.3622   3.3753   3.3831   3.3992   3.4034   3.4037   3.4090   3.4196
  3.4286   3.4410   3.4547   3.4646   3.4680   3.4727   3.4769   3.4857
  3.4961   3.4988   3.5108   3.5153   3.5186   3.5353   3.5450   3.5551
  3.5636   3.5682   3.5792   3.5931   3.5941   3.6020   3.6092   3.6164
  3.6249   3.6314   3.6518   3.6598   3.6648   3.6759   3.6792   3.6932
  3.6947   3.7064   3.7229   3.7304   3.7329   3.7400   3.7512   3.7798
  3.8115   3.8145   3.8344   3.8395   3.8559   3.8712   3.8793   3.8814
  3.9142   3.9330   3.9768   3.9834   3.9927   3.9953   4.0024   4.0219
  4.0452   4.0644   4.0877   4.1073   4.1163   4.1447   4.1607   4.1956
  4.2057   4.2328   4.2401   4.2989   4.3057   4.3197   4.3269   4.3463
  4.3536   4.3639   4.3796   4.3898   4.3970   4.4029   4.4178   4.4294
  4.4755   4.4830   4.5001   4.5145   4.5272   4.5618   4.5800   4.6095
  4.6266   4.6327   4.6502   4.6842   4.7100   4.7763   4.7869   4.8117
  4.8388   4.8792   4.8907   4.8975   4.9100   4.9480   4.9537   4.9759
  4.9883   5.0225   5.0313   5.0666   5.0794   5.0839   5.1045   5.1151
  5.1654   5.2005   5.2102   5.2697   5.2764   5.3022   5.3415   5.4029
  5.4067   5.4235   5.4613   5.4889   5.5219   5.5489   5.5720   5.6053
  5.6252   5.6832   5.7153   5.7417   5.7887   5.8291   5.8732   5.8822
  6.0827   6.2175   6.3166  22.6700  22.6809  22.6920  22.8738  22.9528
 22.9838  23.0060  23.0713  23.1448  23.1926  23.4670  23.4774  32.7629
 32.8837
 --------------------------------------------------------------
 
          Ground-State Mulliken Net Atomic Charges

     Atom                 Charge (a.u.)
  ----------------------------------------
      1 C                    -1.103702
      2 C                    -0.285004
      3 C                    -0.457561
      4 C                    -0.721136
      5 C                     0.318311
      6 C                    -0.454039
      7 C                    -0.507666
      8 H                     0.540908
      9 H                     0.482959
     10 H                     0.427849
     11 H                     0.390389
     12 H                     0.296954
     13 H                     0.313894
     14 H                     0.416408
     15 H                     0.242488
     16 C                    -0.044172
     17 C                    -1.079334
     18 C                     0.052047
     19 C                    -0.348804
     20 C                    -0.216348
     21 N                    -0.519511
     22 N                     0.114225
     23 H                     0.195144
     24 H                     0.235005
     25 H                     0.286411
     26 H                     0.346063
     27 H                     0.313914
     28 H                     0.223877
     29 H                     0.265028
     30 H                     0.275402
  ----------------------------------------
  Sum of atomic charges =     0.000000

 -----------------------------------------------------------------
                    Cartesian Multipole Moments
 -----------------------------------------------------------------
    Charge (ESU x 10^10)
                 0.0000
    Dipole Moment (Debye)
         X       3.5808      Y       2.2353      Z       2.4397
       Tot       4.8755
    Quadrupole Moments (Debye-Ang)
        XX     -75.1088     XY      -6.7362     YY     -93.6579
        XZ       3.4625     YZ      -3.5045     ZZ     -70.3165
    Octopole Moments (Debye-Ang^2)
       XXX      20.6214    XXY       9.8782    XYY     -12.0906
       YYY      48.7538    XXZ      22.8432    XYZ     -13.5297
       YYZ     -11.7731    XZZ      26.6005    YZZ     -17.1129
       ZZZ      53.9646
    Hexadecapole Moments (Debye-Ang^3)
      XXXX   -1204.0129   XXXY     621.4367   XXYY    -699.2906
      XYYY     615.4653   YYYY   -3095.9978   XXXZ     110.5008
      XXYZ      -3.8066   XYYZ      35.3511   YYYZ     -15.2011
      XXZZ    -333.2300   XYZZ     204.8845   YYZZ    -627.3034
      XZZZ     124.8787   YZZZ     -39.0225   ZZZZ    -887.8034
 -----------------------------------------------------------------
Archival summary:
1\1\nid00527\SP\ProcedureUnspecified\BasisUnspecified\21216\meili\MonSep2704:46:262021MonSep2704:46:262021\0\\#,ProcedureUnspecified,BasisUnspecified,\\0,1\N\C,1,1.33556\H,2,1.08411,1,125.378\N,2,1.3264,1,109.141,3,-178.88,0\H,4,1.01757,2,123.266,1,175.079,0\C,4,1.37775,2,108.132,1,1.53143,0\H,6,1.06241,4,130.649,2,156.335,0\C,6,1.34765,4,107.519,2,-2.62952,0\C,8,1.49797,6,128.286,4,176.456,0\H,9,1.08423,8,106.083,6,-155.139,0\H,9,1.08892,8,108.109,6,-40.5466,0\C,9,1.52147,8,114.659,6,82.8311,0\H,12,1.09078,9,109.392,8,-57.2884,0\H,12,1.1,9,108.276,8,-178.49,0\H,12,1.1,9,109.936,8,62.8813,0\H,7,2.43411,6,80.9857,4,-90.488,0\C,16,1.06894,7,170.406,6,-164.535,0\C,17,1.38789,16,119.52,7,-2.76871,0\H,18,1.08198,17,120.374,16,1.61883,0\C,18,1.3744,17,119.481,16,-175.665,0\H,20,1.07778,18,118.961,17,178.587,0\C,20,1.38322,18,120.787,17,-3.20319,0\H,22,1.08015,20,119.257,18,178.788,0\C,22,1.38981,20,120.768,18,1.15066,0\C,17,1.39004,16,120.5,7,178.661,0\H,25,1.0821,17,119.283,16,-1.24724,0\C,24,1.51026,22,121.105,20,176.263,0\H,27,1.08972,24,108.508,22,146.86,0\H,27,1.09188,24,109.837,22,29.215,0\H,27,1.1,24,112.386,22,-93.4143,0\\\@

 Total job time:  89672.85s(wall), 64385.89s(cpu) 
 Mon Sep 27 04:46:28 2021

        *************************************************************
        *                                                           *
        *  Thank you very much for using Q-Chem.  Have a nice day.  *
        *                                                           *
        *************************************************************


