
Running Job 1 of 1 SSI-013HIE-095HIE-1_PCM_TZVPD.in
qchem SSI-013HIE-095HIE-1_PCM_TZVPD.in_36240.0 /tmp/qchem36240/ 0
/global/common/cori/software/qchem/5.2/exe/qcprog.exe_s SSI-013HIE-095HIE-1_PCM_TZVPD.in_36240.0 /tmp/qchem36240/
                  Welcome to Q-Chem
     A Quantum Leap Into The Future Of Chemistry


 Q-Chem 5.2, Q-Chem, Inc., Pleasanton, CA (2019)

 License issued to: National Energy Research Scientific Computing Center

 Yihan Shao,  Zhengting Gan,  E. Epifanovsky,  A. T. B. Gilbert,  M. Wormit,  
 J. Kussmann,  A. W. Lange,  A. Behn,  Jia Deng,  Xintian Feng,  D. Ghosh,  
 M. Goldey,  P. R. Horn,  L. D. Jacobson,  I. Kaliman,  T. Kus,  A. Landau,  
 Jie Liu,  E. I. Proynov,  R. M. Richard,  R. P. Steele,  E. J. Sundstrom,  
 H. L. Woodcock III,  P. M. Zimmerman,  D. Zuev,  B. Albrecht,  E. Alguire,  
 S. A. Baeppler,  D. Barton,  Z. Benda,  Y. A. Bernard,  E. J. Berquist,  
 K. B. Bravaya,  H. Burton,  D. Casanova,  Chun-Min Chang,  Yunqing Chen,  
 A. Chien,  K. D. Closser,  M. P. Coons,  S. Coriani,  S. Dasgupta,  
 A. L. Dempwolff,  M. Diedenhofen,  Hainam Do,  R. G. Edgar,  Po-Tung Fang,  
 S. Faraji,  S. Fatehi,  Qingguo Feng,  K. D. Fenk,  J. Fosso-Tande,  
 J. Gayvert,  Qinghui Ge,  A. Ghysels,  G. Gidofalvi,  J. Gomes,  
 J. Gonthier,  A. Gunina,  D. Hait,  M. W. D. Hanson-Heine,  
 P. H. P. Harbach,  A. W. Hauser,  M. F. Herbst,  J. E. Herr,  
 E. G. Hohenstein,  Z. C. Holden,  Kerwin Hui,  B. C. Huynh,  T.-C. Jagau,  
 Hyunjun Ji,  B. Kaduk,  K. Khistyaev,  Jaehoon Kim,  P. Klunzinger,  K. Koh,  
 D. Kosenkov,  L. Koulias,  T. Kowalczyk,  C. M. Krauter,  A. Kunitsa,  
 Ka Un Lao,  A. Laurent,  K. V. Lawler,  Joonho Lee,  D. Lefrancois,  
 S. Lehtola,  D. S. Levine,  Yi-Pei Li,  You-Sheng Lin,  Fenglai Liu,  
 E. Livshits,  A. Luenser,  P. Manohar,  E. Mansoor,  S. F. Manzer,  
 Shan-Ping Mao,  Yuezhi Mao,  N. Mardirossian,  A. V. Marenich,  
 T. Markovich,  L. A. Martinez-Martinez,  S. A. Maurer,  N. J. Mayhall,  
 S. C. McKenzie,  J.-M. Mewes,  P. Morgante,  A. F. Morrison,  
 J. W. Mullinax,  K. Nanda,  T. S. Nguyen-Beck,  R. Olivares-Amaya,  
 J. A. Parkhill,  Zheng Pei,  T. M. Perrine,  F. Plasser,  P. Pokhilko,  
 S. Prager,  A. Prociuk,  E. Ramos,  D. R. Rehn,  F. Rob,  M. Scheurer,  
 M. Schneider,  N. Sergueev,  S. M. Sharada,  S. Sharma,  D. W. Small,  
 T. Stauch,  T. Stein,  Yu-Chuan Su,  A. J. W. Thom,  A. Tkatchenko,  
 T. Tsuchimochi,  N. M. Tubman,  L. Vogt,  M. L. Vidal,  O. Vydrov,  
 M. A. Watson,  J. Wenzel,  M. de Wergifosse,  T. A. Wesolowski,  A. White,  
 J. Witte,  A. Yamada,  Jun Yang,  K. Yao,  S. Yeganeh,  S. R. Yost,  
 Zhi-Qiang You,  A. Zech,  Igor Ying Zhang,  Xing Zhang,  Yan Zhao,  
 Ying Zhu,  B. R. Brooks,  G. K. L. Chan,  C. J. Cramer,  M. S. Gordon,  
 W. J. Hehre,  A. Klamt,  M. W. Schmidt,  C. D. Sherrill,  D. G. Truhlar,  
 A. Aspuru-Guzik,  R. Baer,  A. T. Bell,  N. A. Besley,  Jeng-Da Chai,  
 A. E. DePrince, III,  R. A. DiStasio Jr.,  A. Dreuw,  B. D. Dunietz,  
 T. R. Furlani,  Chao-Ping Hsu,  Yousung Jung,  Jing Kong,  D. S. Lambrecht,  
 WanZhen Liang,  C. Ochsenfeld,  V. A. Rassolov,  L. V. Slipchenko,  
 J. E. Subotnik,  T. Van Voorhis,  J. M. Herbert,  A. I. Krylov,  
 P. M. W. Gill,  M. Head-Gordon

 Contributors to earlier versions of Q-Chem not listed above: 
 R. D. Adamson,  B. Austin,  J. Baker,  G. J. O. Beran,  K. Brandhorst,  
 S. T. Brown,  E. F. C. Byrd,  A. K. Chakraborty,  C.-L. Cheng,  
 Siu Hung Chien,  D. M. Chipman,  D. L. Crittenden,  H. Dachsel,  
 R. J. Doerksen,  A. D. Dutoi,  L. Fusti-Molnar,  W. A. Goddard III,  
 A. Golubeva-Zadorozhnaya,  S. R. Gwaltney,  G. Hawkins,  A. Heyden,  
 S. Hirata,  G. Kedziora,  F. J. Keil,  C. Kelley,  Jihan Kim,  R. A. King,  
 R. Z. Khaliullin,  P. P. Korambath,  W. Kurlancheek,  A. M. Lee,  M. S. Lee,  
 S. V. Levchenko,  Ching Yeh Lin,  D. Liotard,  R. C. Lochan,  I. Lotan,  
 P. E. Maslen,  N. Nair,  D. P. O'Neill,  D. Neuhauser,  E. Neuscamman,  
 C. M. Oana,  R. Olson,  B. Peters,  R. Peverati,  P. A. Pieniazek,  
 Y. M. Rhee,  J. Ritchie,  M. A. Rohrdanz,  E. Rosta,  N. J. Russ,  
 H. F. Schaefer III,  N. E. Schultz,  N. Shenvi,  A. C. Simmonett,  A. Sodt,  
 D. Stuck,  K. S. Thanthiriwatte,  V. Vanovschi,  Tao Wang,  A. Warshel,  
 C. F. Williams,  Q. Wu,  X. Xu,  W. Zhang

 Please cite Q-Chem as follows:
 Y. Shao et al., Mol. Phys. 113, 184-215 (2015)
 DOI: 10.1080/00268976.2014.952696

 Q-Chem 5.2.0 for Intel X86 EM64T Linux

 Parts of Q-Chem use Armadillo 8.300.2 (Tropical Shenanigans).
 http://arma.sourceforge.net/

 Q-Chem begins on Sun Sep 26 03:04:30 2021  

Host: cori01
0

     Scratch files written to /tmp/qchem36240//
 May1019 |scratch|qcdevops|jenkins|workspace|build_RNUM -1
Processing $rem in /global/common/cori/software/qchem/5.2/config/preferences:
	 MEM_TOTAL  96000 
NAlpha2: 88
NElect   88
Mult     1
Symmetry turned off for PCM/SM12/SMD calculation

 Q-Chem warning in module libgen/rem_setup.C, line 2803:

 Neither GIA nor STOLL is specified by user. Use STOLL as the default


Checking the input file for inconsistencies... 	...done.

--------------------------------------------------------------
User input:
--------------------------------------------------------------
$comment
SSI-013HIE-095HIE-1.pdb
$end

$molecule
0 1
--
0 1
C   -0.818445278960   -2.746573374899   -1.719072132665
C    0.379554721040   -1.852573374899   -1.660072132665
C    0.740554721040   -0.818573374899   -2.462072132665
C    2.382554721040   -1.186573374899   -1.042072132665
N    1.433554721040   -2.079573374899   -0.793072132665
N    1.986554721040   -0.404573374899   -2.038072132665
H   -1.633445278960   -2.253573374899   -2.250072132665
H   -1.145445278960   -2.935573374899   -0.696072132665
H    0.164554721040   -0.399573374899   -3.271072132665
H    3.334554721040   -1.114573374899   -0.526072132665
H    2.542554721040    0.342426625101   -2.441072132665
H   -0.566675278960   -3.704613374899   -2.197372132665
--
0 1
C   -2.863445278960    2.183426625101    2.639927867335
C   -0.153445278960    0.434426625101    0.961927867335
C   -1.599445278960    1.769426625101    1.944927867335
C   -0.483445278960    2.489426625101    1.650927867335
N   -1.362445278960    0.488426625101    1.510927867335
N    0.408554721040    1.634426625101    1.032927867335
H    0.318554721040   -0.460573374899    0.596927867335
H    1.358554721040    1.849426625101    0.751927867335
H   -0.324445278960    3.534426625101    1.883927867335
H   -3.720445278960    1.896426625101    2.038927867335
H   -2.861445278960    3.272426625101    2.712927867335
H   -2.971695278960    1.749710625101    3.645000867335
$end

$rem
JOBTYPE			EDA
EDA2			1
method			wB97X-V
BASIS			def2-TZVPD
XC_GRID			000099000590
NL_GRID			1
UNRESTRICTED		FALSE
MAX_SCF_CYCLES		200
SYMMETRY		FALSE
SYM_IGNORE		TRUE
MEM_STATIC		2000
BASIS_LIN_DEP_THRESH 	6
THRESH 			14
SCF_CONVERGENCE 	8
SCF_PRINT_FRGM 		TRUE
SOLVENT_METHOD          PCM
$end

$PCM
THEORY                  CPCM
METHOD                  SWIG
SOLVER                  INVERSION
RADII                   UFF
HPOINTS                 302
HEAVYPOINTS             302
PRINTLEVEL              0
$END

$SOLVENT
DIELECTRIC              78.390000 ! water
$END
--------------------------------------------------------------
 ----------------------------------------------------------------
             Standard Nuclear Orientation (Angstroms)
    I     Atom           X                Y                Z
 ----------------------------------------------------------------
    1      C      -0.8184452790    -2.7465733749    -1.7190721327
    2      C       0.3795547210    -1.8525733749    -1.6600721327
    3      C       0.7405547210    -0.8185733749    -2.4620721327
    4      C       2.3825547210    -1.1865733749    -1.0420721327
    5      N       1.4335547210    -2.0795733749    -0.7930721327
    6      N       1.9865547210    -0.4045733749    -2.0380721327
    7      H      -1.6334452790    -2.2535733749    -2.2500721327
    8      H      -1.1454452790    -2.9355733749    -0.6960721327
    9      H       0.1645547210    -0.3995733749    -3.2710721327
   10      H       3.3345547210    -1.1145733749    -0.5260721327
   11      H       2.5425547210     0.3424266251    -2.4410721327
   12      H      -0.5666752790    -3.7046133749    -2.1973721327
   13      C      -2.8634452790     2.1834266251     2.6399278673
   14      C      -0.1534452790     0.4344266251     0.9619278673
   15      C      -1.5994452790     1.7694266251     1.9449278673
   16      C      -0.4834452790     2.4894266251     1.6509278673
   17      N      -1.3624452790     0.4884266251     1.5109278673
   18      N       0.4085547210     1.6344266251     1.0329278673
   19      H       0.3185547210    -0.4605733749     0.5969278673
   20      H       1.3585547210     1.8494266251     0.7519278673
   21      H      -0.3244452790     3.5344266251     1.8839278673
   22      H      -3.7204452790     1.8964266251     2.0389278673
   23      H      -2.8614452790     3.2724266251     2.7129278673
   24      H      -2.9716952790     1.7497106251     3.6450008673
 ----------------------------------------------------------------
 Nuclear Repulsion Energy =         653.77050237 hartrees
 There are       44 alpha and       44 beta electrons
 Requested basis set is def2-TZVPD
 There are 216 shells and 552 basis functions

 Total QAlloc Memory Limit  96000 MB
 Mega-Array Size      1956 MB
 MEM_STATIC part      2000 MB
 Discretize the solute cavity surface with Lebedev spheres
	Using 302 Lebedev grid points for each H atom
	Using 302 Lebedev grid points for other atoms
	Atomic van der Waals radii will be scaled by 1.20
 Remove points where switching function is < 1.0e-08
 Keep 2803 surface tesserae and discard 4445 interior tesserae
 Molecular Surface Area = 282.697 Angst**2
 A cutoff of  1.0D-14 yielded  20301 shell pairs
 There are    133517 function pairs (    169600 Cartesian)
 Smallest overlap matrix eigenvalue = 1.45E-06

 Scale SEOQF with 1.000000e-01/1.000000e-01/1.000000e-01

 Standard Electronic Orientation quadrupole field applied
 Nucleus-field energy     =    -0.0000000020 hartrees

 -----------------------------------------------------------------------
  General SCF calculation program by
  Eric Jon Sundstrom, Paul Horn, Yuezhi Mao, Dmitri Zuev, Alec White,
  David Stuck, Shaama M.S., Shane Yost, Joonho Lee, David Small,
  Daniel Levine, Susi Lehtola, Hugh Burton, Evgeny Epifanovsky
 -----------------------------------------------------------------------
================================================================
                 ALMO-EDA with the EDA2 driver                  
================================================================
 The second-generation ALMO-EDA (for DFT):                      
 P. R. Horn, Y. Mao and M. Head-Gordon, PCCP, 18, 23067 (2016)  
 Decomposition of the frozen energy:                            
 P. R. Horn, Y. Mao and M. Head-Gordon, JCP, 144, 114107 (2016) 
 FERF model for polarization:                                   
 P. R. Horn and M. Head-Gordon, JCP, 143, 114111 (2015)         
Using eda2 option set 1
Option set summary: Frozen orbital wavefunction, initial wavefunction decomposition, and nDQ polarization.
--------------------------------
Printing EDA Options
--------------------------------
eda_child_super_basis      0
fragmo_guess_mode          0
child_mp                   1
child_mp_orders            232
cls_elec                   1
cls_disp                   0
scfmi_mode                 1
scfmi_occs                 0
scfmi_virts                0
frz_relax                  0
frz_relax_method           0
dc_pen_start               0
dc_pen_conv                0
dc_pen_increment           0
dc_pen_steps               0
dc_pen_thresh_factor       0
dc_pen_pre_newton_thresh   0
frz_ortho_decomp           1
frz_ortho_decomp_conv      6
frgm_method                2
scfmi_freeze_ss            0
separate_rehyb             0
plot_diff_den              0
eda_nocv                   0
eda_vct_relax              1
disp_free_x                0
disp_free_c                0
eda_bsse                   0
eda_pct_a                  0
eda_covp                   0
--------------------------------
Attempting to make child job directory: /tmp/qchem36240//Frg1/
Attempting to make child job directory: /tmp/qchem36240//Frg2/
Creating input file /tmp/qchem36240/Frg1.input
using default PutDataFrgm: nothing
calling putenv with: QCSCRATCH=/tmp/qchem36240/ 
calling putenv with: QCLOCALSCR=/tmp/qchem36240/ 
Spawning Job For Fragment 0
                  Welcome to Q-Chem
     A Quantum Leap Into The Future Of Chemistry


 Q-Chem 5.2, Q-Chem, Inc., Pleasanton, CA (2019)

 License issued to: National Energy Research Scientific Computing Center

 Yihan Shao,  Zhengting Gan,  E. Epifanovsky,  A. T. B. Gilbert,  M. Wormit,  
 J. Kussmann,  A. W. Lange,  A. Behn,  Jia Deng,  Xintian Feng,  D. Ghosh,  
 M. Goldey,  P. R. Horn,  L. D. Jacobson,  I. Kaliman,  T. Kus,  A. Landau,  
 Jie Liu,  E. I. Proynov,  R. M. Richard,  R. P. Steele,  E. J. Sundstrom,  
 H. L. Woodcock III,  P. M. Zimmerman,  D. Zuev,  B. Albrecht,  E. Alguire,  
 S. A. Baeppler,  D. Barton,  Z. Benda,  Y. A. Bernard,  E. J. Berquist,  
 K. B. Bravaya,  H. Burton,  D. Casanova,  Chun-Min Chang,  Yunqing Chen,  
 A. Chien,  K. D. Closser,  M. P. Coons,  S. Coriani,  S. Dasgupta,  
 A. L. Dempwolff,  M. Diedenhofen,  Hainam Do,  R. G. Edgar,  Po-Tung Fang,  
 S. Faraji,  S. Fatehi,  Qingguo Feng,  K. D. Fenk,  J. Fosso-Tande,  
 J. Gayvert,  Qinghui Ge,  A. Ghysels,  G. Gidofalvi,  J. Gomes,  
 J. Gonthier,  A. Gunina,  D. Hait,  M. W. D. Hanson-Heine,  
 P. H. P. Harbach,  A. W. Hauser,  M. F. Herbst,  J. E. Herr,  
 E. G. Hohenstein,  Z. C. Holden,  Kerwin Hui,  B. C. Huynh,  T.-C. Jagau,  
 Hyunjun Ji,  B. Kaduk,  K. Khistyaev,  Jaehoon Kim,  P. Klunzinger,  K. Koh,  
 D. Kosenkov,  L. Koulias,  T. Kowalczyk,  C. M. Krauter,  A. Kunitsa,  
 Ka Un Lao,  A. Laurent,  K. V. Lawler,  Joonho Lee,  D. Lefrancois,  
 S. Lehtola,  D. S. Levine,  Yi-Pei Li,  You-Sheng Lin,  Fenglai Liu,  
 E. Livshits,  A. Luenser,  P. Manohar,  E. Mansoor,  S. F. Manzer,  
 Shan-Ping Mao,  Yuezhi Mao,  N. Mardirossian,  A. V. Marenich,  
 T. Markovich,  L. A. Martinez-Martinez,  S. A. Maurer,  N. J. Mayhall,  
 S. C. McKenzie,  J.-M. Mewes,  P. Morgante,  A. F. Morrison,  
 J. W. Mullinax,  K. Nanda,  T. S. Nguyen-Beck,  R. Olivares-Amaya,  
 J. A. Parkhill,  Zheng Pei,  T. M. Perrine,  F. Plasser,  P. Pokhilko,  
 S. Prager,  A. Prociuk,  E. Ramos,  D. R. Rehn,  F. Rob,  M. Scheurer,  
 M. Schneider,  N. Sergueev,  S. M. Sharada,  S. Sharma,  D. W. Small,  
 T. Stauch,  T. Stein,  Yu-Chuan Su,  A. J. W. Thom,  A. Tkatchenko,  
 T. Tsuchimochi,  N. M. Tubman,  L. Vogt,  M. L. Vidal,  O. Vydrov,  
 M. A. Watson,  J. Wenzel,  M. de Wergifosse,  T. A. Wesolowski,  A. White,  
 J. Witte,  A. Yamada,  Jun Yang,  K. Yao,  S. Yeganeh,  S. R. Yost,  
 Zhi-Qiang You,  A. Zech,  Igor Ying Zhang,  Xing Zhang,  Yan Zhao,  
 Ying Zhu,  B. R. Brooks,  G. K. L. Chan,  C. J. Cramer,  M. S. Gordon,  
 W. J. Hehre,  A. Klamt,  M. W. Schmidt,  C. D. Sherrill,  D. G. Truhlar,  
 A. Aspuru-Guzik,  R. Baer,  A. T. Bell,  N. A. Besley,  Jeng-Da Chai,  
 A. E. DePrince, III,  R. A. DiStasio Jr.,  A. Dreuw,  B. D. Dunietz,  
 T. R. Furlani,  Chao-Ping Hsu,  Yousung Jung,  Jing Kong,  D. S. Lambrecht,  
 WanZhen Liang,  C. Ochsenfeld,  V. A. Rassolov,  L. V. Slipchenko,  
 J. E. Subotnik,  T. Van Voorhis,  J. M. Herbert,  A. I. Krylov,  
 P. M. W. Gill,  M. Head-Gordon

 Contributors to earlier versions of Q-Chem not listed above: 
 R. D. Adamson,  B. Austin,  J. Baker,  G. J. O. Beran,  K. Brandhorst,  
 S. T. Brown,  E. F. C. Byrd,  A. K. Chakraborty,  C.-L. Cheng,  
 Siu Hung Chien,  D. M. Chipman,  D. L. Crittenden,  H. Dachsel,  
 R. J. Doerksen,  A. D. Dutoi,  L. Fusti-Molnar,  W. A. Goddard III,  
 A. Golubeva-Zadorozhnaya,  S. R. Gwaltney,  G. Hawkins,  A. Heyden,  
 S. Hirata,  G. Kedziora,  F. J. Keil,  C. Kelley,  Jihan Kim,  R. A. King,  
 R. Z. Khaliullin,  P. P. Korambath,  W. Kurlancheek,  A. M. Lee,  M. S. Lee,  
 S. V. Levchenko,  Ching Yeh Lin,  D. Liotard,  R. C. Lochan,  I. Lotan,  
 P. E. Maslen,  N. Nair,  D. P. O'Neill,  D. Neuhauser,  E. Neuscamman,  
 C. M. Oana,  R. Olson,  B. Peters,  R. Peverati,  P. A. Pieniazek,  
 Y. M. Rhee,  J. Ritchie,  M. A. Rohrdanz,  E. Rosta,  N. J. Russ,  
 H. F. Schaefer III,  N. E. Schultz,  N. Shenvi,  A. C. Simmonett,  A. Sodt,  
 D. Stuck,  K. S. Thanthiriwatte,  V. Vanovschi,  Tao Wang,  A. Warshel,  
 C. F. Williams,  Q. Wu,  X. Xu,  W. Zhang

 Please cite Q-Chem as follows:
 Y. Shao et al., Mol. Phys. 113, 184-215 (2015)
 DOI: 10.1080/00268976.2014.952696

 Q-Chem 5.2.0 for Intel X86 EM64T Linux

 Parts of Q-Chem use Armadillo 8.300.2 (Tropical Shenanigans).
 http://arma.sourceforge.net/

 Q-Chem begins on Sun Sep 26 03:04:34 2021  

Host: cori01
0

     Scratch files written to /tmp/qchem36240//Frg1//
 May1019 |scratch|qcdevops|jenkins|workspace|build_RNUM -1
Processing $rem in /global/common/cori/software/qchem/5.2/config/preferences:
	 MEM_TOTAL  96000 
NAlpha2: 44
NElect   44
Mult     1
Symmetry turned off for PCM/SM12/SMD calculation

Checking the input file for inconsistencies... 	...done.

--------------------------------------------------------------
User input:
--------------------------------------------------------------
$molecule
0 1
 6	-0.8184452790	-2.7465733749	-1.7190721327
 6	0.3795547210	-1.8525733749	-1.6600721327
 6	0.7405547210	-0.8185733749	-2.4620721327
 6	2.3825547210	-1.1865733749	-1.0420721327
 7	1.4335547210	-2.0795733749	-0.7930721327
 7	1.9865547210	-0.4045733749	-2.0380721327
 1	-1.6334452790	-2.2535733749	-2.2500721327
 1	-1.1454452790	-2.9355733749	-0.6960721327
 1	0.1645547210	-0.3995733749	-3.2710721327
 1	3.3345547210	-1.1145733749	-0.5260721327
 1	2.5425547210	0.3424266251	-2.4410721327
 1	-0.5666752790	-3.7046133749	-2.1973721327
$end
$rem
EDA2		1
METHOD		WB97X-V
BASIS		DEF2-TZVPD
XC_GRID		000099000590
NL_GRID		1
UNRESTRICTED		FALSE
MAX_SCF_CYCLES		200
SYMMETRY		FALSE
SYM_IGNORE		TRUE
BASIS_LIN_DEP_THRESH		6
THRESH		14
SCF_CONVERGENCE		8
SCF_PRINT_FRGM		TRUE
SOLVENT_METHOD		PCM
!required keywords
JOBTYPE		SP
SYM_IGNORE		TRUE
SUBSYSTEM		TRUE
GEN_SCFMAN		TRUE
CHILD_INSTRUCTION		2
SYM_IGNORE		TRUE
SCFMI		0
RI_K 0		
PARI_K 0		
MIN_PARI_K 0		
IARI_K 0		
OCC_RI_K 0		
PURECART		1111
MEM_STATIC		2000
MEM_TOTAL		96000
GUI		0
CHILD_MP		1
CHILD_MP_ORDERS		232
FRZ_RELAX		0
FRZ_RELAX_METHOD		0
EDA_CLS_ELEC		1
EDA_CLS_DISP		0
FRZ_ORTHO_DECOMP		1
EDA2		FALSE
FRGM_METHOD		FALSE
CIS_N_ROOTS  0
LOCAL_CIS    0
CIS_RLX_DNS  1
$end
$pcm
THEORY                  CPCM
METHOD                  SWIG
SOLVER                  INVERSION
RADII                   UFF
HPOINTS                 302
HEAVYPOINTS             302
PRINTLEVEL              0
$end
$solvent
DIELECTRIC              78.390000 ! water
$end
--------------------------------------------------------------
 ----------------------------------------------------------------
             Standard Nuclear Orientation (Angstroms)
    I     Atom           X                Y                Z
 ----------------------------------------------------------------
    1      C      -0.8184452790    -2.7465733749    -1.7190721327
    2      C       0.3795547210    -1.8525733749    -1.6600721327
    3      C       0.7405547210    -0.8185733749    -2.4620721327
    4      C       2.3825547210    -1.1865733749    -1.0420721327
    5      N       1.4335547210    -2.0795733749    -0.7930721327
    6      N       1.9865547210    -0.4045733749    -2.0380721327
    7      H      -1.6334452790    -2.2535733749    -2.2500721327
    8      H      -1.1454452790    -2.9355733749    -0.6960721327
    9      H       0.1645547210    -0.3995733749    -3.2710721327
   10      H       3.3345547210    -1.1145733749    -0.5260721327
   11      H       2.5425547210     0.3424266251    -2.4410721327
   12      H      -0.5666752790    -3.7046133749    -2.1973721327
 ----------------------------------------------------------------
 Nuclear Repulsion Energy =         224.77581720 hartrees
 There are       22 alpha and       22 beta electrons
 Requested basis set is def2-TZVPD
 There are 108 shells and 276 basis functions

 Total QAlloc Memory Limit  96000 MB
 Mega-Array Size      1956 MB
 MEM_STATIC part      2000 MB
 Discretize the solute cavity surface with Lebedev spheres
	Using 302 Lebedev grid points for each H atom
	Using 302 Lebedev grid points for other atoms
	Atomic van der Waals radii will be scaled by 1.20
 Remove points where switching function is < 1.0e-08
 Keep 1508 surface tesserae and discard 2116 interior tesserae
 Molecular Surface Area = 157.473 Angst**2

                       Distance Matrix (Angstroms)
             C (  1)   C (  2)   C (  3)   C (  4)   N (  5)   N (  6)
   C (  2)  1.495968
   C (  3)  2.588381  1.357454
   C (  4)  3.624683  2.199429  2.201815
   N (  5)  2.524652  1.383522  2.203618  1.326669
   N (  6)  3.668072  2.195914  1.379742  1.326784  2.159041
   H (  7)  1.090521  2.135666  2.782094  4.327356  3.399943  4.070399
   H (  8)  1.090495  2.104236  3.340276  3.952910  2.719078  4.244567
   H (  9)  2.980504  2.180081  1.077877  3.241502  3.251653  2.200000
   H ( 10)  4.618883  3.250019  3.250315  1.085239  2.148561  2.146473
   H ( 11)  4.621637  3.179081  2.143727  2.078615  3.132390  1.014669
   H ( 12)  1.100000  2.148044  3.179331  4.046381  2.934916  4.175479
             H (  7)   H (  8)   H (  9)   H ( 10)   H ( 11)
   H (  8)  1.765838
   H (  9)  2.777150  3.844219
   H ( 10)  5.380569  4.838940  4.253839
   H ( 11)  4.920841  5.233704  2.625709  2.533247
   H ( 12)  1.801747  1.783339  3.551171  4.972036  5.109328
 
 A cutoff of  1.0D-14 yielded   5737 shell pairs
 There are     38183 function pairs (     48965 Cartesian)
 Smallest overlap matrix eigenvalue = 1.75E-06

 Scale SEOQF with 1.000000e-01/1.000000e-01/1.000000e-01

 Standard Electronic Orientation quadrupole field applied
 Nucleus-field energy     =    -0.0000000011 hartrees
 Guess from superposition of atomic densities
 Warning:  Energy on first SCF cycle will be non-variational
 SAD guess density has 43.559167 electrons

 -----------------------------------------------------------------------
  General SCF calculation program by
  Eric Jon Sundstrom, Paul Horn, Yuezhi Mao, Dmitri Zuev, Alec White,
  David Stuck, Shaama M.S., Shane Yost, Joonho Lee, David Small,
  Daniel Levine, Susi Lehtola, Hugh Burton, Evgeny Epifanovsky
 -----------------------------------------------------------------------
 Exchange:     0.1670 Hartree-Fock + 1.0000 wB97X-V + LR-HF
 Correlation:  1.0000 wB97X-V
 Using Euler-Maclaurin-Lebedev (99,590) quadrature formula
 Nonlocal Correlation:  VV10 with C = 0.0100 and b = 6.00 and scale = 1.00000
 Grid used for NLC:  SG-1 standard quadrature
Energy prior to optimization (guess energy) = -265.143004449282
Begin Timing: Total SCF Calculation
begin iterations for algorithm: DIIS         
the SCF tolerance is set to 1.00e-08
    1    -265.1430044493      7.22e-03     00000 
    2    -265.0971948872      7.42e-03     00000 
    3    -265.5595497868      7.30e-04     00000 
    4    -265.5631623369      4.21e-04     00000 
    5    -265.5646170080      8.47e-05     00000 
    6    -265.5647016781      3.02e-05     00000 
    7    -265.5647144489      9.30e-06     00000 
    8    -265.5647158130      3.10e-06     00000 
    9    -265.5647159894      1.27e-06     00000 
   10    -265.5647160284      3.45e-07     00000 
   11    -265.5647160326      8.04e-08     00000 
   12    -265.5647160328      4.88e-08     00000 
   13    -265.5647160329      1.00e-08     00000 
   14    -265.5647160329      3.56e-09     00000 Convergence criterion met
Timing for Total SCF: 967.00s (wall), 1920.86s (cpu)

************** Final PCM Free Energy Summary **************
 G_electrostatic  =      -0.01065900 hartree =      -6.68862135 kcal/mol
 G_cavitation     =       0.00000000 hartree =       0.00000000 kcal/mol
 G_dispersion     =       0.00000000 hartree =       0.00000000 kcal/mol
 G_repulsion      =       0.00000000 hartree =       0.00000000 kcal/mol
 --------------------------------------------------
 Non-electrostatic Free Energy =       0.00000000 hartree =       0.00000000 kcal/mol
 Total                         =      -0.01065900 hartree =      -6.68862135 kcal/mol
 --------------------------------------------------
 SCF Energy (H0 + V/2)                       =    -265.56471603 
 Solute Internal Energy (H0)                 =    -265.55405704 
 Total Free Energy (H0 + V/2 + non-elec)     =    -265.56471603 hartree
                                             = -166644.37447406 kcal/mol
***********************************************************

E_pcm = -0.0106589966
Multipole orders to be included
        2
        3
computing dipole RHS
computing quadrupole RHS
total number of RHS in solve_reponses: 8
RHS batch sizes
        8
Beginning Block Conjugate Gradient Iterations. Batch Number: 0
computing hessian-vector products by finite difference
              1      5.63e-01     00000 Conjugate Gradient Iteration
computing hessian-vector products by finite difference
              2      1.76e-01     00000 Conjugate Gradient Iteration
computing hessian-vector products by finite difference
              3      4.08e-02     00000 Conjugate Gradient Iteration
computing hessian-vector products by finite difference
              4      1.26e-02     00000 Conjugate Gradient Iteration
computing hessian-vector products by finite difference
              5      2.89e-03     00000 Conjugate Gradient Iteration
computing hessian-vector products by finite difference
              6      5.61e-04     00000 Conjugate Gradient Iteration
computing hessian-vector products by finite difference
              7      1.01e-04     00000 Conjugate Gradient Iteration
computing hessian-vector products by finite difference
              8      1.48e-05     00000 Conjugate Gradient Iteration
computing hessian-vector products by finite difference
              9      2.82e-06     00000 Conjugate Gradient Iteration
computing hessian-vector products by finite difference
             10      5.74e-07     00000 Conjugate Gradient Iteration
computing hessian-vector products by finite difference
             11      1.77e-07     00000 Conjugate Gradient Iteration
computing hessian-vector products by finite difference
             12      2.80e-08     00000 Conjugate Gradient Iteration
computing hessian-vector products by finite difference
             13      4.04e-09     00000 CG Converged
batch 0 complete
Done Calculating Responses
TESTING ORTHOGONALIZATION OF MULTIPOLE BASIS
Multipole virts passed orthogonality test
Virts Per Order
           66
          110
 
 --------------------------------------------------------------
 
                    Orbital Energies (a.u.)
 --------------------------------------------------------------
 
 Alpha MOs
 -- Occupied --
-14.4667 -14.3874 -10.3230 -10.2896 -10.2868 -10.2647  -1.1570  -0.9976
 -0.9012  -0.8296  -0.7289  -0.6883  -0.6701  -0.5669  -0.5601  -0.5453
 -0.5161  -0.4996  -0.4841  -0.3786  -0.3752  -0.3261
 -- Virtual --
  0.0640   0.0820   0.0931   0.1027   0.1135   0.1240   0.1304   0.1424
  0.1646   0.1698   0.1739   0.1821   0.1943   0.2009   0.2220   0.2392
  0.2412   0.2458   0.2572   0.2611   0.2642   0.2865   0.2951   0.3017
  0.3092   0.3107   0.3188   0.3237   0.3257   0.3339   0.3449   0.3536
  0.3555   0.3639   0.3716   0.3809   0.3908   0.3942   0.4051   0.4121
  0.4169   0.4228   0.4269   0.4479   0.4565   0.4650   0.4663   0.4817
  0.4862   0.4904   0.4941   0.5173   0.5287   0.5381   0.5468   0.5580
  0.5635   0.5736   0.5833   0.5943   0.6060   0.6066   0.6248   0.6299
  0.6453   0.6568   0.6669   0.6791   0.6924   0.6960   0.7013   0.7166
  0.7260   0.7320   0.7624   0.7753   0.7775   0.7828   0.7891   0.8005
  0.8066   0.8127   0.8260   0.8340   0.8639   0.8679   0.8744   0.8875
  0.9161   0.9349   0.9603   0.9824   0.9993   1.0037   1.0154   1.0348
  1.0663   1.0776   1.1032   1.1143   1.1306   1.1458   1.1777   1.2113
  1.2298   1.2347   1.2764   1.3260   1.3373   1.3531   1.3711   1.4252
  1.4399   1.4647   1.5264   1.5479   1.6060   1.6343   1.6509   1.6726
  1.6960   1.7345   1.7992   1.8220   1.8346   1.8516   1.8692   1.8829
  1.9078   1.9439   1.9473   1.9530   1.9685   1.9738   2.0035   2.0098
  2.0169   2.0727   2.0828   2.1238   2.1707   2.2353   2.2548   2.2677
  2.3012   2.3480   2.3793   2.3973   2.4245   2.4526   2.4633   2.5011
  2.5456   2.5733   2.6012   2.6210   2.6352   2.6521   2.6859   2.7138
  2.7421   2.7726   2.7922   2.8338   2.8690   2.8859   2.8958   2.9874
  3.0116   3.0399   3.0515   3.0641   3.0839   3.1240   3.1341   3.1579
  3.1701   3.2087   3.2242   3.2310   3.2627   3.2875   3.3061   3.3381
  3.3444   3.3658   3.3828   3.3920   3.4102   3.4260   3.4782   3.4947
  3.5168   3.5340   3.5684   3.6001   3.6241   3.6568   3.7018   3.7264
  3.7394   3.7820   3.8184   3.8594   3.8738   3.9485   3.9565   4.0387
  4.0887   4.0990   4.1241   4.2309   4.2939   4.3953   4.4240   4.4890
  4.5076   4.5685   4.6193   4.7244   4.7625   4.7988   4.8569   4.8645
  4.9327   4.9613   5.0215   5.0393   5.0435   5.0758   5.1573   5.1896
  5.2290   5.3026   5.3765   5.4436   5.4861   5.5299   5.5799   5.5980
  5.6653   5.6948   5.7451   5.7890   5.8757   6.0323   6.2287   6.2806
 22.6207  22.8656  23.1221  23.3779  32.6432  32.7767
 --------------------------------------------------------------
 
          Ground-State Mulliken Net Atomic Charges

     Atom                 Charge (a.u.)
  ----------------------------------------
      1 C                    -0.732977
      2 C                     0.558218
      3 C                    -0.555317
      4 C                    -0.220024
      5 N                    -0.486006
      6 N                     0.092770
      7 H                     0.231492
      8 H                     0.212151
      9 H                     0.259825
     10 H                     0.286374
     11 H                     0.171120
     12 H                     0.182374
  ----------------------------------------
  Sum of atomic charges =     0.000000

 -----------------------------------------------------------------
                    Cartesian Multipole Moments
 -----------------------------------------------------------------
    Charge (ESU x 10^10)
                -0.0000
    Dipole Moment (Debye)
         X       1.0909      Y       3.3594      Z      -2.7764
       Tot       4.4927
    Quadrupole Moments (Debye-Ang)
        XX     -26.9342     XY       7.3322     YY     -44.2259
        XZ      -4.1009     YZ      -1.8724     ZZ     -28.3684
    Octopole Moments (Debye-Ang^2)
       XXX     -67.3145    XXY      64.6027    XYY     -51.7949
       YYY     191.0160    XXZ      43.0470    XYZ      -9.1623
       YYZ      59.1391    XZZ     -25.3200    YZZ      61.9785
       ZZZ     155.1638
    Hexadecapole Moments (Debye-Ang^3)
      XXXX    -418.6311   XXXY      85.2649   XXYY    -236.9652
      XYYY     132.8196   YYYY    -792.1480   XXXZ      95.5077
      XXYZ    -101.5583   XYYZ      56.8326   YYYZ    -246.9131
      XXZZ    -172.7864   XYZZ      49.9054   YYZZ    -239.7823
      XZZZ     120.6465   YZZZ    -270.5117   ZZZZ    -647.1210
 -----------------------------------------------------------------
Archival summary:
1\1\nid00567\SP\ProcedureUnspecified\BasisUnspecified\246\meili\SunSep2607:58:142021SunSep2607:58:142021\0\\#,ProcedureUnspecified,BasisUnspecified,\\0,1\N\C,1,1.32667\H,2,1.08524,1,125.656\N,2,1.32678,1,108.913,3,179.188,0\H,4,1.01467,2,124.647,1,-178.016,0\C,4,1.37974,2,108.867,1,-0.820277,0\H,6,1.07788,4,126.626,2,-178.364,0\C,6,1.35745,4,106.688,2,1.82884,0\C,8,1.49597,6,130.156,4,-175.122,0\H,9,1.09049,8,107.861,6,-141.362,0\H,9,1.09052,8,110.336,6,-23.4612,0\H,9,1.1,8,110.753,6,99.4341,0\\\@

 Total job time:  17621.40s(wall), 34860.99s(cpu) 
 Sun Sep 26 07:58:15 2021

        *************************************************************
        *                                                           *
        *  Thank you very much for using Q-Chem.  Have a nice day.  *
        *                                                           *
        *************************************************************


Done Job For Fragment 0
calling putenv with: QCSCRATCH=/global/cscratch1/sd/meili 
calling putenv with: QCLOCALSCR=/tmp 
calling putenv with: QCTHREADS=32 
Creating input file /tmp/qchem36240/Frg2.input
using default PutDataFrgm: nothing
calling putenv with: QCSCRATCH=/tmp/qchem36240/ 
calling putenv with: QCLOCALSCR=/tmp/qchem36240/ 
Spawning Job For Fragment 1
                  Welcome to Q-Chem
     A Quantum Leap Into The Future Of Chemistry


 Q-Chem 5.2, Q-Chem, Inc., Pleasanton, CA (2019)

 License issued to: National Energy Research Scientific Computing Center

 Yihan Shao,  Zhengting Gan,  E. Epifanovsky,  A. T. B. Gilbert,  M. Wormit,  
 J. Kussmann,  A. W. Lange,  A. Behn,  Jia Deng,  Xintian Feng,  D. Ghosh,  
 M. Goldey,  P. R. Horn,  L. D. Jacobson,  I. Kaliman,  T. Kus,  A. Landau,  
 Jie Liu,  E. I. Proynov,  R. M. Richard,  R. P. Steele,  E. J. Sundstrom,  
 H. L. Woodcock III,  P. M. Zimmerman,  D. Zuev,  B. Albrecht,  E. Alguire,  
 S. A. Baeppler,  D. Barton,  Z. Benda,  Y. A. Bernard,  E. J. Berquist,  
 K. B. Bravaya,  H. Burton,  D. Casanova,  Chun-Min Chang,  Yunqing Chen,  
 A. Chien,  K. D. Closser,  M. P. Coons,  S. Coriani,  S. Dasgupta,  
 A. L. Dempwolff,  M. Diedenhofen,  Hainam Do,  R. G. Edgar,  Po-Tung Fang,  
 S. Faraji,  S. Fatehi,  Qingguo Feng,  K. D. Fenk,  J. Fosso-Tande,  
 J. Gayvert,  Qinghui Ge,  A. Ghysels,  G. Gidofalvi,  J. Gomes,  
 J. Gonthier,  A. Gunina,  D. Hait,  M. W. D. Hanson-Heine,  
 P. H. P. Harbach,  A. W. Hauser,  M. F. Herbst,  J. E. Herr,  
 E. G. Hohenstein,  Z. C. Holden,  Kerwin Hui,  B. C. Huynh,  T.-C. Jagau,  
 Hyunjun Ji,  B. Kaduk,  K. Khistyaev,  Jaehoon Kim,  P. Klunzinger,  K. Koh,  
 D. Kosenkov,  L. Koulias,  T. Kowalczyk,  C. M. Krauter,  A. Kunitsa,  
 Ka Un Lao,  A. Laurent,  K. V. Lawler,  Joonho Lee,  D. Lefrancois,  
 S. Lehtola,  D. S. Levine,  Yi-Pei Li,  You-Sheng Lin,  Fenglai Liu,  
 E. Livshits,  A. Luenser,  P. Manohar,  E. Mansoor,  S. F. Manzer,  
 Shan-Ping Mao,  Yuezhi Mao,  N. Mardirossian,  A. V. Marenich,  
 T. Markovich,  L. A. Martinez-Martinez,  S. A. Maurer,  N. J. Mayhall,  
 S. C. McKenzie,  J.-M. Mewes,  P. Morgante,  A. F. Morrison,  
 J. W. Mullinax,  K. Nanda,  T. S. Nguyen-Beck,  R. Olivares-Amaya,  
 J. A. Parkhill,  Zheng Pei,  T. M. Perrine,  F. Plasser,  P. Pokhilko,  
 S. Prager,  A. Prociuk,  E. Ramos,  D. R. Rehn,  F. Rob,  M. Scheurer,  
 M. Schneider,  N. Sergueev,  S. M. Sharada,  S. Sharma,  D. W. Small,  
 T. Stauch,  T. Stein,  Yu-Chuan Su,  A. J. W. Thom,  A. Tkatchenko,  
 T. Tsuchimochi,  N. M. Tubman,  L. Vogt,  M. L. Vidal,  O. Vydrov,  
 M. A. Watson,  J. Wenzel,  M. de Wergifosse,  T. A. Wesolowski,  A. White,  
 J. Witte,  A. Yamada,  Jun Yang,  K. Yao,  S. Yeganeh,  S. R. Yost,  
 Zhi-Qiang You,  A. Zech,  Igor Ying Zhang,  Xing Zhang,  Yan Zhao,  
 Ying Zhu,  B. R. Brooks,  G. K. L. Chan,  C. J. Cramer,  M. S. Gordon,  
 W. J. Hehre,  A. Klamt,  M. W. Schmidt,  C. D. Sherrill,  D. G. Truhlar,  
 A. Aspuru-Guzik,  R. Baer,  A. T. Bell,  N. A. Besley,  Jeng-Da Chai,  
 A. E. DePrince, III,  R. A. DiStasio Jr.,  A. Dreuw,  B. D. Dunietz,  
 T. R. Furlani,  Chao-Ping Hsu,  Yousung Jung,  Jing Kong,  D. S. Lambrecht,  
 WanZhen Liang,  C. Ochsenfeld,  V. A. Rassolov,  L. V. Slipchenko,  
 J. E. Subotnik,  T. Van Voorhis,  J. M. Herbert,  A. I. Krylov,  
 P. M. W. Gill,  M. Head-Gordon

 Contributors to earlier versions of Q-Chem not listed above: 
 R. D. Adamson,  B. Austin,  J. Baker,  G. J. O. Beran,  K. Brandhorst,  
 S. T. Brown,  E. F. C. Byrd,  A. K. Chakraborty,  C.-L. Cheng,  
 Siu Hung Chien,  D. M. Chipman,  D. L. Crittenden,  H. Dachsel,  
 R. J. Doerksen,  A. D. Dutoi,  L. Fusti-Molnar,  W. A. Goddard III,  
 A. Golubeva-Zadorozhnaya,  S. R. Gwaltney,  G. Hawkins,  A. Heyden,  
 S. Hirata,  G. Kedziora,  F. J. Keil,  C. Kelley,  Jihan Kim,  R. A. King,  
 R. Z. Khaliullin,  P. P. Korambath,  W. Kurlancheek,  A. M. Lee,  M. S. Lee,  
 S. V. Levchenko,  Ching Yeh Lin,  D. Liotard,  R. C. Lochan,  I. Lotan,  
 P. E. Maslen,  N. Nair,  D. P. O'Neill,  D. Neuhauser,  E. Neuscamman,  
 C. M. Oana,  R. Olson,  B. Peters,  R. Peverati,  P. A. Pieniazek,  
 Y. M. Rhee,  J. Ritchie,  M. A. Rohrdanz,  E. Rosta,  N. J. Russ,  
 H. F. Schaefer III,  N. E. Schultz,  N. Shenvi,  A. C. Simmonett,  A. Sodt,  
 D. Stuck,  K. S. Thanthiriwatte,  V. Vanovschi,  Tao Wang,  A. Warshel,  
 C. F. Williams,  Q. Wu,  X. Xu,  W. Zhang

 Please cite Q-Chem as follows:
 Y. Shao et al., Mol. Phys. 113, 184-215 (2015)
 DOI: 10.1080/00268976.2014.952696

 Q-Chem 5.2.0 for Intel X86 EM64T Linux

 Parts of Q-Chem use Armadillo 8.300.2 (Tropical Shenanigans).
 http://arma.sourceforge.net/

 Q-Chem begins on Sun Sep 26 07:58:17 2021  

Host: cori01
0

     Scratch files written to /tmp/qchem36240//Frg2//
 May1019 |scratch|qcdevops|jenkins|workspace|build_RNUM -1
Processing $rem in /global/common/cori/software/qchem/5.2/config/preferences:
	 MEM_TOTAL  96000 
NAlpha2: 44
NElect   44
Mult     1
Symmetry turned off for PCM/SM12/SMD calculation

Checking the input file for inconsistencies... 	...done.

--------------------------------------------------------------
User input:
--------------------------------------------------------------
$molecule
0 1
 6	-2.8634452790	2.1834266251	2.6399278673
 6	-0.1534452790	0.4344266251	0.9619278673
 6	-1.5994452790	1.7694266251	1.9449278673
 6	-0.4834452790	2.4894266251	1.6509278673
 7	-1.3624452790	0.4884266251	1.5109278673
 7	0.4085547210	1.6344266251	1.0329278673
 1	0.3185547210	-0.4605733749	0.5969278673
 1	1.3585547210	1.8494266251	0.7519278673
 1	-0.3244452790	3.5344266251	1.8839278673
 1	-3.7204452790	1.8964266251	2.0389278673
 1	-2.8614452790	3.2724266251	2.7129278673
 1	-2.9716952790	1.7497106251	3.6450008673
$end
$rem
EDA2		1
METHOD		WB97X-V
BASIS		DEF2-TZVPD
XC_GRID		000099000590
NL_GRID		1
UNRESTRICTED		FALSE
MAX_SCF_CYCLES		200
SYMMETRY		FALSE
SYM_IGNORE		TRUE
BASIS_LIN_DEP_THRESH		6
THRESH		14
SCF_CONVERGENCE		8
SCF_PRINT_FRGM		TRUE
SOLVENT_METHOD		PCM
!required keywords
JOBTYPE		SP
SYM_IGNORE		TRUE
SUBSYSTEM		TRUE
GEN_SCFMAN		TRUE
CHILD_INSTRUCTION		2
SYM_IGNORE		TRUE
SCFMI		0
RI_K 0		
PARI_K 0		
MIN_PARI_K 0		
IARI_K 0		
OCC_RI_K 0		
PURECART		1111
MEM_STATIC		2000
MEM_TOTAL		96000
GUI		0
CHILD_MP		1
CHILD_MP_ORDERS		232
FRZ_RELAX		0
FRZ_RELAX_METHOD		0
EDA_CLS_ELEC		1
EDA_CLS_DISP		0
FRZ_ORTHO_DECOMP		1
EDA2		FALSE
FRGM_METHOD		FALSE
CIS_N_ROOTS  0
LOCAL_CIS    0
CIS_RLX_DNS  1
$end
$pcm
THEORY                  CPCM
METHOD                  SWIG
SOLVER                  INVERSION
RADII                   UFF
HPOINTS                 302
HEAVYPOINTS             302
PRINTLEVEL              0
$end
$solvent
DIELECTRIC              78.390000 ! water
$end
--------------------------------------------------------------
 ----------------------------------------------------------------
             Standard Nuclear Orientation (Angstroms)
    I     Atom           X                Y                Z
 ----------------------------------------------------------------
    1      C      -2.8634452790     2.1834266251     2.6399278673
    2      C      -0.1534452790     0.4344266251     0.9619278673
    3      C      -1.5994452790     1.7694266251     1.9449278673
    4      C      -0.4834452790     2.4894266251     1.6509278673
    5      N      -1.3624452790     0.4884266251     1.5109278673
    6      N       0.4085547210     1.6344266251     1.0329278673
    7      H       0.3185547210    -0.4605733749     0.5969278673
    8      H       1.3585547210     1.8494266251     0.7519278673
    9      H      -0.3244452790     3.5344266251     1.8839278673
   10      H      -3.7204452790     1.8964266251     2.0389278673
   11      H      -2.8614452790     3.2724266251     2.7129278673
   12      H      -2.9716952790     1.7497106251     3.6450008673
 ----------------------------------------------------------------
 Nuclear Repulsion Energy =         224.67159761 hartrees
 There are       22 alpha and       22 beta electrons
 Requested basis set is def2-TZVPD
 There are 108 shells and 276 basis functions

 Total QAlloc Memory Limit  96000 MB
 Mega-Array Size      1956 MB
 MEM_STATIC part      2000 MB
 Discretize the solute cavity surface with Lebedev spheres
	Using 302 Lebedev grid points for each H atom
	Using 302 Lebedev grid points for other atoms
	Atomic van der Waals radii will be scaled by 1.20
 Remove points where switching function is < 1.0e-08
 Keep 1513 surface tesserae and discard 2111 interior tesserae
 Molecular Surface Area = 157.161 Angst**2

                       Distance Matrix (Angstroms)
             C (  1)   C (  2)   C (  3)   C (  4)   N (  5)   N (  6)
   C (  2)  3.635765
   C (  3)  1.500706  2.199870
   C (  4)  2.595411  2.192406  1.360254
   N (  5)  2.529954  1.328909  1.373130  2.190032
   N (  6)  3.686439  1.326983  2.209532  1.381526  2.162924
   H (  7)  4.614077  1.075655  3.235541  3.233670  2.135827  2.141780
   H (  8)  4.636958  2.081458  3.190519  2.147269  3.135641  1.013748
   H (  9)  2.973762  3.238723  2.178204  1.082402  3.239551  2.207145
   H ( 10)  1.085366  4.002607  2.126877  3.313663  2.796679  4.257854
   H ( 11)  1.091446  4.295755  2.107481  2.719525  3.382671  4.024717
   H ( 12)  1.100000  4.107479  2.184881  3.273361  2.955468  4.273442
             H (  7)   H (  8)   H (  9)   H ( 10)   H ( 11)
   H (  8)  2.538055
   H (  9)  4.246156  2.636880
   H ( 10)  4.893704  5.239735  3.773577
   H ( 11)  5.340894  4.866092  2.681838  1.756569
   H ( 12)  5.000185  5.208731  3.646165  1.778095  1.788737
 
 A cutoff of  1.0D-14 yielded   5736 shell pairs
 There are     38170 function pairs (     48949 Cartesian)
 Smallest overlap matrix eigenvalue = 1.80E-06

 Scale SEOQF with 1.000000e-01/1.000000e-01/1.000000e-01

 Standard Electronic Orientation quadrupole field applied
 Nucleus-field energy     =    -0.0000000009 hartrees
 Guess from superposition of atomic densities
 Warning:  Energy on first SCF cycle will be non-variational
 SAD guess density has 43.559167 electrons

 -----------------------------------------------------------------------
  General SCF calculation program by
  Eric Jon Sundstrom, Paul Horn, Yuezhi Mao, Dmitri Zuev, Alec White,
  David Stuck, Shaama M.S., Shane Yost, Joonho Lee, David Small,
  Daniel Levine, Susi Lehtola, Hugh Burton, Evgeny Epifanovsky
 -----------------------------------------------------------------------
 Exchange:     0.1670 Hartree-Fock + 1.0000 wB97X-V + LR-HF
 Correlation:  1.0000 wB97X-V
 Using Euler-Maclaurin-Lebedev (99,590) quadrature formula
 Nonlocal Correlation:  VV10 with C = 0.0100 and b = 6.00 and scale = 1.00000
 Grid used for NLC:  SG-1 standard quadrature
Energy prior to optimization (guess energy) = -265.143498311735
Begin Timing: Total SCF Calculation
begin iterations for algorithm: DIIS         
the SCF tolerance is set to 1.00e-08
    1    -265.1434983117      7.22e-03     00000 
    2    -265.0973477082      7.41e-03     00000 
    3    -265.5588762513      7.35e-04     00000 
    4    -265.5625367680      4.23e-04     00000 
    5    -265.5640080661      8.44e-05     00000 
    6    -265.5640926099      3.04e-05     00000 
    7    -265.5641055586      9.27e-06     00000 
    8    -265.5641069266      3.08e-06     00000 
    9    -265.5641071023      1.26e-06     00000 
   10    -265.5641071411      3.50e-07     00000 
   11    -265.5641071454      8.25e-08     00000 
   12    -265.5641071456      4.98e-08     00000 
   13    -265.5641071456      1.01e-08     00000 
   14    -265.5641071456      3.73e-09     00000 Convergence criterion met
Timing for Total SCF: 980.00s (wall), 1947.91s (cpu)

************** Final PCM Free Energy Summary **************
 G_electrostatic  =      -0.01074766 hartree =      -6.74425534 kcal/mol
 G_cavitation     =       0.00000000 hartree =       0.00000000 kcal/mol
 G_dispersion     =       0.00000000 hartree =       0.00000000 kcal/mol
 G_repulsion      =       0.00000000 hartree =       0.00000000 kcal/mol
 --------------------------------------------------
 Non-electrostatic Free Energy =       0.00000000 hartree =       0.00000000 kcal/mol
 Total                         =      -0.01074766 hartree =      -6.74425534 kcal/mol
 --------------------------------------------------
 SCF Energy (H0 + V/2)                       =    -265.56410715 
 Solute Internal Energy (H0)                 =    -265.55335949 
 Total Free Energy (H0 + V/2 + non-elec)     =    -265.56410715 hartree
                                             = -166643.99239154 kcal/mol
***********************************************************

E_pcm = -0.0107476551
Multipole orders to be included
        2
        3
computing dipole RHS
computing quadrupole RHS
total number of RHS in solve_reponses: 8
RHS batch sizes
        8
Beginning Block Conjugate Gradient Iterations. Batch Number: 0
computing hessian-vector products by finite difference
              1      5.90e-01     00000 Conjugate Gradient Iteration
computing hessian-vector products by finite difference
              2      1.96e-01     00000 Conjugate Gradient Iteration
computing hessian-vector products by finite difference
              3      4.68e-02     00000 Conjugate Gradient Iteration
computing hessian-vector products by finite difference
              4      1.32e-02     00000 Conjugate Gradient Iteration
computing hessian-vector products by finite difference
              5      2.77e-03     00000 Conjugate Gradient Iteration
computing hessian-vector products by finite difference
              6      6.03e-04     00000 Conjugate Gradient Iteration
computing hessian-vector products by finite difference
              7      1.10e-04     00000 Conjugate Gradient Iteration
computing hessian-vector products by finite difference
              8      1.70e-05     00000 Conjugate Gradient Iteration
computing hessian-vector products by finite difference
              9      2.89e-06     00000 Conjugate Gradient Iteration
computing hessian-vector products by finite difference
             10      4.05e-07     00000 Conjugate Gradient Iteration
computing hessian-vector products by finite difference
             11      8.17e-08     00000 Conjugate Gradient Iteration
computing hessian-vector products by finite difference
             12      1.70e-08     00000 Conjugate Gradient Iteration
computing hessian-vector products by finite difference
             13      2.74e-09     00000 CG Converged
batch 0 complete
Done Calculating Responses
TESTING ORTHOGONALIZATION OF MULTIPOLE BASIS
Multipole virts passed orthogonality test
Virts Per Order
           66
          110
 
 --------------------------------------------------------------
 
                    Orbital Energies (a.u.)
 --------------------------------------------------------------
 
 Alpha MOs
 -- Occupied --
-14.4680 -14.3868 -10.3221 -10.2907 -10.2874 -10.2653  -1.1575  -0.9995
 -0.9001  -0.8296  -0.7314  -0.6882  -0.6721  -0.5669  -0.5607  -0.5433
 -0.5154  -0.5050  -0.4830  -0.3801  -0.3738  -0.3258
 -- Virtual --
  0.0640   0.0819   0.0931   0.1018   0.1139   0.1243   0.1311   0.1433
  0.1656   0.1680   0.1756   0.1814   0.1949   0.2000   0.2229   0.2370
  0.2417   0.2454   0.2568   0.2622   0.2664   0.2860   0.2959   0.3037
  0.3087   0.3100   0.3178   0.3210   0.3242   0.3340   0.3446   0.3550
  0.3578   0.3638   0.3730   0.3798   0.3919   0.3967   0.4047   0.4099
  0.4163   0.4246   0.4259   0.4459   0.4553   0.4635   0.4718   0.4795
  0.4859   0.4939   0.4949   0.5169   0.5292   0.5424   0.5452   0.5622
  0.5654   0.5686   0.5874   0.5964   0.6041   0.6098   0.6222   0.6301
  0.6426   0.6517   0.6715   0.6814   0.6904   0.6981   0.7039   0.7113
  0.7279   0.7378   0.7570   0.7719   0.7771   0.7797   0.7914   0.8002
  0.8082   0.8104   0.8237   0.8271   0.8593   0.8628   0.8735   0.8941
  0.9131   0.9390   0.9669   0.9843   0.9980   1.0048   1.0164   1.0241
  1.0674   1.0790   1.1055   1.1242   1.1271   1.1505   1.1793   1.2080
  1.2272   1.2358   1.2735   1.3262   1.3413   1.3521   1.3747   1.4170
  1.4390   1.4607   1.5381   1.5502   1.6051   1.6443   1.6472   1.6744
  1.6965   1.7329   1.7946   1.8218   1.8292   1.8519   1.8586   1.8886
  1.9072   1.9435   1.9479   1.9538   1.9639   1.9732   1.9979   2.0099
  2.0232   2.0652   2.0808   2.1281   2.1777   2.2326   2.2692   2.2730
  2.2977   2.3471   2.3736   2.3959   2.4246   2.4465   2.4623   2.4948
  2.5553   2.5875   2.6049   2.6161   2.6340   2.6509   2.6812   2.7170
  2.7416   2.7676   2.7849   2.8309   2.8665   2.8806   2.8987   2.9895
  3.0110   3.0382   3.0508   3.0660   3.0908   3.1166   3.1333   3.1510
  3.1774   3.1987   3.2122   3.2195   3.2699   3.2929   3.3000   3.3298
  3.3471   3.3676   3.3826   3.3948   3.4109   3.4451   3.4693   3.5010
  3.5166   3.5298   3.5757   3.5987   3.6219   3.6545   3.7178   3.7285
  3.7369   3.7912   3.8142   3.8455   3.8700   3.9417   3.9513   4.0367
  4.0851   4.0954   4.1327   4.2319   4.2943   4.4001   4.4378   4.4906
  4.5196   4.5755   4.6040   4.7096   4.7724   4.7805   4.8578   4.8707
  4.9558   4.9566   5.0043   5.0455   5.0476   5.0583   5.1542   5.2019
  5.2319   5.2994   5.3705   5.4398   5.4923   5.5320   5.5820   5.6021
  5.6635   5.7045   5.7405   5.7897   5.8741   6.0300   6.2301   6.2871
 22.6246  22.8677  23.1322  23.3865  32.6450  32.7795
 --------------------------------------------------------------
 
          Ground-State Mulliken Net Atomic Charges

     Atom                 Charge (a.u.)
  ----------------------------------------
      1 C                    -0.728655
      2 C                    -0.254195
      3 C                     0.567182
      4 C                    -0.529342
      5 N                    -0.485583
      6 N                     0.091734
      7 H                     0.293096
      8 H                     0.176428
      9 H                     0.255290
     10 H                     0.207341
     11 H                     0.211684
     12 H                     0.195022
  ----------------------------------------
  Sum of atomic charges =     0.000000

 -----------------------------------------------------------------
                    Cartesian Multipole Moments
 -----------------------------------------------------------------
    Charge (ESU x 10^10)
                 0.0000
    Dipole Moment (Debye)
         X       3.6564      Y       2.4595      Z      -0.7115
       Tot       4.4637
    Quadrupole Moments (Debye-Ang)
        XX     -35.7881     XY       0.3172     YY     -28.5855
        XZ       2.0345     YZ       4.6756     ZZ     -38.3774
    Octopole Moments (Debye-Ang^2)
       XXX     121.4342    XXY     -44.2535    XYY      40.2206
       YYY    -142.3884    XXZ     -58.1676    XYZ      -5.8458
       YYZ     -45.9166    XZZ      37.2554    YZZ     -48.2632
       ZZZ    -184.7514
    Hexadecapole Moments (Debye-Ang^3)
      XXXX    -584.4870   XXXY     199.9766   XXYY    -201.2229
      XYYY     206.4558   YYYY    -631.6499   XXXZ     265.5091
      XXYZ     -84.2818   XYYZ      77.6498   YYYZ    -259.5551
      XXZZ    -211.9797   XYZZ      51.8783   YYZZ    -220.2520
      XZZZ     254.3350   YZZZ    -302.7353   ZZZZ    -736.1268
 -----------------------------------------------------------------
Archival summary:
1\1\nid00567\SP\ProcedureUnspecified\BasisUnspecified\246\meili\SunSep2612:44:192021SunSep2612:44:192021\0\\#,ProcedureUnspecified,BasisUnspecified,\\0,1\N\C,1,1.32891\H,2,1.07566,1,124.974\N,2,1.32698,1,109.054,3,-175.256,0\H,4,1.01375,2,125.019,1,174.974,0\C,1,1.37313,2,108.996,3,175.723,0\C,6,1.36025,1,106.492,2,-0.586178,0\H,7,1.0824,6,125.804,1,-178.211,0\C,6,1.50071,1,123.306,2,-178.814,0\H,9,1.08537,6,109.613,1,-53.3683,0\H,9,1.09145,6,107.739,1,-170.173,0\H,9,1.1,6,113.407,1,68.572,0\\\@

 Total job time:  17165.52s(wall), 34071.72s(cpu) 
 Sun Sep 26 12:44:23 2021

        *************************************************************
        *                                                           *
        *  Thank you very much for using Q-Chem.  Have a nice day.  *
        *                                                           *
        *************************************************************


Done Job For Fragment 1
calling putenv with: QCSCRATCH=/global/cscratch1/sd/meili 
calling putenv with: QCLOCALSCR=/tmp 
calling putenv with: QCTHREADS=32 
Doing General SCFMI
 Exchange:     0.1670 Hartree-Fock + 1.0000 wB97X-V + LR-HF
 Correlation:  1.0000 wB97X-V
 Using Euler-Maclaurin-Lebedev (99,590) quadrature formula
 Nonlocal Correlation:  VV10 with C = 0.0100 and b = 6.00 and scale = 1.00000
 Grid used for NLC:  SG-1 standard quadrature
performing fock build before subrot guess so that all methods have access
Printing subrot_rss_gen Method Specification:
Occupied Subspace Method is 0
Virtual Subspace Method is 0
Energy of the unrelaxed supersystem initial determinant -531.108766436561
performing fock build before subrot guess so that all methods have access
Printing subrot_rss_gen Method Specification:
Occupied Subspace Method is 0
Virtual Subspace Method is 0
Energy of the unrelaxed supersystem initial determinant w/ solvent -531.130824737197
write pseudocanon occs and virts to disk
write pseudocanon orbital energies to disk
Tolerance of ortho_decomp_scf: 1.00e-06
GDM subspace size: 20
Beginning the Orthogonal Decomposition of the Initial Supersystem Wavefunction
    1    -531.0874608767      2.90e-02     ortho_decomp Preconditoned Steepest Descent
    2    -531.0899621788      7.34e-04     ortho_decomp BFGS Step
    3    -531.0899707108      6.22e-05     ortho_decomp BFGS Step
    4    -531.0899707324      2.92e-06     ortho_decomp BFGS Step
    5    -531.0899707324      1.30e-07     ortho_decomp 00000 Convergence criterion met
 Hartree-Fock
 Hartree-Fock
 Hartree-Fock
Doing General SCFMI
 Exchange:     0.1670 Hartree-Fock + 1.0000 wB97X-V + LR-HF
 Correlation:  1.0000 wB97X-V
 Using Euler-Maclaurin-Lebedev (99,590) quadrature formula
 Nonlocal Correlation:  VV10 with C = 0.0100 and b = 6.00 and scale = 1.00000
 Grid used for NLC:  SG-1 standard quadrature
performing fock build at end of subrot_r(subrot) constructor so that all methods have access
<S^2> of initial wavefunction before polarization iterations 0.0000000000
Beginning iterations for the determination of the polarized wavefunction
Energy prior to optimization (guess energy) = -531.130824737198
Begin Timing: Total SCF Calculation
begin iterations for algorithm: DIIS         
the SCF tolerance is set to 1.00e-08
    1    -531.1308247372      8.15e-05     00000 
    2    -531.1313762339      2.98e-05     00000 
    3    -531.1314232560      1.44e-05     00000 
    4    -531.1314346143      5.56e-06     00000 
    5    -531.1314362124      1.99e-06     00000 
    6    -531.1314365213      1.25e-06     00000 
    7    -531.1314365925      6.28e-07     00000 
    8    -531.1314366096      2.92e-07     00000 
    9    -531.1314366122      1.36e-07     00000 
   10    -531.1314366129      6.26e-08     00000 
   11    -531.1314366131      3.33e-08     00000 
   12    -531.1314366131      1.48e-08     00000 
   13    -531.1314366131      5.85e-09     00000 Convergence criterion met
write pseudocanon occs and virts to disk
write pseudocanon orbital energies to disk
Timing for Total SCF: 6494.00s (wall), 12909.49s (cpu)
<S^2> of polarized wavefunction after polarization iterations 0.0000000000
relaxing scfmi constraint to allow all rotations in the entire AO span
Doing General SCFMI
 Exchange:     0.1670 Hartree-Fock + 1.0000 wB97X-V + LR-HF
 Correlation:  1.0000 wB97X-V
 Using Euler-Maclaurin-Lebedev (99,590) quadrature formula
 Nonlocal Correlation:  VV10 with C = 0.0100 and b = 6.00 and scale = 1.00000
 Grid used for NLC:  SG-1 standard quadrature
performing fock build at end of subrot_r(subrot) constructor so that all methods have access
<S^2> of polarized wavefunction before ct-allowed iterations 0.0000000000
Beginning iterations for the determination of the CT-Allowed wavefunction
Energy prior to optimization (guess energy) = -531.131436613117
Begin Timing: Total SCF Calculation
begin iterations for algorithm: DIIS         
the SCF tolerance is set to 1.00e-08
    1    -531.1314366131      8.62e-05     00000 
    2    -531.1327410394      1.07e-05     00000 
    3    -531.1327870800      2.54e-06     00000 
    4    -531.1327885317      2.12e-06     00000 
    5    -531.1327891657      3.32e-07     00000 
    6    -531.1327891891      1.67e-07     00000 
    7    -531.1327891949      3.57e-08     00000 
    8    -531.1327891952      1.61e-08     00000 
    9    -531.1327891953      3.97e-09     00000 Convergence criterion met
write pseudocanon occs and virts to disk
write pseudocanon orbital energies to disk
Timing for Total SCF: 4447.00s (wall), 8837.37s (cpu)
<S^2> of ct_allowed wavefunction after ct-allowed iterations 0.0000000000

================================
        Results of EDA2         
================================
Basic EDA Quantities
--------------------
Fragment Energies (Ha):
1 -265.5647160329
2 -265.5641071456
--------------------
  E_prp (kJ/mol) = 0.0000
  E_sol (kJ/mol) = -1.7109
  E_frz (kJ/mol) = -3.5442
  E_pol (kJ/mol) = -1.6065
  E_vct (kJ/mol) = -3.5512
  E_int (kJ/mol) = -10.4129
--------------------


Initial Wavefunction Decomposition
--------------------
  --------------------
  Orthogonal Fragment Subspace Decomposition:
  --------------------
     E_elec   (ELEC)   (kJ/mol) = -23.7492
     E_pauli  (PAULI)  (kJ/mol) = 35.9261
     E_disp   (DISP)   (kJ/mol) = -15.7211
     --------------------
     Terms summing to E_pauli:
     --------------------
        E_kep_pauli       (kJ/mol) = 45.8045
        E_disp_free_pauli (kJ/mol) = -9.8784
  --------------------
  Classical Frozen Decomposition:
  --------------------
     E_cls_elec  (CLS ELEC)  (kJ/mol) = -9.6820
     E_cls_pauli (CLS PAULI) (kJ/mol) = 6.1377
    [E_mod_pauli (MOD PAULI) (kJ/mol) = 21.8589 (CLS PAULI - DISP from orthogonal decomposition) ]
  --------------------
--------------------

Simplified EDA Summary (kJ/mol)
--------------------
 PREPARATION     0.0000
 SOLVATION       -1.7109
 FROZEN          12.1769      (does not include dispersion)
[PAULI           35.9261]     (if this is negligible, then frozen describes electrostatics)
 DISPERSION      -15.7211
 POLARIZATION    -1.6065
 CHARGE TRANSFER -3.5512
 TOTAL           -10.4129     (PRP + SOL + FRZ + DISP + POL + CT)
--------------------
 
 --------------------------------------------------------------
 
                    Orbital Energies (a.u.)
 --------------------------------------------------------------
 
 Alpha MOs
 -- Occupied --
-14.4711 -14.4657 -14.3912 -14.3843 -10.3271 -10.3168 -10.2933 -10.2899
-10.2888 -10.2858 -10.2662 -10.2646  -1.1615  -1.1551  -1.0021  -0.9973
 -0.9044  -0.8981  -0.8322  -0.8281  -0.7328  -0.7291  -0.6920  -0.6858
 -0.6735  -0.6702  -0.5774  -0.5649  -0.5632  -0.5536  -0.5485  -0.5392
 -0.5184  -0.5142  -0.5034  -0.5021  -0.4862  -0.4815  -0.3834  -0.3794
 -0.3779  -0.3709  -0.3323  -0.3214
 -- Virtual --
  0.0577   0.0725   0.0748   0.0873   0.0883   0.0961   0.1000   0.1080
  0.1123   0.1209   0.1269   0.1273   0.1313   0.1363   0.1445   0.1549
  0.1635   0.1665   0.1691   0.1705   0.1730   0.1798   0.1900   0.1931
  0.2026   0.2086   0.2172   0.2241   0.2337   0.2342   0.2354   0.2399
  0.2463   0.2537   0.2570   0.2620   0.2667   0.2723   0.2839   0.2866
  0.2904   0.2948   0.2985   0.2995   0.3022   0.3044   0.3068   0.3106
  0.3178   0.3189   0.3231   0.3257   0.3327   0.3346   0.3435   0.3465
  0.3499   0.3539   0.3543   0.3576   0.3625   0.3663   0.3694   0.3756
  0.3790   0.3816   0.3863   0.3874   0.3898   0.3970   0.4012   0.4056
  0.4087   0.4154   0.4168   0.4220   0.4256   0.4288   0.4317   0.4405
  0.4426   0.4497   0.4526   0.4567   0.4615   0.4676   0.4736   0.4781
  0.4814   0.4860   0.4924   0.4945   0.4974   0.5001   0.5088   0.5106
  0.5189   0.5243   0.5274   0.5321   0.5383   0.5419   0.5506   0.5530
  0.5562   0.5613   0.5659   0.5723   0.5787   0.5794   0.5881   0.5894
  0.5988   0.6057   0.6115   0.6161   0.6200   0.6233   0.6260   0.6331
  0.6422   0.6452   0.6517   0.6554   0.6628   0.6693   0.6741   0.6797
  0.6824   0.6868   0.6959   0.7025   0.7053   0.7066   0.7120   0.7177
  0.7310   0.7328   0.7346   0.7381   0.7489   0.7544   0.7566   0.7620
  0.7746   0.7791   0.7848   0.7869   0.7911   0.7951   0.7954   0.8050
  0.8107   0.8131   0.8202   0.8263   0.8276   0.8311   0.8370   0.8403
  0.8453   0.8504   0.8571   0.8642   0.8735   0.8800   0.8886   0.8894
  0.8987   0.9108   0.9128   0.9242   0.9337   0.9497   0.9556   0.9655
  0.9767   0.9805   0.9884   0.9982   1.0091   1.0194   1.0229   1.0332
  1.0429   1.0590   1.0732   1.0792   1.0848   1.0997   1.1088   1.1164
  1.1207   1.1268   1.1383   1.1431   1.1505   1.1605   1.1675   1.1780
  1.1839   1.1983   1.2059   1.2227   1.2273   1.2298   1.2409   1.2509
  1.2615   1.2754   1.2882   1.3023   1.3105   1.3256   1.3576   1.3636
  1.3715   1.3842   1.3921   1.3954   1.4097   1.4244   1.4472   1.4650
  1.4777   1.4788   1.5081   1.5140   1.5602   1.5679   1.5817   1.6129
  1.6212   1.6300   1.6551   1.6771   1.6830   1.6883   1.7139   1.7161
  1.7280   1.7383   1.7600   1.7741   1.8154   1.8408   1.8482   1.8556
  1.8579   1.8635   1.8866   1.8909   1.9032   1.9074   1.9276   1.9308
  1.9451   1.9526   1.9571   1.9624   1.9693   1.9796   1.9870   1.9903
  1.9928   2.0003   2.0299   2.0391   2.0419   2.0503   2.0544   2.0821
  2.0939   2.1013   2.1108   2.1266   2.1324   2.1440   2.1579   2.1798
  2.2057   2.2433   2.2577   2.2741   2.2804   2.2908   2.3079   2.3239
  2.3416   2.3596   2.3655   2.3918   2.4005   2.4099   2.4263   2.4446
  2.4566   2.4582   2.4752   2.4957   2.5006   2.5159   2.5411   2.5705
  2.5811   2.5909   2.6007   2.6191   2.6209   2.6344   2.6419   2.6594
  2.6677   2.6782   2.6853   2.7034   2.7214   2.7329   2.7391   2.7698
  2.7740   2.7797   2.7869   2.7984   2.8220   2.8326   2.8472   2.8742
  2.8839   2.8865   2.9022   2.9141   2.9356   2.9624   2.9854   3.0208
  3.0216   3.0487   3.0624   3.0673   3.0810   3.0921   3.0978   3.1076
  3.1232   3.1283   3.1376   3.1547   3.1642   3.1661   3.1799   3.1853
  3.1952   3.2017   3.2157   3.2323   3.2359   3.2545   3.2680   3.2760
  3.2922   3.2978   3.3027   3.3200   3.3291   3.3400   3.3501   3.3557
  3.3821   3.3860   3.3924   3.3950   3.4091   3.4137   3.4195   3.4292
  3.4346   3.4409   3.4658   3.4856   3.4951   3.5111   3.5126   3.5251
  3.5314   3.5437   3.5653   3.5762   3.5902   3.6135   3.6203   3.6342
  3.6459   3.6552   3.6694   3.7005   3.7154   3.7371   3.7426   3.7553
  3.7586   3.7803   3.8043   3.8149   3.8386   3.8499   3.8526   3.8750
  3.8852   3.8933   3.9535   3.9602   3.9665   3.9787   4.0542   4.0710
  4.0995   4.1017   4.1121   4.1207   4.1366   4.1530   4.2433   4.2629
  4.3058   4.3139   4.4058   4.4076   4.4368   4.4592   4.5027   4.5104
  4.5148   4.5277   4.5775   4.5851   4.6242   4.6362   4.7246   4.7324
  4.7776   4.7830   4.7918   4.8072   4.8638   4.8713   4.8779   4.8935
  4.9445   4.9620   4.9724   4.9854   5.0194   5.0300   5.0478   5.0607
  5.0689   5.0767   5.0822   5.0843   5.1633   5.1773   5.2078   5.2371
  5.2514   5.2640   5.3193   5.3440   5.3905   5.3945   5.4578   5.4797
  5.5116   5.5166   5.5347   5.5500   5.5857   5.6032   5.6073   5.6264
  5.6696   5.7064   5.7109   5.7348   5.7767   5.7867   5.8163   5.8232
  5.8928   5.9228   6.0664   6.0767   6.2365   6.2574   6.2837   6.3098
 22.6304  22.6413  22.8957  22.9169  23.1432  23.2108  23.3984  23.4233
 32.6696  32.7199  32.8294  32.8436
 --------------------------------------------------------------
 
          Ground-State Mulliken Net Atomic Charges

     Atom                 Charge (a.u.)
  ----------------------------------------
      1 C                    -0.864456
      2 C                     0.838042
      3 C                    -0.691752
      4 C                    -0.237970
      5 N                    -0.515272
      6 N                     0.145625
      7 H                     0.245187
      8 H                     0.207185
      9 H                     0.266080
     10 H                     0.258482
     11 H                     0.168202
     12 H                     0.220519
     13 C                    -0.791351
     14 C                    -0.442917
     15 C                     0.554204
     16 C                    -0.584648
     17 N                    -0.469266
     18 N                     0.140125
     19 H                     0.462415
     20 H                     0.206711
     21 H                     0.255775
     22 H                     0.214378
     23 H                     0.215999
     24 H                     0.198704
  ----------------------------------------
  Sum of atomic charges =     0.000000

 -----------------------------------------------------------------
                    Cartesian Multipole Moments
 -----------------------------------------------------------------
    Charge (ESU x 10^10)
                -0.0000
    Dipole Moment (Debye)
         X       4.8840      Y       5.5473      Z      -3.8152
       Tot       8.3175
    Quadrupole Moments (Debye-Ang)
        XX     -62.6087     XY       7.6209     YY     -72.7753
        XZ      -2.1242     YZ       2.8411     ZZ     -66.3996
    Octopole Moments (Debye-Ang^2)
       XXX      55.9272    XXY      19.2889    XYY     -11.0325
       YYY      45.9467    XXZ     -16.4413    XYZ     -14.6883
       YYZ      11.8145    XZZ      12.9821    YZZ      12.4562
       ZZZ     -32.5186
    Hexadecapole Moments (Debye-Ang^3)
      XXXX   -1001.1858   XXXY     284.7293   XXYY    -437.7063
      XYYY     339.7623   YYYY   -1422.4647   XXXZ     360.6312
      XXYZ    -185.8678   XYYZ     135.1462   YYYZ    -506.2520
      XXZZ    -384.2276   XYZZ     102.2779   YYZZ    -459.8398
      XZZZ     374.6482   YZZZ    -572.8274   ZZZZ   -1379.5853
 -----------------------------------------------------------------
Archival summary:
1\1\nid00567\SP\ProcedureUnspecified\BasisUnspecified\4812\meili\SunSep2617:56:282021SunSep2617:56:282021\0\\#,ProcedureUnspecified,BasisUnspecified,\\0,1\N\H,1,1.01375\C,1,1.32698,2,125.019\H,3,1.07566,1,125.785,2,-0.233971,0\N,3,1.32891,1,109.054,2,174.974,0\C,5,1.37313,3,108.996,1,0.46612,0\C,6,1.36025,5,106.492,3,-0.586178,0\H,7,1.0824,6,125.804,5,-178.211,0\C,6,1.50071,5,123.306,3,-178.814,0\H,9,1.08537,6,109.613,5,-53.3683,0\H,9,1.09145,6,107.739,5,-170.173,0\H,9,1.1,6,113.407,5,68.572,0\N,4,2.40759,3,163.465,1,-59.3492,0\C,13,1.32667,4,89.2552,3,53.3113,0\H,14,1.08524,13,125.656,4,96.6946,0\N,14,1.32678,13,108.913,4,-84.1172,0\H,16,1.01467,14,124.647,13,-178.016,0\C,16,1.37974,14,108.867,13,-0.820277,0\H,18,1.07788,16,126.626,14,-178.364,0\C,18,1.35745,16,106.688,14,1.82884,0\C,20,1.49597,18,130.156,16,-175.122,0\H,21,1.09049,20,107.861,18,-141.362,0\H,21,1.09052,20,110.336,18,-23.4612,0\H,21,1.1,20,110.753,18,99.4341,0\\\@

 Total job time:  53523.52s(wall), 37274.40s(cpu) 
 Sun Sep 26 17:56:33 2021

        *************************************************************
        *                                                           *
        *  Thank you very much for using Q-Chem.  Have a nice day.  *
        *                                                           *
        *************************************************************


