
Running Job 1 of 1 SSI-005PHE-037PHE-1_SMD_TZVPD.in
qchem SSI-005PHE-037PHE-1_SMD_TZVPD.in_34605.0 /tmp/qchem34605/ 0
/global/common/cori/software/qchem/5.2/exe/qcprog.exe_s SSI-005PHE-037PHE-1_SMD_TZVPD.in_34605.0 /tmp/qchem34605/
                  Welcome to Q-Chem
     A Quantum Leap Into The Future Of Chemistry


 Q-Chem 5.2, Q-Chem, Inc., Pleasanton, CA (2019)

 License issued to: National Energy Research Scientific Computing Center

 Yihan Shao,  Zhengting Gan,  E. Epifanovsky,  A. T. B. Gilbert,  M. Wormit,  
 J. Kussmann,  A. W. Lange,  A. Behn,  Jia Deng,  Xintian Feng,  D. Ghosh,  
 M. Goldey,  P. R. Horn,  L. D. Jacobson,  I. Kaliman,  T. Kus,  A. Landau,  
 Jie Liu,  E. I. Proynov,  R. M. Richard,  R. P. Steele,  E. J. Sundstrom,  
 H. L. Woodcock III,  P. M. Zimmerman,  D. Zuev,  B. Albrecht,  E. Alguire,  
 S. A. Baeppler,  D. Barton,  Z. Benda,  Y. A. Bernard,  E. J. Berquist,  
 K. B. Bravaya,  H. Burton,  D. Casanova,  Chun-Min Chang,  Yunqing Chen,  
 A. Chien,  K. D. Closser,  M. P. Coons,  S. Coriani,  S. Dasgupta,  
 A. L. Dempwolff,  M. Diedenhofen,  Hainam Do,  R. G. Edgar,  Po-Tung Fang,  
 S. Faraji,  S. Fatehi,  Qingguo Feng,  K. D. Fenk,  J. Fosso-Tande,  
 J. Gayvert,  Qinghui Ge,  A. Ghysels,  G. Gidofalvi,  J. Gomes,  
 J. Gonthier,  A. Gunina,  D. Hait,  M. W. D. Hanson-Heine,  
 P. H. P. Harbach,  A. W. Hauser,  M. F. Herbst,  J. E. Herr,  
 E. G. Hohenstein,  Z. C. Holden,  Kerwin Hui,  B. C. Huynh,  T.-C. Jagau,  
 Hyunjun Ji,  B. Kaduk,  K. Khistyaev,  Jaehoon Kim,  P. Klunzinger,  K. Koh,  
 D. Kosenkov,  L. Koulias,  T. Kowalczyk,  C. M. Krauter,  A. Kunitsa,  
 Ka Un Lao,  A. Laurent,  K. V. Lawler,  Joonho Lee,  D. Lefrancois,  
 S. Lehtola,  D. S. Levine,  Yi-Pei Li,  You-Sheng Lin,  Fenglai Liu,  
 E. Livshits,  A. Luenser,  P. Manohar,  E. Mansoor,  S. F. Manzer,  
 Shan-Ping Mao,  Yuezhi Mao,  N. Mardirossian,  A. V. Marenich,  
 T. Markovich,  L. A. Martinez-Martinez,  S. A. Maurer,  N. J. Mayhall,  
 S. C. McKenzie,  J.-M. Mewes,  P. Morgante,  A. F. Morrison,  
 J. W. Mullinax,  K. Nanda,  T. S. Nguyen-Beck,  R. Olivares-Amaya,  
 J. A. Parkhill,  Zheng Pei,  T. M. Perrine,  F. Plasser,  P. Pokhilko,  
 S. Prager,  A. Prociuk,  E. Ramos,  D. R. Rehn,  F. Rob,  M. Scheurer,  
 M. Schneider,  N. Sergueev,  S. M. Sharada,  S. Sharma,  D. W. Small,  
 T. Stauch,  T. Stein,  Yu-Chuan Su,  A. J. W. Thom,  A. Tkatchenko,  
 T. Tsuchimochi,  N. M. Tubman,  L. Vogt,  M. L. Vidal,  O. Vydrov,  
 M. A. Watson,  J. Wenzel,  M. de Wergifosse,  T. A. Wesolowski,  A. White,  
 J. Witte,  A. Yamada,  Jun Yang,  K. Yao,  S. Yeganeh,  S. R. Yost,  
 Zhi-Qiang You,  A. Zech,  Igor Ying Zhang,  Xing Zhang,  Yan Zhao,  
 Ying Zhu,  B. R. Brooks,  G. K. L. Chan,  C. J. Cramer,  M. S. Gordon,  
 W. J. Hehre,  A. Klamt,  M. W. Schmidt,  C. D. Sherrill,  D. G. Truhlar,  
 A. Aspuru-Guzik,  R. Baer,  A. T. Bell,  N. A. Besley,  Jeng-Da Chai,  
 A. E. DePrince, III,  R. A. DiStasio Jr.,  A. Dreuw,  B. D. Dunietz,  
 T. R. Furlani,  Chao-Ping Hsu,  Yousung Jung,  Jing Kong,  D. S. Lambrecht,  
 WanZhen Liang,  C. Ochsenfeld,  V. A. Rassolov,  L. V. Slipchenko,  
 J. E. Subotnik,  T. Van Voorhis,  J. M. Herbert,  A. I. Krylov,  
 P. M. W. Gill,  M. Head-Gordon

 Contributors to earlier versions of Q-Chem not listed above: 
 R. D. Adamson,  B. Austin,  J. Baker,  G. J. O. Beran,  K. Brandhorst,  
 S. T. Brown,  E. F. C. Byrd,  A. K. Chakraborty,  C.-L. Cheng,  
 Siu Hung Chien,  D. M. Chipman,  D. L. Crittenden,  H. Dachsel,  
 R. J. Doerksen,  A. D. Dutoi,  L. Fusti-Molnar,  W. A. Goddard III,  
 A. Golubeva-Zadorozhnaya,  S. R. Gwaltney,  G. Hawkins,  A. Heyden,  
 S. Hirata,  G. Kedziora,  F. J. Keil,  C. Kelley,  Jihan Kim,  R. A. King,  
 R. Z. Khaliullin,  P. P. Korambath,  W. Kurlancheek,  A. M. Lee,  M. S. Lee,  
 S. V. Levchenko,  Ching Yeh Lin,  D. Liotard,  R. C. Lochan,  I. Lotan,  
 P. E. Maslen,  N. Nair,  D. P. O'Neill,  D. Neuhauser,  E. Neuscamman,  
 C. M. Oana,  R. Olson,  B. Peters,  R. Peverati,  P. A. Pieniazek,  
 Y. M. Rhee,  J. Ritchie,  M. A. Rohrdanz,  E. Rosta,  N. J. Russ,  
 H. F. Schaefer III,  N. E. Schultz,  N. Shenvi,  A. C. Simmonett,  A. Sodt,  
 D. Stuck,  K. S. Thanthiriwatte,  V. Vanovschi,  Tao Wang,  A. Warshel,  
 C. F. Williams,  Q. Wu,  X. Xu,  W. Zhang

 Please cite Q-Chem as follows:
 Y. Shao et al., Mol. Phys. 113, 184-215 (2015)
 DOI: 10.1080/00268976.2014.952696

 Q-Chem 5.2.0 for Intel X86 EM64T Linux

 Parts of Q-Chem use Armadillo 8.300.2 (Tropical Shenanigans).
 http://arma.sourceforge.net/

 Q-Chem begins on Sun Sep 26 01:42:02 2021  

Host: cori01
0

     Scratch files written to /tmp/qchem34605//
 May1019 |scratch|qcdevops|jenkins|workspace|build_RNUM -1
Processing $rem in /global/common/cori/software/qchem/5.2/config/preferences:
	 MEM_TOTAL  96000 
NAlpha2: 100
NElect   100
Mult     1
Symmetry turned off for PCM/SM12/SMD calculation

 Q-Chem warning in module libgen/rem_setup.C, line 2803:

 Neither GIA nor STOLL is specified by user. Use STOLL as the default


Checking the input file for inconsistencies... 	...done.

--------------------------------------------------------------
User input:
--------------------------------------------------------------
$comment
SSI-005PHE-037PHE-1.pdb
$end

$molecule
0 1
--
0 1
C   -0.107464217186    1.040484784959    4.991481051377
C   -1.072464217186   -1.190515215041    1.418481051377
C   -2.082464217186   -0.502515215041    2.109481051377
C    0.248535782814   -1.156515215041    1.900481051377
C   -1.783464217186    0.213484784959    3.274481051377
C    0.540535782814   -0.431515215041    3.068481051377
C   -0.461464217186    0.255484784959    3.755481051377
H   -1.310464217186   -1.741515215041    0.523481051377
H   -3.095464217186   -0.513515215041    1.732481051377
H    1.034535782814   -1.681515215041    1.373481051377
H   -2.564464217186    0.752484784959    3.792481051377
H    1.559535782814   -0.402515215041    3.429481051377
H   -0.621464217186    1.984484784959    4.971481051377
H    0.951535782814    1.296484784959    4.929481051377
H   -0.266824217186    0.504974784959    5.939024351377
--
0 1
C   -0.574464217186   -1.592515215041   -4.035518948623
C    0.240535782814   -0.377515215041   -1.973518948623
C    0.156535782814   -0.457515215041   -3.375518948623
C    0.977535782814    0.643484784959   -1.365518948623
C    0.808535782814    0.495484784959   -4.158518948623
C    1.639535782814    1.599484784959   -2.160518948623
C    1.548535782814    1.520484784959   -3.563518948623
H   -0.253464217186   -1.117515215041   -1.364518948623
H    1.043535782814    0.691484784959   -0.286518948623
H   -0.782464217186   -1.352515215041   -5.079518948623
H   -1.530464217186   -1.688515215041   -3.522518948623
H    0.691535782814    0.452484784959   -5.227518948623
H    2.211535782814    2.392484784959   -1.696518948623
H    2.037535782814    2.262484784959   -4.179518948623
H   -0.039374217186   -2.551635215041   -3.974221948623
$end

$rem
JOBTYPE			EDA
EDA2			1
method			wB97X-V
BASIS			def2-TZVPD
XC_GRID			000099000590
NL_GRID			1
UNRESTRICTED		FALSE
MAX_SCF_CYCLES		200
SYMMETRY		FALSE
SYM_IGNORE		TRUE
MEM_STATIC		2000
BASIS_LIN_DEP_THRESH 	6
THRESH 			14
SCF_CONVERGENCE 	8
SCF_PRINT_FRGM 		TRUE
SOLVENT_METHOD          SMD
$end

$SMX
SOLVENT			WATER
$END
--------------------------------------------------------------
 ----------------------------------------------------------------
             Standard Nuclear Orientation (Angstroms)
    I     Atom           X                Y                Z
 ----------------------------------------------------------------
    1      C      -0.1074642172     1.0404847850     4.9914810514
    2      C      -1.0724642172    -1.1905152150     1.4184810514
    3      C      -2.0824642172    -0.5025152150     2.1094810514
    4      C       0.2485357828    -1.1565152150     1.9004810514
    5      C      -1.7834642172     0.2134847850     3.2744810514
    6      C       0.5405357828    -0.4315152150     3.0684810514
    7      C      -0.4614642172     0.2554847850     3.7554810514
    8      H      -1.3104642172    -1.7415152150     0.5234810514
    9      H      -3.0954642172    -0.5135152150     1.7324810514
   10      H       1.0345357828    -1.6815152150     1.3734810514
   11      H      -2.5644642172     0.7524847850     3.7924810514
   12      H       1.5595357828    -0.4025152150     3.4294810514
   13      H      -0.6214642172     1.9844847850     4.9714810514
   14      H       0.9515357828     1.2964847850     4.9294810514
   15      H      -0.2668242172     0.5049747850     5.9390243514
   16      C      -0.5744642172    -1.5925152150    -4.0355189486
   17      C       0.2405357828    -0.3775152150    -1.9735189486
   18      C       0.1565357828    -0.4575152150    -3.3755189486
   19      C       0.9775357828     0.6434847850    -1.3655189486
   20      C       0.8085357828     0.4954847850    -4.1585189486
   21      C       1.6395357828     1.5994847850    -2.1605189486
   22      C       1.5485357828     1.5204847850    -3.5635189486
   23      H      -0.2534642172    -1.1175152150    -1.3645189486
   24      H       1.0435357828     0.6914847850    -0.2865189486
   25      H      -0.7824642172    -1.3525152150    -5.0795189486
   26      H      -1.5304642172    -1.6885152150    -3.5225189486
   27      H       0.6915357828     0.4524847850    -5.2275189486
   28      H       2.2115357828     2.3924847850    -1.6965189486
   29      H       2.0375357828     2.2624847850    -4.1795189486
   30      H      -0.0393742172    -2.5516352150    -3.9742219486
 ----------------------------------------------------------------
 Nuclear Repulsion Energy =         754.10407404 hartrees
 There are       50 alpha and       50 beta electrons
 Requested basis set is def2-TZVPD
 There are 262 shells and 662 basis functions

 Total QAlloc Memory Limit  96000 MB
 Mega-Array Size      1956 MB
 MEM_STATIC part      2000 MB
 
 Citation of the SMD model:
 Marenich, A.V.; Cramer, C.J.; Truhlar, D.G.
 J. Phys. Chem. B 2009, 113, 6378-6396.
 iSolventCode=           1
 Solvent: water                                                           
 
 vradii
            1           2           3           4           5           6
    1   1.8500000   1.8500000   1.8500000   1.8500000   1.8500000   1.8500000
            7           8           9          10          11          12
    1   1.8500000   1.2000000   1.2000000   1.2000000   1.2000000   1.2000000
           13          14          15          16          17          18
    1   1.2000000   1.2000000   1.2000000   1.8500000   1.8500000   1.8500000
           19          20          21          22          23          24
    1   1.8500000   1.8500000   1.8500000   1.8500000   1.2000000   1.2000000
           25          26          27          28          29          30
    1   1.2000000   1.2000000   1.2000000   1.2000000   1.2000000   1.2000000
 Changing PCM_VDW_RADII to SMD_RADIUS
 Discretize the solute cavity surface with Lebedev spheres
	Using 110 Lebedev grid points for each H atom
	Using 194 Lebedev grid points for other atoms
	Atomic van der Waals radii will be scaled by 1.20
 Remove points where switching function is < 1.0e-08
 Keep 2167 surface tesserae and discard 2309 interior tesserae
 Molecular Surface Area = 262.379 Angst**2
 A cutoff of  1.0D-14 yielded  28372 shell pairs
 There are    181074 function pairs (    227897 Cartesian)
 Smallest overlap matrix eigenvalue = 4.68E-07
 Linear dependence detected in AO basis
 Tighter screening thresholds may be required for diffuse basis sets
 Use S2THRESH > 14 and THRESH = 14 in case of SCF convergence issues
 Number of orthogonalized atomic orbitals = 659
 Maximum deviation from orthogonality = 1.495E-10

 Scale SEOQF with 1.000000e-01/1.000000e-01/1.000000e-02

 Standard Electronic Orientation quadrupole field applied
 Nucleus-field energy     =     0.0000000017 hartrees

 -----------------------------------------------------------------------
  General SCF calculation program by
  Eric Jon Sundstrom, Paul Horn, Yuezhi Mao, Dmitri Zuev, Alec White,
  David Stuck, Shaama M.S., Shane Yost, Joonho Lee, David Small,
  Daniel Levine, Susi Lehtola, Hugh Burton, Evgeny Epifanovsky
 -----------------------------------------------------------------------
================================================================
                 ALMO-EDA with the EDA2 driver                  
================================================================
 The second-generation ALMO-EDA (for DFT):                      
 P. R. Horn, Y. Mao and M. Head-Gordon, PCCP, 18, 23067 (2016)  
 Decomposition of the frozen energy:                            
 P. R. Horn, Y. Mao and M. Head-Gordon, JCP, 144, 114107 (2016) 
 FERF model for polarization:                                   
 P. R. Horn and M. Head-Gordon, JCP, 143, 114111 (2015)         
Using eda2 option set 1
Option set summary: Frozen orbital wavefunction, initial wavefunction decomposition, and nDQ polarization.
--------------------------------
Printing EDA Options
--------------------------------
eda_child_super_basis      0
fragmo_guess_mode          0
child_mp                   1
child_mp_orders            232
cls_elec                   1
cls_disp                   0
scfmi_mode                 1
scfmi_occs                 0
scfmi_virts                0
frz_relax                  0
frz_relax_method           0
dc_pen_start               0
dc_pen_conv                0
dc_pen_increment           0
dc_pen_steps               0
dc_pen_thresh_factor       0
dc_pen_pre_newton_thresh   0
frz_ortho_decomp           1
frz_ortho_decomp_conv      6
frgm_method                2
scfmi_freeze_ss            0
separate_rehyb             0
plot_diff_den              0
eda_nocv                   0
eda_vct_relax              1
disp_free_x                0
disp_free_c                0
eda_bsse                   0
eda_pct_a                  0
eda_covp                   0
--------------------------------
Attempting to make child job directory: /tmp/qchem34605//Frg1/
Attempting to make child job directory: /tmp/qchem34605//Frg2/
Creating input file /tmp/qchem34605/Frg1.input
using default PutDataFrgm: nothing
calling putenv with: QCSCRATCH=/tmp/qchem34605/ 
calling putenv with: QCLOCALSCR=/tmp/qchem34605/ 
Spawning Job For Fragment 0
                  Welcome to Q-Chem
     A Quantum Leap Into The Future Of Chemistry


 Q-Chem 5.2, Q-Chem, Inc., Pleasanton, CA (2019)

 License issued to: National Energy Research Scientific Computing Center

 Yihan Shao,  Zhengting Gan,  E. Epifanovsky,  A. T. B. Gilbert,  M. Wormit,  
 J. Kussmann,  A. W. Lange,  A. Behn,  Jia Deng,  Xintian Feng,  D. Ghosh,  
 M. Goldey,  P. R. Horn,  L. D. Jacobson,  I. Kaliman,  T. Kus,  A. Landau,  
 Jie Liu,  E. I. Proynov,  R. M. Richard,  R. P. Steele,  E. J. Sundstrom,  
 H. L. Woodcock III,  P. M. Zimmerman,  D. Zuev,  B. Albrecht,  E. Alguire,  
 S. A. Baeppler,  D. Barton,  Z. Benda,  Y. A. Bernard,  E. J. Berquist,  
 K. B. Bravaya,  H. Burton,  D. Casanova,  Chun-Min Chang,  Yunqing Chen,  
 A. Chien,  K. D. Closser,  M. P. Coons,  S. Coriani,  S. Dasgupta,  
 A. L. Dempwolff,  M. Diedenhofen,  Hainam Do,  R. G. Edgar,  Po-Tung Fang,  
 S. Faraji,  S. Fatehi,  Qingguo Feng,  K. D. Fenk,  J. Fosso-Tande,  
 J. Gayvert,  Qinghui Ge,  A. Ghysels,  G. Gidofalvi,  J. Gomes,  
 J. Gonthier,  A. Gunina,  D. Hait,  M. W. D. Hanson-Heine,  
 P. H. P. Harbach,  A. W. Hauser,  M. F. Herbst,  J. E. Herr,  
 E. G. Hohenstein,  Z. C. Holden,  Kerwin Hui,  B. C. Huynh,  T.-C. Jagau,  
 Hyunjun Ji,  B. Kaduk,  K. Khistyaev,  Jaehoon Kim,  P. Klunzinger,  K. Koh,  
 D. Kosenkov,  L. Koulias,  T. Kowalczyk,  C. M. Krauter,  A. Kunitsa,  
 Ka Un Lao,  A. Laurent,  K. V. Lawler,  Joonho Lee,  D. Lefrancois,  
 S. Lehtola,  D. S. Levine,  Yi-Pei Li,  You-Sheng Lin,  Fenglai Liu,  
 E. Livshits,  A. Luenser,  P. Manohar,  E. Mansoor,  S. F. Manzer,  
 Shan-Ping Mao,  Yuezhi Mao,  N. Mardirossian,  A. V. Marenich,  
 T. Markovich,  L. A. Martinez-Martinez,  S. A. Maurer,  N. J. Mayhall,  
 S. C. McKenzie,  J.-M. Mewes,  P. Morgante,  A. F. Morrison,  
 J. W. Mullinax,  K. Nanda,  T. S. Nguyen-Beck,  R. Olivares-Amaya,  
 J. A. Parkhill,  Zheng Pei,  T. M. Perrine,  F. Plasser,  P. Pokhilko,  
 S. Prager,  A. Prociuk,  E. Ramos,  D. R. Rehn,  F. Rob,  M. Scheurer,  
 M. Schneider,  N. Sergueev,  S. M. Sharada,  S. Sharma,  D. W. Small,  
 T. Stauch,  T. Stein,  Yu-Chuan Su,  A. J. W. Thom,  A. Tkatchenko,  
 T. Tsuchimochi,  N. M. Tubman,  L. Vogt,  M. L. Vidal,  O. Vydrov,  
 M. A. Watson,  J. Wenzel,  M. de Wergifosse,  T. A. Wesolowski,  A. White,  
 J. Witte,  A. Yamada,  Jun Yang,  K. Yao,  S. Yeganeh,  S. R. Yost,  
 Zhi-Qiang You,  A. Zech,  Igor Ying Zhang,  Xing Zhang,  Yan Zhao,  
 Ying Zhu,  B. R. Brooks,  G. K. L. Chan,  C. J. Cramer,  M. S. Gordon,  
 W. J. Hehre,  A. Klamt,  M. W. Schmidt,  C. D. Sherrill,  D. G. Truhlar,  
 A. Aspuru-Guzik,  R. Baer,  A. T. Bell,  N. A. Besley,  Jeng-Da Chai,  
 A. E. DePrince, III,  R. A. DiStasio Jr.,  A. Dreuw,  B. D. Dunietz,  
 T. R. Furlani,  Chao-Ping Hsu,  Yousung Jung,  Jing Kong,  D. S. Lambrecht,  
 WanZhen Liang,  C. Ochsenfeld,  V. A. Rassolov,  L. V. Slipchenko,  
 J. E. Subotnik,  T. Van Voorhis,  J. M. Herbert,  A. I. Krylov,  
 P. M. W. Gill,  M. Head-Gordon

 Contributors to earlier versions of Q-Chem not listed above: 
 R. D. Adamson,  B. Austin,  J. Baker,  G. J. O. Beran,  K. Brandhorst,  
 S. T. Brown,  E. F. C. Byrd,  A. K. Chakraborty,  C.-L. Cheng,  
 Siu Hung Chien,  D. M. Chipman,  D. L. Crittenden,  H. Dachsel,  
 R. J. Doerksen,  A. D. Dutoi,  L. Fusti-Molnar,  W. A. Goddard III,  
 A. Golubeva-Zadorozhnaya,  S. R. Gwaltney,  G. Hawkins,  A. Heyden,  
 S. Hirata,  G. Kedziora,  F. J. Keil,  C. Kelley,  Jihan Kim,  R. A. King,  
 R. Z. Khaliullin,  P. P. Korambath,  W. Kurlancheek,  A. M. Lee,  M. S. Lee,  
 S. V. Levchenko,  Ching Yeh Lin,  D. Liotard,  R. C. Lochan,  I. Lotan,  
 P. E. Maslen,  N. Nair,  D. P. O'Neill,  D. Neuhauser,  E. Neuscamman,  
 C. M. Oana,  R. Olson,  B. Peters,  R. Peverati,  P. A. Pieniazek,  
 Y. M. Rhee,  J. Ritchie,  M. A. Rohrdanz,  E. Rosta,  N. J. Russ,  
 H. F. Schaefer III,  N. E. Schultz,  N. Shenvi,  A. C. Simmonett,  A. Sodt,  
 D. Stuck,  K. S. Thanthiriwatte,  V. Vanovschi,  Tao Wang,  A. Warshel,  
 C. F. Williams,  Q. Wu,  X. Xu,  W. Zhang

 Please cite Q-Chem as follows:
 Y. Shao et al., Mol. Phys. 113, 184-215 (2015)
 DOI: 10.1080/00268976.2014.952696

 Q-Chem 5.2.0 for Intel X86 EM64T Linux

 Parts of Q-Chem use Armadillo 8.300.2 (Tropical Shenanigans).
 http://arma.sourceforge.net/

 Q-Chem begins on Sun Sep 26 01:46:32 2021  

Host: cori01
0

     Scratch files written to /tmp/qchem34605//Frg1//
 May1019 |scratch|qcdevops|jenkins|workspace|build_RNUM -1
Processing $rem in /global/common/cori/software/qchem/5.2/config/preferences:
	 MEM_TOTAL  96000 
NAlpha2: 50
NElect   50
Mult     1
Symmetry turned off for PCM/SM12/SMD calculation

Checking the input file for inconsistencies... 	...done.

--------------------------------------------------------------
User input:
--------------------------------------------------------------
$molecule
0 1
 6	-0.1074642172	1.0404847850	4.9914810514
 6	-1.0724642172	-1.1905152150	1.4184810514
 6	-2.0824642172	-0.5025152150	2.1094810514
 6	0.2485357828	-1.1565152150	1.9004810514
 6	-1.7834642172	0.2134847850	3.2744810514
 6	0.5405357828	-0.4315152150	3.0684810514
 6	-0.4614642172	0.2554847850	3.7554810514
 1	-1.3104642172	-1.7415152150	0.5234810514
 1	-3.0954642172	-0.5135152150	1.7324810514
 1	1.0345357828	-1.6815152150	1.3734810514
 1	-2.5644642172	0.7524847850	3.7924810514
 1	1.5595357828	-0.4025152150	3.4294810514
 1	-0.6214642172	1.9844847850	4.9714810514
 1	0.9515357828	1.2964847850	4.9294810514
 1	-0.2668242172	0.5049747850	5.9390243514
$end
$rem
EDA2		1
METHOD		WB97X-V
BASIS		DEF2-TZVPD
XC_GRID		000099000590
NL_GRID		1
UNRESTRICTED		FALSE
MAX_SCF_CYCLES		200
SYMMETRY		FALSE
SYM_IGNORE		TRUE
BASIS_LIN_DEP_THRESH		6
THRESH		14
SCF_CONVERGENCE		8
SCF_PRINT_FRGM		TRUE
SOLVENT_METHOD		SMD
!required keywords
JOBTYPE		SP
SYM_IGNORE		TRUE
SUBSYSTEM		TRUE
GEN_SCFMAN		TRUE
CHILD_INSTRUCTION		2
SYM_IGNORE		TRUE
SCFMI		0
RI_K 0		
PARI_K 0		
MIN_PARI_K 0		
IARI_K 0		
OCC_RI_K 0		
PURECART		1111
MEM_STATIC		2000
MEM_TOTAL		96000
GUI		0
CHILD_MP		1
CHILD_MP_ORDERS		232
FRZ_RELAX		0
FRZ_RELAX_METHOD		0
EDA_CLS_ELEC		1
EDA_CLS_DISP		0
FRZ_ORTHO_DECOMP		1
EDA2		FALSE
FRGM_METHOD		FALSE
CIS_N_ROOTS  0
LOCAL_CIS    0
CIS_RLX_DNS  1
$end
$smx
SOLVENT			WATER
$end
--------------------------------------------------------------
 ----------------------------------------------------------------
             Standard Nuclear Orientation (Angstroms)
    I     Atom           X                Y                Z
 ----------------------------------------------------------------
    1      C      -0.1074642172     1.0404847850     4.9914810514
    2      C      -1.0724642172    -1.1905152150     1.4184810514
    3      C      -2.0824642172    -0.5025152150     2.1094810514
    4      C       0.2485357828    -1.1565152150     1.9004810514
    5      C      -1.7834642172     0.2134847850     3.2744810514
    6      C       0.5405357828    -0.4315152150     3.0684810514
    7      C      -0.4614642172     0.2554847850     3.7554810514
    8      H      -1.3104642172    -1.7415152150     0.5234810514
    9      H      -3.0954642172    -0.5135152150     1.7324810514
   10      H       1.0345357828    -1.6815152150     1.3734810514
   11      H      -2.5644642172     0.7524847850     3.7924810514
   12      H       1.5595357828    -0.4025152150     3.4294810514
   13      H      -0.6214642172     1.9844847850     4.9714810514
   14      H       0.9515357828     1.2964847850     4.9294810514
   15      H      -0.2668242172     0.5049747850     5.9390243514
 ----------------------------------------------------------------
 Nuclear Repulsion Energy =         268.47924336 hartrees
 There are       25 alpha and       25 beta electrons
 Requested basis set is def2-TZVPD
 There are 131 shells and 331 basis functions

 Total QAlloc Memory Limit  96000 MB
 Mega-Array Size      1956 MB
 MEM_STATIC part      2000 MB
 
 Citation of the SMD model:
 Marenich, A.V.; Cramer, C.J.; Truhlar, D.G.
 J. Phys. Chem. B 2009, 113, 6378-6396.
 iSolventCode=           1
 Solvent: water                                                           
 
 vradii
            1           2           3           4           5           6
    1   1.8500000   1.8500000   1.8500000   1.8500000   1.8500000   1.8500000
            7           8           9          10          11          12
    1   1.8500000   1.2000000   1.2000000   1.2000000   1.2000000   1.2000000
           13          14          15
    1   1.2000000   1.2000000   1.2000000
 Changing PCM_VDW_RADII to SMD_RADIUS
 Discretize the solute cavity surface with Lebedev spheres
	Using 110 Lebedev grid points for each H atom
	Using 194 Lebedev grid points for other atoms
	Atomic van der Waals radii will be scaled by 1.20
 Remove points where switching function is < 1.0e-08
 Keep 1089 surface tesserae and discard 1149 interior tesserae
 Molecular Surface Area = 132.425 Angst**2

                       Distance Matrix (Angstroms)
             C (  1)   C (  2)   C (  3)   C (  4)   C (  5)   C (  6)
   C (  2)  4.321448
   C (  3)  3.819345  1.403896
   C (  4)  3.808914  1.406599  2.430012
   C (  5)  2.537911  2.433408  1.399744  2.809591
   C (  6)  2.506914  2.429064  2.793716  1.405387  2.420627
   C (  7)  1.506399  2.815281  2.431362  2.436979  1.407412  1.395687
   H (  8)  5.399051  1.077622  2.155574  2.160749  3.407896  3.408713
   H (  9)  4.686592  2.156259  1.080934  3.409400  2.151194  3.874547
   H ( 10)  4.669408  2.163921  3.412833  1.082197  3.891780  2.163229
   H ( 11)  2.749071  3.411332  2.154028  3.890619  1.081113  3.401038
   H ( 12)  2.702033  3.404774  3.875121  2.150599  3.402812  1.081445
   H ( 13)  1.075050  4.786213  4.063340  4.478149  2.714129  3.287660
   H ( 14)  1.091266  4.754878  4.515967  3.960588  3.375224  2.572591
   H ( 15)  1.100002  4.894799  4.356258  4.397269  3.079765  3.125518
             C (  7)   H (  8)   H (  9)   H ( 10)   H ( 11)   H ( 12)
   H (  8)  3.892895
   H (  9)  3.409083  2.481107
   H ( 10)  3.415247  2.495020  4.306972
   H ( 11)  2.161247  4.298711  2.475544  4.972798
   H ( 12)  2.150275  4.298216  4.955921  2.477620  4.298043
   H ( 13)  2.119834  5.843158  4.780356  5.396990  2.585172  3.582219
   H ( 14)  2.111522  5.810243  5.465814  4.639020  3.735099  2.346543
   H ( 15)  2.206352  5.955167  5.170448  5.226707  3.154054  3.233719
             H ( 13)   H ( 14)
   H ( 14)  1.717393
   H ( 15)  1.803014  1.769199
 
 A cutoff of  1.0D-14 yielded   8358 shell pairs
 There are     54486 function pairs (     69437 Cartesian)
 Smallest overlap matrix eigenvalue = 6.23E-07
 Linear dependence detected in AO basis
 Tighter screening thresholds may be required for diffuse basis sets
 Use S2THRESH > 14 and THRESH = 14 in case of SCF convergence issues
 Number of orthogonalized atomic orbitals = 330
 Maximum deviation from orthogonality = 2.809E-10

 Scale SEOQF with 1.000000e-01/1.000000e-01/1.000000e-02

 Standard Electronic Orientation quadrupole field applied
 Nucleus-field energy     =    -0.0000000001 hartrees
 Guess from superposition of atomic densities
 Warning:  Energy on first SCF cycle will be non-variational
 SAD guess density has 49.913408 electrons

 -----------------------------------------------------------------------
  General SCF calculation program by
  Eric Jon Sundstrom, Paul Horn, Yuezhi Mao, Dmitri Zuev, Alec White,
  David Stuck, Shaama M.S., Shane Yost, Joonho Lee, David Small,
  Daniel Levine, Susi Lehtola, Hugh Burton, Evgeny Epifanovsky
 -----------------------------------------------------------------------
 Exchange:     0.1670 Hartree-Fock + 1.0000 wB97X-V + LR-HF
 Correlation:  1.0000 wB97X-V
 Using Euler-Maclaurin-Lebedev (99,590) quadrature formula
 Nonlocal Correlation:  VV10 with C = 0.0100 and b = 6.00 and scale = 1.00000
 Grid used for NLC:  SG-1 standard quadrature
Energy prior to optimization (guess energy) = -271.520785068452
Begin Timing: Total SCF Calculation
begin iterations for algorithm: DIIS         
the SCF tolerance is set to 1.00e-08
    1    -271.5207850685      1.91e-03     00000 
    2    -271.5611160440      1.23e-03     00000 
    3    -271.5834967084      1.54e-04     00000 
    4    -271.5842029382      4.50e-05     00000 
    5    -271.5842520879      2.10e-05     00000 
    6    -271.5842593197      5.61e-06     00000 
    7    -271.5842600487      1.55e-06     00000 
    8    -271.5842600945      4.65e-07     00000 
    9    -271.5842601001      8.72e-08     00000 
   10    -271.5842601004      4.64e-08     00000 
   11    -271.5842601005      1.77e-08     00000 
   12    -271.5842601005      6.24e-09     00000 Convergence criterion met
Timing for Total SCF: 1367.00s (wall), 2722.57s (cpu)
(3)  G-ENP(liq) elect-nuc-pol free energy of system     -271.584260101 a.u.
(4)  G-CDS(liq) cavity-dispersion-solvent structure 
     free energy                                                3.2220 kcal/mol
(6)  G-S(liq) free energy of system                     -271.579125594 a.u.
E_pcm = -0.0077379514
E_cds = 0.0051345063
Multipole orders to be included
        2
        3
computing dipole RHS
computing quadrupole RHS
total number of RHS in solve_reponses: 8
RHS batch sizes
        8
Beginning Block Conjugate Gradient Iterations. Batch Number: 0
computing hessian-vector products by finite difference
              1      6.35e-01     00000 Conjugate Gradient Iteration
computing hessian-vector products by finite difference
              2      1.99e-01     00000 Conjugate Gradient Iteration
computing hessian-vector products by finite difference
              3      4.73e-02     00000 Conjugate Gradient Iteration
computing hessian-vector products by finite difference
              4      1.18e-02     00000 Conjugate Gradient Iteration
computing hessian-vector products by finite difference
              5      2.02e-03     00000 Conjugate Gradient Iteration
computing hessian-vector products by finite difference
              6      6.00e-04     00000 Conjugate Gradient Iteration
computing hessian-vector products by finite difference
              7      1.75e-04     00000 Conjugate Gradient Iteration
computing hessian-vector products by finite difference
              8      2.86e-05     00000 Conjugate Gradient Iteration
computing hessian-vector products by finite difference
              9      3.85e-06     00000 Conjugate Gradient Iteration
computing hessian-vector products by finite difference
             10      7.62e-07     00000 Conjugate Gradient Iteration
computing hessian-vector products by finite difference
             11      1.41e-07     00000 Conjugate Gradient Iteration
computing hessian-vector products by finite difference
             12      2.30e-08     00000 Conjugate Gradient Iteration
computing hessian-vector products by finite difference
             13      3.58e-09     00000 CG Converged
batch 0 complete
Done Calculating Responses
TESTING ORTHOGONALIZATION OF MULTIPOLE BASIS
Multipole virts passed orthogonality test
Virts Per Order
           75
          125
 
 --------------------------------------------------------------
 
                    Orbital Energies (a.u.)
 --------------------------------------------------------------
 
 Alpha MOs
 -- Occupied --
-10.2799 -10.2721 -10.2712 -10.2689 -10.2679 -10.2665 -10.2522  -0.9888
 -0.9001  -0.8725  -0.8068  -0.7241  -0.6999  -0.6224  -0.5655  -0.5626
 -0.5312  -0.5236  -0.5081  -0.4767  -0.4679  -0.4361  -0.4347  -0.3454
 -0.3341
 -- Virtual --
  0.0642   0.0686   0.0696   0.0844   0.0899   0.1094   0.1158   0.1183
  0.1408   0.1582   0.1709   0.1749   0.1927   0.1958   0.2000   0.2069
  0.2271   0.2295   0.2391   0.2418   0.2551   0.2640   0.2662   0.2766
  0.2853   0.2870   0.2884   0.2968   0.2981   0.3062   0.3072   0.3145
  0.3213   0.3290   0.3358   0.3394   0.3554   0.3572   0.3705   0.3781
  0.3822   0.3866   0.3879   0.3928   0.3946   0.4049   0.4072   0.4129
  0.4165   0.4332   0.4349   0.4386   0.4441   0.4495   0.4541   0.4553
  0.4655   0.4737   0.4765   0.4875   0.4956   0.4991   0.5167   0.5187
  0.5216   0.5295   0.5380   0.5417   0.5483   0.5511   0.5549   0.5699
  0.5879   0.5920   0.5967   0.6020   0.6039   0.6241   0.6405   0.6486
  0.6633   0.6782   0.6820   0.6877   0.6925   0.6981   0.7244   0.7277
  0.7334   0.7392   0.7486   0.7597   0.7672   0.7685   0.7830   0.7889
  0.7909   0.7980   0.7996   0.8067   0.8124   0.8260   0.8302   0.8359
  0.8391   0.8415   0.8469   0.8572   0.8606   0.8771   0.8888   0.8972
  0.9107   0.9174   0.9347   0.9435   0.9541   1.0099   1.0268   1.0424
  1.0455   1.0596   1.0722   1.0812   1.0912   1.0989   1.1054   1.1399
  1.1645   1.1802   1.2509   1.2744   1.2958   1.3263   1.3480   1.3561
  1.3744   1.4364   1.4451   1.4599   1.4617   1.4802   1.5232   1.5326
  1.6010   1.6047   1.6195   1.6279   1.6684   1.6747   1.7452   1.7816
  1.7894   1.8025   1.8076   1.8164   1.8329   1.8714   1.8914   1.9168
  1.9213   1.9312   1.9538   1.9652   1.9854   1.9929   2.0189   2.0251
  2.0316   2.0511   2.0697   2.0948   2.1181   2.1252   2.1755   2.1832
  2.1984   2.2306   2.2489   2.2794   2.2941   2.3086   2.3916   2.3952
  2.3975   2.4080   2.4802   2.5047   2.5381   2.5560   2.5651   2.5998
  2.6183   2.6362   2.6767   2.6896   2.6984   2.7149   2.7502   2.7677
  2.7766   2.8051   2.8231   2.8430   2.8577   2.8979   2.9069   2.9161
  2.9326   2.9372   2.9576   2.9748   2.9918   3.0198   3.0266   3.0504
  3.0658   3.0916   3.0976   3.1198   3.1756   3.1990   3.2066   3.2280
  3.2376   3.2422   3.2865   3.3031   3.3331   3.3541   3.3649   3.3782
  3.4055   3.4400   3.4461   3.4551   3.4643   3.4736   3.4879   3.4919
  3.5046   3.5289   3.5356   3.5436   3.5550   3.5604   3.5807   3.6022
  3.6241   3.6309   3.6500   3.6841   3.6978   3.7443   3.7755   3.8081
  3.8357   3.8895   3.9118   3.9395   3.9456   3.9944   4.0249   4.0443
  4.1145   4.1976   4.2592   4.2666   4.2804   4.3025   4.3177   4.3209
  4.3276   4.3520   4.3773   4.3870   4.4191   4.4238   4.4708   4.5140
  4.5944   4.6097   4.7379   4.7558   4.8284   4.8722   4.9058   4.9413
  5.0036   5.0451   5.1580   5.2577   5.3340   5.3495   5.4858   5.5276
  5.6542   5.8414  22.5891  22.6860  22.8578  22.8721  22.9728  23.0354
 23.3746
 --------------------------------------------------------------
 
          Ground-State Mulliken Net Atomic Charges

     Atom                 Charge (a.u.)
  ----------------------------------------
      1 C                    -1.081106
      2 C                    -0.565240
      3 C                    -0.519962
      4 C                    -0.598891
      5 C                    -0.417756
      6 C                    -0.398429
      7 C                     0.809133
      8 H                     0.406595
      9 H                     0.377480
     10 H                     0.375009
     11 H                     0.407330
     12 H                     0.381277
     13 H                     0.287712
     14 H                     0.290160
     15 H                     0.246689
  ----------------------------------------
  Sum of atomic charges =     0.000000

 -----------------------------------------------------------------
                    Cartesian Multipole Moments
 -----------------------------------------------------------------
    Charge (ESU x 10^10)
                -0.0000
    Dipole Moment (Debye)
         X       0.1614      Y       0.3456      Z       0.4088
       Tot       0.5591
    Quadrupole Moments (Debye-Ang)
        XX     -38.0096     XY      -1.5950     YY     -43.5509
        XZ       1.2401     YZ       5.1181     ZZ     -37.6453
    Octopole Moments (Debye-Ang^2)
       XXX      73.9455    XXY       9.9552    XYY      30.0950
       YYY      31.6997    XXZ    -116.8173    XYZ      -7.6500
       YYZ    -132.9349    XZZ      31.3107    YZZ      31.0321
       ZZZ    -348.0951
    Hexadecapole Moments (Debye-Ang^3)
      XXXX    -387.2429   XXXY     -24.1726   XXYY    -114.1931
      XYYY     -24.6164   YYYY    -250.1690   XXXZ     190.3454
      XXYZ      -1.1497   XYYZ      73.7196   YYYZ     -24.5905
      XXZZ    -498.4845   XYZZ     -33.3906   YYZZ    -511.7922
      XZZZ     212.3274   YZZZ      37.0334   ZZZZ   -2538.9101
 -----------------------------------------------------------------
Archival summary:
1\1\nid00529\SP\ProcedureUnspecified\BasisUnspecified\78\meili\SunSep2609:27:212021SunSep2609:27:212021\0\\#,ProcedureUnspecified,BasisUnspecified,\\0,1\C\C,1,1.39569\H,2,1.08144,1,119.931\C,2,1.40539,1,120.921,3,-179.447,0\H,4,1.0822,2,120.27,1,179.708,0\C,4,1.4066,2,119.498,1,-0.0502397,0\H,6,1.07762,4,120.29,2,179.93,0\C,6,1.4039,4,119.679,2,-0.0835567,0\H,8,1.08093,6,119.839,4,179.001,0\C,8,1.39974,6,120.442,4,-0.125906,0\H,10,1.08111,8,119.967,6,179.103,0\C,1,1.5064,2,119.45,3,0.435908,0\H,12,1.07505,1,109.267,2,137.298,0\H,12,1.09127,1,107.679,2,23.9025,0\H,12,1.1,1,114.774,2,-95.9788,0\\\@

 Total job time:  27652.03s(wall), 54729.25s(cpu) 
 Sun Sep 26 09:27:24 2021

        *************************************************************
        *                                                           *
        *  Thank you very much for using Q-Chem.  Have a nice day.  *
        *                                                           *
        *************************************************************


Done Job For Fragment 0
calling putenv with: QCSCRATCH=/global/cscratch1/sd/meili 
calling putenv with: QCLOCALSCR=/tmp 
calling putenv with: QCTHREADS=32 
Creating input file /tmp/qchem34605/Frg2.input
using default PutDataFrgm: nothing
calling putenv with: QCSCRATCH=/tmp/qchem34605/ 
calling putenv with: QCLOCALSCR=/tmp/qchem34605/ 
Spawning Job For Fragment 1
                  Welcome to Q-Chem
     A Quantum Leap Into The Future Of Chemistry


 Q-Chem 5.2, Q-Chem, Inc., Pleasanton, CA (2019)

 License issued to: National Energy Research Scientific Computing Center

 Yihan Shao,  Zhengting Gan,  E. Epifanovsky,  A. T. B. Gilbert,  M. Wormit,  
 J. Kussmann,  A. W. Lange,  A. Behn,  Jia Deng,  Xintian Feng,  D. Ghosh,  
 M. Goldey,  P. R. Horn,  L. D. Jacobson,  I. Kaliman,  T. Kus,  A. Landau,  
 Jie Liu,  E. I. Proynov,  R. M. Richard,  R. P. Steele,  E. J. Sundstrom,  
 H. L. Woodcock III,  P. M. Zimmerman,  D. Zuev,  B. Albrecht,  E. Alguire,  
 S. A. Baeppler,  D. Barton,  Z. Benda,  Y. A. Bernard,  E. J. Berquist,  
 K. B. Bravaya,  H. Burton,  D. Casanova,  Chun-Min Chang,  Yunqing Chen,  
 A. Chien,  K. D. Closser,  M. P. Coons,  S. Coriani,  S. Dasgupta,  
 A. L. Dempwolff,  M. Diedenhofen,  Hainam Do,  R. G. Edgar,  Po-Tung Fang,  
 S. Faraji,  S. Fatehi,  Qingguo Feng,  K. D. Fenk,  J. Fosso-Tande,  
 J. Gayvert,  Qinghui Ge,  A. Ghysels,  G. Gidofalvi,  J. Gomes,  
 J. Gonthier,  A. Gunina,  D. Hait,  M. W. D. Hanson-Heine,  
 P. H. P. Harbach,  A. W. Hauser,  M. F. Herbst,  J. E. Herr,  
 E. G. Hohenstein,  Z. C. Holden,  Kerwin Hui,  B. C. Huynh,  T.-C. Jagau,  
 Hyunjun Ji,  B. Kaduk,  K. Khistyaev,  Jaehoon Kim,  P. Klunzinger,  K. Koh,  
 D. Kosenkov,  L. Koulias,  T. Kowalczyk,  C. M. Krauter,  A. Kunitsa,  
 Ka Un Lao,  A. Laurent,  K. V. Lawler,  Joonho Lee,  D. Lefrancois,  
 S. Lehtola,  D. S. Levine,  Yi-Pei Li,  You-Sheng Lin,  Fenglai Liu,  
 E. Livshits,  A. Luenser,  P. Manohar,  E. Mansoor,  S. F. Manzer,  
 Shan-Ping Mao,  Yuezhi Mao,  N. Mardirossian,  A. V. Marenich,  
 T. Markovich,  L. A. Martinez-Martinez,  S. A. Maurer,  N. J. Mayhall,  
 S. C. McKenzie,  J.-M. Mewes,  P. Morgante,  A. F. Morrison,  
 J. W. Mullinax,  K. Nanda,  T. S. Nguyen-Beck,  R. Olivares-Amaya,  
 J. A. Parkhill,  Zheng Pei,  T. M. Perrine,  F. Plasser,  P. Pokhilko,  
 S. Prager,  A. Prociuk,  E. Ramos,  D. R. Rehn,  F. Rob,  M. Scheurer,  
 M. Schneider,  N. Sergueev,  S. M. Sharada,  S. Sharma,  D. W. Small,  
 T. Stauch,  T. Stein,  Yu-Chuan Su,  A. J. W. Thom,  A. Tkatchenko,  
 T. Tsuchimochi,  N. M. Tubman,  L. Vogt,  M. L. Vidal,  O. Vydrov,  
 M. A. Watson,  J. Wenzel,  M. de Wergifosse,  T. A. Wesolowski,  A. White,  
 J. Witte,  A. Yamada,  Jun Yang,  K. Yao,  S. Yeganeh,  S. R. Yost,  
 Zhi-Qiang You,  A. Zech,  Igor Ying Zhang,  Xing Zhang,  Yan Zhao,  
 Ying Zhu,  B. R. Brooks,  G. K. L. Chan,  C. J. Cramer,  M. S. Gordon,  
 W. J. Hehre,  A. Klamt,  M. W. Schmidt,  C. D. Sherrill,  D. G. Truhlar,  
 A. Aspuru-Guzik,  R. Baer,  A. T. Bell,  N. A. Besley,  Jeng-Da Chai,  
 A. E. DePrince, III,  R. A. DiStasio Jr.,  A. Dreuw,  B. D. Dunietz,  
 T. R. Furlani,  Chao-Ping Hsu,  Yousung Jung,  Jing Kong,  D. S. Lambrecht,  
 WanZhen Liang,  C. Ochsenfeld,  V. A. Rassolov,  L. V. Slipchenko,  
 J. E. Subotnik,  T. Van Voorhis,  J. M. Herbert,  A. I. Krylov,  
 P. M. W. Gill,  M. Head-Gordon

 Contributors to earlier versions of Q-Chem not listed above: 
 R. D. Adamson,  B. Austin,  J. Baker,  G. J. O. Beran,  K. Brandhorst,  
 S. T. Brown,  E. F. C. Byrd,  A. K. Chakraborty,  C.-L. Cheng,  
 Siu Hung Chien,  D. M. Chipman,  D. L. Crittenden,  H. Dachsel,  
 R. J. Doerksen,  A. D. Dutoi,  L. Fusti-Molnar,  W. A. Goddard III,  
 A. Golubeva-Zadorozhnaya,  S. R. Gwaltney,  G. Hawkins,  A. Heyden,  
 S. Hirata,  G. Kedziora,  F. J. Keil,  C. Kelley,  Jihan Kim,  R. A. King,  
 R. Z. Khaliullin,  P. P. Korambath,  W. Kurlancheek,  A. M. Lee,  M. S. Lee,  
 S. V. Levchenko,  Ching Yeh Lin,  D. Liotard,  R. C. Lochan,  I. Lotan,  
 P. E. Maslen,  N. Nair,  D. P. O'Neill,  D. Neuhauser,  E. Neuscamman,  
 C. M. Oana,  R. Olson,  B. Peters,  R. Peverati,  P. A. Pieniazek,  
 Y. M. Rhee,  J. Ritchie,  M. A. Rohrdanz,  E. Rosta,  N. J. Russ,  
 H. F. Schaefer III,  N. E. Schultz,  N. Shenvi,  A. C. Simmonett,  A. Sodt,  
 D. Stuck,  K. S. Thanthiriwatte,  V. Vanovschi,  Tao Wang,  A. Warshel,  
 C. F. Williams,  Q. Wu,  X. Xu,  W. Zhang

 Please cite Q-Chem as follows:
 Y. Shao et al., Mol. Phys. 113, 184-215 (2015)
 DOI: 10.1080/00268976.2014.952696

 Q-Chem 5.2.0 for Intel X86 EM64T Linux

 Parts of Q-Chem use Armadillo 8.300.2 (Tropical Shenanigans).
 http://arma.sourceforge.net/

 Q-Chem begins on Sun Sep 26 09:27:29 2021  

Host: cori01
0

     Scratch files written to /tmp/qchem34605//Frg2//
 May1019 |scratch|qcdevops|jenkins|workspace|build_RNUM -1
Processing $rem in /global/common/cori/software/qchem/5.2/config/preferences:
	 MEM_TOTAL  96000 
NAlpha2: 50
NElect   50
Mult     1
Symmetry turned off for PCM/SM12/SMD calculation

Checking the input file for inconsistencies... 	...done.

--------------------------------------------------------------
User input:
--------------------------------------------------------------
$molecule
0 1
 6	-0.5744642172	-1.5925152150	-4.0355189486
 6	0.2405357828	-0.3775152150	-1.9735189486
 6	0.1565357828	-0.4575152150	-3.3755189486
 6	0.9775357828	0.6434847850	-1.3655189486
 6	0.8085357828	0.4954847850	-4.1585189486
 6	1.6395357828	1.5994847850	-2.1605189486
 6	1.5485357828	1.5204847850	-3.5635189486
 1	-0.2534642172	-1.1175152150	-1.3645189486
 1	1.0435357828	0.6914847850	-0.2865189486
 1	-0.7824642172	-1.3525152150	-5.0795189486
 1	-1.5304642172	-1.6885152150	-3.5225189486
 1	0.6915357828	0.4524847850	-5.2275189486
 1	2.2115357828	2.3924847850	-1.6965189486
 1	2.0375357828	2.2624847850	-4.1795189486
 1	-0.0393742172	-2.5516352150	-3.9742219486
$end
$rem
EDA2		1
METHOD		WB97X-V
BASIS		DEF2-TZVPD
XC_GRID		000099000590
NL_GRID		1
UNRESTRICTED		FALSE
MAX_SCF_CYCLES		200
SYMMETRY		FALSE
SYM_IGNORE		TRUE
BASIS_LIN_DEP_THRESH		6
THRESH		14
SCF_CONVERGENCE		8
SCF_PRINT_FRGM		TRUE
SOLVENT_METHOD		SMD
!required keywords
JOBTYPE		SP
SYM_IGNORE		TRUE
SUBSYSTEM		TRUE
GEN_SCFMAN		TRUE
CHILD_INSTRUCTION		2
SYM_IGNORE		TRUE
SCFMI		0
RI_K 0		
PARI_K 0		
MIN_PARI_K 0		
IARI_K 0		
OCC_RI_K 0		
PURECART		1111
MEM_STATIC		2000
MEM_TOTAL		96000
GUI		0
CHILD_MP		1
CHILD_MP_ORDERS		232
FRZ_RELAX		0
FRZ_RELAX_METHOD		0
EDA_CLS_ELEC		1
EDA_CLS_DISP		0
FRZ_ORTHO_DECOMP		1
EDA2		FALSE
FRGM_METHOD		FALSE
CIS_N_ROOTS  0
LOCAL_CIS    0
CIS_RLX_DNS  1
$end
$smx
SOLVENT			WATER
$end
--------------------------------------------------------------
 ----------------------------------------------------------------
             Standard Nuclear Orientation (Angstroms)
    I     Atom           X                Y                Z
 ----------------------------------------------------------------
    1      C      -0.5744642172    -1.5925152150    -4.0355189486
    2      C       0.2405357828    -0.3775152150    -1.9735189486
    3      C       0.1565357828    -0.4575152150    -3.3755189486
    4      C       0.9775357828     0.6434847850    -1.3655189486
    5      C       0.8085357828     0.4954847850    -4.1585189486
    6      C       1.6395357828     1.5994847850    -2.1605189486
    7      C       1.5485357828     1.5204847850    -3.5635189486
    8      H      -0.2534642172    -1.1175152150    -1.3645189486
    9      H       1.0435357828     0.6914847850    -0.2865189486
   10      H      -0.7824642172    -1.3525152150    -5.0795189486
   11      H      -1.5304642172    -1.6885152150    -3.5225189486
   12      H       0.6915357828     0.4524847850    -5.2275189486
   13      H       2.2115357828     2.3924847850    -1.6965189486
   14      H       2.0375357828     2.2624847850    -4.1795189486
   15      H      -0.0393742172    -2.5516352150    -3.9742219486
 ----------------------------------------------------------------
 Nuclear Repulsion Energy =         268.69358110 hartrees
 There are       25 alpha and       25 beta electrons
 Requested basis set is def2-TZVPD
 There are 131 shells and 331 basis functions

 Total QAlloc Memory Limit  96000 MB
 Mega-Array Size      1956 MB
 MEM_STATIC part      2000 MB
 
 Citation of the SMD model:
 Marenich, A.V.; Cramer, C.J.; Truhlar, D.G.
 J. Phys. Chem. B 2009, 113, 6378-6396.
 iSolventCode=           1
 Solvent: water                                                           
 
 vradii
            1           2           3           4           5           6
    1   1.8500000   1.8500000   1.8500000   1.8500000   1.8500000   1.8500000
            7           8           9          10          11          12
    1   1.8500000   1.2000000   1.2000000   1.2000000   1.2000000   1.2000000
           13          14          15
    1   1.2000000   1.2000000   1.2000000
 Changing PCM_VDW_RADII to SMD_RADIUS
 Discretize the solute cavity surface with Lebedev spheres
	Using 110 Lebedev grid points for each H atom
	Using 194 Lebedev grid points for other atoms
	Atomic van der Waals radii will be scaled by 1.20
 Remove points where switching function is < 1.0e-08
 Keep 1078 surface tesserae and discard 1160 interior tesserae
 Molecular Surface Area = 132.735 Angst**2

                       Distance Matrix (Angstroms)
             C (  1)   C (  2)   C (  3)   C (  4)   C (  5)   C (  6)
   C (  2)  2.528299
   C (  3)  1.502726  1.406791
   C (  4)  3.812781  1.398311  2.434408
   C (  5)  2.507501  2.420533  1.395135  2.802020
   C (  6)  4.313500  2.429135  2.811897  1.408618  2.429276
   C (  7)  3.797457  2.800244  2.426003  2.434415  1.397229  1.408166
   H (  8)  2.731832  1.078201  2.155881  2.148600  3.396476  3.405753
   H (  9)  4.678630  2.152566  3.413047  1.082082  3.884073  2.166000
   H ( 10)  1.091238  3.412388  2.141579  4.568962  2.606650  4.806345
   H ( 11)  1.089184  2.693430  2.093547  4.047337  3.262709  4.766014
   H ( 12)  2.684333  3.388335  2.131720  3.877283  1.076243  3.408930
   H ( 13)  5.395641  3.410934  3.894171  2.165945  3.410053  1.082280
   H ( 14)  4.658788  3.881397  3.403377  3.415166  2.152480  2.162021
   H ( 15)  1.099995  2.967821  2.186816  4.248321  3.168258  4.831155
             C (  7)   H (  8)   H (  9)   H ( 10)   H ( 11)   H ( 12)
   H (  8)  3.878382
   H (  9)  3.417747  2.473211
   H ( 10)  3.998243  3.759826  5.521328
   H ( 11)  4.447427  2.571718  4.770909  1.759730
   H ( 12)  2.154987  4.275593  4.959285  2.335081  3.525364
   H ( 13)  2.164634  4.301924  2.499145  5.868028  5.830214  4.306038
   H ( 14)  1.081268  4.959567  4.314108  4.672325  5.364017  2.487191
   H ( 15)  4.390022  2.985479  5.028884  1.792136  1.781112  3.336123
             H ( 13)   H ( 14)
   H ( 14)  2.492482
   H ( 15)  5.890573  5.247042
 
 A cutoff of  1.0D-14 yielded   8359 shell pairs
 There are     54483 function pairs (     69428 Cartesian)
 Smallest overlap matrix eigenvalue = 6.21E-07
 Linear dependence detected in AO basis
 Tighter screening thresholds may be required for diffuse basis sets
 Use S2THRESH > 14 and THRESH = 14 in case of SCF convergence issues
 Number of orthogonalized atomic orbitals = 330
 Maximum deviation from orthogonality = 1.096E-10

 Scale SEOQF with 1.000000e-01/1.000000e-01/1.000000e-02

 Standard Electronic Orientation quadrupole field applied
 Nucleus-field energy     =     0.0000000018 hartrees
 Guess from superposition of atomic densities
 Warning:  Energy on first SCF cycle will be non-variational
 SAD guess density has 49.913408 electrons

 -----------------------------------------------------------------------
  General SCF calculation program by
  Eric Jon Sundstrom, Paul Horn, Yuezhi Mao, Dmitri Zuev, Alec White,
  David Stuck, Shaama M.S., Shane Yost, Joonho Lee, David Small,
  Daniel Levine, Susi Lehtola, Hugh Burton, Evgeny Epifanovsky
 -----------------------------------------------------------------------
 Exchange:     0.1670 Hartree-Fock + 1.0000 wB97X-V + LR-HF
 Correlation:  1.0000 wB97X-V
 Using Euler-Maclaurin-Lebedev (99,590) quadrature formula
 Nonlocal Correlation:  VV10 with C = 0.0100 and b = 6.00 and scale = 1.00000
 Grid used for NLC:  SG-1 standard quadrature
Energy prior to optimization (guess energy) = -271.521020684784
Begin Timing: Total SCF Calculation
begin iterations for algorithm: DIIS         
the SCF tolerance is set to 1.00e-08
    1    -271.5210206848      1.92e-03     00000 
    2    -271.5614002604      1.24e-03     00000 
    3    -271.5840345451      1.55e-04     00000 
    4    -271.5847460324      4.63e-05     00000 
    5    -271.5847961774      2.27e-05     00000 
    6    -271.5848044747      6.06e-06     00000 
    7    -271.5848052865      1.97e-06     00000 
    8    -271.5848053584      4.35e-07     00000 
    9    -271.5848053645      8.80e-08     00000 
   10    -271.5848053650      4.61e-08     00000 
   11    -271.5848053651      1.96e-08     00000 
   12    -271.5848053651      7.33e-09     00000 Convergence criterion met
Timing for Total SCF: 1342.00s (wall), 2672.58s (cpu)
(3)  G-ENP(liq) elect-nuc-pol free energy of system     -271.584805365 a.u.
(4)  G-CDS(liq) cavity-dispersion-solvent structure 
     free energy                                                3.2244 kcal/mol
(6)  G-S(liq) free energy of system                     -271.579666967 a.u.
E_pcm = -0.0078054326
E_cds = 0.0051383982
Multipole orders to be included
        2
        3
computing dipole RHS
computing quadrupole RHS
total number of RHS in solve_reponses: 8
RHS batch sizes
        8
Beginning Block Conjugate Gradient Iterations. Batch Number: 0
computing hessian-vector products by finite difference
              1      6.36e-01     00000 Conjugate Gradient Iteration
computing hessian-vector products by finite difference
              2      1.99e-01     00000 Conjugate Gradient Iteration
computing hessian-vector products by finite difference
              3      4.76e-02     00000 Conjugate Gradient Iteration
computing hessian-vector products by finite difference
              4      1.20e-02     00000 Conjugate Gradient Iteration
computing hessian-vector products by finite difference
              5      2.11e-03     00000 Conjugate Gradient Iteration
computing hessian-vector products by finite difference
              6      6.35e-04     00000 Conjugate Gradient Iteration
computing hessian-vector products by finite difference
              7      1.87e-04     00000 Conjugate Gradient Iteration
computing hessian-vector products by finite difference
              8      2.92e-05     00000 Conjugate Gradient Iteration
computing hessian-vector products by finite difference
              9      4.26e-06     00000 Conjugate Gradient Iteration
computing hessian-vector products by finite difference
             10      7.46e-07     00000 Conjugate Gradient Iteration
computing hessian-vector products by finite difference
             11      1.27e-07     00000 Conjugate Gradient Iteration
computing hessian-vector products by finite difference
             12      1.96e-08     00000 Conjugate Gradient Iteration
computing hessian-vector products by finite difference
             13      3.03e-09     00000 CG Converged
batch 0 complete
Done Calculating Responses
TESTING ORTHOGONALIZATION OF MULTIPOLE BASIS
Multipole virts passed orthogonality test
Virts Per Order
           75
          125
 
 --------------------------------------------------------------
 
                    Orbital Energies (a.u.)
 --------------------------------------------------------------
 
 Alpha MOs
 -- Occupied --
-10.2789 -10.2720 -10.2714 -10.2699 -10.2668 -10.2647 -10.2536  -0.9893
 -0.8998  -0.8735  -0.8057  -0.7243  -0.6996  -0.6222  -0.5666  -0.5621
 -0.5291  -0.5242  -0.5068  -0.4805  -0.4669  -0.4364  -0.4344  -0.3463
 -0.3323
 -- Virtual --
  0.0643   0.0682   0.0699   0.0845   0.0898   0.1095   0.1156   0.1184
  0.1409   0.1587   0.1705   0.1757   0.1897   0.1956   0.1999   0.2066
  0.2284   0.2313   0.2384   0.2439   0.2529   0.2629   0.2662   0.2762
  0.2847   0.2872   0.2898   0.2952   0.2981   0.3063   0.3084   0.3171
  0.3247   0.3295   0.3344   0.3420   0.3544   0.3575   0.3725   0.3768
  0.3782   0.3873   0.3907   0.3937   0.3966   0.4041   0.4068   0.4080
  0.4188   0.4335   0.4346   0.4381   0.4431   0.4502   0.4543   0.4590
  0.4696   0.4766   0.4822   0.4886   0.4933   0.4988   0.5155   0.5193
  0.5227   0.5281   0.5367   0.5462   0.5472   0.5517   0.5557   0.5734
  0.5799   0.5873   0.5909   0.6001   0.6056   0.6239   0.6393   0.6472
  0.6703   0.6738   0.6847   0.6880   0.6931   0.7077   0.7230   0.7253
  0.7318   0.7345   0.7492   0.7599   0.7673   0.7685   0.7736   0.7884
  0.7900   0.7978   0.8000   0.8080   0.8113   0.8263   0.8305   0.8335
  0.8378   0.8418   0.8502   0.8588   0.8650   0.8719   0.8886   0.8989
  0.9161   0.9280   0.9344   0.9500   0.9553   1.0082   1.0285   1.0418
  1.0497   1.0614   1.0692   1.0730   1.0894   1.0962   1.1026   1.1449
  1.1637   1.1801   1.2593   1.2755   1.2979   1.3235   1.3511   1.3597
  1.3724   1.4375   1.4528   1.4557   1.4638   1.4838   1.5273   1.5359
  1.6032   1.6088   1.6191   1.6305   1.6595   1.6718   1.7362   1.7780
  1.7882   1.7972   1.8025   1.8167   1.8344   1.8640   1.8874   1.9133
  1.9192   1.9340   1.9444   1.9712   1.9863   1.9980   2.0180   2.0266
  2.0344   2.0504   2.0684   2.0925   2.1136   2.1245   2.1740   2.1950
  2.2019   2.2417   2.2518   2.2731   2.2949   2.3085   2.3868   2.3945
  2.3990   2.4193   2.4812   2.5163   2.5427   2.5544   2.5635   2.6056
  2.6182   2.6374   2.6740   2.6806   2.6987   2.7139   2.7519   2.7675
  2.7830   2.8013   2.8202   2.8418   2.8600   2.8983   2.9112   2.9194
  2.9253   2.9470   2.9668   2.9810   2.9959   3.0172   3.0260   3.0504
  3.0659   3.0843   3.0970   3.1345   3.1707   3.1941   3.2054   3.2300
  3.2347   3.2526   3.2895   3.2954   3.3338   3.3590   3.3698   3.3771
  3.4014   3.4342   3.4450   3.4491   3.4630   3.4741   3.4878   3.4948
  3.5096   3.5325   3.5405   3.5421   3.5522   3.5619   3.5784   3.6019
  3.6208   3.6273   3.6564   3.6832   3.7134   3.7392   3.7652   3.8055
  3.8447   3.9036   3.9130   3.9426   3.9689   3.9823   4.0236   4.0496
  4.1235   4.1988   4.2621   4.2638   4.2852   4.2958   4.3141   4.3214
  4.3309   4.3541   4.3643   4.3962   4.4146   4.4293   4.4801   4.5156
  4.6095   4.6136   4.7428   4.7801   4.8051   4.8659   4.9076   4.9417
  5.0096   5.0396   5.1683   5.2553   5.3349   5.3529   5.4870   5.5321
  5.6502   5.8401  22.5912  22.6842  22.8549  22.8720  22.9918  23.0344
 23.3850
 --------------------------------------------------------------
 
          Ground-State Mulliken Net Atomic Charges

     Atom                 Charge (a.u.)
  ----------------------------------------
      1 C                    -1.061482
      2 C                    -0.376931
      3 C                     0.808323
      4 C                    -0.547276
      5 C                    -0.448826
      6 C                    -0.557298
      7 C                    -0.571630
      8 H                     0.408705
      9 H                     0.379560
     10 H                     0.299163
     11 H                     0.266760
     12 H                     0.372667
     13 H                     0.403762
     14 H                     0.377308
     15 H                     0.247194
  ----------------------------------------
  Sum of atomic charges =     0.000000

 -----------------------------------------------------------------
                    Cartesian Multipole Moments
 -----------------------------------------------------------------
    Charge (ESU x 10^10)
                -0.0000
    Dipole Moment (Debye)
         X      -0.3153      Y      -0.4456      Z      -0.2192
       Tot       0.5882
    Quadrupole Moments (Debye-Ang)
        XX     -44.1428     XY       3.9135     YY     -40.4646
        XZ       1.1082     YZ       1.1458     ZZ     -36.1024
    Octopole Moments (Debye-Ang^2)
       XXX     -88.6033    XXY      -2.4539    XYY     -19.7498
       YYY     -26.2527    XXZ     131.5867    XYZ     -10.2894
       YYZ     120.2796    XZZ     -27.6262    YZZ      -9.0043
       ZZZ     330.3302
    Hexadecapole Moments (Debye-Ang^3)
      XXXX    -350.0252   XXXY    -126.2201   XXYY    -106.7672
      XYYY    -120.6353   YYYY    -404.2041   XXXZ     225.1570
      XXYZ      -8.3067   XYYZ      45.5126   YYYZ      27.9329
      XXZZ    -508.7332   XYZZ      -8.1438   YYZZ    -484.2946
      XZZZ     194.6582   YZZZ      12.6184   ZZZZ   -2327.1144
 -----------------------------------------------------------------
Archival summary:
1\1\nid00529\SP\ProcedureUnspecified\BasisUnspecified\78\meili\SunSep2617:11:032021SunSep2617:11:032021\0\\#,ProcedureUnspecified,BasisUnspecified,\\0,1\C\C,1,1.39514\H,2,1.07624,1,118.644\C,2,1.39723,1,120.639,3,177.135,0\H,4,1.08127,2,120.022,1,-179.077,0\C,1,1.40679,2,119.51,3,-176.741,0\H,6,1.0782,1,119.77,2,-179.386,0\C,6,1.39831,1,120.419,2,-0.374557,0\H,8,1.08208,6,119.875,1,-179.453,0\C,4,1.40817,2,119.978,1,-0.100422,0\H,10,1.08228,4,120.16,2,-179.97,0\C,1,1.50273,2,119.787,3,6.03963,0\H,12,1.08918,1,106.659,2,-135.43,0\H,12,1.09124,1,110.292,2,-18.8472,0\H,12,1.1,1,113.419,2,104.701,0\\\@

 Total job time:  27819.09s(wall), 55308.44s(cpu) 
 Sun Sep 26 17:11:08 2021

        *************************************************************
        *                                                           *
        *  Thank you very much for using Q-Chem.  Have a nice day.  *
        *                                                           *
        *************************************************************


Done Job For Fragment 1
calling putenv with: QCSCRATCH=/global/cscratch1/sd/meili 
calling putenv with: QCLOCALSCR=/tmp 
calling putenv with: QCTHREADS=32 
Doing General SCFMI
 Exchange:     0.1670 Hartree-Fock + 1.0000 wB97X-V + LR-HF
 Correlation:  1.0000 wB97X-V
 Using Euler-Maclaurin-Lebedev (99,590) quadrature formula
 Nonlocal Correlation:  VV10 with C = 0.0100 and b = 6.00 and scale = 1.00000
 Grid used for NLC:  SG-1 standard quadrature
performing fock build before subrot guess so that all methods have access
Printing subrot_rss_gen Method Specification:
Occupied Subspace Method is 0
Virtual Subspace Method is 0
Energy of the unrelaxed supersystem initial determinant -543.154952616094
performing fock build before subrot guess so that all methods have access
Printing subrot_rss_gen Method Specification:
Occupied Subspace Method is 0
Virtual Subspace Method is 0
Energy of the unrelaxed supersystem initial determinant w/ solvent -543.170501950151
write pseudocanon occs and virts to disk
write pseudocanon orbital energies to disk
Tolerance of ortho_decomp_scf: 1.00e-06
GDM subspace size: 20
Beginning the Orthogonal Decomposition of the Initial Supersystem Wavefunction
    1    -543.1428846494      1.53e-02     ortho_decomp Preconditoned Steepest Descent
    2    -543.1438949362      3.64e-04     ortho_decomp BFGS Step
    3    -543.1438978159      2.75e-05     ortho_decomp BFGS Step
    4    -543.1438978219      1.15e-06     ortho_decomp BFGS Step
    5    -543.1438978220      4.01e-08     ortho_decomp 00000 Convergence criterion met
 Hartree-Fock
 Hartree-Fock
 Hartree-Fock
Doing General SCFMI
 Exchange:     0.1670 Hartree-Fock + 1.0000 wB97X-V + LR-HF
 Correlation:  1.0000 wB97X-V
 Using Euler-Maclaurin-Lebedev (99,590) quadrature formula
 Nonlocal Correlation:  VV10 with C = 0.0100 and b = 6.00 and scale = 1.00000
 Grid used for NLC:  SG-1 standard quadrature
performing fock build at end of subrot_r(subrot) constructor so that all methods have access
<S^2> of initial wavefunction before polarization iterations 0.0000000000
Beginning iterations for the determination of the polarized wavefunction
Energy prior to optimization (guess energy) = -543.170501950150
Begin Timing: Total SCF Calculation
begin iterations for algorithm: DIIS         
the SCF tolerance is set to 1.00e-08
    1    -543.1705019502      2.98e-05     00000 
    2    -543.1705857497      1.27e-05     00000 
    3    -543.1705961382      7.21e-06     00000 
    4    -543.1705999448      1.82e-06     00000 
    5    -543.1706003156      8.85e-07     00000 
    6    -543.1706003860      2.61e-07     00000 
    7    -543.1706003917      1.04e-07     00000 
    8    -543.1706003924      4.20e-08     00000 
    9    -543.1706003925      1.37e-08     00000 
   10    -543.1706003925      6.33e-09     00000 Convergence criterion met
write pseudocanon occs and virts to disk
write pseudocanon orbital energies to disk
Timing for Total SCF: 7764.00s (wall), 15454.74s (cpu)
<S^2> of polarized wavefunction after polarization iterations 0.0000000000
relaxing scfmi constraint to allow all rotations in the entire AO span
Doing General SCFMI
 Exchange:     0.1670 Hartree-Fock + 1.0000 wB97X-V + LR-HF
 Correlation:  1.0000 wB97X-V
 Using Euler-Maclaurin-Lebedev (99,590) quadrature formula
 Nonlocal Correlation:  VV10 with C = 0.0100 and b = 6.00 and scale = 1.00000
 Grid used for NLC:  SG-1 standard quadrature
performing fock build at end of subrot_r(subrot) constructor so that all methods have access
<S^2> of polarized wavefunction before ct-allowed iterations 0.0000000000
Beginning iterations for the determination of the CT-Allowed wavefunction
Energy prior to optimization (guess energy) = -543.170600392467
Begin Timing: Total SCF Calculation
begin iterations for algorithm: DIIS         
the SCF tolerance is set to 1.00e-08
    1    -543.1706003925      5.14e-05     00000 
    2    -543.1711879288      5.43e-06     00000 
    3    -543.1712050438      8.50e-07     00000 
    4    -543.1712055859      2.91e-07     00000 
    5    -543.1712056123      1.28e-07     00000 
    6    -543.1712056191      2.29e-08     00000 
    7    -543.1712056194      1.08e-08     00000 
    8    -543.1712056195      2.66e-09     00000 Convergence criterion met
write pseudocanon occs and virts to disk
write pseudocanon orbital energies to disk
Timing for Total SCF: 5888.00s (wall), 11728.89s (cpu)
<S^2> of ct_allowed wavefunction after ct-allowed iterations 0.0000000000

================================
        Results of EDA2         
================================
Basic EDA Quantities
--------------------
Fragment Energies (Ha):
1 -271.5791255942
2 -271.5796669669
--------------------
  E_prp (kJ/mol) = -0.0000
  E_sol (kJ/mol) = -1.4066
  E_frz (kJ/mol) = -3.7559
  E_pol (kJ/mol) = -0.2585
  E_vct (kJ/mol) = -1.5890
  E_int (kJ/mol) = -7.0100
--------------------


Initial Wavefunction Decomposition
--------------------
  --------------------
  Orthogonal Fragment Subspace Decomposition:
  --------------------
     E_elec   (ELEC)   (kJ/mol) = -11.7036
     E_pauli  (PAULI)  (kJ/mol) = 19.4506
     E_disp   (DISP)   (kJ/mol) = -11.5029
     --------------------
     Terms summing to E_pauli:
     --------------------
        E_kep_pauli       (kJ/mol) = 25.2688
        E_disp_free_pauli (kJ/mol) = -5.8182
  --------------------
  Classical Frozen Decomposition:
  --------------------
     E_cls_elec  (CLS ELEC)  (kJ/mol) = -3.8206
     E_cls_pauli (CLS PAULI) (kJ/mol) = 0.0647
    [E_mod_pauli (MOD PAULI) (kJ/mol) = 11.5676 (CLS PAULI - DISP from orthogonal decomposition) ]
  --------------------
--------------------

Simplified EDA Summary (kJ/mol)
--------------------
 PREPARATION     -0.0000
 SOLVATION       -1.4066
 FROZEN          7.7470      (does not include dispersion)
[PAULI           19.4506]     (if this is negligible, then frozen describes electrostatics)
 DISPERSION      -11.5029
 POLARIZATION    -0.2585
 CHARGE TRANSFER -1.5890
 TOTAL           -7.0100     (PRP + SOL + FRZ + DISP + POL + CT)
--------------------
 
 --------------------------------------------------------------
 
                    Orbital Energies (a.u.)
 --------------------------------------------------------------
 
 Alpha MOs
 -- Occupied --
-10.2799 -10.2787 -10.2721 -10.2716 -10.2713 -10.2712 -10.2698 -10.2687
-10.2679 -10.2665 -10.2664 -10.2646 -10.2535 -10.2522  -0.9893  -0.9886
 -0.9002  -0.8997  -0.8738  -0.8721  -0.8070  -0.8055  -0.7243  -0.7240
 -0.7002  -0.6992  -0.6254  -0.6195  -0.5667  -0.5653  -0.5640  -0.5608
 -0.5314  -0.5291  -0.5258  -0.5229  -0.5086  -0.5054  -0.4804  -0.4767
 -0.4680  -0.4663  -0.4379  -0.4362  -0.4349  -0.4319  -0.3468  -0.3447
 -0.3338  -0.3321
 -- Virtual --
  0.0609   0.0623   0.0644   0.0679   0.0707   0.0735   0.0817   0.0888
  0.0902   0.1037   0.1084   0.1101   0.1143   0.1173   0.1320   0.1368
  0.1418   0.1551   0.1588   0.1616   0.1713   0.1723   0.1755   0.1856
  0.1880   0.1970   0.1982   0.2047   0.2084   0.2153   0.2189   0.2259
  0.2290   0.2314   0.2374   0.2410   0.2440   0.2445   0.2548   0.2579
  0.2609   0.2625   0.2694   0.2697   0.2720   0.2779   0.2836   0.2849
  0.2864   0.2890   0.2908   0.2942   0.2988   0.3033   0.3047   0.3097
  0.3127   0.3151   0.3181   0.3247   0.3274   0.3331   0.3384   0.3393
  0.3409   0.3447   0.3467   0.3512   0.3543   0.3555   0.3586   0.3654
  0.3706   0.3730   0.3754   0.3772   0.3800   0.3817   0.3826   0.3859
  0.3908   0.3918   0.3945   0.3969   0.4010   0.4066   0.4075   0.4120
  0.4174   0.4188   0.4233   0.4287   0.4314   0.4341   0.4375   0.4385
  0.4410   0.4430   0.4465   0.4488   0.4509   0.4579   0.4621   0.4661
  0.4676   0.4720   0.4764   0.4798   0.4823   0.4848   0.4879   0.4920
  0.4967   0.4990   0.5011   0.5035   0.5082   0.5144   0.5148   0.5194
  0.5215   0.5242   0.5276   0.5330   0.5346   0.5367   0.5426   0.5476
  0.5482   0.5546   0.5568   0.5584   0.5605   0.5656   0.5750   0.5762
  0.5799   0.5865   0.5952   0.6004   0.6031   0.6089   0.6127   0.6181
  0.6232   0.6273   0.6321   0.6334   0.6440   0.6479   0.6508   0.6582
  0.6592   0.6692   0.6740   0.6770   0.6804   0.6823   0.6887   0.6954
  0.6981   0.7087   0.7104   0.7137   0.7208   0.7224   0.7288   0.7320
  0.7368   0.7392   0.7417   0.7455   0.7467   0.7503   0.7559   0.7580
  0.7607   0.7712   0.7726   0.7793   0.7815   0.7831   0.7854   0.7903
  0.7954   0.7976   0.7998   0.8023   0.8034   0.8076   0.8097   0.8135
  0.8157   0.8251   0.8286   0.8312   0.8323   0.8395   0.8435   0.8453
  0.8518   0.8543   0.8558   0.8583   0.8597   0.8668   0.8737   0.8768
  0.8795   0.8864   0.8901   0.8948   0.8990   0.9018   0.9060   0.9124
  0.9182   0.9221   0.9260   0.9382   0.9421   0.9458   0.9479   0.9639
  0.9678   0.9752   0.9783   0.9909   0.9948   1.0089   1.0146   1.0232
  1.0297   1.0390   1.0439   1.0460   1.0580   1.0645   1.0680   1.0739
  1.0843   1.0885   1.0993   1.1049   1.1064   1.1111   1.1248   1.1284
  1.1335   1.1356   1.1487   1.1650   1.1719   1.1834   1.1890   1.1971
  1.2054   1.2260   1.2552   1.2824   1.3014   1.3101   1.3117   1.3321
  1.3365   1.3463   1.3601   1.3675   1.3743   1.3795   1.3882   1.4024
  1.4274   1.4489   1.4534   1.4693   1.4766   1.4796   1.4849   1.4909
  1.5043   1.5140   1.5161   1.5370   1.5437   1.5470   1.5541   1.6065
  1.6144   1.6199   1.6286   1.6331   1.6439   1.6554   1.6682   1.6792
  1.6866   1.7098   1.7215   1.7591   1.7770   1.7913   1.7952   1.8019
  1.8046   1.8064   1.8133   1.8224   1.8310   1.8371   1.8589   1.8624
  1.8815   1.8946   1.9007   1.9146   1.9276   1.9362   1.9369   1.9495
  1.9563   1.9648   1.9676   1.9736   1.9881   1.9947   2.0043   2.0061
  2.0102   2.0153   2.0344   2.0443   2.0446   2.0541   2.0555   2.0633
  2.0753   2.0866   2.0956   2.1092   2.1253   2.1374   2.1385   2.1515
  2.1621   2.1719   2.1809   2.1882   2.1900   2.2170   2.2254   2.2392
  2.2429   2.2545   2.2610   2.2751   2.2818   2.2879   2.3036   2.3168
  2.3218   2.3407   2.3576   2.4013   2.4067   2.4082   2.4142   2.4187
  2.4244   2.4364   2.4432   2.4947   2.4991   2.5276   2.5367   2.5483
  2.5593   2.5715   2.5847   2.5887   2.5975   2.6079   2.6240   2.6316
  2.6388   2.6468   2.6486   2.6862   2.6943   2.7012   2.7080   2.7095
  2.7193   2.7356   2.7491   2.7612   2.7637   2.7768   2.7824   2.7953
  2.7997   2.8110   2.8147   2.8320   2.8390   2.8497   2.8602   2.8714
  2.8737   2.9064   2.9165   2.9216   2.9279   2.9309   2.9348   2.9441
  2.9488   2.9534   2.9686   2.9752   2.9844   2.9893   2.9931   3.0105
  3.0239   3.0288   3.0349   3.0394   3.0551   3.0592   3.0656   3.0794
  3.0835   3.1022   3.1052   3.1133   3.1255   3.1326   3.1532   3.1819
  3.1969   3.2057   3.2154   3.2235   3.2383   3.2409   3.2468   3.2490
  3.2586   3.2666   3.2899   3.2994   3.3076   3.3163   3.3372   3.3489
  3.3591   3.3680   3.3807   3.3836   3.3887   3.3979   3.4071   3.4166
  3.4256   3.4432   3.4506   3.4551   3.4591   3.4737   3.4760   3.4780
  3.4803   3.4855   3.4859   3.4961   3.5013   3.5090   3.5206   3.5317
  3.5348   3.5422   3.5451   3.5470   3.5544   3.5568   3.5640   3.5697
  3.5767   3.5839   3.5870   3.5947   3.6076   3.6120   3.6293   3.6303
  3.6381   3.6409   3.6547   3.6632   3.6727   3.6854   3.6952   3.7042
  3.7162   3.7307   3.7606   3.7705   3.7875   3.8163   3.8213   3.8408
  3.8521   3.8937   3.9100   3.9235   3.9289   3.9478   3.9539   3.9579
  3.9780   3.9954   4.0050   4.0327   4.0366   4.0594   4.0714   4.1222
  4.1429   4.2143   4.2168   4.2646   4.2699   4.2768   4.2856   4.2924
  4.2951   4.3025   4.3151   4.3254   4.3287   4.3302   4.3344   4.3441
  4.3457   4.3591   4.3612   4.3679   4.3846   4.3993   4.4070   4.4278
  4.4315   4.4366   4.4410   4.4776   4.4946   4.5213   4.5342   4.6059
  4.6148   4.6157   4.6317   4.7433   4.7493   4.7610   4.7862   4.8094
  4.8329   4.8719   4.8787   4.9189   4.9336   4.9538   4.9655   5.0198
  5.0272   5.0519   5.0614   5.1673   5.1834   5.2647   5.2682   5.3378
  5.3419   5.3533   5.3583   5.4852   5.4966   5.5241   5.5500   5.6620
  5.6739   5.8206   5.8536  22.6285  22.6713  22.6947  22.7030  22.8709
 22.8848  22.8954  22.9158  22.9894  23.0144  23.0507  23.0582  23.3835
 23.4097
 --------------------------------------------------------------
 
          Ground-State Mulliken Net Atomic Charges

     Atom                 Charge (a.u.)
  ----------------------------------------
      1 C                    -1.122219
      2 C                    -0.480270
      3 C                    -0.534907
      4 C                    -0.575876
      5 C                    -0.487192
      6 C                    -0.429567
      7 C                     0.801957
      8 H                     0.419883
      9 H                     0.397976
     10 H                     0.407159
     11 H                     0.413347
     12 H                     0.376219
     13 H                     0.289641
     14 H                     0.294583
     15 H                     0.253124
     16 C                    -1.090147
     17 C                    -0.387073
     18 C                     0.237735
     19 C                    -0.167898
     20 C                    -0.471138
     21 C                    -0.657448
     22 C                    -0.449673
     23 H                     0.442981
     24 H                     0.482116
     25 H                     0.304458
     26 H                     0.273317
     27 H                     0.397612
     28 H                     0.413786
     29 H                     0.397573
     30 H                     0.249943
  ----------------------------------------
  Sum of atomic charges =     0.000000

 -----------------------------------------------------------------
                    Cartesian Multipole Moments
 -----------------------------------------------------------------
    Charge (ESU x 10^10)
                 0.0000
    Dipole Moment (Debye)
         X      -0.1579      Y      -0.1044      Z       0.1932
       Tot       0.2704
    Quadrupole Moments (Debye-Ang)
        XX     -82.1882     XY       2.3145     YY     -84.0787
        XZ       2.3749     YZ       6.2848     ZZ     -73.8478
    Octopole Moments (Debye-Ang^2)
       XXX     -14.6969    XXY       7.4980    XYY      10.3456
       YYY       5.5477    XXZ      14.7820    XYZ     -17.9385
       YYZ     -12.7018    XZZ       3.6568    YZZ      22.0851
       ZZZ     -17.6213
    Hexadecapole Moments (Debye-Ang^3)
      XXXX    -737.4916   XXXY    -150.4343   XXYY    -221.1501
      XYYY    -145.3761   YYYY    -655.0600   XXXZ     415.6157
      XXYZ      -9.3688   XYYZ     119.3654   YYYZ       3.6729
      XXZZ   -1007.4363   XYZZ     -41.6377   YYZZ    -996.5642
      XZZZ     407.1754   YZZZ      49.9104   ZZZZ   -4867.5844
 -----------------------------------------------------------------
Archival summary:
1\1\nid00529\SP\ProcedureUnspecified\BasisUnspecified\1416\meili\MonSep2700:42:212021MonSep2700:42:212021\0\\#,ProcedureUnspecified,BasisUnspecified,\\0,1\C\H,1,1.0782\C,1,1.39831,2,119.803\H,3,1.08208,1,119.875,2,-0.442194,0\C,1,1.40679,2,119.77,3,179.017,0\C,5,1.39514,1,119.51,2,-179.386,0\H,6,1.07624,5,118.644,1,-176.741,0\C,6,1.39723,5,120.639,1,0.393535,0\H,8,1.08127,6,120.022,5,-179.077,0\C,8,1.40817,6,119.978,5,-0.100422,0\H,10,1.08228,8,120.16,6,-179.97,0\C,5,1.50273,1,120.644,2,-2.19107,0\H,12,1.08918,5,106.659,1,47.3828,0\H,12,1.09124,5,110.292,1,163.966,0\H,12,1.1,5,113.419,1,-72.4861,0\H,2,2.25193,1,151.496,3,31.8892,0\C,16,1.07762,2,116.806,1,-27.061,0\C,17,1.4039,16,120.031,2,120.213,0\H,18,1.08093,17,119.839,16,-1.01288,0\C,18,1.39974,17,120.442,16,179.861,0\H,20,1.08111,18,119.967,17,179.103,0\C,17,1.4066,16,120.29,2,-59.8002,0\H,22,1.0822,17,120.232,16,0.172012,0\C,22,1.40539,17,119.498,16,179.93,0\H,24,1.08144,22,119.146,17,-179.502,0\C,24,1.39569,22,120.921,17,-0.0502397,0\C,26,1.5064,24,119.45,22,-179.011,0\H,27,1.07505,26,109.267,24,137.298,0\H,27,1.09127,26,107.679,24,23.9025,0\H,27,1.1,26,114.774,24,-95.9788,0\\\@

 Total job time:  82822.64s(wall), 54428.22s(cpu) 
 Mon Sep 27 00:42:25 2021

        *************************************************************
        *                                                           *
        *  Thank you very much for using Q-Chem.  Have a nice day.  *
        *                                                           *
        *************************************************************


