                  Welcome to Q-Chem
     A Quantum Leap Into The Future Of Chemistry


 Q-Chem 5.2 (devel), Q-Chem, Inc., Pleasanton, CA (2019)

 Yihan Shao,  Zhengting Gan,  E. Epifanovsky,  A. T. B. Gilbert,  M. Wormit,  
 J. Kussmann,  A. W. Lange,  A. Behn,  Jia Deng,  Xintian Feng,  D. Ghosh,  
 M. Goldey,  P. R. Horn,  L. D. Jacobson,  I. Kaliman,  T. Kus,  A. Landau,  
 Jie Liu,  E. I. Proynov,  R. M. Richard,  R. P. Steele,  E. J. Sundstrom,  
 H. L. Woodcock III,  P. M. Zimmerman,  D. Zuev,  B. Albrecht,  E. Alguire,  
 S. A. Baeppler,  D. Barton,  Z. Benda,  Y. A. Bernard,  E. J. Berquist,  
 K. B. Bravaya,  H. Burton,  D. Casanova,  Chun-Min Chang,  Yunqing Chen,  
 A. Chien,  K. D. Closser,  M. P. Coons,  S. Coriani,  S. Dasgupta,  
 A. L. Dempwolff,  M. Diedenhofen,  Hainam Do,  R. G. Edgar,  Po-Tung Fang,  
 S. Faraji,  S. Fatehi,  Qingguo Feng,  K. D. Fenk,  J. Fosso-Tande,  
 J. Gayvert,  Qinghui Ge,  A. Ghysels,  G. Gidofalvi,  J. Gomes,  
 J. Gonthier,  A. Gunina,  D. Hait,  M. W. D. Hanson-Heine,  
 P. H. P. Harbach,  A. W. Hauser,  M. F. Herbst,  J. E. Herr,  
 E. G. Hohenstein,  Z. C. Holden,  Kerwin Hui,  B. C. Huynh,  T.-C. Jagau,  
 Hyunjun Ji,  B. Kaduk,  K. Khistyaev,  Jaehoon Kim,  P. Klunzinger,  K. Koh,  
 D. Kosenkov,  L. Koulias,  T. Kowalczyk,  C. M. Krauter,  A. Kunitsa,  
 Ka Un Lao,  A. Laurent,  K. V. Lawler,  Joonho Lee,  D. Lefrancois,  
 S. Lehtola,  D. S. Levine,  Yi-Pei Li,  You-Sheng Lin,  Fenglai Liu,  
 E. Livshits,  A. Luenser,  P. Manohar,  E. Mansoor,  S. F. Manzer,  
 Shan-Ping Mao,  Yuezhi Mao,  N. Mardirossian,  A. V. Marenich,  
 T. Markovich,  L. A. Martinez-Martinez,  S. A. Maurer,  N. J. Mayhall,  
 S. C. McKenzie,  J.-M. Mewes,  P. Morgante,  A. F. Morrison,  
 J. W. Mullinax,  K. Nanda,  T. S. Nguyen-Beck,  R. Olivares-Amaya,  
 J. A. Parkhill,  Zheng Pei,  T. M. Perrine,  F. Plasser,  P. Pokhilko,  
 S. Prager,  A. Prociuk,  E. Ramos,  D. R. Rehn,  F. Rob,  M. Scheurer,  
 M. Schneider,  N. Sergueev,  S. M. Sharada,  S. Sharma,  D. W. Small,  
 T. Stauch,  T. Stein,  Yu-Chuan Su,  A. J. W. Thom,  A. Tkatchenko,  
 T. Tsuchimochi,  N. M. Tubman,  L. Vogt,  M. L. Vidal,  O. Vydrov,  
 M. A. Watson,  J. Wenzel,  M. de Wergifosse,  T. A. Wesolowski,  A. White,  
 J. Witte,  A. Yamada,  Jun Yang,  K. Yao,  S. Yeganeh,  S. R. Yost,  
 Zhi-Qiang You,  A. Zech,  Igor Ying Zhang,  Xing Zhang,  Yan Zhao,  
 Ying Zhu,  B. R. Brooks,  G. K. L. Chan,  C. J. Cramer,  M. S. Gordon,  
 W. J. Hehre,  A. Klamt,  M. W. Schmidt,  C. D. Sherrill,  D. G. Truhlar,  
 A. Aspuru-Guzik,  R. Baer,  A. T. Bell,  N. A. Besley,  Jeng-Da Chai,  
 A. E. DePrince, III,  R. A. DiStasio Jr.,  A. Dreuw,  B. D. Dunietz,  
 T. R. Furlani,  Chao-Ping Hsu,  Yousung Jung,  Jing Kong,  D. S. Lambrecht,  
 WanZhen Liang,  C. Ochsenfeld,  V. A. Rassolov,  L. V. Slipchenko,  
 J. E. Subotnik,  T. Van Voorhis,  J. M. Herbert,  A. I. Krylov,  
 P. M. W. Gill,  M. Head-Gordon

 Contributors to earlier versions of Q-Chem not listed above: 
 R. D. Adamson,  B. Austin,  J. Baker,  G. J. O. Beran,  K. Brandhorst,  
 S. T. Brown,  E. F. C. Byrd,  A. K. Chakraborty,  C.-L. Cheng,  
 Siu Hung Chien,  D. M. Chipman,  D. L. Crittenden,  H. Dachsel,  
 R. J. Doerksen,  A. D. Dutoi,  L. Fusti-Molnar,  W. A. Goddard III,  
 A. Golubeva-Zadorozhnaya,  S. R. Gwaltney,  G. Hawkins,  A. Heyden,  
 S. Hirata,  G. Kedziora,  F. J. Keil,  C. Kelley,  Jihan Kim,  R. A. King,  
 R. Z. Khaliullin,  P. P. Korambath,  W. Kurlancheek,  A. M. Lee,  M. S. Lee,  
 S. V. Levchenko,  Ching Yeh Lin,  D. Liotard,  R. C. Lochan,  I. Lotan,  
 P. E. Maslen,  N. Nair,  D. P. O'Neill,  D. Neuhauser,  E. Neuscamman,  
 C. M. Oana,  R. Olson,  B. Peters,  R. Peverati,  P. A. Pieniazek,  
 Y. M. Rhee,  J. Ritchie,  M. A. Rohrdanz,  E. Rosta,  N. J. Russ,  
 H. F. Schaefer III,  N. E. Schultz,  N. Shenvi,  A. C. Simmonett,  A. Sodt,  
 D. Stuck,  K. S. Thanthiriwatte,  V. Vanovschi,  Tao Wang,  A. Warshel,  
 C. F. Williams,  Q. Wu,  X. Xu,  W. Zhang

 Please cite Q-Chem as follows:
 Y. Shao et al., Mol. Phys. 113, 184-215 (2015)
 DOI: 10.1080/00268976.2014.952696

 Q-Chem 5.2.1 for Intel X86 EM64T Linux

 Parts of Q-Chem use Armadillo 8.300.2 (Tropical Shenanigans).
 http://arma.sourceforge.net/

 Q-Chem begins on Tue Sep 28 10:13:11 2021  

compute-0-0.local
Host: 0

     Scratch files written to /home/meili/scratch/qchem50547//
NAlpha2: 110
NElect   110
Mult     1
Symmetry turned off for PCM/SM12/SMD calculation

 Q-Chem warning in module libgen/rem_setup.C, line 2813:

 Neither GIA nor STOLL is specified by user. Use STOLL as the default


Checking the input file for inconsistencies... 	...done.

--------------------------------------------------------------
User input:
--------------------------------------------------------------
$comment
SSI-003TYR-096HIE-1.pdb
$end

$molecule
0 1
--
0 1
C    3.259309868442    0.543579652784   -2.150321657189
C   -0.954690131558    1.066579652784   -1.279321657189
C   -0.026690131558    2.016579652784   -0.846321657189
C   -0.515690131558   -0.050420347216   -1.990321657189
C    1.339309868442    1.846579652784   -1.133321657189
C    0.847309868442   -0.210420347216   -2.269321657189
C    1.788309868442    0.731579652784   -1.842321657189
O   -2.289690131558    1.213579652784   -1.003321657189
H   -0.358690131558    2.883579652784   -0.295321657189
H   -2.460690131558    1.978579652784   -0.442321657189
H   -1.231690131558   -0.788420347216   -2.321321657189
H    2.048309868442    2.590579652784   -0.795321657189
H    1.173309868442   -1.081420347216   -2.824321657189
H    3.654309868442    1.444579652784   -2.622321657189
H    3.332309868442   -0.260420347216   -2.878321657189
H    3.871449868442    0.276619652784   -1.276242657189
--
0 1
C   -2.122690131558   -1.393420347216    1.273678342811
C   -2.566690131558   -2.486420347216    2.245678342811
C   -0.718690131558   -0.960420347216    1.483678342811
C    0.449309868442   -1.544420347216    1.113678342811
C    0.907309868442    0.149579652784    2.236678342811
N   -0.394690131558    0.111579652784    2.209678342811
N    1.465309868442   -0.758420347216    1.573678342811
H   -2.201690131558   -1.772420347216    0.253678342811
H   -2.782690131558   -0.529420347216    1.357678342811
H   -1.872690131558   -3.326420347216    2.195678342811
H    0.546309868442   -2.459420347216    0.542678342811
H    1.347309868442    0.107579652784    3.232678342811
H    2.455309868442   -0.971420347216    1.623678342811
H   -3.570540131558   -2.811190347216    1.934531142811
H   -2.558020131558   -2.088510347216    3.271149542811
$end

$rem
JOBTYPE			EDA
EDA2			1
method			wB97X-V
BASIS			def2-TZVPD
XC_GRID			000099000590
NL_GRID			1
UNRESTRICTED		FALSE
MAX_SCF_CYCLES		200
SYMMETRY		FALSE
SYM_IGNORE		TRUE
MEM_STATIC		2000
BASIS_LIN_DEP_THRESH 	6
THRESH 			14
SCF_CONVERGENCE 	8
SCF_PRINT_FRGM 		TRUE
SOLVENT_METHOD          SMD
$end

$SMX
SOLVENT			WATER
$END
--------------------------------------------------------------
 ----------------------------------------------------------------
             Standard Nuclear Orientation (Angstroms)
    I     Atom           X                Y                Z
 ----------------------------------------------------------------
    1      C       3.2593098684     0.5435796528    -2.1503216572
    2      C      -0.9546901316     1.0665796528    -1.2793216572
    3      C      -0.0266901316     2.0165796528    -0.8463216572
    4      C      -0.5156901316    -0.0504203472    -1.9903216572
    5      C       1.3393098684     1.8465796528    -1.1333216572
    6      C       0.8473098684    -0.2104203472    -2.2693216572
    7      C       1.7883098684     0.7315796528    -1.8423216572
    8      O      -2.2896901316     1.2135796528    -1.0033216572
    9      H      -0.3586901316     2.8835796528    -0.2953216572
   10      H      -2.4606901316     1.9785796528    -0.4423216572
   11      H      -1.2316901316    -0.7884203472    -2.3213216572
   12      H       2.0483098684     2.5905796528    -0.7953216572
   13      H       1.1733098684    -1.0814203472    -2.8243216572
   14      H       3.6543098684     1.4445796528    -2.6223216572
   15      H       3.3323098684    -0.2604203472    -2.8783216572
   16      H       3.8714498684     0.2766196528    -1.2762426572
   17      C      -2.1226901316    -1.3934203472     1.2736783428
   18      C      -2.5666901316    -2.4864203472     2.2456783428
   19      C      -0.7186901316    -0.9604203472     1.4836783428
   20      C       0.4493098684    -1.5444203472     1.1136783428
   21      C       0.9073098684     0.1495796528     2.2366783428
   22      N      -0.3946901316     0.1115796528     2.2096783428
   23      N       1.4653098684    -0.7584203472     1.5736783428
   24      H      -2.2016901316    -1.7724203472     0.2536783428
   25      H      -2.7826901316    -0.5294203472     1.3576783428
   26      H      -1.8726901316    -3.3264203472     2.1956783428
   27      H       0.5463098684    -2.4594203472     0.5426783428
   28      H       1.3473098684     0.1075796528     3.2326783428
   29      H       2.4553098684    -0.9714203472     1.6236783428
   30      H      -3.5705401316    -2.8111903472     1.9345311428
   31      H      -2.5580201316    -2.0885103472     3.2711495428
 ----------------------------------------------------------------
 Nuclear Repulsion Energy =         989.82376089 hartrees
 There are       55 alpha and       55 beta electrons
 Requested basis set is def2-TZVPD
 There are 276 shells and 702 basis functions

 Total QAlloc Memory Limit   2000 MB
 Mega-Array Size      1956 MB
 MEM_STATIC part      2000 MB

 Citation of the SMD model:
 Marenich, A.V.; Cramer, C.J.; Truhlar, D.G.
 J. Phys. Chem. B 2009, 113, 6378-6396.
 iSolventCode=           1
 Solvent: water                                                           

 vradii
            1           2           3           4           5           6
    1   1.8500000   1.8500000   1.8500000   1.8500000   1.8500000   1.8500000
            7           8           9          10          11          12
    1   1.8500000   1.5200000   1.2000000   1.2000000   1.2000000   1.2000000
           13          14          15          16          17          18
    1   1.2000000   1.2000000   1.2000000   1.2000000   1.8500000   1.8500000
           19          20          21          22          23          24
    1   1.8500000   1.8500000   1.8500000   1.8900000   1.8900000   1.2000000
           25          26          27          28          29          30
    1   1.2000000   1.2000000   1.2000000   1.2000000   1.2000000   1.2000000
           31
    1   1.2000000
 Changing PCM_VDW_RADII to SMD_RADIUS
 Discretize the solute cavity surface with Lebedev spheres
	Using 110 Lebedev grid points for each H atom
	Using 194 Lebedev grid points for other atoms
	Atomic van der Waals radii will be scaled by 1.20
 Remove points where switching function is < 1.0e-08
 Keep 2282 surface tesserae and discard 2388 interior tesserae
 Molecular Surface Area = 268.534 Angst**2
 A cutoff of  1.0D-14 yielded  33838 shell pairs
 There are    222928 function pairs (    283383 Cartesian)
 Smallest overlap matrix eigenvalue = 4.43E-07
 Linear dependence detected in AO basis
 Tighter screening thresholds may be required for diffuse basis sets
 Use S2THRESH > 14 and THRESH = 14 in case of SCF convergence issues
 Number of orthogonalized atomic orbitals = 699
 Maximum deviation from orthogonality = 2.852E-10

 Scale SEOQF with 1.000000e-01/1.000000e-01/1.000000e-01

 Standard Electronic Orientation quadrupole field applied
 Nucleus-field energy     =    -0.0000000103 hartrees

 -----------------------------------------------------------------------
  General SCF calculation program by
  Eric Jon Sundstrom, Paul Horn, Yuezhi Mao, Dmitri Zuev, Alec White,
  David Stuck, Shaama M.S., Shane Yost, Joonho Lee, David Small,
  Daniel Levine, Susi Lehtola, Hugh Burton, Evgeny Epifanovsky,
  Bang C. Huynh
 -----------------------------------------------------------------------
================================================================
                 ALMO-EDA with the EDA2 driver                  
================================================================
 The second-generation ALMO-EDA (for DFT):                      
 P. R. Horn, Y. Mao and M. Head-Gordon, PCCP, 18, 23067 (2016)  
 Decomposition of the frozen energy:                            
 P. R. Horn, Y. Mao and M. Head-Gordon, JCP, 144, 114107 (2016) 
 FERF model for polarization:                                   
 P. R. Horn and M. Head-Gordon, JCP, 143, 114111 (2015)         
Using eda2 option set 1
Option set summary: Frozen orbital wavefunction, initial wavefunction decomposition, and nDQ polarization.
--------------------------------
Printing EDA Options
--------------------------------
eda_child_super_basis      0
fragmo_guess_mode          0
child_mp                   1
child_mp_orders            232
cls_elec                   1
cls_disp                   0
scfmi_mode                 1
scfmi_occs                 0
scfmi_virts                0
frz_relax                  0
frz_relax_method           0
dc_pen_start               0
dc_pen_conv                0
dc_pen_increment           0
dc_pen_steps               0
dc_pen_thresh_factor       0
dc_pen_pre_newton_thresh   0
frz_ortho_decomp           1
frz_ortho_decomp_conv      6
frgm_method                2
scfmi_freeze_ss            0
separate_rehyb             0
plot_diff_den              0
eda_nocv                   0
eda_vct_relax              1
disp_free_x                0
disp_free_c                0
eda_bsse                   0
eda_pct_a                  0
eda_covp                   0
--------------------------------
Attempting to make child job directory: /home/meili/scratch/qchem50547//Frg1/
Attempting to make child job directory: /home/meili/scratch/qchem50547//Frg2/
Creating input file /home/meili/scratch/qchem50547/Frg1.input
using default PutDataFrgm: nothing
calling putenv with: QCSCRATCH=/home/meili/scratch/qchem50547/ 
Spawning Job For Fragment 0
                  Welcome to Q-Chem
     A Quantum Leap Into The Future Of Chemistry


 Q-Chem 5.2 (devel), Q-Chem, Inc., Pleasanton, CA (2019)

 Yihan Shao,  Zhengting Gan,  E. Epifanovsky,  A. T. B. Gilbert,  M. Wormit,  
 J. Kussmann,  A. W. Lange,  A. Behn,  Jia Deng,  Xintian Feng,  D. Ghosh,  
 M. Goldey,  P. R. Horn,  L. D. Jacobson,  I. Kaliman,  T. Kus,  A. Landau,  
 Jie Liu,  E. I. Proynov,  R. M. Richard,  R. P. Steele,  E. J. Sundstrom,  
 H. L. Woodcock III,  P. M. Zimmerman,  D. Zuev,  B. Albrecht,  E. Alguire,  
 S. A. Baeppler,  D. Barton,  Z. Benda,  Y. A. Bernard,  E. J. Berquist,  
 K. B. Bravaya,  H. Burton,  D. Casanova,  Chun-Min Chang,  Yunqing Chen,  
 A. Chien,  K. D. Closser,  M. P. Coons,  S. Coriani,  S. Dasgupta,  
 A. L. Dempwolff,  M. Diedenhofen,  Hainam Do,  R. G. Edgar,  Po-Tung Fang,  
 S. Faraji,  S. Fatehi,  Qingguo Feng,  K. D. Fenk,  J. Fosso-Tande,  
 J. Gayvert,  Qinghui Ge,  A. Ghysels,  G. Gidofalvi,  J. Gomes,  
 J. Gonthier,  A. Gunina,  D. Hait,  M. W. D. Hanson-Heine,  
 P. H. P. Harbach,  A. W. Hauser,  M. F. Herbst,  J. E. Herr,  
 E. G. Hohenstein,  Z. C. Holden,  Kerwin Hui,  B. C. Huynh,  T.-C. Jagau,  
 Hyunjun Ji,  B. Kaduk,  K. Khistyaev,  Jaehoon Kim,  P. Klunzinger,  K. Koh,  
 D. Kosenkov,  L. Koulias,  T. Kowalczyk,  C. M. Krauter,  A. Kunitsa,  
 Ka Un Lao,  A. Laurent,  K. V. Lawler,  Joonho Lee,  D. Lefrancois,  
 S. Lehtola,  D. S. Levine,  Yi-Pei Li,  You-Sheng Lin,  Fenglai Liu,  
 E. Livshits,  A. Luenser,  P. Manohar,  E. Mansoor,  S. F. Manzer,  
 Shan-Ping Mao,  Yuezhi Mao,  N. Mardirossian,  A. V. Marenich,  
 T. Markovich,  L. A. Martinez-Martinez,  S. A. Maurer,  N. J. Mayhall,  
 S. C. McKenzie,  J.-M. Mewes,  P. Morgante,  A. F. Morrison,  
 J. W. Mullinax,  K. Nanda,  T. S. Nguyen-Beck,  R. Olivares-Amaya,  
 J. A. Parkhill,  Zheng Pei,  T. M. Perrine,  F. Plasser,  P. Pokhilko,  
 S. Prager,  A. Prociuk,  E. Ramos,  D. R. Rehn,  F. Rob,  M. Scheurer,  
 M. Schneider,  N. Sergueev,  S. M. Sharada,  S. Sharma,  D. W. Small,  
 T. Stauch,  T. Stein,  Yu-Chuan Su,  A. J. W. Thom,  A. Tkatchenko,  
 T. Tsuchimochi,  N. M. Tubman,  L. Vogt,  M. L. Vidal,  O. Vydrov,  
 M. A. Watson,  J. Wenzel,  M. de Wergifosse,  T. A. Wesolowski,  A. White,  
 J. Witte,  A. Yamada,  Jun Yang,  K. Yao,  S. Yeganeh,  S. R. Yost,  
 Zhi-Qiang You,  A. Zech,  Igor Ying Zhang,  Xing Zhang,  Yan Zhao,  
 Ying Zhu,  B. R. Brooks,  G. K. L. Chan,  C. J. Cramer,  M. S. Gordon,  
 W. J. Hehre,  A. Klamt,  M. W. Schmidt,  C. D. Sherrill,  D. G. Truhlar,  
 A. Aspuru-Guzik,  R. Baer,  A. T. Bell,  N. A. Besley,  Jeng-Da Chai,  
 A. E. DePrince, III,  R. A. DiStasio Jr.,  A. Dreuw,  B. D. Dunietz,  
 T. R. Furlani,  Chao-Ping Hsu,  Yousung Jung,  Jing Kong,  D. S. Lambrecht,  
 WanZhen Liang,  C. Ochsenfeld,  V. A. Rassolov,  L. V. Slipchenko,  
 J. E. Subotnik,  T. Van Voorhis,  J. M. Herbert,  A. I. Krylov,  
 P. M. W. Gill,  M. Head-Gordon

 Contributors to earlier versions of Q-Chem not listed above: 
 R. D. Adamson,  B. Austin,  J. Baker,  G. J. O. Beran,  K. Brandhorst,  
 S. T. Brown,  E. F. C. Byrd,  A. K. Chakraborty,  C.-L. Cheng,  
 Siu Hung Chien,  D. M. Chipman,  D. L. Crittenden,  H. Dachsel,  
 R. J. Doerksen,  A. D. Dutoi,  L. Fusti-Molnar,  W. A. Goddard III,  
 A. Golubeva-Zadorozhnaya,  S. R. Gwaltney,  G. Hawkins,  A. Heyden,  
 S. Hirata,  G. Kedziora,  F. J. Keil,  C. Kelley,  Jihan Kim,  R. A. King,  
 R. Z. Khaliullin,  P. P. Korambath,  W. Kurlancheek,  A. M. Lee,  M. S. Lee,  
 S. V. Levchenko,  Ching Yeh Lin,  D. Liotard,  R. C. Lochan,  I. Lotan,  
 P. E. Maslen,  N. Nair,  D. P. O'Neill,  D. Neuhauser,  E. Neuscamman,  
 C. M. Oana,  R. Olson,  B. Peters,  R. Peverati,  P. A. Pieniazek,  
 Y. M. Rhee,  J. Ritchie,  M. A. Rohrdanz,  E. Rosta,  N. J. Russ,  
 H. F. Schaefer III,  N. E. Schultz,  N. Shenvi,  A. C. Simmonett,  A. Sodt,  
 D. Stuck,  K. S. Thanthiriwatte,  V. Vanovschi,  Tao Wang,  A. Warshel,  
 C. F. Williams,  Q. Wu,  X. Xu,  W. Zhang

 Please cite Q-Chem as follows:
 Y. Shao et al., Mol. Phys. 113, 184-215 (2015)
 DOI: 10.1080/00268976.2014.952696

 Q-Chem 5.2.1 for Intel X86 EM64T Linux

 Parts of Q-Chem use Armadillo 8.300.2 (Tropical Shenanigans).
 http://arma.sourceforge.net/

 Q-Chem begins on Tue Sep 28 10:15:16 2021  

compute-0-0.local
Host: 0

     Scratch files written to /home/meili/scratch/qchem50547//Frg1//
NAlpha2: 58
NElect   58
Mult     1
Symmetry turned off for PCM/SM12/SMD calculation

Checking the input file for inconsistencies... 	...done.

--------------------------------------------------------------
User input:
--------------------------------------------------------------
$molecule
0 1
 6	3.2593098684	0.5435796528	-2.1503216572
 6	-0.9546901316	1.0665796528	-1.2793216572
 6	-0.0266901316	2.0165796528	-0.8463216572
 6	-0.5156901316	-0.0504203472	-1.9903216572
 6	1.3393098684	1.8465796528	-1.1333216572
 6	0.8473098684	-0.2104203472	-2.2693216572
 6	1.7883098684	0.7315796528	-1.8423216572
 8	-2.2896901316	1.2135796528	-1.0033216572
 1	-0.3586901316	2.8835796528	-0.2953216572
 1	-2.4606901316	1.9785796528	-0.4423216572
 1	-1.2316901316	-0.7884203472	-2.3213216572
 1	2.0483098684	2.5905796528	-0.7953216572
 1	1.1733098684	-1.0814203472	-2.8243216572
 1	3.6543098684	1.4445796528	-2.6223216572
 1	3.3323098684	-0.2604203472	-2.8783216572
 1	3.8714498684	0.2766196528	-1.2762426572
$end
$rem
EDA2		1
METHOD		WB97X-V
BASIS		DEF2-TZVPD
XC_GRID		000099000590
NL_GRID		1
UNRESTRICTED		FALSE
MAX_SCF_CYCLES		200
SYMMETRY		FALSE
SYM_IGNORE		TRUE
BASIS_LIN_DEP_THRESH		6
THRESH		14
SCF_CONVERGENCE		8
SCF_PRINT_FRGM		TRUE
SOLVENT_METHOD		SMD
!required keywords
JOBTYPE		SP
SYM_IGNORE		TRUE
SUBSYSTEM		TRUE
GEN_SCFMAN		TRUE
CHILD_INSTRUCTION		2
SYM_IGNORE		TRUE
SCFMI		0
RI_K 0		
PARI_K 0		
MIN_PARI_K 0		
IARI_K 0		
OCC_RI_K 0		
PURECART		1111
MEM_STATIC		2000
MEM_TOTAL		2000
GUI		0
CHILD_MP		1
CHILD_MP_ORDERS		232
FRZ_RELAX		0
FRZ_RELAX_METHOD		0
EDA_CLS_ELEC		1
EDA_CLS_DISP		0
FRZ_ORTHO_DECOMP		1
EDA2		FALSE
FRGM_METHOD		FALSE
CIS_N_ROOTS  0
LOCAL_CIS    0
CIS_RLX_DNS  1
$end
$smx
SOLVENT			WATER
$end
--------------------------------------------------------------
 ----------------------------------------------------------------
             Standard Nuclear Orientation (Angstroms)
    I     Atom           X                Y                Z
 ----------------------------------------------------------------
    1      C       3.2593098684     0.5435796528    -2.1503216572
    2      C      -0.9546901316     1.0665796528    -1.2793216572
    3      C      -0.0266901316     2.0165796528    -0.8463216572
    4      C      -0.5156901316    -0.0504203472    -1.9903216572
    5      C       1.3393098684     1.8465796528    -1.1333216572
    6      C       0.8473098684    -0.2104203472    -2.2693216572
    7      C       1.7883098684     0.7315796528    -1.8423216572
    8      O      -2.2896901316     1.2135796528    -1.0033216572
    9      H      -0.3586901316     2.8835796528    -0.2953216572
   10      H      -2.4606901316     1.9785796528    -0.4423216572
   11      H      -1.2316901316    -0.7884203472    -2.3213216572
   12      H       2.0483098684     2.5905796528    -0.7953216572
   13      H       1.1733098684    -1.0814203472    -2.8243216572
   14      H       3.6543098684     1.4445796528    -2.6223216572
   15      H       3.3323098684    -0.2604203472    -2.8783216572
   16      H       3.8714498684     0.2766196528    -1.2762426572
 ----------------------------------------------------------------
 Nuclear Repulsion Energy =         341.69092701 hartrees
 There are       29 alpha and       29 beta electrons
 Requested basis set is def2-TZVPD
 There are 145 shells and 371 basis functions

 Total QAlloc Memory Limit   2000 MB
 Mega-Array Size      1956 MB
 MEM_STATIC part      2000 MB

 Citation of the SMD model:
 Marenich, A.V.; Cramer, C.J.; Truhlar, D.G.
 J. Phys. Chem. B 2009, 113, 6378-6396.
 iSolventCode=           1
 Solvent: water                                                           

 vradii
            1           2           3           4           5           6
    1   1.8500000   1.8500000   1.8500000   1.8500000   1.8500000   1.8500000
            7           8           9          10          11          12
    1   1.8500000   1.5200000   1.2000000   1.2000000   1.2000000   1.2000000
           13          14          15          16
    1   1.2000000   1.2000000   1.2000000   1.2000000
 Changing PCM_VDW_RADII to SMD_RADIUS
 Discretize the solute cavity surface with Lebedev spheres
	Using 110 Lebedev grid points for each H atom
	Using 194 Lebedev grid points for other atoms
	Atomic van der Waals radii will be scaled by 1.20
 Remove points where switching function is < 1.0e-08
 Keep 1201 surface tesserae and discard 1231 interior tesserae
 Molecular Surface Area = 142.152 Angst**2
 A cutoff of  1.0D-14 yielded  10040 shell pairs
 There are     67050 function pairs (     85737 Cartesian)
 Smallest overlap matrix eigenvalue = 5.82E-07
 Linear dependence detected in AO basis
 Tighter screening thresholds may be required for diffuse basis sets
 Use S2THRESH > 14 and THRESH = 14 in case of SCF convergence issues
 Number of orthogonalized atomic orbitals = 370
 Maximum deviation from orthogonality = 2.568E-10

 Scale SEOQF with 1.000000e-01/1.000000e-01/1.000000e-01

 Standard Electronic Orientation quadrupole field applied
 Nucleus-field energy     =    -0.0000000039 hartrees
 Guess from superposition of atomic densities
 Warning:  Energy on first SCF cycle will be non-variational
 SAD guess density has 58.000000 electrons

 -----------------------------------------------------------------------
  General SCF calculation program by
  Eric Jon Sundstrom, Paul Horn, Yuezhi Mao, Dmitri Zuev, Alec White,
  David Stuck, Shaama M.S., Shane Yost, Joonho Lee, David Small,
  Daniel Levine, Susi Lehtola, Hugh Burton, Evgeny Epifanovsky,
  Bang C. Huynh
 -----------------------------------------------------------------------
 Exchange:     0.1670 Hartree-Fock + 1.0000 wB97X-V + LR-HF
 Correlation:  1.0000 wB97X-V
 Using Euler-Maclaurin-Lebedev (99,590) quadrature formula
 Nonlocal Correlation:  VV10 with C = 0.0100 and b = 6.00 and scale = 1.00000
 Grid used for NLC:  SG-1 standard quadrature
Energy prior to optimization (guess energy) = -346.733617333703
Begin Timing: Total SCF Calculation
begin iterations for algorithm: DIIS         
the SCF tolerance is set to 1.00e-08
    1    -346.7336173337      2.18e-03     00000 
    2    -346.7840769356      1.74e-03     00000 
    3    -346.8239401725      3.13e-04     00000 
    4    -346.8258086524      1.32e-04     00000 
    5    -346.8262252884      3.89e-05     00000 
    6    -346.8262590000      1.26e-05     00000 
    7    -346.8262626827      5.56e-06     00000 
    8    -346.8262634391      1.23e-06     00000 
    9    -346.8262635178      5.34e-07     00000 
   10    -346.8262635319      2.63e-07     00000 
   11    -346.8262635356      6.93e-08     00000 
   12    -346.8262635360      2.68e-08     00000 
   13    -346.8262635361      1.03e-08     00000 
   14    -346.8262635361      2.89e-09     00000 Convergence criterion met
Timing for Total SCF: 719.00s (wall), 5156.16s (cpu)
(3)  G-ENP(liq) elect-nuc-pol free energy of system     -346.826263536 a.u.
(4)  G-CDS(liq) cavity-dispersion-solvent structure 
     free energy                                                3.7728 kcal/mol
(6)  G-S(liq) free energy of system                     -346.820251255 a.u.
E_pcm = -0.0174821717
E_cds = 0.0060122812
Multipole orders to be included
        2
        3
computing dipole RHS
computing quadrupole RHS
total number of RHS in solve_reponses: 8
RHS batch sizes
        8
Beginning Block Conjugate Gradient Iterations. Batch Number: 0
computing hessian-vector products by finite difference
              1      6.71e-01     00000 Conjugate Gradient Iteration
computing hessian-vector products by finite difference
              2      1.96e-01     00000 Conjugate Gradient Iteration
computing hessian-vector products by finite difference
              3      5.04e-02     00000 Conjugate Gradient Iteration
computing hessian-vector products by finite difference
              4      1.55e-02     00000 Conjugate Gradient Iteration
computing hessian-vector products by finite difference
              5      4.30e-03     00000 Conjugate Gradient Iteration
computing hessian-vector products by finite difference
              6      1.77e-03     00000 Conjugate Gradient Iteration
computing hessian-vector products by finite difference
              7      4.15e-04     00000 Conjugate Gradient Iteration
computing hessian-vector products by finite difference
              8      8.22e-05     00000 Conjugate Gradient Iteration
computing hessian-vector products by finite difference
              9      1.57e-05     00000 Conjugate Gradient Iteration
computing hessian-vector products by finite difference
             10      2.23e-06     00000 Conjugate Gradient Iteration
computing hessian-vector products by finite difference
             11      3.29e-07     00000 Conjugate Gradient Iteration
computing hessian-vector products by finite difference
             12      6.26e-08     00000 Conjugate Gradient Iteration
computing hessian-vector products by finite difference
             13      9.83e-09     00000 CG Converged
batch 0 complete
Done Calculating Responses
TESTING ORTHOGONALIZATION OF MULTIPOLE BASIS
Multipole virts passed orthogonality test
Virts Per Order
           87
          145

 --------------------------------------------------------------

                    Orbital Energies (a.u.)
 --------------------------------------------------------------

 Alpha MOs
 -- Occupied --
-19.2404 -10.3330 -10.2732 -10.2707 -10.2705 -10.2687 -10.2679 -10.2535
 -1.1871  -0.9887  -0.8956  -0.8765  -0.8043  -0.7421  -0.7076  -0.6585
 -0.5956  -0.5735  -0.5451  -0.5358  -0.5252  -0.5153  -0.5046  -0.4716
 -0.4489  -0.4394  -0.4350  -0.3476  -0.3114
 -- Virtual --
  0.0617   0.0635   0.0743   0.0814   0.0890   0.0995   0.1141   0.1157
  0.1185   0.1366   0.1507   0.1564   0.1613   0.1770   0.1842   0.1975
  0.2069   0.2084   0.2198   0.2318   0.2389   0.2444   0.2532   0.2599
  0.2674   0.2747   0.2795   0.2826   0.2845   0.2997   0.3006   0.3075
  0.3094   0.3120   0.3175   0.3289   0.3367   0.3461   0.3486   0.3554
  0.3601   0.3617   0.3676   0.3758   0.3790   0.3843   0.3875   0.3970
  0.3987   0.4007   0.4041   0.4101   0.4167   0.4225   0.4313   0.4370
  0.4376   0.4590   0.4604   0.4673   0.4768   0.4823   0.4829   0.4853
  0.4936   0.4974   0.5028   0.5054   0.5142   0.5186   0.5364   0.5386
  0.5421   0.5520   0.5553   0.5584   0.5645   0.5761   0.5781   0.5971
  0.6032   0.6121   0.6144   0.6293   0.6438   0.6621   0.6670   0.6720
  0.6827   0.6859   0.6965   0.7005   0.7026   0.7091   0.7224   0.7338
  0.7368   0.7404   0.7499   0.7537   0.7627   0.7727   0.7857   0.7893
  0.7929   0.7961   0.7991   0.8018   0.8089   0.8194   0.8317   0.8382
  0.8475   0.8550   0.8586   0.8608   0.8677   0.8792   0.8843   0.8926
  0.9070   0.9145   0.9373   0.9484   0.9576   0.9865   1.0001   1.0162
  1.0193   1.0446   1.0453   1.0523   1.0599   1.0712   1.0804   1.0919
  1.0983   1.1193   1.1394   1.1640   1.2006   1.2386   1.2744   1.3008
  1.3108   1.3184   1.3319   1.3571   1.3725   1.3860   1.3990   1.4386
  1.4525   1.4694   1.4713   1.4878   1.5307   1.5649   1.6117   1.6303
  1.6343   1.6484   1.6756   1.6798   1.7038   1.7313   1.7693   1.8046
  1.8238   1.8300   1.8372   1.8557   1.8702   1.8792   1.9209   1.9262
  1.9412   1.9608   1.9790   1.9908   1.9921   2.0314   2.0483   2.0570
  2.0600   2.0763   2.0908   2.1115   2.1188   2.1691   2.2028   2.2059
  2.2197   2.2459   2.2800   2.2850   2.2974   2.3206   2.3429   2.3719
  2.4015   2.4051   2.4394   2.4666   2.4877   2.5049   2.5333   2.5519
  2.5770   2.6173   2.6283   2.6442   2.6492   2.6664   2.6909   2.7430
  2.7619   2.7646   2.7831   2.8012   2.8131   2.8368   2.8652   2.8742
  2.9099   2.9187   2.9381   2.9459   2.9650   2.9791   2.9883   3.0089
  3.0231   3.0386   3.0666   3.0716   3.1013   3.1286   3.1549   3.1649
  3.1795   3.1979   3.2135   3.2190   3.2446   3.2626   3.2897   3.2938
  3.3108   3.3733   3.3832   3.3882   3.3959   3.4100   3.4439   3.4592
  3.4658   3.4794   3.4888   3.5100   3.5189   3.5311   3.5396   3.5421
  3.5532   3.5721   3.5794   3.5908   3.6056   3.6303   3.6448   3.6859
  3.6894   3.7034   3.7433   3.7518   3.8025   3.8184   3.8490   3.9068
  3.9314   3.9553   3.9774   3.9915   4.0331   4.0779   4.1461   4.1525
  4.2447   4.2683   4.2803   4.3070   4.3212   4.3290   4.3381   4.3525
  4.3719   4.3786   4.4270   4.4530   4.4821   4.5321   4.5796   4.6100
  4.7264   4.7430   4.7823   4.8080   4.8460   4.9322   5.0153   5.0565
  5.0844   5.1330   5.1561   5.2912   5.3204   5.3915   5.4369   5.5414
  5.6099   5.6389   5.7074   5.7669   5.9338   6.2060   6.4653   6.5864
  6.6385   6.8708   7.0014   7.3066   7.4534  22.6750  22.6790  22.9330
 22.9671  23.0083  23.1610  23.4798  44.4129
 --------------------------------------------------------------

          Ground-State Mulliken Net Atomic Charges

     Atom                 Charge (a.u.)
  ----------------------------------------
      1 C                    -1.057937
      2 C                     0.635994
      3 C                    -0.389606
      4 C                    -0.776892
      5 C                    -0.591340
      6 C                    -0.461490
      7 C                     0.487306
      8 O                    -0.543333
      9 H                     0.370870
     10 H                     0.330804
     11 H                     0.401330
     12 H                     0.407432
     13 H                     0.367638
     14 H                     0.273917
     15 H                     0.293240
     16 H                     0.252068
  ----------------------------------------
  Sum of atomic charges =     0.000000

 -----------------------------------------------------------------
                    Cartesian Multipole Moments
 -----------------------------------------------------------------
    Charge (ESU x 10^10)
                 0.0000
    Dipole Moment (Debye)
         X       1.0275      Y       1.5075      Z       0.9172
       Tot       2.0420
    Quadrupole Moments (Debye-Ang)
        XX     -45.2168     XY      -2.3600     YY     -39.7175
        XZ      -4.8472     YZ       4.7588     ZZ     -50.2871
    Octopole Moments (Debye-Ang^2)
       XXX     -59.6110    XXY     -29.8909    XYY     -33.9099
       YYY    -106.2187    XXZ      77.3154    XYZ      -4.0535
       YYZ      77.3220    XZZ     -16.4680    YZZ     -57.9599
       ZZZ     234.0586
    Hexadecapole Moments (Debye-Ang^3)
      XXXX    -990.0341   XXXY     -41.4620   XXYY    -202.7995
      XYYY     -56.6737   YYYY    -433.2850   XXXZ     158.3490
      XXYZ      51.1643   XYYZ      58.6517   YYYZ     148.4156
      XXZZ    -310.4137   XYZZ      -7.1242   YYZZ    -235.5392
      XZZZ     179.9521   YZZZ     177.3645   ZZZZ    -903.3318
 -----------------------------------------------------------------
Archival summary:
1\1\compute-0-0.local\SP\ProcedureUnspecified\BasisUnspecified\178\meili\TueSep2813:43:512021TueSep2813:43:512021\0\\#,ProcedureUnspecified,BasisUnspecified,\\0,1\C\O,1,1.37113\H,2,0.963943,1,112.022\C,1,1.39497,2,119.66,3,174.898,0\H,4,1.08021,1,119.646,2,0.258818,0\C,1,1.39684,2,120.766,3,-4.52075,0\H,6,1.07959,1,120.006,2,-0.565452,0\C,4,1.40043,1,119.955,2,-179.654,0\H,8,1.08302,4,119.14,1,-179.854,0\C,8,1.39828,4,121.143,1,0.248971,0\C,10,1.39553,8,118.482,4,-0.332412,0\H,11,1.08188,10,119.823,8,-179.806,0\C,10,1.51461,8,120.522,4,179.92,0\H,13,1.08707,10,107.05,8,11.6913,0\H,13,1.09115,10,109.697,8,127.759,0\H,13,1.1,10,114.142,8,-108.232,0\\\@

 Total job time:  12515.19s(wall), 89511.81s(cpu) 
 Tue Sep 28 13:43:51 2021

        *************************************************************
        *                                                           *
        *  Thank you very much for using Q-Chem.  Have a nice day.  *
        *                                                           *
        *************************************************************


Done Job For Fragment 0
calling putenv with: QCSCRATCH=/home/meili/scratch 
calling putenv with: QCTHREADS=8 
Creating input file /home/meili/scratch/qchem50547/Frg2.input
using default PutDataFrgm: nothing
calling putenv with: QCSCRATCH=/home/meili/scratch/qchem50547/ 
Spawning Job For Fragment 1
                  Welcome to Q-Chem
     A Quantum Leap Into The Future Of Chemistry


 Q-Chem 5.2 (devel), Q-Chem, Inc., Pleasanton, CA (2019)

 Yihan Shao,  Zhengting Gan,  E. Epifanovsky,  A. T. B. Gilbert,  M. Wormit,  
 J. Kussmann,  A. W. Lange,  A. Behn,  Jia Deng,  Xintian Feng,  D. Ghosh,  
 M. Goldey,  P. R. Horn,  L. D. Jacobson,  I. Kaliman,  T. Kus,  A. Landau,  
 Jie Liu,  E. I. Proynov,  R. M. Richard,  R. P. Steele,  E. J. Sundstrom,  
 H. L. Woodcock III,  P. M. Zimmerman,  D. Zuev,  B. Albrecht,  E. Alguire,  
 S. A. Baeppler,  D. Barton,  Z. Benda,  Y. A. Bernard,  E. J. Berquist,  
 K. B. Bravaya,  H. Burton,  D. Casanova,  Chun-Min Chang,  Yunqing Chen,  
 A. Chien,  K. D. Closser,  M. P. Coons,  S. Coriani,  S. Dasgupta,  
 A. L. Dempwolff,  M. Diedenhofen,  Hainam Do,  R. G. Edgar,  Po-Tung Fang,  
 S. Faraji,  S. Fatehi,  Qingguo Feng,  K. D. Fenk,  J. Fosso-Tande,  
 J. Gayvert,  Qinghui Ge,  A. Ghysels,  G. Gidofalvi,  J. Gomes,  
 J. Gonthier,  A. Gunina,  D. Hait,  M. W. D. Hanson-Heine,  
 P. H. P. Harbach,  A. W. Hauser,  M. F. Herbst,  J. E. Herr,  
 E. G. Hohenstein,  Z. C. Holden,  Kerwin Hui,  B. C. Huynh,  T.-C. Jagau,  
 Hyunjun Ji,  B. Kaduk,  K. Khistyaev,  Jaehoon Kim,  P. Klunzinger,  K. Koh,  
 D. Kosenkov,  L. Koulias,  T. Kowalczyk,  C. M. Krauter,  A. Kunitsa,  
 Ka Un Lao,  A. Laurent,  K. V. Lawler,  Joonho Lee,  D. Lefrancois,  
 S. Lehtola,  D. S. Levine,  Yi-Pei Li,  You-Sheng Lin,  Fenglai Liu,  
 E. Livshits,  A. Luenser,  P. Manohar,  E. Mansoor,  S. F. Manzer,  
 Shan-Ping Mao,  Yuezhi Mao,  N. Mardirossian,  A. V. Marenich,  
 T. Markovich,  L. A. Martinez-Martinez,  S. A. Maurer,  N. J. Mayhall,  
 S. C. McKenzie,  J.-M. Mewes,  P. Morgante,  A. F. Morrison,  
 J. W. Mullinax,  K. Nanda,  T. S. Nguyen-Beck,  R. Olivares-Amaya,  
 J. A. Parkhill,  Zheng Pei,  T. M. Perrine,  F. Plasser,  P. Pokhilko,  
 S. Prager,  A. Prociuk,  E. Ramos,  D. R. Rehn,  F. Rob,  M. Scheurer,  
 M. Schneider,  N. Sergueev,  S. M. Sharada,  S. Sharma,  D. W. Small,  
 T. Stauch,  T. Stein,  Yu-Chuan Su,  A. J. W. Thom,  A. Tkatchenko,  
 T. Tsuchimochi,  N. M. Tubman,  L. Vogt,  M. L. Vidal,  O. Vydrov,  
 M. A. Watson,  J. Wenzel,  M. de Wergifosse,  T. A. Wesolowski,  A. White,  
 J. Witte,  A. Yamada,  Jun Yang,  K. Yao,  S. Yeganeh,  S. R. Yost,  
 Zhi-Qiang You,  A. Zech,  Igor Ying Zhang,  Xing Zhang,  Yan Zhao,  
 Ying Zhu,  B. R. Brooks,  G. K. L. Chan,  C. J. Cramer,  M. S. Gordon,  
 W. J. Hehre,  A. Klamt,  M. W. Schmidt,  C. D. Sherrill,  D. G. Truhlar,  
 A. Aspuru-Guzik,  R. Baer,  A. T. Bell,  N. A. Besley,  Jeng-Da Chai,  
 A. E. DePrince, III,  R. A. DiStasio Jr.,  A. Dreuw,  B. D. Dunietz,  
 T. R. Furlani,  Chao-Ping Hsu,  Yousung Jung,  Jing Kong,  D. S. Lambrecht,  
 WanZhen Liang,  C. Ochsenfeld,  V. A. Rassolov,  L. V. Slipchenko,  
 J. E. Subotnik,  T. Van Voorhis,  J. M. Herbert,  A. I. Krylov,  
 P. M. W. Gill,  M. Head-Gordon

 Contributors to earlier versions of Q-Chem not listed above: 
 R. D. Adamson,  B. Austin,  J. Baker,  G. J. O. Beran,  K. Brandhorst,  
 S. T. Brown,  E. F. C. Byrd,  A. K. Chakraborty,  C.-L. Cheng,  
 Siu Hung Chien,  D. M. Chipman,  D. L. Crittenden,  H. Dachsel,  
 R. J. Doerksen,  A. D. Dutoi,  L. Fusti-Molnar,  W. A. Goddard III,  
 A. Golubeva-Zadorozhnaya,  S. R. Gwaltney,  G. Hawkins,  A. Heyden,  
 S. Hirata,  G. Kedziora,  F. J. Keil,  C. Kelley,  Jihan Kim,  R. A. King,  
 R. Z. Khaliullin,  P. P. Korambath,  W. Kurlancheek,  A. M. Lee,  M. S. Lee,  
 S. V. Levchenko,  Ching Yeh Lin,  D. Liotard,  R. C. Lochan,  I. Lotan,  
 P. E. Maslen,  N. Nair,  D. P. O'Neill,  D. Neuhauser,  E. Neuscamman,  
 C. M. Oana,  R. Olson,  B. Peters,  R. Peverati,  P. A. Pieniazek,  
 Y. M. Rhee,  J. Ritchie,  M. A. Rohrdanz,  E. Rosta,  N. J. Russ,  
 H. F. Schaefer III,  N. E. Schultz,  N. Shenvi,  A. C. Simmonett,  A. Sodt,  
 D. Stuck,  K. S. Thanthiriwatte,  V. Vanovschi,  Tao Wang,  A. Warshel,  
 C. F. Williams,  Q. Wu,  X. Xu,  W. Zhang

 Please cite Q-Chem as follows:
 Y. Shao et al., Mol. Phys. 113, 184-215 (2015)
 DOI: 10.1080/00268976.2014.952696

 Q-Chem 5.2.1 for Intel X86 EM64T Linux

 Parts of Q-Chem use Armadillo 8.300.2 (Tropical Shenanigans).
 http://arma.sourceforge.net/

 Q-Chem begins on Tue Sep 28 13:43:52 2021  

compute-0-0.local
Host: 0

     Scratch files written to /home/meili/scratch/qchem50547//Frg2//
NAlpha2: 52
NElect   52
Mult     1
Symmetry turned off for PCM/SM12/SMD calculation

Checking the input file for inconsistencies... 	...done.

--------------------------------------------------------------
User input:
--------------------------------------------------------------
$molecule
0 1
 6	-2.1226901316	-1.3934203472	1.2736783428
 6	-2.5666901316	-2.4864203472	2.2456783428
 6	-0.7186901316	-0.9604203472	1.4836783428
 6	0.4493098684	-1.5444203472	1.1136783428
 6	0.9073098684	0.1495796528	2.2366783428
 7	-0.3946901316	0.1115796528	2.2096783428
 7	1.4653098684	-0.7584203472	1.5736783428
 1	-2.2016901316	-1.7724203472	0.2536783428
 1	-2.7826901316	-0.5294203472	1.3576783428
 1	-1.8726901316	-3.3264203472	2.1956783428
 1	0.5463098684	-2.4594203472	0.5426783428
 1	1.3473098684	0.1075796528	3.2326783428
 1	2.4553098684	-0.9714203472	1.6236783428
 1	-3.5705401316	-2.8111903472	1.9345311428
 1	-2.5580201316	-2.0885103472	3.2711495428
$end
$rem
EDA2		1
METHOD		WB97X-V
BASIS		DEF2-TZVPD
XC_GRID		000099000590
NL_GRID		1
UNRESTRICTED		FALSE
MAX_SCF_CYCLES		200
SYMMETRY		FALSE
SYM_IGNORE		TRUE
BASIS_LIN_DEP_THRESH		6
THRESH		14
SCF_CONVERGENCE		8
SCF_PRINT_FRGM		TRUE
SOLVENT_METHOD		SMD
!required keywords
JOBTYPE		SP
SYM_IGNORE		TRUE
SUBSYSTEM		TRUE
GEN_SCFMAN		TRUE
CHILD_INSTRUCTION		2
SYM_IGNORE		TRUE
SCFMI		0
RI_K 0		
PARI_K 0		
MIN_PARI_K 0		
IARI_K 0		
OCC_RI_K 0		
PURECART		1111
MEM_STATIC		2000
MEM_TOTAL		2000
GUI		0
CHILD_MP		1
CHILD_MP_ORDERS		232
FRZ_RELAX		0
FRZ_RELAX_METHOD		0
EDA_CLS_ELEC		1
EDA_CLS_DISP		0
FRZ_ORTHO_DECOMP		1
EDA2		FALSE
FRGM_METHOD		FALSE
CIS_N_ROOTS  0
LOCAL_CIS    0
CIS_RLX_DNS  1
$end
$smx
SOLVENT			WATER
$end
--------------------------------------------------------------
 ----------------------------------------------------------------
             Standard Nuclear Orientation (Angstroms)
    I     Atom           X                Y                Z
 ----------------------------------------------------------------
    1      C      -2.1226901316    -1.3934203472     1.2736783428
    2      C      -2.5666901316    -2.4864203472     2.2456783428
    3      C      -0.7186901316    -0.9604203472     1.4836783428
    4      C       0.4493098684    -1.5444203472     1.1136783428
    5      C       0.9073098684     0.1495796528     2.2366783428
    6      N      -0.3946901316     0.1115796528     2.2096783428
    7      N       1.4653098684    -0.7584203472     1.5736783428
    8      H      -2.2016901316    -1.7724203472     0.2536783428
    9      H      -2.7826901316    -0.5294203472     1.3576783428
   10      H      -1.8726901316    -3.3264203472     2.1956783428
   11      H       0.5463098684    -2.4594203472     0.5426783428
   12      H       1.3473098684     0.1075796528     3.2326783428
   13      H       2.4553098684    -0.9714203472     1.6236783428
   14      H      -3.5705401316    -2.8111903472     1.9345311428
   15      H      -2.5580201316    -2.0885103472     3.2711495428
 ----------------------------------------------------------------
 Nuclear Repulsion Energy =         296.35774449 hartrees
 There are       26 alpha and       26 beta electrons
 Requested basis set is def2-TZVPD
 There are 131 shells and 331 basis functions

 Total QAlloc Memory Limit   2000 MB
 Mega-Array Size      1956 MB
 MEM_STATIC part      2000 MB

 Citation of the SMD model:
 Marenich, A.V.; Cramer, C.J.; Truhlar, D.G.
 J. Phys. Chem. B 2009, 113, 6378-6396.
 iSolventCode=           1
 Solvent: water                                                           

 vradii
            1           2           3           4           5           6
    1   1.8500000   1.8500000   1.8500000   1.8500000   1.8500000   1.8900000
            7           8           9          10          11          12
    1   1.8900000   1.2000000   1.2000000   1.2000000   1.2000000   1.2000000
           13          14          15
    1   1.2000000   1.2000000   1.2000000
 Changing PCM_VDW_RADII to SMD_RADIUS
 Discretize the solute cavity surface with Lebedev spheres
	Using 110 Lebedev grid points for each H atom
	Using 194 Lebedev grid points for other atoms
	Atomic van der Waals radii will be scaled by 1.20
 Remove points where switching function is < 1.0e-08
 Keep 1081 surface tesserae and discard 1157 interior tesserae
 Molecular Surface Area = 134.696 Angst**2

                       Distance Matrix (Angstroms)
             C (  1)   C (  2)   C (  3)   C (  4)   C (  5)   N (  6)
   C (  2)  1.528584
   C (  3)  1.484185  2.514841
   C (  4)  2.581392  3.356344  1.357269
   C (  5)  3.533995  4.360878  2.107839  2.083394
   N (  6)  2.475299  3.386515  1.334630  2.157751  1.302834
   N (  7)  3.656087  4.437859  2.195167  1.364424  1.255148  2.149650
   H (  8)  1.091000  2.147344  2.090821  2.796316  4.158396  3.262000
   H (  9)  1.090482  2.159872  2.112281  3.396408  3.853541  2.615211
   H ( 10)  2.156171  1.090750  2.727016  3.120566  4.451141  3.742262
   H ( 11)  2.965515  3.548480  2.175479  1.082901  3.131587  3.205372
   H ( 12)  4.258120  4.798166  2.909980  2.832961  1.089670  2.020175
   H ( 13)  4.610712  5.282291  3.177105  2.147665  2.007166  3.104639
   H ( 14)  2.131447  1.100001  3.429529  4.293914  5.376671  4.324848
   H ( 15)  2.159295  1.099999  2.801923  3.740956  4.252962  3.262992
             N (  7)   H (  8)   H (  9)   H ( 10)   H ( 11)   H ( 12)
   H (  8)  4.027094
   H (  9)  4.259648  1.761087
   H ( 10)  4.257200  2.508888  3.058358
   H ( 11)  2.191101  2.847278  3.933366  3.055431
   H ( 12)  1.875143  5.000424  4.580207  4.820386  3.803576
   H ( 13)  1.013888  4.919975  5.263342  4.960322  2.650846  2.231767
   H ( 14)  5.450125  2.403759  2.481923  1.793420  4.359983  5.864269
   H ( 15)  4.564836  3.054835  2.478429  1.777284  4.149578  4.480613
             H ( 13)   H ( 14)
   H ( 14)  6.308110
   H ( 15)  5.394027  1.825928

 A cutoff of  1.0D-14 yielded   8311 shell pairs
 There are     54097 function pairs (     68907 Cartesian)
 Smallest overlap matrix eigenvalue = 1.56E-06

 Scale SEOQF with 1.000000e-01/1.000000e-01/1.000000e-01

 Standard Electronic Orientation quadrupole field applied
 Nucleus-field energy     =    -0.0000000065 hartrees
 Guess from superposition of atomic densities
 Warning:  Energy on first SCF cycle will be non-variational
 SAD guess density has 52.000000 electrons

 -----------------------------------------------------------------------
  General SCF calculation program by
  Eric Jon Sundstrom, Paul Horn, Yuezhi Mao, Dmitri Zuev, Alec White,
  David Stuck, Shaama M.S., Shane Yost, Joonho Lee, David Small,
  Daniel Levine, Susi Lehtola, Hugh Burton, Evgeny Epifanovsky,
  Bang C. Huynh
 -----------------------------------------------------------------------
 Exchange:     0.1670 Hartree-Fock + 1.0000 wB97X-V + LR-HF
 Correlation:  1.0000 wB97X-V
 Using Euler-Maclaurin-Lebedev (99,590) quadrature formula
 Nonlocal Correlation:  VV10 with C = 0.0100 and b = 6.00 and scale = 1.00000
 Grid used for NLC:  SG-1 standard quadrature
Energy prior to optimization (guess energy) = -304.731446994757
Begin Timing: Total SCF Calculation
begin iterations for algorithm: DIIS         
the SCF tolerance is set to 1.00e-08
    1    -304.7314469948      2.37e-03     00000 
    2    -304.7584411215      2.34e-03     00000 
    3    -304.8280583314      4.16e-04     00000 
    4    -304.8310757343      1.56e-04     00000 
    5    -304.8317928718      6.31e-05     00000 
    6    -304.8318868614      2.02e-05     00000 
    7    -304.8318963611      9.99e-06     00000 
    8    -304.8318982397      2.04e-06     00000 
    9    -304.8318984692      7.54e-07     00000 
   10    -304.8318984905      3.50e-07     00000 
   11    -304.8318984941      8.23e-08     00000 
   12    -304.8318984944      3.63e-08     00000 
   13    -304.8318984945      1.32e-08     00000 
   14    -304.8318984945      4.47e-09     00000 Convergence criterion met
Timing for Total SCF: 519.00s (wall), 3703.65s (cpu)
(3)  G-ENP(liq) elect-nuc-pol free energy of system     -304.831898495 a.u.
(4)  G-CDS(liq) cavity-dispersion-solvent structure 
     free energy                                                2.1199 kcal/mol
(6)  G-S(liq) free energy of system                     -304.828520274 a.u.
E_pcm = -0.0229412032
E_cds = 0.0033782201
Multipole orders to be included
        2
        3
computing dipole RHS
computing quadrupole RHS
total number of RHS in solve_reponses: 8
RHS batch sizes
        8
Beginning Block Conjugate Gradient Iterations. Batch Number: 0
computing hessian-vector products by finite difference
              1      6.15e-01     00000 Conjugate Gradient Iteration
computing hessian-vector products by finite difference
              2      1.97e-01     00000 Conjugate Gradient Iteration
computing hessian-vector products by finite difference
              3      5.49e-02     00000 Conjugate Gradient Iteration
computing hessian-vector products by finite difference
              4      1.65e-02     00000 Conjugate Gradient Iteration
computing hessian-vector products by finite difference
              5      3.26e-03     00000 Conjugate Gradient Iteration
computing hessian-vector products by finite difference
              6      7.44e-04     00000 Conjugate Gradient Iteration
computing hessian-vector products by finite difference
              7      1.33e-04     00000 Conjugate Gradient Iteration
computing hessian-vector products by finite difference
              8      2.44e-05     00000 Conjugate Gradient Iteration
computing hessian-vector products by finite difference
              9      4.72e-06     00000 Conjugate Gradient Iteration
computing hessian-vector products by finite difference
             10      1.20e-06     00000 Conjugate Gradient Iteration
computing hessian-vector products by finite difference
             11      2.19e-07     00000 Conjugate Gradient Iteration
computing hessian-vector products by finite difference
             12      4.64e-08     00000 Conjugate Gradient Iteration
computing hessian-vector products by finite difference
             13      7.41e-09     00000 CG Converged
batch 0 complete
Done Calculating Responses
TESTING ORTHOGONALIZATION OF MULTIPOLE BASIS
Multipole virts passed orthogonality test
Virts Per Order
           78
          130

 --------------------------------------------------------------

                    Orbital Energies (a.u.)
 --------------------------------------------------------------

 Alpha MOs
 -- Occupied --
-14.4572 -14.3810 -10.2912 -10.2827 -10.2781 -10.2589 -10.2512  -1.1823
 -1.0168  -0.9144  -0.8593  -0.7634  -0.7296  -0.6831  -0.6661  -0.5951
 -0.5610  -0.5439  -0.5231  -0.4984  -0.4666  -0.4486  -0.4378  -0.3870
 -0.3832  -0.3133
 -- Virtual --
  0.0691   0.0778   0.0879   0.0960   0.0995   0.1173   0.1329   0.1373
  0.1435   0.1538   0.1637   0.1730   0.1806   0.1878   0.1948   0.2150
  0.2208   0.2273   0.2349   0.2414   0.2458   0.2643   0.2766   0.2781
  0.2831   0.2855   0.2945   0.3083   0.3183   0.3244   0.3252   0.3303
  0.3402   0.3442   0.3479   0.3536   0.3567   0.3611   0.3643   0.3737
  0.3769   0.3811   0.3884   0.3973   0.4071   0.4163   0.4193   0.4214
  0.4245   0.4394   0.4484   0.4545   0.4610   0.4704   0.4746   0.4794
  0.4835   0.4905   0.4988   0.5031   0.5128   0.5187   0.5202   0.5238
  0.5315   0.5426   0.5538   0.5602   0.5676   0.5774   0.5880   0.5962
  0.6114   0.6177   0.6225   0.6262   0.6373   0.6433   0.6556   0.6757
  0.6823   0.6901   0.6999   0.7106   0.7156   0.7265   0.7325   0.7515
  0.7591   0.7681   0.7761   0.7828   0.7940   0.8029   0.8093   0.8124
  0.8150   0.8197   0.8266   0.8417   0.8452   0.8690   0.8756   0.8811
  0.8844   0.9009   0.9255   0.9332   0.9573   0.9707   0.9898   1.0103
  1.0176   1.0212   1.0432   1.0480   1.0750   1.0787   1.0918   1.1260
  1.1340   1.1557   1.1711   1.1855   1.2100   1.2328   1.2475   1.2559
  1.2759   1.3069   1.3466   1.3732   1.3879   1.3990   1.4276   1.4477
  1.4647   1.4892   1.5116   1.5572   1.5738   1.6085   1.6356   1.6697
  1.6887   1.7434   1.7589   1.7750   1.8093   1.8386   1.8638   1.8678
  1.9009   1.9147   1.9251   1.9378   1.9569   1.9665   1.9814   1.9863
  2.0016   2.0081   2.0116   2.0304   2.0465   2.0512   2.0751   2.1303
  2.1386   2.1514   2.2177   2.2387   2.2467   2.2731   2.2873   2.3174
  2.3441   2.4020   2.4376   2.4584   2.4699   2.4763   2.5227   2.5374
  2.5627   2.5682   2.6005   2.6150   2.6547   2.6666   2.6770   2.6834
  2.7500   2.7545   2.7739   2.7942   2.8180   2.8280   2.8585   2.8765
  2.8990   2.9092   2.9248   2.9396   2.9809   3.0151   3.0362   3.0517
  3.0574   3.1116   3.1294   3.1709   3.1863   3.2061   3.2270   3.2467
  3.2576   3.2777   3.2831   3.3070   3.3338   3.3392   3.3536   3.3928
  3.4104   3.4332   3.4437   3.4565   3.4954   3.5045   3.5451   3.5655
  3.5836   3.5942   3.6072   3.6151   3.6421   3.6544   3.6673   3.6961
  3.7118   3.7281   3.7543   3.7915   3.8427   3.8572   3.9088   3.9404
  3.9804   3.9933   4.0246   4.0607   4.0884   4.1113   4.1288   4.1785
  4.2469   4.2612   4.3265   4.3313   4.4098   4.4434   4.4818   4.5375
  4.5810   4.6259   4.6715   4.6900   4.7738   4.8528   4.8608   4.9257
  4.9512   5.0012   5.0354   5.0613   5.0832   5.1583   5.1732   5.2004
  5.2741   5.3159   5.3267   5.4075   5.4328   5.4821   5.5652   5.5912
  5.6215   5.6447   5.6605   5.7301   5.7392   5.8770   5.8997   6.0946
  6.2745   6.3749  22.6432  22.8016  23.0067  23.2808  23.5368  32.7430
 32.8481
 --------------------------------------------------------------

          Ground-State Mulliken Net Atomic Charges

     Atom                 Charge (a.u.)
  ----------------------------------------
      1 C                    -0.245835
      2 C                    -0.902100
      3 C                     0.426697
      4 C                    -0.657162
      5 C                    -0.275168
      6 N                    -0.531355
      7 N                     0.074496
      8 H                     0.218568
      9 H                     0.219794
     10 H                     0.270931
     11 H                     0.351653
     12 H                     0.317456
     13 H                     0.238646
     14 H                     0.227185
     15 H                     0.266193
  ----------------------------------------
  Sum of atomic charges =     0.000000

 -----------------------------------------------------------------
                    Cartesian Multipole Moments
 -----------------------------------------------------------------
    Charge (ESU x 10^10)
                 0.0000
    Dipole Moment (Debye)
         X       3.5726      Y      -3.7513      Z      -1.1315
       Tot       5.3024
    Quadrupole Moments (Debye-Ang)
        XX     -33.0136     XY      -2.2065     YY     -40.5346
        XZ       8.8544     YZ      -5.0770     ZZ     -47.0930
    Octopole Moments (Debye-Ang^2)
       XXX      85.6457    XXY      32.2811    XYY      25.7052
       YYY     127.5451    XXZ     -60.4492    XYZ      -4.8587
       YYZ     -79.2183    XZZ      45.7794    YZZ      37.1310
       ZZZ    -235.7093
    Hexadecapole Moments (Debye-Ang^3)
      XXXX    -619.9669   XXXY    -202.4307   XXYY    -203.8542
      XYYY    -195.1670   YYYY    -562.7830   XXXZ     166.1763
      XXYZ      58.5693   XYYZ      51.4862   YYYZ     227.3177
      XXZZ    -249.5941   XYZZ     -73.3911   YYZZ    -268.5715
      XZZZ     191.3014   YZZZ     206.9577   ZZZZ    -938.3255
 -----------------------------------------------------------------
Archival summary:
1\1\compute-0-0.local\SP\ProcedureUnspecified\BasisUnspecified\258\meili\TueSep2816:23:362021TueSep2816:23:362021\0\\#,ProcedureUnspecified,BasisUnspecified,\\0,1\N\C,1,1.30283\H,2,1.08967,1,114.92\N,2,1.25515,1,114.345,3,122.926,0\H,4,1.01389,2,124.057,1,-168.574,0\C,1,1.33463,2,106.1,3,-120.898,0\C,6,1.35727,1,106.558,2,0.882226,0\H,7,1.0829,6,125.76,1,177.749,0\C,6,1.48418,1,122.748,2,176.787,0\H,9,1.09048,6,109.298,1,26.54,0\H,9,1.091,6,107.586,1,143.171,0\C,9,1.52858,6,113.167,1,-96.3957,0\H,12,1.09075,9,109.676,6,-54.461,0\H,12,1.1,9,109.381,6,64.3475,0\H,12,1.1,9,107.237,6,-173.758,0\\\@

 Total job time:  9584.82s(wall), 68312.72s(cpu) 
 Tue Sep 28 16:23:36 2021

        *************************************************************
        *                                                           *
        *  Thank you very much for using Q-Chem.  Have a nice day.  *
        *                                                           *
        *************************************************************


Done Job For Fragment 1
calling putenv with: QCSCRATCH=/home/meili/scratch 
calling putenv with: QCTHREADS=8 
Doing General SCFMI
 Exchange:     0.1670 Hartree-Fock + 1.0000 wB97X-V + LR-HF
 Correlation:  1.0000 wB97X-V
 Using Euler-Maclaurin-Lebedev (99,590) quadrature formula
 Nonlocal Correlation:  VV10 with C = 0.0100 and b = 6.00 and scale = 1.00000
 Grid used for NLC:  SG-1 standard quadrature
performing fock build before subrot guess so that all methods have access
Printing subrot_rss_gen Method Specification:
Occupied Subspace Method is 0
Virtual Subspace Method is 0
Energy of the unrelaxed supersystem initial determinant -651.623878458001
performing fock build before subrot guess so that all methods have access
Printing subrot_rss_gen Method Specification:
Occupied Subspace Method is 0
Virtual Subspace Method is 0
Energy of the unrelaxed supersystem initial determinant w/ solvent -651.662708778398
write pseudocanon occs and virts to disk
write pseudocanon orbital energies to disk
Tolerance of ortho_decomp_scf: 1.00e-06
GDM subspace size: 20
Beginning the Orthogonal Decomposition of the Initial Supersystem Wavefunction
    1    -651.5889884807      2.47e-02     ortho_decomp Preconditoned Steepest Descent
    2    -651.5920893094      6.54e-04     ortho_decomp BFGS Step
    3    -651.5920998988      4.61e-05     ortho_decomp BFGS Step
    4    -651.5920999133      1.72e-06     ortho_decomp BFGS Step
    5    -651.5920999134      5.02e-08     ortho_decomp 00000 Convergence criterion met
 Hartree-Fock
 Hartree-Fock
 Hartree-Fock
Doing General SCFMI
 Exchange:     0.1670 Hartree-Fock + 1.0000 wB97X-V + LR-HF
 Correlation:  1.0000 wB97X-V
 Using Euler-Maclaurin-Lebedev (99,590) quadrature formula
 Nonlocal Correlation:  VV10 with C = 0.0100 and b = 6.00 and scale = 1.00000
 Grid used for NLC:  SG-1 standard quadrature
performing fock build at end of subrot_r(subrot) constructor so that all methods have access
<S^2> of initial wavefunction before polarization iterations 0.0000000000
Beginning iterations for the determination of the polarized wavefunction
Energy prior to optimization (guess energy) = -651.662708778398
Begin Timing: Total SCF Calculation
begin iterations for algorithm: DIIS         
the SCF tolerance is set to 1.00e-08
    1    -651.6627087784      4.71e-05     00000 
    2    -651.6629364494      2.43e-05     00000 
    3    -651.6629731165      8.92e-06     00000 
    4    -651.6629808311      4.02e-06     00000 
    5    -651.6629819149      2.30e-06     00000 
    6    -651.6629823057      1.22e-06     00000 
    7    -651.6629823704      7.21e-07     00000 
    8    -651.6629823916      3.38e-07     00000 
    9    -651.6629823975      1.41e-07     00000 
   10    -651.6629823992      7.40e-08     00000 
   11    -651.6629823997      3.19e-08     00000 
   12    -651.6629823999      1.65e-08     00000 
   13    -651.6629823999      5.68e-09     00000 Convergence criterion met
write pseudocanon occs and virts to disk
write pseudocanon orbital energies to disk
Timing for Total SCF: 5134.00s (wall), 37991.89s (cpu)
<S^2> of polarized wavefunction after polarization iterations 0.0000000000
relaxing scfmi constraint to allow all rotations in the entire AO span
Doing General SCFMI
 Exchange:     0.1670 Hartree-Fock + 1.0000 wB97X-V + LR-HF
 Correlation:  1.0000 wB97X-V
 Using Euler-Maclaurin-Lebedev (99,590) quadrature formula
 Nonlocal Correlation:  VV10 with C = 0.0100 and b = 6.00 and scale = 1.00000
 Grid used for NLC:  SG-1 standard quadrature
performing fock build at end of subrot_r(subrot) constructor so that all methods have access
<S^2> of polarized wavefunction before ct-allowed iterations 0.0000000000
Beginning iterations for the determination of the CT-Allowed wavefunction
Energy prior to optimization (guess energy) = -651.662982399872
Begin Timing: Total SCF Calculation
begin iterations for algorithm: DIIS         
the SCF tolerance is set to 1.00e-08
    1    -651.6629823999      6.80e-05     00000 
    2    -651.6637620134      5.31e-06     00000 
    3    -651.6637839047      1.02e-06     00000 
    4    -651.6637850079      4.90e-07     00000 
    5    -651.6637850684      1.58e-07     00000 
    6    -651.6637850805      4.25e-08     00000 
    7    -651.6637850812      1.23e-08     00000 
    8    -651.6637850812      4.42e-09     00000 Convergence criterion met
write pseudocanon occs and virts to disk
write pseudocanon orbital energies to disk
Timing for Total SCF: 3097.00s (wall), 22561.77s (cpu)
<S^2> of ct_allowed wavefunction after ct-allowed iterations 0.0000000000

================================
        Results of EDA2         
================================
Basic EDA Quantities
--------------------
Fragment Energies (Ha):
1 -346.8202512549
2 -304.8285202745
--------------------
  E_prp (kJ/mol) = 0.0000
  E_sol (kJ/mol) = 0.3383
  E_frz (kJ/mol) = -16.1202
  E_pol (kJ/mol) = -0.7184
  E_vct (kJ/mol) = -2.1075
  E_int (kJ/mol) = -18.6078
--------------------


Initial Wavefunction Decomposition
--------------------
  --------------------
  Orthogonal Fragment Subspace Decomposition:
  --------------------
     E_elec   (ELEC)   (kJ/mol) = -35.5294
     E_pauli  (PAULI)  (kJ/mol) = 52.1159
     E_disp   (DISP)   (kJ/mol) = -32.7068
     --------------------
     Terms summing to E_pauli:
     --------------------
        E_kep_pauli       (kJ/mol) = 67.3153
        E_disp_free_pauli (kJ/mol) = -15.1994
  --------------------
  Classical Frozen Decomposition:
  --------------------
     E_cls_elec  (CLS ELEC)  (kJ/mol) = -9.7288
     E_cls_pauli (CLS PAULI) (kJ/mol) = -6.3914
    [E_mod_pauli (MOD PAULI) (kJ/mol) = 26.3153 (CLS PAULI - DISP from orthogonal decomposition) ]
  --------------------
--------------------

Simplified EDA Summary (kJ/mol)
--------------------
 PREPARATION     0.0000
 SOLVATION       0.3383
 FROZEN          16.5865      (does not include dispersion)
[PAULI           52.1159]     (if this is negligible, then frozen describes electrostatics)
 DISPERSION      -32.7068
 POLARIZATION    -0.7184
 CHARGE TRANSFER -2.1075
 TOTAL           -18.6078     (PRP + SOL + FRZ + DISP + POL + CT)
--------------------

 --------------------------------------------------------------

                    Orbital Energies (a.u.)
 --------------------------------------------------------------

 Alpha MOs
 -- Occupied --
-19.2401 -14.4562 -14.3797 -10.3318 -10.2896 -10.2814 -10.2765 -10.2724
-10.2697 -10.2694 -10.2679 -10.2666 -10.2582 -10.2535 -10.2509  -1.1866
 -1.1810  -1.0155  -0.9878  -0.9135  -0.8949  -0.8756  -0.8583  -0.8038
 -0.7628  -0.7414  -0.7286  -0.7069  -0.6821  -0.6653  -0.6578  -0.5958
 -0.5947  -0.5729  -0.5608  -0.5444  -0.5436  -0.5345  -0.5247  -0.5222
 -0.5163  -0.5044  -0.4953  -0.4713  -0.4666  -0.4482  -0.4477  -0.4410
 -0.4340  -0.4339  -0.3867  -0.3825  -0.3496  -0.3122  -0.3056
 -- Virtual --
  0.0587   0.0623   0.0686   0.0727   0.0751   0.0833   0.0900   0.0961
  0.1028   0.1065   0.1088   0.1117   0.1240   0.1270   0.1335   0.1390
  0.1442   0.1463   0.1521   0.1606   0.1654   0.1668   0.1706   0.1781
  0.1841   0.1899   0.1970   0.2003   0.2039   0.2106   0.2114   0.2164
  0.2205   0.2291   0.2329   0.2382   0.2417   0.2509   0.2553   0.2563
  0.2667   0.2677   0.2692   0.2717   0.2769   0.2782   0.2801   0.2856
  0.2933   0.2954   0.2963   0.3001   0.3058   0.3075   0.3095   0.3137
  0.3179   0.3229   0.3246   0.3289   0.3317   0.3359   0.3373   0.3412
  0.3442   0.3486   0.3507   0.3550   0.3582   0.3600   0.3634   0.3659
  0.3712   0.3734   0.3754   0.3791   0.3794   0.3841   0.3854   0.3870
  0.3937   0.3961   0.3975   0.3987   0.4022   0.4092   0.4104   0.4161
  0.4186   0.4229   0.4271   0.4275   0.4351   0.4360   0.4447   0.4456
  0.4498   0.4535   0.4552   0.4578   0.4622   0.4643   0.4677   0.4709
  0.4772   0.4792   0.4810   0.4850   0.4898   0.4934   0.4959   0.4992
  0.5005   0.5028   0.5084   0.5137   0.5177   0.5225   0.5237   0.5289
  0.5321   0.5352   0.5389   0.5417   0.5464   0.5494   0.5530   0.5559
  0.5608   0.5629   0.5668   0.5745   0.5795   0.5809   0.5855   0.5900
  0.5972   0.5978   0.5994   0.6057   0.6112   0.6157   0.6227   0.6301
  0.6317   0.6376   0.6397   0.6406   0.6441   0.6530   0.6609   0.6653
  0.6691   0.6741   0.6790   0.6793   0.6810   0.6882   0.6928   0.6990
  0.7027   0.7057   0.7108   0.7137   0.7202   0.7250   0.7332   0.7350
  0.7417   0.7436   0.7495   0.7503   0.7527   0.7581   0.7631   0.7684
  0.7690   0.7718   0.7768   0.7829   0.7860   0.7885   0.7922   0.7958
  0.7993   0.8038   0.8056   0.8096   0.8168   0.8174   0.8207   0.8252
  0.8299   0.8315   0.8367   0.8406   0.8463   0.8485   0.8499   0.8552
  0.8594   0.8615   0.8706   0.8760   0.8797   0.8831   0.8861   0.8942
  0.8993   0.9011   0.9055   0.9123   0.9148   0.9158   0.9237   0.9275
  0.9292   0.9363   0.9424   0.9503   0.9577   0.9623   0.9676   0.9751
  0.9782   0.9861   0.9897   1.0050   1.0128   1.0186   1.0239   1.0356
  1.0385   1.0441   1.0504   1.0574   1.0621   1.0661   1.0839   1.0890
  1.0911   1.1058   1.1114   1.1201   1.1232   1.1300   1.1344   1.1463
  1.1520   1.1585   1.1705   1.1806   1.1842   1.1878   1.2017   1.2105
  1.2303   1.2384   1.2414   1.2508   1.2695   1.2743   1.2844   1.2947
  1.3003   1.3154   1.3190   1.3346   1.3414   1.3533   1.3553   1.3762
  1.3859   1.3918   1.4052   1.4152   1.4171   1.4380   1.4489   1.4543
  1.4668   1.4692   1.4794   1.4869   1.4928   1.5026   1.5216   1.5295
  1.5497   1.5514   1.5587   1.5729   1.5805   1.5830   1.6016   1.6132
  1.6219   1.6455   1.6594   1.6678   1.6842   1.6917   1.7067   1.7173
  1.7208   1.7322   1.7497   1.7620   1.7779   1.7833   1.7967   1.8195
  1.8315   1.8487   1.8524   1.8665   1.8822   1.8931   1.9025   1.9098
  1.9147   1.9163   1.9347   1.9476   1.9523   1.9642   1.9699   1.9739
  1.9751   1.9842   1.9953   1.9992   2.0085   2.0109   2.0219   2.0315
  2.0390   2.0472   2.0503   2.0646   2.0683   2.0729   2.0880   2.0981
  2.1019   2.1230   2.1266   2.1413   2.1439   2.1592   2.1658   2.1724
  2.1907   2.2147   2.2173   2.2288   2.2519   2.2652   2.2728   2.2776
  2.2874   2.2899   2.3049   2.3159   2.3165   2.3246   2.3376   2.3522
  2.3650   2.3686   2.3816   2.4057   2.4161   2.4218   2.4261   2.4348
  2.4612   2.4652   2.4774   2.4822   2.4902   2.5127   2.5140   2.5401
  2.5481   2.5632   2.5679   2.5819   2.5964   2.6028   2.6114   2.6283
  2.6318   2.6411   2.6528   2.6696   2.6731   2.6747   2.6863   2.6953
  2.7070   2.7298   2.7388   2.7549   2.7619   2.7677   2.7729   2.7885
  2.8054   2.8113   2.8139   2.8327   2.8367   2.8481   2.8606   2.8644
  2.8750   2.8869   2.8999   2.9168   2.9256   2.9326   2.9384   2.9620
  2.9683   2.9701   2.9777   2.9820   2.9869   2.9940   3.0058   3.0090
  3.0317   3.0448   3.0530   3.0564   3.0632   3.0667   3.0934   3.0982
  3.1193   3.1323   3.1333   3.1457   3.1550   3.1706   3.1830   3.1947
  3.2056   3.2188   3.2259   3.2300   3.2474   3.2570   3.2632   3.2747
  3.2855   3.2884   3.2999   3.3116   3.3210   3.3253   3.3329   3.3459
  3.3654   3.3740   3.3783   3.3821   3.3871   3.4030   3.4107   3.4214
  3.4249   3.4434   3.4524   3.4580   3.4656   3.4706   3.4818   3.4891
  3.4967   3.5138   3.5148   3.5228   3.5251   3.5452   3.5566   3.5591
  3.5680   3.5758   3.5800   3.5904   3.5959   3.6079   3.6123   3.6184
  3.6266   3.6302   3.6383   3.6439   3.6544   3.6561   3.6645   3.6763
  3.6827   3.6879   3.6934   3.7083   3.7157   3.7254   3.7299   3.7427
  3.7448   3.7530   3.7659   3.7761   3.7991   3.8196   3.8342   3.8609
  3.8639   3.8783   3.8855   3.9253   3.9357   3.9561   3.9702   3.9861
  3.9951   4.0120   4.0171   4.0233   4.0488   4.0697   4.0853   4.1100
  4.1272   4.1388   4.1581   4.1690   4.1801   4.2174   4.2604   4.2709
  4.2878   4.3013   4.3093   4.3288   4.3364   4.3492   4.3548   4.3638
  4.3720   4.3765   4.3899   4.4117   4.4385   4.4484   4.4696   4.4824
  4.5034   4.5122   4.5533   4.5616   4.6010   4.6052   4.6308   4.6507
  4.6925   4.7220   4.7494   4.7524   4.7976   4.8053   4.8210   4.8599
  4.8837   4.8873   4.9537   4.9582   4.9845   5.0164   5.0292   5.0632
  5.0811   5.0928   5.1114   5.1224   5.1532   5.1794   5.1954   5.2244
  5.2545   5.3015   5.3219   5.3307   5.3501   5.3623   5.4050   5.4303
  5.4510   5.4802   5.5059   5.5476   5.6017   5.6183   5.6225   5.6391
  5.6621   5.6753   5.6900   5.7273   5.7537   5.7699   5.8200   5.9041
  5.9388   5.9609   6.1226   6.2226   6.2923   6.3791   6.4624   6.6131
  6.6838   6.9076   7.0366   7.3307   7.4775  22.6847  22.6998  22.7916
 22.8956  23.0076  23.0445  23.0555  23.1065  23.2079  23.3665  23.4988
 23.5865  32.8487  32.9744  44.5495
 --------------------------------------------------------------

          Ground-State Mulliken Net Atomic Charges

     Atom                 Charge (a.u.)
  ----------------------------------------
      1 C                    -1.227668
      2 C                     0.510684
      3 C                    -0.420695
      4 C                    -0.585860
      5 C                    -0.537967
      6 C                    -0.491553
      7 C                     0.549215
      8 O                    -0.560449
      9 H                     0.410630
     10 H                     0.350308
     11 H                     0.348650
     12 H                     0.423071
     13 H                     0.389462
     14 H                     0.293890
     15 H                     0.302288
     16 H                     0.235458
     17 C                     0.029880
     18 C                    -1.182343
     19 C                     0.121525
     20 C                    -0.366677
     21 C                    -0.484933
     22 N                    -0.419900
     23 N                     0.211229
     24 H                     0.151328
     25 H                     0.219842
     26 H                     0.301416
     27 H                     0.321354
     28 H                     0.334002
     29 H                     0.212793
     30 H                     0.261193
     31 H                     0.299828
  ----------------------------------------
  Sum of atomic charges =     0.000000

 -----------------------------------------------------------------
                    Cartesian Multipole Moments
 -----------------------------------------------------------------
    Charge (ESU x 10^10)
                 0.0000
    Dipole Moment (Debye)
         X       4.5506      Y      -2.2528      Z      -0.2144
       Tot       5.0822
    Quadrupole Moments (Debye-Ang)
        XX     -78.5534     XY      -4.6143     YY     -80.5325
        XZ       4.0458     YZ      -0.1175     ZZ     -98.1968
    Octopole Moments (Debye-Ang^2)
       XXX      25.7638    XXY       2.4750    XYY      -8.1387
       YYY      21.3511    XXZ      16.8297    XYZ      -8.9624
       YYZ      -1.9546    XZZ      29.2411    YZZ     -20.8056
       ZZZ      -1.5477
    Hexadecapole Moments (Debye-Ang^3)
      XXXX   -1613.8147   XXXY    -244.4109   XXYY    -407.9456
      XYYY    -252.3856   YYYY    -999.1771   XXXZ     325.2559
      XXYZ     110.2868   XYYZ     110.5213   YYYZ     377.3429
      XXZZ    -562.0790   XYZZ     -80.7252   YYZZ    -506.0905
      XZZZ     371.5994   YZZZ     385.7311   ZZZZ   -1851.3066
 -----------------------------------------------------------------
Archival summary:
1\1\compute-0-0.local\SP\ProcedureUnspecified\BasisUnspecified\121216\meili\TueSep2820:26:262021TueSep2820:26:262021\0\\#,ProcedureUnspecified,BasisUnspecified,\\0,1\N\C,1,1.30283\H,2,1.08967,1,114.92\N,2,1.25515,1,114.345,3,122.926,0\H,4,1.01389,2,124.057,1,-168.574,0\C,1,1.33463,2,106.1,3,-120.898,0\C,6,1.35727,1,106.558,2,0.882226,0\H,7,1.0829,6,125.76,1,177.749,0\C,6,1.48418,1,122.748,2,176.787,0\H,9,1.09048,6,109.298,1,26.54,0\H,9,1.091,6,107.586,1,143.171,0\C,9,1.52858,6,113.167,1,-96.3957,0\H,12,1.09075,9,109.676,6,-54.461,0\H,12,1.1,9,109.381,6,64.3475,0\H,12,1.1,9,107.237,6,-173.758,0\H,11,2.92229,9,133.063,6,-44.8387,0\C,16,1.08021,11,100.373,9,14.8194,0\C,17,1.39497,16,119.646,11,-64.1299,0\O,18,1.37113,17,119.66,16,0.258818,0\H,19,0.963943,18,112.022,17,174.898,0\C,18,1.39684,17,119.571,16,179.685,0\H,21,1.07959,18,120.006,17,-179.985,0\C,17,1.40043,16,120.399,11,115.782,0\H,23,1.08302,17,119.14,16,0.234154,0\C,23,1.39828,17,121.143,16,-179.663,0\C,25,1.39553,23,118.482,17,-0.332412,0\H,26,1.08188,25,119.823,23,-179.806,0\C,25,1.51461,23,120.522,17,179.92,0\H,28,1.08707,25,107.05,23,11.6913,0\H,28,1.09115,25,109.697,23,127.759,0\H,28,1.1,25,114.142,23,-108.232,0\\\@

 Total job time:  36794.52s(wall), 109845.07s(cpu) 
 Tue Sep 28 20:26:26 2021

        *************************************************************
        *                                                           *
        *  Thank you very much for using Q-Chem.  Have a nice day.  *
        *                                                           *
        *************************************************************


