
Running Job 1 of 1 SSI-012PHE-026PHE-1_SMD_TZVPD.in
qchem SSI-012PHE-026PHE-1_SMD_TZVPD.in_35623.0 /tmp/qchem35623/ 0
/global/common/cori/software/qchem/5.2/exe/qcprog.exe_s SSI-012PHE-026PHE-1_SMD_TZVPD.in_35623.0 /tmp/qchem35623/
                  Welcome to Q-Chem
     A Quantum Leap Into The Future Of Chemistry


 Q-Chem 5.2, Q-Chem, Inc., Pleasanton, CA (2019)

 License issued to: National Energy Research Scientific Computing Center

 Yihan Shao,  Zhengting Gan,  E. Epifanovsky,  A. T. B. Gilbert,  M. Wormit,  
 J. Kussmann,  A. W. Lange,  A. Behn,  Jia Deng,  Xintian Feng,  D. Ghosh,  
 M. Goldey,  P. R. Horn,  L. D. Jacobson,  I. Kaliman,  T. Kus,  A. Landau,  
 Jie Liu,  E. I. Proynov,  R. M. Richard,  R. P. Steele,  E. J. Sundstrom,  
 H. L. Woodcock III,  P. M. Zimmerman,  D. Zuev,  B. Albrecht,  E. Alguire,  
 S. A. Baeppler,  D. Barton,  Z. Benda,  Y. A. Bernard,  E. J. Berquist,  
 K. B. Bravaya,  H. Burton,  D. Casanova,  Chun-Min Chang,  Yunqing Chen,  
 A. Chien,  K. D. Closser,  M. P. Coons,  S. Coriani,  S. Dasgupta,  
 A. L. Dempwolff,  M. Diedenhofen,  Hainam Do,  R. G. Edgar,  Po-Tung Fang,  
 S. Faraji,  S. Fatehi,  Qingguo Feng,  K. D. Fenk,  J. Fosso-Tande,  
 J. Gayvert,  Qinghui Ge,  A. Ghysels,  G. Gidofalvi,  J. Gomes,  
 J. Gonthier,  A. Gunina,  D. Hait,  M. W. D. Hanson-Heine,  
 P. H. P. Harbach,  A. W. Hauser,  M. F. Herbst,  J. E. Herr,  
 E. G. Hohenstein,  Z. C. Holden,  Kerwin Hui,  B. C. Huynh,  T.-C. Jagau,  
 Hyunjun Ji,  B. Kaduk,  K. Khistyaev,  Jaehoon Kim,  P. Klunzinger,  K. Koh,  
 D. Kosenkov,  L. Koulias,  T. Kowalczyk,  C. M. Krauter,  A. Kunitsa,  
 Ka Un Lao,  A. Laurent,  K. V. Lawler,  Joonho Lee,  D. Lefrancois,  
 S. Lehtola,  D. S. Levine,  Yi-Pei Li,  You-Sheng Lin,  Fenglai Liu,  
 E. Livshits,  A. Luenser,  P. Manohar,  E. Mansoor,  S. F. Manzer,  
 Shan-Ping Mao,  Yuezhi Mao,  N. Mardirossian,  A. V. Marenich,  
 T. Markovich,  L. A. Martinez-Martinez,  S. A. Maurer,  N. J. Mayhall,  
 S. C. McKenzie,  J.-M. Mewes,  P. Morgante,  A. F. Morrison,  
 J. W. Mullinax,  K. Nanda,  T. S. Nguyen-Beck,  R. Olivares-Amaya,  
 J. A. Parkhill,  Zheng Pei,  T. M. Perrine,  F. Plasser,  P. Pokhilko,  
 S. Prager,  A. Prociuk,  E. Ramos,  D. R. Rehn,  F. Rob,  M. Scheurer,  
 M. Schneider,  N. Sergueev,  S. M. Sharada,  S. Sharma,  D. W. Small,  
 T. Stauch,  T. Stein,  Yu-Chuan Su,  A. J. W. Thom,  A. Tkatchenko,  
 T. Tsuchimochi,  N. M. Tubman,  L. Vogt,  M. L. Vidal,  O. Vydrov,  
 M. A. Watson,  J. Wenzel,  M. de Wergifosse,  T. A. Wesolowski,  A. White,  
 J. Witte,  A. Yamada,  Jun Yang,  K. Yao,  S. Yeganeh,  S. R. Yost,  
 Zhi-Qiang You,  A. Zech,  Igor Ying Zhang,  Xing Zhang,  Yan Zhao,  
 Ying Zhu,  B. R. Brooks,  G. K. L. Chan,  C. J. Cramer,  M. S. Gordon,  
 W. J. Hehre,  A. Klamt,  M. W. Schmidt,  C. D. Sherrill,  D. G. Truhlar,  
 A. Aspuru-Guzik,  R. Baer,  A. T. Bell,  N. A. Besley,  Jeng-Da Chai,  
 A. E. DePrince, III,  R. A. DiStasio Jr.,  A. Dreuw,  B. D. Dunietz,  
 T. R. Furlani,  Chao-Ping Hsu,  Yousung Jung,  Jing Kong,  D. S. Lambrecht,  
 WanZhen Liang,  C. Ochsenfeld,  V. A. Rassolov,  L. V. Slipchenko,  
 J. E. Subotnik,  T. Van Voorhis,  J. M. Herbert,  A. I. Krylov,  
 P. M. W. Gill,  M. Head-Gordon

 Contributors to earlier versions of Q-Chem not listed above: 
 R. D. Adamson,  B. Austin,  J. Baker,  G. J. O. Beran,  K. Brandhorst,  
 S. T. Brown,  E. F. C. Byrd,  A. K. Chakraborty,  C.-L. Cheng,  
 Siu Hung Chien,  D. M. Chipman,  D. L. Crittenden,  H. Dachsel,  
 R. J. Doerksen,  A. D. Dutoi,  L. Fusti-Molnar,  W. A. Goddard III,  
 A. Golubeva-Zadorozhnaya,  S. R. Gwaltney,  G. Hawkins,  A. Heyden,  
 S. Hirata,  G. Kedziora,  F. J. Keil,  C. Kelley,  Jihan Kim,  R. A. King,  
 R. Z. Khaliullin,  P. P. Korambath,  W. Kurlancheek,  A. M. Lee,  M. S. Lee,  
 S. V. Levchenko,  Ching Yeh Lin,  D. Liotard,  R. C. Lochan,  I. Lotan,  
 P. E. Maslen,  N. Nair,  D. P. O'Neill,  D. Neuhauser,  E. Neuscamman,  
 C. M. Oana,  R. Olson,  B. Peters,  R. Peverati,  P. A. Pieniazek,  
 Y. M. Rhee,  J. Ritchie,  M. A. Rohrdanz,  E. Rosta,  N. J. Russ,  
 H. F. Schaefer III,  N. E. Schultz,  N. Shenvi,  A. C. Simmonett,  A. Sodt,  
 D. Stuck,  K. S. Thanthiriwatte,  V. Vanovschi,  Tao Wang,  A. Warshel,  
 C. F. Williams,  Q. Wu,  X. Xu,  W. Zhang

 Please cite Q-Chem as follows:
 Y. Shao et al., Mol. Phys. 113, 184-215 (2015)
 DOI: 10.1080/00268976.2014.952696

 Q-Chem 5.2.0 for Intel X86 EM64T Linux

 Parts of Q-Chem use Armadillo 8.300.2 (Tropical Shenanigans).
 http://arma.sourceforge.net/

 Q-Chem begins on Sun Sep 26 02:58:50 2021  

Host: cori01
0

     Scratch files written to /tmp/qchem35623//
 May1019 |scratch|qcdevops|jenkins|workspace|build_RNUM -1
Processing $rem in /global/common/cori/software/qchem/5.2/config/preferences:
	 MEM_TOTAL  96000 
NAlpha2: 100
NElect   100
Mult     1
Symmetry turned off for PCM/SM12/SMD calculation

 Q-Chem warning in module libgen/rem_setup.C, line 2803:

 Neither GIA nor STOLL is specified by user. Use STOLL as the default


Checking the input file for inconsistencies... 	...done.

--------------------------------------------------------------
User input:
--------------------------------------------------------------
$comment
SSI-012PHE-026PHE-1.pdb
$end

$molecule
0 1
--
0 1
C    2.742253994402   -0.498879308704   -2.694954363924
C    2.555253994402    0.206120691296    1.018045636076
C    2.286253994402    1.568120691296    1.067045636076
C    2.696253994402   -0.429879308704   -0.209954363924
C    2.558253994402    0.271120691296   -1.408954363924
C    2.156253994402    2.289120691296   -0.119954363924
C    2.302253994402    1.646120691296   -1.356954363924
H    2.630253994402   -0.366879308704    1.928045636076
H    2.173253994402    2.066120691296    2.021045636076
H    2.902253994402   -1.490879308704   -0.231954363924
H    1.950253994402    3.350120691296   -0.082954363924
H    2.132253994402   -1.401879308704   -2.639954363924
H    3.785253994402   -0.803879308704   -2.731954363924
H    2.240253994402    2.234120691296   -2.244954363924
H    2.517737394402    0.028340691296   -3.633904363924
--
0 1
C   -4.650746005598    0.382120691296    0.296045636076
C   -0.933746005598   -0.344879308704    0.027045636076
C   -0.826746005598   -1.520879308704    0.771045636076
C   -2.174746005598    0.270120691296   -0.126954363924
C   -3.314746005598   -0.282879308704    0.460045636076
C   -1.963746005598   -2.076879308704    1.361045636076
C   -3.200746005598   -1.454879308704    1.207045636076
H   -0.056746005598    0.090120691296   -0.428954363924
H    0.136253994402   -1.997879308704    0.879045636076
H   -2.254746005598    1.174120691296   -0.707954363924
H   -1.886746005598   -2.989879308704    1.935045636076
H   -4.479746005598    1.443120691296    0.104045636076
H   -5.200746005598    0.310120691296    1.236045636076
H   -4.077746005598   -1.890879308704    1.663045636076
H   -5.268390005598   -0.036099308704   -0.512415363924
$end

$rem
JOBTYPE			EDA
EDA2			1
method			wB97X-V
BASIS			def2-TZVPD
XC_GRID			000099000590
NL_GRID			1
UNRESTRICTED		FALSE
MAX_SCF_CYCLES		200
SYMMETRY		FALSE
SYM_IGNORE		TRUE
MEM_STATIC		2000
BASIS_LIN_DEP_THRESH 	6
THRESH 			14
SCF_CONVERGENCE 	8
SCF_PRINT_FRGM 		TRUE
SOLVENT_METHOD          SMD
$end

$SMX
SOLVENT			WATER
$END
--------------------------------------------------------------
 ----------------------------------------------------------------
             Standard Nuclear Orientation (Angstroms)
    I     Atom           X                Y                Z
 ----------------------------------------------------------------
    1      C       2.7422539944    -0.4988793087    -2.6949543639
    2      C       2.5552539944     0.2061206913     1.0180456361
    3      C       2.2862539944     1.5681206913     1.0670456361
    4      C       2.6962539944    -0.4298793087    -0.2099543639
    5      C       2.5582539944     0.2711206913    -1.4089543639
    6      C       2.1562539944     2.2891206913    -0.1199543639
    7      C       2.3022539944     1.6461206913    -1.3569543639
    8      H       2.6302539944    -0.3668793087     1.9280456361
    9      H       2.1732539944     2.0661206913     2.0210456361
   10      H       2.9022539944    -1.4908793087    -0.2319543639
   11      H       1.9502539944     3.3501206913    -0.0829543639
   12      H       2.1322539944    -1.4018793087    -2.6399543639
   13      H       3.7852539944    -0.8038793087    -2.7319543639
   14      H       2.2402539944     2.2341206913    -2.2449543639
   15      H       2.5177373944     0.0283406913    -3.6339043639
   16      C      -4.6507460056     0.3821206913     0.2960456361
   17      C      -0.9337460056    -0.3448793087     0.0270456361
   18      C      -0.8267460056    -1.5208793087     0.7710456361
   19      C      -2.1747460056     0.2701206913    -0.1269543639
   20      C      -3.3147460056    -0.2828793087     0.4600456361
   21      C      -1.9637460056    -2.0768793087     1.3610456361
   22      C      -3.2007460056    -1.4548793087     1.2070456361
   23      H      -0.0567460056     0.0901206913    -0.4289543639
   24      H       0.1362539944    -1.9978793087     0.8790456361
   25      H      -2.2547460056     1.1741206913    -0.7079543639
   26      H      -1.8867460056    -2.9898793087     1.9350456361
   27      H      -4.4797460056     1.4431206913     0.1040456361
   28      H      -5.2007460056     0.3101206913     1.2360456361
   29      H      -4.0777460056    -1.8908793087     1.6630456361
   30      H      -5.2683900056    -0.0360993087    -0.5124153639
 ----------------------------------------------------------------
 Nuclear Repulsion Energy =         782.02841077 hartrees
 There are       50 alpha and       50 beta electrons
 Requested basis set is def2-TZVPD
 There are 262 shells and 662 basis functions

 Total QAlloc Memory Limit  96000 MB
 Mega-Array Size      1956 MB
 MEM_STATIC part      2000 MB
 
 Citation of the SMD model:
 Marenich, A.V.; Cramer, C.J.; Truhlar, D.G.
 J. Phys. Chem. B 2009, 113, 6378-6396.
 iSolventCode=           1
 Solvent: water                                                           
 
 vradii
            1           2           3           4           5           6
    1   1.8500000   1.8500000   1.8500000   1.8500000   1.8500000   1.8500000
            7           8           9          10          11          12
    1   1.8500000   1.2000000   1.2000000   1.2000000   1.2000000   1.2000000
           13          14          15          16          17          18
    1   1.2000000   1.2000000   1.2000000   1.8500000   1.8500000   1.8500000
           19          20          21          22          23          24
    1   1.8500000   1.8500000   1.8500000   1.8500000   1.2000000   1.2000000
           25          26          27          28          29          30
    1   1.2000000   1.2000000   1.2000000   1.2000000   1.2000000   1.2000000
 Changing PCM_VDW_RADII to SMD_RADIUS
 Discretize the solute cavity surface with Lebedev spheres
	Using 110 Lebedev grid points for each H atom
	Using 194 Lebedev grid points for other atoms
	Atomic van der Waals radii will be scaled by 1.20
 Remove points where switching function is < 1.0e-08
 Keep 2203 surface tesserae and discard 2273 interior tesserae
 Molecular Surface Area = 258.997 Angst**2
 A cutoff of  1.0D-14 yielded  29434 shell pairs
 There are    188646 function pairs (    237906 Cartesian)
 Smallest overlap matrix eigenvalue = 4.61E-07
 Linear dependence detected in AO basis
 Tighter screening thresholds may be required for diffuse basis sets
 Use S2THRESH > 14 and THRESH = 14 in case of SCF convergence issues
 Number of orthogonalized atomic orbitals = 659
 Maximum deviation from orthogonality = 3.567E-10

 Scale SEOQF with 1.000000e-02/1.000000e-01/1.000000e-01

 Standard Electronic Orientation quadrupole field applied
 Nucleus-field energy     =    -0.0000000022 hartrees

 -----------------------------------------------------------------------
  General SCF calculation program by
  Eric Jon Sundstrom, Paul Horn, Yuezhi Mao, Dmitri Zuev, Alec White,
  David Stuck, Shaama M.S., Shane Yost, Joonho Lee, David Small,
  Daniel Levine, Susi Lehtola, Hugh Burton, Evgeny Epifanovsky
 -----------------------------------------------------------------------
================================================================
                 ALMO-EDA with the EDA2 driver                  
================================================================
 The second-generation ALMO-EDA (for DFT):                      
 P. R. Horn, Y. Mao and M. Head-Gordon, PCCP, 18, 23067 (2016)  
 Decomposition of the frozen energy:                            
 P. R. Horn, Y. Mao and M. Head-Gordon, JCP, 144, 114107 (2016) 
 FERF model for polarization:                                   
 P. R. Horn and M. Head-Gordon, JCP, 143, 114111 (2015)         
Using eda2 option set 1
Option set summary: Frozen orbital wavefunction, initial wavefunction decomposition, and nDQ polarization.
--------------------------------
Printing EDA Options
--------------------------------
eda_child_super_basis      0
fragmo_guess_mode          0
child_mp                   1
child_mp_orders            232
cls_elec                   1
cls_disp                   0
scfmi_mode                 1
scfmi_occs                 0
scfmi_virts                0
frz_relax                  0
frz_relax_method           0
dc_pen_start               0
dc_pen_conv                0
dc_pen_increment           0
dc_pen_steps               0
dc_pen_thresh_factor       0
dc_pen_pre_newton_thresh   0
frz_ortho_decomp           1
frz_ortho_decomp_conv      6
frgm_method                2
scfmi_freeze_ss            0
separate_rehyb             0
plot_diff_den              0
eda_nocv                   0
eda_vct_relax              1
disp_free_x                0
disp_free_c                0
eda_bsse                   0
eda_pct_a                  0
eda_covp                   0
--------------------------------
Attempting to make child job directory: /tmp/qchem35623//Frg1/
Attempting to make child job directory: /tmp/qchem35623//Frg2/
Creating input file /tmp/qchem35623/Frg1.input
using default PutDataFrgm: nothing
calling putenv with: QCSCRATCH=/tmp/qchem35623/ 
calling putenv with: QCLOCALSCR=/tmp/qchem35623/ 
Spawning Job For Fragment 0
                  Welcome to Q-Chem
     A Quantum Leap Into The Future Of Chemistry


 Q-Chem 5.2, Q-Chem, Inc., Pleasanton, CA (2019)

 License issued to: National Energy Research Scientific Computing Center

 Yihan Shao,  Zhengting Gan,  E. Epifanovsky,  A. T. B. Gilbert,  M. Wormit,  
 J. Kussmann,  A. W. Lange,  A. Behn,  Jia Deng,  Xintian Feng,  D. Ghosh,  
 M. Goldey,  P. R. Horn,  L. D. Jacobson,  I. Kaliman,  T. Kus,  A. Landau,  
 Jie Liu,  E. I. Proynov,  R. M. Richard,  R. P. Steele,  E. J. Sundstrom,  
 H. L. Woodcock III,  P. M. Zimmerman,  D. Zuev,  B. Albrecht,  E. Alguire,  
 S. A. Baeppler,  D. Barton,  Z. Benda,  Y. A. Bernard,  E. J. Berquist,  
 K. B. Bravaya,  H. Burton,  D. Casanova,  Chun-Min Chang,  Yunqing Chen,  
 A. Chien,  K. D. Closser,  M. P. Coons,  S. Coriani,  S. Dasgupta,  
 A. L. Dempwolff,  M. Diedenhofen,  Hainam Do,  R. G. Edgar,  Po-Tung Fang,  
 S. Faraji,  S. Fatehi,  Qingguo Feng,  K. D. Fenk,  J. Fosso-Tande,  
 J. Gayvert,  Qinghui Ge,  A. Ghysels,  G. Gidofalvi,  J. Gomes,  
 J. Gonthier,  A. Gunina,  D. Hait,  M. W. D. Hanson-Heine,  
 P. H. P. Harbach,  A. W. Hauser,  M. F. Herbst,  J. E. Herr,  
 E. G. Hohenstein,  Z. C. Holden,  Kerwin Hui,  B. C. Huynh,  T.-C. Jagau,  
 Hyunjun Ji,  B. Kaduk,  K. Khistyaev,  Jaehoon Kim,  P. Klunzinger,  K. Koh,  
 D. Kosenkov,  L. Koulias,  T. Kowalczyk,  C. M. Krauter,  A. Kunitsa,  
 Ka Un Lao,  A. Laurent,  K. V. Lawler,  Joonho Lee,  D. Lefrancois,  
 S. Lehtola,  D. S. Levine,  Yi-Pei Li,  You-Sheng Lin,  Fenglai Liu,  
 E. Livshits,  A. Luenser,  P. Manohar,  E. Mansoor,  S. F. Manzer,  
 Shan-Ping Mao,  Yuezhi Mao,  N. Mardirossian,  A. V. Marenich,  
 T. Markovich,  L. A. Martinez-Martinez,  S. A. Maurer,  N. J. Mayhall,  
 S. C. McKenzie,  J.-M. Mewes,  P. Morgante,  A. F. Morrison,  
 J. W. Mullinax,  K. Nanda,  T. S. Nguyen-Beck,  R. Olivares-Amaya,  
 J. A. Parkhill,  Zheng Pei,  T. M. Perrine,  F. Plasser,  P. Pokhilko,  
 S. Prager,  A. Prociuk,  E. Ramos,  D. R. Rehn,  F. Rob,  M. Scheurer,  
 M. Schneider,  N. Sergueev,  S. M. Sharada,  S. Sharma,  D. W. Small,  
 T. Stauch,  T. Stein,  Yu-Chuan Su,  A. J. W. Thom,  A. Tkatchenko,  
 T. Tsuchimochi,  N. M. Tubman,  L. Vogt,  M. L. Vidal,  O. Vydrov,  
 M. A. Watson,  J. Wenzel,  M. de Wergifosse,  T. A. Wesolowski,  A. White,  
 J. Witte,  A. Yamada,  Jun Yang,  K. Yao,  S. Yeganeh,  S. R. Yost,  
 Zhi-Qiang You,  A. Zech,  Igor Ying Zhang,  Xing Zhang,  Yan Zhao,  
 Ying Zhu,  B. R. Brooks,  G. K. L. Chan,  C. J. Cramer,  M. S. Gordon,  
 W. J. Hehre,  A. Klamt,  M. W. Schmidt,  C. D. Sherrill,  D. G. Truhlar,  
 A. Aspuru-Guzik,  R. Baer,  A. T. Bell,  N. A. Besley,  Jeng-Da Chai,  
 A. E. DePrince, III,  R. A. DiStasio Jr.,  A. Dreuw,  B. D. Dunietz,  
 T. R. Furlani,  Chao-Ping Hsu,  Yousung Jung,  Jing Kong,  D. S. Lambrecht,  
 WanZhen Liang,  C. Ochsenfeld,  V. A. Rassolov,  L. V. Slipchenko,  
 J. E. Subotnik,  T. Van Voorhis,  J. M. Herbert,  A. I. Krylov,  
 P. M. W. Gill,  M. Head-Gordon

 Contributors to earlier versions of Q-Chem not listed above: 
 R. D. Adamson,  B. Austin,  J. Baker,  G. J. O. Beran,  K. Brandhorst,  
 S. T. Brown,  E. F. C. Byrd,  A. K. Chakraborty,  C.-L. Cheng,  
 Siu Hung Chien,  D. M. Chipman,  D. L. Crittenden,  H. Dachsel,  
 R. J. Doerksen,  A. D. Dutoi,  L. Fusti-Molnar,  W. A. Goddard III,  
 A. Golubeva-Zadorozhnaya,  S. R. Gwaltney,  G. Hawkins,  A. Heyden,  
 S. Hirata,  G. Kedziora,  F. J. Keil,  C. Kelley,  Jihan Kim,  R. A. King,  
 R. Z. Khaliullin,  P. P. Korambath,  W. Kurlancheek,  A. M. Lee,  M. S. Lee,  
 S. V. Levchenko,  Ching Yeh Lin,  D. Liotard,  R. C. Lochan,  I. Lotan,  
 P. E. Maslen,  N. Nair,  D. P. O'Neill,  D. Neuhauser,  E. Neuscamman,  
 C. M. Oana,  R. Olson,  B. Peters,  R. Peverati,  P. A. Pieniazek,  
 Y. M. Rhee,  J. Ritchie,  M. A. Rohrdanz,  E. Rosta,  N. J. Russ,  
 H. F. Schaefer III,  N. E. Schultz,  N. Shenvi,  A. C. Simmonett,  A. Sodt,  
 D. Stuck,  K. S. Thanthiriwatte,  V. Vanovschi,  Tao Wang,  A. Warshel,  
 C. F. Williams,  Q. Wu,  X. Xu,  W. Zhang

 Please cite Q-Chem as follows:
 Y. Shao et al., Mol. Phys. 113, 184-215 (2015)
 DOI: 10.1080/00268976.2014.952696

 Q-Chem 5.2.0 for Intel X86 EM64T Linux

 Parts of Q-Chem use Armadillo 8.300.2 (Tropical Shenanigans).
 http://arma.sourceforge.net/

 Q-Chem begins on Sun Sep 26 02:58:58 2021  

Host: cori01
0

     Scratch files written to /tmp/qchem35623//Frg1//
 May1019 |scratch|qcdevops|jenkins|workspace|build_RNUM -1
Processing $rem in /global/common/cori/software/qchem/5.2/config/preferences:
	 MEM_TOTAL  96000 
NAlpha2: 50
NElect   50
Mult     1
Symmetry turned off for PCM/SM12/SMD calculation

Checking the input file for inconsistencies... 	...done.

--------------------------------------------------------------
User input:
--------------------------------------------------------------
$molecule
0 1
 6	2.7422539944	-0.4988793087	-2.6949543639
 6	2.5552539944	0.2061206913	1.0180456361
 6	2.2862539944	1.5681206913	1.0670456361
 6	2.6962539944	-0.4298793087	-0.2099543639
 6	2.5582539944	0.2711206913	-1.4089543639
 6	2.1562539944	2.2891206913	-0.1199543639
 6	2.3022539944	1.6461206913	-1.3569543639
 1	2.6302539944	-0.3668793087	1.9280456361
 1	2.1732539944	2.0661206913	2.0210456361
 1	2.9022539944	-1.4908793087	-0.2319543639
 1	1.9502539944	3.3501206913	-0.0829543639
 1	2.1322539944	-1.4018793087	-2.6399543639
 1	3.7852539944	-0.8038793087	-2.7319543639
 1	2.2402539944	2.2341206913	-2.2449543639
 1	2.5177373944	0.0283406913	-3.6339043639
$end
$rem
EDA2		1
METHOD		WB97X-V
BASIS		DEF2-TZVPD
XC_GRID		000099000590
NL_GRID		1
UNRESTRICTED		FALSE
MAX_SCF_CYCLES		200
SYMMETRY		FALSE
SYM_IGNORE		TRUE
BASIS_LIN_DEP_THRESH		6
THRESH		14
SCF_CONVERGENCE		8
SCF_PRINT_FRGM		TRUE
SOLVENT_METHOD		SMD
!required keywords
JOBTYPE		SP
SYM_IGNORE		TRUE
SUBSYSTEM		TRUE
GEN_SCFMAN		TRUE
CHILD_INSTRUCTION		2
SYM_IGNORE		TRUE
SCFMI		0
RI_K 0		
PARI_K 0		
MIN_PARI_K 0		
IARI_K 0		
OCC_RI_K 0		
PURECART		1111
MEM_STATIC		2000
MEM_TOTAL		96000
GUI		0
CHILD_MP		1
CHILD_MP_ORDERS		232
FRZ_RELAX		0
FRZ_RELAX_METHOD		0
EDA_CLS_ELEC		1
EDA_CLS_DISP		0
FRZ_ORTHO_DECOMP		1
EDA2		FALSE
FRGM_METHOD		FALSE
CIS_N_ROOTS  0
LOCAL_CIS    0
CIS_RLX_DNS  1
$end
$smx
SOLVENT			WATER
$end
--------------------------------------------------------------
 ----------------------------------------------------------------
             Standard Nuclear Orientation (Angstroms)
    I     Atom           X                Y                Z
 ----------------------------------------------------------------
    1      C       2.7422539944    -0.4988793087    -2.6949543639
    2      C       2.5552539944     0.2061206913     1.0180456361
    3      C       2.2862539944     1.5681206913     1.0670456361
    4      C       2.6962539944    -0.4298793087    -0.2099543639
    5      C       2.5582539944     0.2711206913    -1.4089543639
    6      C       2.1562539944     2.2891206913    -0.1199543639
    7      C       2.3022539944     1.6461206913    -1.3569543639
    8      H       2.6302539944    -0.3668793087     1.9280456361
    9      H       2.1732539944     2.0661206913     2.0210456361
   10      H       2.9022539944    -1.4908793087    -0.2319543639
   11      H       1.9502539944     3.3501206913    -0.0829543639
   12      H       2.1322539944    -1.4018793087    -2.6399543639
   13      H       3.7852539944    -0.8038793087    -2.7319543639
   14      H       2.2402539944     2.2341206913    -2.2449543639
   15      H       2.5177373944     0.0283406913    -3.6339043639
 ----------------------------------------------------------------
 Nuclear Repulsion Energy =         269.40633344 hartrees
 There are       25 alpha and       25 beta electrons
 Requested basis set is def2-TZVPD
 There are 131 shells and 331 basis functions

 Total QAlloc Memory Limit  96000 MB
 Mega-Array Size      1956 MB
 MEM_STATIC part      2000 MB
 
 Citation of the SMD model:
 Marenich, A.V.; Cramer, C.J.; Truhlar, D.G.
 J. Phys. Chem. B 2009, 113, 6378-6396.
 iSolventCode=           1
 Solvent: water                                                           
 
 vradii
            1           2           3           4           5           6
    1   1.8500000   1.8500000   1.8500000   1.8500000   1.8500000   1.8500000
            7           8           9          10          11          12
    1   1.8500000   1.2000000   1.2000000   1.2000000   1.2000000   1.2000000
           13          14          15
    1   1.2000000   1.2000000   1.2000000
 Changing PCM_VDW_RADII to SMD_RADIUS
 Discretize the solute cavity surface with Lebedev spheres
	Using 110 Lebedev grid points for each H atom
	Using 194 Lebedev grid points for other atoms
	Atomic van der Waals radii will be scaled by 1.20
 Remove points where switching function is < 1.0e-08
 Keep 1103 surface tesserae and discard 1135 interior tesserae
 Molecular Surface Area = 131.967 Angst**2

                       Distance Matrix (Angstroms)
             C (  1)   C (  2)   C (  3)   C (  4)   C (  5)   C (  6)
   C (  2)  3.783961
   C (  3)  4.316604  1.389175
   C (  4)  2.486383  1.390094  2.406415
   C (  5)  1.510150  2.427872  2.808339  1.395724
   C (  6)  3.840178  2.406893  1.394887  2.773565  2.428055
   C (  7)  2.566100  2.788949  2.425307  2.404292  1.399595  1.401761
   H (  8)  4.626240  1.077986  2.145666  2.139946  3.398205  3.387228
   H (  9)  5.398485  2.147448  1.082076  3.388349  3.890392  2.152649
   H ( 10)  2.660081  2.136052  3.379991  1.081037  2.146697  3.854538
   H ( 11)  4.718539  3.385700  2.147305  3.855003  3.407078  1.081446
   H ( 12)  1.091116  4.018153  4.752522  2.677271  2.120322  4.469279
   H ( 13)  1.087310  4.073757  4.722900  2.772414  2.100353  4.363810
   H ( 14)  2.814923  3.854760  3.378612  3.383202  2.157172  2.127371
   H ( 15)  1.099998  4.655497  4.952114  3.459085  2.238523  4.194001
             C (  7)   H (  8)   H (  9)   H ( 10)   H ( 11)   H ( 12)
   H (  8)  3.866649
   H (  9)  3.406453  2.477294
   H ( 10)  3.386206  2.450094  4.273137
   H ( 11)  2.156524  4.280492  2.474914  4.935969
   H ( 12)  3.311388  4.710186  5.809787  2.529681  5.399340
   H ( 13)  3.176856  4.820850  5.781561  2.738915  5.257389  1.760249
   H ( 14)  1.066833  4.932670  4.269832  4.285562  2.450265  3.658987
   H ( 15)  2.801454  5.577109  6.020770  3.745550  4.895458  1.783834
             H ( 13)   H ( 14)
   H ( 14)  3.442911
   H ( 15)  1.764285  2.621382
 
 A cutoff of  1.0D-14 yielded   8362 shell pairs
 There are     54494 function pairs (     69447 Cartesian)
 Smallest overlap matrix eigenvalue = 5.82E-07
 Linear dependence detected in AO basis
 Tighter screening thresholds may be required for diffuse basis sets
 Use S2THRESH > 14 and THRESH = 14 in case of SCF convergence issues
 Number of orthogonalized atomic orbitals = 330
 Maximum deviation from orthogonality = 1.987E-10

 Scale SEOQF with 1.000000e-01/1.000000e-01/1.000000e-01

 Standard Electronic Orientation quadrupole field applied
 Nucleus-field energy     =     0.0000000048 hartrees
 Guess from superposition of atomic densities
 Warning:  Energy on first SCF cycle will be non-variational
 SAD guess density has 49.913408 electrons

 -----------------------------------------------------------------------
  General SCF calculation program by
  Eric Jon Sundstrom, Paul Horn, Yuezhi Mao, Dmitri Zuev, Alec White,
  David Stuck, Shaama M.S., Shane Yost, Joonho Lee, David Small,
  Daniel Levine, Susi Lehtola, Hugh Burton, Evgeny Epifanovsky
 -----------------------------------------------------------------------
 Exchange:     0.1670 Hartree-Fock + 1.0000 wB97X-V + LR-HF
 Correlation:  1.0000 wB97X-V
 Using Euler-Maclaurin-Lebedev (99,590) quadrature formula
 Nonlocal Correlation:  VV10 with C = 0.0100 and b = 6.00 and scale = 1.00000
 Grid used for NLC:  SG-1 standard quadrature
Energy prior to optimization (guess energy) = -271.519239463757
Begin Timing: Total SCF Calculation
begin iterations for algorithm: DIIS         
the SCF tolerance is set to 1.00e-08
    1    -271.5192394638      1.95e-03     00000 
    2    -271.5601172893      1.27e-03     00000 
    3    -271.5835458335      1.55e-04     00000 
    4    -271.5842464784      4.67e-05     00000 
    5    -271.5842976654      2.24e-05     00000 
    6    -271.5843060935      5.70e-06     00000 
    7    -271.5843068734      1.93e-06     00000 
    8    -271.5843069405      4.29e-07     00000 
    9    -271.5843069474      1.16e-07     00000 
   10    -271.5843069482      5.09e-08     00000 
   11    -271.5843069484      2.88e-08     00000 
   12    -271.5843069485      8.61e-09     00000 Convergence criterion met
Timing for Total SCF: 1381.00s (wall), 2749.18s (cpu)
(3)  G-ENP(liq) elect-nuc-pol free energy of system     -271.584306948 a.u.
(4)  G-CDS(liq) cavity-dispersion-solvent structure 
     free energy                                                3.1804 kcal/mol
(6)  G-S(liq) free energy of system                     -271.579238619 a.u.
E_pcm = -0.0075582634
E_cds = 0.0050683293
Multipole orders to be included
        2
        3
computing dipole RHS
computing quadrupole RHS
total number of RHS in solve_reponses: 8
RHS batch sizes
        8
Beginning Block Conjugate Gradient Iterations. Batch Number: 0
computing hessian-vector products by finite difference
              1      6.30e-01     00000 Conjugate Gradient Iteration
computing hessian-vector products by finite difference
              2      1.96e-01     00000 Conjugate Gradient Iteration
computing hessian-vector products by finite difference
              3      4.66e-02     00000 Conjugate Gradient Iteration
computing hessian-vector products by finite difference
              4      1.21e-02     00000 Conjugate Gradient Iteration
computing hessian-vector products by finite difference
              5      2.17e-03     00000 Conjugate Gradient Iteration
computing hessian-vector products by finite difference
              6      6.40e-04     00000 Conjugate Gradient Iteration
computing hessian-vector products by finite difference
              7      1.50e-04     00000 Conjugate Gradient Iteration
computing hessian-vector products by finite difference
              8      2.92e-05     00000 Conjugate Gradient Iteration
computing hessian-vector products by finite difference
              9      4.04e-06     00000 Conjugate Gradient Iteration
computing hessian-vector products by finite difference
             10      7.22e-07     00000 Conjugate Gradient Iteration
computing hessian-vector products by finite difference
             11      1.62e-07     00000 Conjugate Gradient Iteration
computing hessian-vector products by finite difference
             12      2.91e-08     00000 Conjugate Gradient Iteration
computing hessian-vector products by finite difference
             13      5.44e-09     00000 CG Converged
batch 0 complete
Done Calculating Responses
TESTING ORTHOGONALIZATION OF MULTIPOLE BASIS
Multipole virts passed orthogonality test
Virts Per Order
           75
          125
 
 --------------------------------------------------------------
 
                    Orbital Energies (a.u.)
 --------------------------------------------------------------
 
 Alpha MOs
 -- Occupied --
-10.2803 -10.2691 -10.2673 -10.2653 -10.2650 -10.2634 -10.2547  -0.9920
 -0.9013  -0.8739  -0.8075  -0.7243  -0.7009  -0.6240  -0.5670  -0.5616
 -0.5293  -0.5233  -0.5093  -0.4810  -0.4683  -0.4361  -0.4347  -0.3457
 -0.3336
 -- Virtual --
  0.0659   0.0679   0.0729   0.0841   0.0899   0.1093   0.1153   0.1182
  0.1414   0.1593   0.1697   0.1752   0.1870   0.1963   0.1996   0.2086
  0.2292   0.2344   0.2367   0.2480   0.2504   0.2598   0.2646   0.2778
  0.2834   0.2841   0.2911   0.2976   0.2994   0.3058   0.3085   0.3190
  0.3278   0.3313   0.3339   0.3461   0.3491   0.3562   0.3703   0.3764
  0.3782   0.3863   0.3919   0.3947   0.3972   0.4022   0.4067   0.4073
  0.4198   0.4311   0.4342   0.4425   0.4480   0.4523   0.4562   0.4596
  0.4698   0.4706   0.4851   0.4904   0.4993   0.5025   0.5162   0.5168
  0.5212   0.5291   0.5350   0.5461   0.5480   0.5565   0.5638   0.5721
  0.5737   0.5806   0.5936   0.5980   0.6025   0.6258   0.6363   0.6479
  0.6632   0.6750   0.6843   0.6894   0.6917   0.7100   0.7216   0.7260
  0.7289   0.7342   0.7473   0.7644   0.7682   0.7700   0.7827   0.7887
  0.7917   0.7953   0.8038   0.8049   0.8173   0.8273   0.8307   0.8332
  0.8356   0.8441   0.8518   0.8550   0.8633   0.8739   0.8897   0.8985
  0.9226   0.9314   0.9494   0.9557   0.9602   1.0068   1.0375   1.0442
  1.0499   1.0676   1.0721   1.0795   1.0926   1.1014   1.1053   1.1429
  1.1631   1.1673   1.2542   1.2827   1.2986   1.3296   1.3544   1.3600
  1.3773   1.4455   1.4526   1.4622   1.4690   1.4800   1.5300   1.5449
  1.6094   1.6130   1.6221   1.6317   1.6478   1.6790   1.7441   1.7710
  1.7880   1.8050   1.8059   1.8249   1.8381   1.8561   1.8933   1.9149
  1.9189   1.9266   1.9442   1.9773   1.9951   1.9988   2.0183   2.0317
  2.0399   2.0507   2.0706   2.0949   2.1252   2.1302   2.1697   2.1784
  2.2101   2.2456   2.2491   2.2702   2.2992   2.3225   2.3792   2.3950
  2.4143   2.4351   2.4591   2.5226   2.5360   2.5608   2.5730   2.6126
  2.6294   2.6406   2.6712   2.6791   2.7161   2.7246   2.7723   2.7799
  2.7910   2.8155   2.8317   2.8519   2.8592   2.8957   2.9106   2.9207
  2.9316   2.9460   2.9644   2.9922   3.0109   3.0186   3.0279   3.0564
  3.0755   3.0942   3.1080   3.1615   3.1725   3.1870   3.1977   3.2170
  3.2376   3.2577   3.2713   3.2940   3.3314   3.3601   3.3710   3.3907
  3.4167   3.4301   3.4481   3.4553   3.4646   3.4697   3.4857   3.5017
  3.5115   3.5276   3.5387   3.5501   3.5534   3.5749   3.5837   3.5909
  3.6135   3.6446   3.6596   3.6906   3.7076   3.7442   3.7591   3.7960
  3.8589   3.9000   3.9403   3.9454   3.9713   4.0040   4.0357   4.0604
  4.1369   4.2125   4.2684   4.2772   4.2847   4.3168   4.3326   4.3510
  4.3530   4.3671   4.3764   4.3944   4.4242   4.4581   4.5139   4.5466
  4.6153   4.6493   4.7444   4.7886   4.8113   4.8456   4.9133   4.9504
  5.0267   5.0379   5.1686   5.2685   5.3739   5.3859   5.4875   5.5294
  5.6756   5.8506  22.5997  22.6835  22.8905  22.9065  23.0111  23.0698
 23.4146
 --------------------------------------------------------------
 
          Ground-State Mulliken Net Atomic Charges

     Atom                 Charge (a.u.)
  ----------------------------------------
      1 C                    -1.072667
      2 C                    -0.567323
      3 C                    -0.536486
      4 C                    -0.300775
      5 C                     0.762423
      6 C                    -0.519849
      7 C                    -0.534506
      8 H                     0.376312
      9 H                     0.401272
     10 H                     0.404954
     11 H                     0.368764
     12 H                     0.266381
     13 H                     0.242688
     14 H                     0.403873
     15 H                     0.304939
  ----------------------------------------
  Sum of atomic charges =     0.000000

 -----------------------------------------------------------------
                    Cartesian Multipole Moments
 -----------------------------------------------------------------
    Charge (ESU x 10^10)
                -0.0000
    Dipole Moment (Debye)
         X       0.1473      Y      -0.3725      Z      -0.4740
       Tot       0.6206
    Quadrupole Moments (Debye-Ang)
        XX     -45.5277     XY      -2.4649     YY     -38.1824
        XZ      -1.6176     YZ      -0.0103     ZZ     -36.7187
    Octopole Moments (Debye-Ang^2)
       XXX    -339.5768    XXY     -43.5880    XYY     -98.5519
       YYY     -75.5030    XXZ      19.2587    XYZ      -0.2683
       YYZ      23.6564    XZZ     -91.0445    YZZ     -24.2707
       ZZZ      68.9481
    Hexadecapole Moments (Debye-Ang^3)
      XXXX   -1755.1584   XXXY    -249.2741   XXYY    -357.3068
      XYYY    -168.5283   YYYY    -447.0404   XXXZ     180.1119
      XXYZ      -4.7485   XYYZ      65.3109   YYYZ     -19.5755
      XXZZ    -349.4677   XYZZ     -52.0777   YYZZ    -175.9416
      XZZZ     187.8404   YZZZ     -25.1689   ZZZZ    -592.9297
 -----------------------------------------------------------------
Archival summary:
1\1\nid00529\SP\ProcedureUnspecified\BasisUnspecified\78\meili\SunSep2611:04:572021SunSep2611:04:572021\0\\#,ProcedureUnspecified,BasisUnspecified,\\0,1\C\C,1,1.39572\H,2,1.08104,1,119.623\C,2,1.39009,1,121.269,3,-179.081,0\H,4,1.07799,2,119.701,1,177.706,0\C,4,1.38917,2,119.959,1,-0.715337,0\H,6,1.08208,4,120.168,2,179.838,0\C,6,1.39489,4,119.657,2,0.143168,0\H,8,1.08145,6,119.719,4,-179.788,0\C,1,1.39959,2,118.659,3,-179.5,0\H,10,1.06683,1,121.412,2,176.717,0\C,1,1.51015,2,117.607,3,-1.53361,0\H,12,1.08731,1,106.791,2,-66.3465,0\H,12,1.09112,1,108.115,2,49.4289,0\H,12,1.1,1,117.235,2,173.047,0\\\@

 Total job time:  29161.64s(wall), 57930.14s(cpu) 
 Sun Sep 26 11:04:59 2021

        *************************************************************
        *                                                           *
        *  Thank you very much for using Q-Chem.  Have a nice day.  *
        *                                                           *
        *************************************************************


Done Job For Fragment 0
calling putenv with: QCSCRATCH=/global/cscratch1/sd/meili 
calling putenv with: QCLOCALSCR=/tmp 
calling putenv with: QCTHREADS=32 
Creating input file /tmp/qchem35623/Frg2.input
using default PutDataFrgm: nothing
calling putenv with: QCSCRATCH=/tmp/qchem35623/ 
calling putenv with: QCLOCALSCR=/tmp/qchem35623/ 
Spawning Job For Fragment 1
                  Welcome to Q-Chem
     A Quantum Leap Into The Future Of Chemistry


 Q-Chem 5.2, Q-Chem, Inc., Pleasanton, CA (2019)

 License issued to: National Energy Research Scientific Computing Center

 Yihan Shao,  Zhengting Gan,  E. Epifanovsky,  A. T. B. Gilbert,  M. Wormit,  
 J. Kussmann,  A. W. Lange,  A. Behn,  Jia Deng,  Xintian Feng,  D. Ghosh,  
 M. Goldey,  P. R. Horn,  L. D. Jacobson,  I. Kaliman,  T. Kus,  A. Landau,  
 Jie Liu,  E. I. Proynov,  R. M. Richard,  R. P. Steele,  E. J. Sundstrom,  
 H. L. Woodcock III,  P. M. Zimmerman,  D. Zuev,  B. Albrecht,  E. Alguire,  
 S. A. Baeppler,  D. Barton,  Z. Benda,  Y. A. Bernard,  E. J. Berquist,  
 K. B. Bravaya,  H. Burton,  D. Casanova,  Chun-Min Chang,  Yunqing Chen,  
 A. Chien,  K. D. Closser,  M. P. Coons,  S. Coriani,  S. Dasgupta,  
 A. L. Dempwolff,  M. Diedenhofen,  Hainam Do,  R. G. Edgar,  Po-Tung Fang,  
 S. Faraji,  S. Fatehi,  Qingguo Feng,  K. D. Fenk,  J. Fosso-Tande,  
 J. Gayvert,  Qinghui Ge,  A. Ghysels,  G. Gidofalvi,  J. Gomes,  
 J. Gonthier,  A. Gunina,  D. Hait,  M. W. D. Hanson-Heine,  
 P. H. P. Harbach,  A. W. Hauser,  M. F. Herbst,  J. E. Herr,  
 E. G. Hohenstein,  Z. C. Holden,  Kerwin Hui,  B. C. Huynh,  T.-C. Jagau,  
 Hyunjun Ji,  B. Kaduk,  K. Khistyaev,  Jaehoon Kim,  P. Klunzinger,  K. Koh,  
 D. Kosenkov,  L. Koulias,  T. Kowalczyk,  C. M. Krauter,  A. Kunitsa,  
 Ka Un Lao,  A. Laurent,  K. V. Lawler,  Joonho Lee,  D. Lefrancois,  
 S. Lehtola,  D. S. Levine,  Yi-Pei Li,  You-Sheng Lin,  Fenglai Liu,  
 E. Livshits,  A. Luenser,  P. Manohar,  E. Mansoor,  S. F. Manzer,  
 Shan-Ping Mao,  Yuezhi Mao,  N. Mardirossian,  A. V. Marenich,  
 T. Markovich,  L. A. Martinez-Martinez,  S. A. Maurer,  N. J. Mayhall,  
 S. C. McKenzie,  J.-M. Mewes,  P. Morgante,  A. F. Morrison,  
 J. W. Mullinax,  K. Nanda,  T. S. Nguyen-Beck,  R. Olivares-Amaya,  
 J. A. Parkhill,  Zheng Pei,  T. M. Perrine,  F. Plasser,  P. Pokhilko,  
 S. Prager,  A. Prociuk,  E. Ramos,  D. R. Rehn,  F. Rob,  M. Scheurer,  
 M. Schneider,  N. Sergueev,  S. M. Sharada,  S. Sharma,  D. W. Small,  
 T. Stauch,  T. Stein,  Yu-Chuan Su,  A. J. W. Thom,  A. Tkatchenko,  
 T. Tsuchimochi,  N. M. Tubman,  L. Vogt,  M. L. Vidal,  O. Vydrov,  
 M. A. Watson,  J. Wenzel,  M. de Wergifosse,  T. A. Wesolowski,  A. White,  
 J. Witte,  A. Yamada,  Jun Yang,  K. Yao,  S. Yeganeh,  S. R. Yost,  
 Zhi-Qiang You,  A. Zech,  Igor Ying Zhang,  Xing Zhang,  Yan Zhao,  
 Ying Zhu,  B. R. Brooks,  G. K. L. Chan,  C. J. Cramer,  M. S. Gordon,  
 W. J. Hehre,  A. Klamt,  M. W. Schmidt,  C. D. Sherrill,  D. G. Truhlar,  
 A. Aspuru-Guzik,  R. Baer,  A. T. Bell,  N. A. Besley,  Jeng-Da Chai,  
 A. E. DePrince, III,  R. A. DiStasio Jr.,  A. Dreuw,  B. D. Dunietz,  
 T. R. Furlani,  Chao-Ping Hsu,  Yousung Jung,  Jing Kong,  D. S. Lambrecht,  
 WanZhen Liang,  C. Ochsenfeld,  V. A. Rassolov,  L. V. Slipchenko,  
 J. E. Subotnik,  T. Van Voorhis,  J. M. Herbert,  A. I. Krylov,  
 P. M. W. Gill,  M. Head-Gordon

 Contributors to earlier versions of Q-Chem not listed above: 
 R. D. Adamson,  B. Austin,  J. Baker,  G. J. O. Beran,  K. Brandhorst,  
 S. T. Brown,  E. F. C. Byrd,  A. K. Chakraborty,  C.-L. Cheng,  
 Siu Hung Chien,  D. M. Chipman,  D. L. Crittenden,  H. Dachsel,  
 R. J. Doerksen,  A. D. Dutoi,  L. Fusti-Molnar,  W. A. Goddard III,  
 A. Golubeva-Zadorozhnaya,  S. R. Gwaltney,  G. Hawkins,  A. Heyden,  
 S. Hirata,  G. Kedziora,  F. J. Keil,  C. Kelley,  Jihan Kim,  R. A. King,  
 R. Z. Khaliullin,  P. P. Korambath,  W. Kurlancheek,  A. M. Lee,  M. S. Lee,  
 S. V. Levchenko,  Ching Yeh Lin,  D. Liotard,  R. C. Lochan,  I. Lotan,  
 P. E. Maslen,  N. Nair,  D. P. O'Neill,  D. Neuhauser,  E. Neuscamman,  
 C. M. Oana,  R. Olson,  B. Peters,  R. Peverati,  P. A. Pieniazek,  
 Y. M. Rhee,  J. Ritchie,  M. A. Rohrdanz,  E. Rosta,  N. J. Russ,  
 H. F. Schaefer III,  N. E. Schultz,  N. Shenvi,  A. C. Simmonett,  A. Sodt,  
 D. Stuck,  K. S. Thanthiriwatte,  V. Vanovschi,  Tao Wang,  A. Warshel,  
 C. F. Williams,  Q. Wu,  X. Xu,  W. Zhang

 Please cite Q-Chem as follows:
 Y. Shao et al., Mol. Phys. 113, 184-215 (2015)
 DOI: 10.1080/00268976.2014.952696

 Q-Chem 5.2.0 for Intel X86 EM64T Linux

 Parts of Q-Chem use Armadillo 8.300.2 (Tropical Shenanigans).
 http://arma.sourceforge.net/

 Q-Chem begins on Sun Sep 26 11:05:02 2021  

Host: cori01
0

     Scratch files written to /tmp/qchem35623//Frg2//
 May1019 |scratch|qcdevops|jenkins|workspace|build_RNUM -1
Processing $rem in /global/common/cori/software/qchem/5.2/config/preferences:
	 MEM_TOTAL  96000 
NAlpha2: 50
NElect   50
Mult     1
Symmetry turned off for PCM/SM12/SMD calculation

Checking the input file for inconsistencies... 	...done.

--------------------------------------------------------------
User input:
--------------------------------------------------------------
$molecule
0 1
 6	-4.6507460056	0.3821206913	0.2960456361
 6	-0.9337460056	-0.3448793087	0.0270456361
 6	-0.8267460056	-1.5208793087	0.7710456361
 6	-2.1747460056	0.2701206913	-0.1269543639
 6	-3.3147460056	-0.2828793087	0.4600456361
 6	-1.9637460056	-2.0768793087	1.3610456361
 6	-3.2007460056	-1.4548793087	1.2070456361
 1	-0.0567460056	0.0901206913	-0.4289543639
 1	0.1362539944	-1.9978793087	0.8790456361
 1	-2.2547460056	1.1741206913	-0.7079543639
 1	-1.8867460056	-2.9898793087	1.9350456361
 1	-4.4797460056	1.4431206913	0.1040456361
 1	-5.2007460056	0.3101206913	1.2360456361
 1	-4.0777460056	-1.8908793087	1.6630456361
 1	-5.2683900056	-0.0360993087	-0.5124153639
$end
$rem
EDA2		1
METHOD		WB97X-V
BASIS		DEF2-TZVPD
XC_GRID		000099000590
NL_GRID		1
UNRESTRICTED		FALSE
MAX_SCF_CYCLES		200
SYMMETRY		FALSE
SYM_IGNORE		TRUE
BASIS_LIN_DEP_THRESH		6
THRESH		14
SCF_CONVERGENCE		8
SCF_PRINT_FRGM		TRUE
SOLVENT_METHOD		SMD
!required keywords
JOBTYPE		SP
SYM_IGNORE		TRUE
SUBSYSTEM		TRUE
GEN_SCFMAN		TRUE
CHILD_INSTRUCTION		2
SYM_IGNORE		TRUE
SCFMI		0
RI_K 0		
PARI_K 0		
MIN_PARI_K 0		
IARI_K 0		
OCC_RI_K 0		
PURECART		1111
MEM_STATIC		2000
MEM_TOTAL		96000
GUI		0
CHILD_MP		1
CHILD_MP_ORDERS		232
FRZ_RELAX		0
FRZ_RELAX_METHOD		0
EDA_CLS_ELEC		1
EDA_CLS_DISP		0
FRZ_ORTHO_DECOMP		1
EDA2		FALSE
FRGM_METHOD		FALSE
CIS_N_ROOTS  0
LOCAL_CIS    0
CIS_RLX_DNS  1
$end
$smx
SOLVENT			WATER
$end
--------------------------------------------------------------
 ----------------------------------------------------------------
             Standard Nuclear Orientation (Angstroms)
    I     Atom           X                Y                Z
 ----------------------------------------------------------------
    1      C      -4.6507460056     0.3821206913     0.2960456361
    2      C      -0.9337460056    -0.3448793087     0.0270456361
    3      C      -0.8267460056    -1.5208793087     0.7710456361
    4      C      -2.1747460056     0.2701206913    -0.1269543639
    5      C      -3.3147460056    -0.2828793087     0.4600456361
    6      C      -1.9637460056    -2.0768793087     1.3610456361
    7      C      -3.2007460056    -1.4548793087     1.2070456361
    8      H      -0.0567460056     0.0901206913    -0.4289543639
    9      H       0.1362539944    -1.9978793087     0.8790456361
   10      H      -2.2547460056     1.1741206913    -0.7079543639
   11      H      -1.8867460056    -2.9898793087     1.9350456361
   12      H      -4.4797460056     1.4431206913     0.1040456361
   13      H      -5.2007460056     0.3101206913     1.2360456361
   14      H      -4.0777460056    -1.8908793087     1.6630456361
   15      H      -5.2683900056    -0.0360993087    -0.5124153639
 ----------------------------------------------------------------
 Nuclear Repulsion Energy =         269.67133935 hartrees
 There are       25 alpha and       25 beta electrons
 Requested basis set is def2-TZVPD
 There are 131 shells and 331 basis functions

 Total QAlloc Memory Limit  96000 MB
 Mega-Array Size      1956 MB
 MEM_STATIC part      2000 MB
 
 Citation of the SMD model:
 Marenich, A.V.; Cramer, C.J.; Truhlar, D.G.
 J. Phys. Chem. B 2009, 113, 6378-6396.
 iSolventCode=           1
 Solvent: water                                                           
 
 vradii
            1           2           3           4           5           6
    1   1.8500000   1.8500000   1.8500000   1.8500000   1.8500000   1.8500000
            7           8           9          10          11          12
    1   1.8500000   1.2000000   1.2000000   1.2000000   1.2000000   1.2000000
           13          14          15
    1   1.2000000   1.2000000   1.2000000
 Changing PCM_VDW_RADII to SMD_RADIUS
 Discretize the solute cavity surface with Lebedev spheres
	Using 110 Lebedev grid points for each H atom
	Using 194 Lebedev grid points for other atoms
	Atomic van der Waals radii will be scaled by 1.20
 Remove points where switching function is < 1.0e-08
 Keep 1102 surface tesserae and discard 1136 interior tesserae
 Molecular Surface Area = 132.086 Angst**2

                       Distance Matrix (Angstroms)
             C (  1)   C (  2)   C (  3)   C (  4)   C (  5)   C (  6)
   C (  2)  3.796970
   C (  3)  4.297675  1.395694
   C (  4)  2.514369  1.393564  2.414785
   C (  5)  1.501338  2.420846  2.796338  1.396416
   C (  6)  3.794848  2.416667  1.396426  2.786947  2.419801
   C (  7)  2.511372  2.786358  2.414607  2.409950  1.394485  1.393115
   H (  8)  4.660013  1.079949  2.151330  2.146981  3.397648  3.396563
   H (  9)  5.377700  2.145510  1.080075  3.390661  3.876363  2.156053
   H ( 10)  2.715897  2.143042  3.389639  1.077579  2.147248  3.864511
   H ( 11)  4.657940  3.397749  2.153243  3.868125  3.397449  1.081191
   H ( 12)  1.091708  3.972026  4.751273  2.596597  2.112590  4.505630
   H ( 13)  1.091460  4.483079  4.764521  3.319043  2.123869  4.023874
   H ( 14)  2.713586  3.866697  3.391396  3.390491  2.148265  2.143548
   H ( 15)  1.100001  4.378984  4.855929  3.132568  2.196203  4.312228
             C (  7)   H (  8)   H (  9)   H ( 10)   H ( 11)   H ( 12)
   H (  8)  3.866298
   H (  9)  3.396763  2.471408
   H ( 10)  3.387297  2.466597  4.277503
   H ( 11)  2.147744  4.292295  2.488319  4.945682
   H ( 12)  3.354229  4.655924  5.809351  2.383764  5.452311
   H ( 13)  2.667596  5.411225  5.825623  3.633806  4.728763  1.756404
   H ( 14)  1.080352  4.946642  4.287645  4.282429  2.466225  3.702383
   H ( 15)  3.040499  5.213840  5.915651  3.253447  5.113746  1.786078
             H ( 13)   H ( 14)
   H ( 14)  2.507560
   H ( 15)  1.783693  3.096849
 
 A cutoff of  1.0D-14 yielded   8359 shell pairs
 There are     54501 function pairs (     69455 Cartesian)
 Smallest overlap matrix eigenvalue = 5.70E-07
 Linear dependence detected in AO basis
 Tighter screening thresholds may be required for diffuse basis sets
 Use S2THRESH > 14 and THRESH = 14 in case of SCF convergence issues
 Number of orthogonalized atomic orbitals = 330
 Maximum deviation from orthogonality = 2.038E-10

 Scale SEOQF with 1.000000e-02/1.000000e-01/1.000000e-01

 Standard Electronic Orientation quadrupole field applied
 Nucleus-field energy     =     0.0000000031 hartrees
 Guess from superposition of atomic densities
 Warning:  Energy on first SCF cycle will be non-variational
 SAD guess density has 49.913408 electrons

 -----------------------------------------------------------------------
  General SCF calculation program by
  Eric Jon Sundstrom, Paul Horn, Yuezhi Mao, Dmitri Zuev, Alec White,
  David Stuck, Shaama M.S., Shane Yost, Joonho Lee, David Small,
  Daniel Levine, Susi Lehtola, Hugh Burton, Evgeny Epifanovsky
 -----------------------------------------------------------------------
 Exchange:     0.1670 Hartree-Fock + 1.0000 wB97X-V + LR-HF
 Correlation:  1.0000 wB97X-V
 Using Euler-Maclaurin-Lebedev (99,590) quadrature formula
 Nonlocal Correlation:  VV10 with C = 0.0100 and b = 6.00 and scale = 1.00000
 Grid used for NLC:  SG-1 standard quadrature
Energy prior to optimization (guess energy) = -271.520457201918
Begin Timing: Total SCF Calculation
begin iterations for algorithm: DIIS         
the SCF tolerance is set to 1.00e-08
    1    -271.5204572019      1.95e-03     00000 
    2    -271.5613358264      1.27e-03     00000 
    3    -271.5849537248      1.55e-04     00000 
    4    -271.5856553249      4.60e-05     00000 
    5    -271.5857056789      2.11e-05     00000 
    6    -271.5857130407      5.43e-06     00000 
    7    -271.5857137476      1.39e-06     00000 
    8    -271.5857137856      4.84e-07     00000 
    9    -271.5857137909      7.91e-08     00000 
   10    -271.5857137912      3.65e-08     00000 
   11    -271.5857137912      1.33e-08     00000 
   12    -271.5857137912      4.78e-09     00000 Convergence criterion met
Timing for Total SCF: 1380.00s (wall), 2744.60s (cpu)
(3)  G-ENP(liq) elect-nuc-pol free energy of system     -271.585713791 a.u.
(4)  G-CDS(liq) cavity-dispersion-solvent structure 
     free energy                                                3.1814 kcal/mol
(6)  G-S(liq) free energy of system                     -271.580643878 a.u.
E_pcm = -0.0075495944
E_cds = 0.0050699132
Multipole orders to be included
        2
        3
computing dipole RHS
computing quadrupole RHS
total number of RHS in solve_reponses: 8
RHS batch sizes
        8
Beginning Block Conjugate Gradient Iterations. Batch Number: 0
computing hessian-vector products by finite difference
              1      6.25e-01     00000 Conjugate Gradient Iteration
computing hessian-vector products by finite difference
              2      1.90e-01     00000 Conjugate Gradient Iteration
computing hessian-vector products by finite difference
              3      4.59e-02     00000 Conjugate Gradient Iteration
computing hessian-vector products by finite difference
              4      1.19e-02     00000 Conjugate Gradient Iteration
computing hessian-vector products by finite difference
              5      2.22e-03     00000 Conjugate Gradient Iteration
computing hessian-vector products by finite difference
              6      5.83e-04     00000 Conjugate Gradient Iteration
computing hessian-vector products by finite difference
              7      1.58e-04     00000 Conjugate Gradient Iteration
computing hessian-vector products by finite difference
              8      2.56e-05     00000 Conjugate Gradient Iteration
computing hessian-vector products by finite difference
              9      3.47e-06     00000 Conjugate Gradient Iteration
computing hessian-vector products by finite difference
             10      6.62e-07     00000 Conjugate Gradient Iteration
computing hessian-vector products by finite difference
             11      1.31e-07     00000 Conjugate Gradient Iteration
computing hessian-vector products by finite difference
             12      1.89e-08     00000 Conjugate Gradient Iteration
computing hessian-vector products by finite difference
             13      3.04e-09     00000 CG Converged
batch 0 complete
Done Calculating Responses
TESTING ORTHOGONALIZATION OF MULTIPOLE BASIS
Multipole virts passed orthogonality test
Virts Per Order
           75
          125
 
 --------------------------------------------------------------
 
                    Orbital Energies (a.u.)
 --------------------------------------------------------------
 
 Alpha MOs
 -- Occupied --
-10.2773 -10.2690 -10.2685 -10.2662 -10.2644 -10.2644 -10.2534  -0.9923
 -0.9014  -0.8746  -0.8064  -0.7249  -0.7002  -0.6236  -0.5679  -0.5612
 -0.5290  -0.5247  -0.5077  -0.4790  -0.4688  -0.4352  -0.4352  -0.3465
 -0.3340
 -- Virtual --
  0.0666   0.0684   0.0707   0.0844   0.0898   0.1095   0.1159   0.1183
  0.1410   0.1596   0.1716   0.1740   0.1921   0.1943   0.2003   0.2068
  0.2277   0.2302   0.2396   0.2444   0.2560   0.2644   0.2666   0.2755
  0.2867   0.2879   0.2889   0.2971   0.2981   0.3062   0.3072   0.3153
  0.3236   0.3294   0.3374   0.3404   0.3558   0.3568   0.3709   0.3778
  0.3836   0.3879   0.3883   0.3935   0.3955   0.4062   0.4080   0.4135
  0.4169   0.4329   0.4345   0.4403   0.4454   0.4524   0.4558   0.4567
  0.4674   0.4746   0.4786   0.4872   0.4988   0.5006   0.5168   0.5209
  0.5233   0.5293   0.5393   0.5425   0.5474   0.5523   0.5553   0.5705
  0.5882   0.5922   0.6011   0.6031   0.6042   0.6256   0.6454   0.6475
  0.6644   0.6792   0.6857   0.6913   0.6944   0.6993   0.7260   0.7269
  0.7338   0.7364   0.7488   0.7610   0.7674   0.7697   0.7832   0.7904
  0.7957   0.7968   0.8008   0.8065   0.8125   0.8264   0.8292   0.8371
  0.8383   0.8414   0.8479   0.8574   0.8632   0.8789   0.8926   0.8998
  0.9123   0.9201   0.9370   0.9493   0.9551   1.0153   1.0276   1.0441
  1.0481   1.0649   1.0756   1.0837   1.0924   1.0954   1.1060   1.1442
  1.1672   1.1847   1.2546   1.2784   1.2990   1.3253   1.3502   1.3563
  1.3816   1.4393   1.4549   1.4629   1.4673   1.4890   1.5296   1.5408
  1.6034   1.6079   1.6220   1.6290   1.6690   1.6788   1.7424   1.7840
  1.7969   1.8034   1.8061   1.8231   1.8314   1.8722   1.8943   1.9182
  1.9225   1.9283   1.9522   1.9664   1.9896   1.9980   2.0173   2.0286
  2.0345   2.0530   2.0736   2.0980   2.1194   2.1278   2.1778   2.1821
  2.2016   2.2372   2.2478   2.2768   2.2928   2.3145   2.3996   2.4024
  2.4046   2.4127   2.4852   2.5138   2.5417   2.5589   2.5645   2.6165
  2.6209   2.6303   2.6737   2.6805   2.6994   2.7145   2.7591   2.7703
  2.7895   2.8144   2.8233   2.8507   2.8659   2.9027   2.9126   2.9199
  2.9402   2.9462   2.9650   2.9794   2.9924   3.0227   3.0233   3.0550
  3.0664   3.0951   3.1041   3.1308   3.1860   3.1956   3.2074   3.2243
  3.2394   3.2431   3.2921   3.3051   3.3357   3.3590   3.3706   3.3815
  3.4046   3.4489   3.4500   3.4556   3.4657   3.4775   3.4936   3.5010
  3.5116   3.5302   3.5435   3.5453   3.5628   3.5723   3.5896   3.6083
  3.6247   3.6380   3.6570   3.6913   3.7092   3.7524   3.7847   3.8190
  3.8467   3.8939   3.9126   3.9553   3.9608   4.0011   4.0370   4.0542
  4.1215   4.2038   4.2721   4.2785   4.2944   4.3173   4.3298   4.3334
  4.3477   4.3692   4.3878   4.4015   4.4318   4.4455   4.4773   4.5284
  4.6011   4.6314   4.7542   4.7670   4.8304   4.8873   4.9071   4.9493
  5.0247   5.0530   5.1699   5.2678   5.3652   5.3790   5.5062   5.5345
  5.6718   5.8548  22.5834  22.6782  22.8840  22.8969  23.0119  23.0695
 23.4169
 --------------------------------------------------------------
 
          Ground-State Mulliken Net Atomic Charges

     Atom                 Charge (a.u.)
  ----------------------------------------
      1 C                    -1.085879
      2 C                    -0.570208
      3 C                    -0.559765
      4 C                    -0.428000
      5 C                     0.834195
      6 C                    -0.556406
      7 C                    -0.399209
      8 H                     0.375534
      9 H                     0.400547
     10 H                     0.385872
     11 H                     0.376566
     12 H                     0.297212
     13 H                     0.285365
     14 H                     0.398652
     15 H                     0.245524
  ----------------------------------------
  Sum of atomic charges =     0.000000

 -----------------------------------------------------------------
                    Cartesian Multipole Moments
 -----------------------------------------------------------------
    Charge (ESU x 10^10)
                -0.0000
    Dipole Moment (Debye)
         X      -0.4916      Y       0.2272      Z      -0.0697
       Tot       0.5460
    Quadrupole Moments (Debye-Ang)
        XX     -35.1567     XY      -1.0024     YY     -40.4361
        XZ      -1.3380     YZ      -3.8231     ZZ     -43.7357
    Octopole Moments (Debye-Ang^2)
       XXX     277.5281    XXY      27.3207    XYY     103.0054
       YYY      82.9612    XXZ     -15.6018    XYZ       8.0703
       YYZ     -15.3451    XZZ     105.1647    YZZ      25.6022
       ZZZ     -74.3920
    Hexadecapole Moments (Debye-Ang^3)
      XXXX   -1948.2897   XXXY    -121.5929   XXYY    -415.8512
      XYYY    -141.3269   YYYY    -402.7668   XXXZ     140.9132
      XXYZ      12.9467   XYYZ      43.1904   YYYZ      84.3161
      XXZZ    -379.2847   XYZZ     -36.4290   YYZZ     -91.8309
      XZZZ     181.7805   YZZZ     109.7081   ZZZZ    -235.5191
 -----------------------------------------------------------------
Archival summary:
1\1\nid00529\SP\ProcedureUnspecified\BasisUnspecified\78\meili\SunSep2618:58:272021SunSep2618:58:272021\0\\#,ProcedureUnspecified,BasisUnspecified,\\0,1\C\C,1,1.39449\H,2,1.08035,1,119.929\C,2,1.39311,1,120.468,3,179.428,0\H,4,1.08119,2,119.931,1,-179.479,0\C,1,1.39642,2,119.424,3,-179.873,0\H,6,1.07758,1,119.885,2,179.835,0\C,6,1.39356,1,120.383,2,0.233064,0\H,8,1.07995,6,119.917,1,-179.908,0\C,8,1.39569,6,119.936,1,0.0399307,0\H,10,1.08007,8,119.589,6,179.427,0\C,1,1.50134,2,120.234,3,0.494926,0\H,12,1.09146,1,108.973,2,38.5134,0\H,12,1.09171,1,108.078,2,154.606,0\H,12,1.1,1,114.301,2,-83.6454,0\\\@

 Total job time:  28409.03s(wall), 56390.49s(cpu) 
 Sun Sep 26 18:58:31 2021

        *************************************************************
        *                                                           *
        *  Thank you very much for using Q-Chem.  Have a nice day.  *
        *                                                           *
        *************************************************************


Done Job For Fragment 1
calling putenv with: QCSCRATCH=/global/cscratch1/sd/meili 
calling putenv with: QCLOCALSCR=/tmp 
calling putenv with: QCTHREADS=32 
Doing General SCFMI
 Exchange:     0.1670 Hartree-Fock + 1.0000 wB97X-V + LR-HF
 Correlation:  1.0000 wB97X-V
 Using Euler-Maclaurin-Lebedev (99,590) quadrature formula
 Nonlocal Correlation:  VV10 with C = 0.0100 and b = 6.00 and scale = 1.00000
 Grid used for NLC:  SG-1 standard quadrature
performing fock build before subrot guess so that all methods have access
Printing subrot_rss_gen Method Specification:
Occupied Subspace Method is 0
Virtual Subspace Method is 0
Energy of the unrelaxed supersystem initial determinant -543.158583105462
performing fock build before subrot guess so that all methods have access
Printing subrot_rss_gen Method Specification:
Occupied Subspace Method is 0
Virtual Subspace Method is 0
Energy of the unrelaxed supersystem initial determinant w/ solvent -543.172787680438
write pseudocanon occs and virts to disk
write pseudocanon orbital energies to disk
Tolerance of ortho_decomp_scf: 1.00e-06
GDM subspace size: 20
Beginning the Orthogonal Decomposition of the Initial Supersystem Wavefunction
    1    -543.1392837285      1.88e-02     ortho_decomp Preconditoned Steepest Descent
    2    -543.1407904405      4.57e-04     ortho_decomp BFGS Step
    3    -543.1407950546      3.72e-05     ortho_decomp BFGS Step
    4    -543.1407950657      1.61e-06     ortho_decomp BFGS Step
    5    -543.1407950657      5.45e-08     ortho_decomp 00000 Convergence criterion met
 Hartree-Fock
 Hartree-Fock
 Hartree-Fock
Doing General SCFMI
 Exchange:     0.1670 Hartree-Fock + 1.0000 wB97X-V + LR-HF
 Correlation:  1.0000 wB97X-V
 Using Euler-Maclaurin-Lebedev (99,590) quadrature formula
 Nonlocal Correlation:  VV10 with C = 0.0100 and b = 6.00 and scale = 1.00000
 Grid used for NLC:  SG-1 standard quadrature
performing fock build at end of subrot_r(subrot) constructor so that all methods have access
<S^2> of initial wavefunction before polarization iterations 0.0000000000
Beginning iterations for the determination of the polarized wavefunction
Energy prior to optimization (guess energy) = -543.172787680439
Begin Timing: Total SCF Calculation
begin iterations for algorithm: DIIS         
the SCF tolerance is set to 1.00e-08
    1    -543.1727876804      4.21e-05     00000 
    2    -543.1729721072      1.80e-05     00000 
    3    -543.1729950801      9.68e-06     00000 
    4    -543.1730030558      2.79e-06     00000 
    5    -543.1730041875      1.49e-06     00000 
    6    -543.1730045051      5.61e-07     00000 
    7    -543.1730045517      2.54e-07     00000 
    8    -543.1730045584      1.23e-07     00000 
    9    -543.1730045593      5.22e-08     00000 
   10    -543.1730045594      2.65e-08     00000 
   11    -543.1730045594      1.31e-08     00000 
   12    -543.1730045594      4.52e-09     00000 Convergence criterion met
write pseudocanon occs and virts to disk
write pseudocanon orbital energies to disk
Timing for Total SCF: 10064.00s (wall), 20047.87s (cpu)
<S^2> of polarized wavefunction after polarization iterations 0.0000000000
relaxing scfmi constraint to allow all rotations in the entire AO span
Doing General SCFMI
 Exchange:     0.1670 Hartree-Fock + 1.0000 wB97X-V + LR-HF
 Correlation:  1.0000 wB97X-V
 Using Euler-Maclaurin-Lebedev (99,590) quadrature formula
 Nonlocal Correlation:  VV10 with C = 0.0100 and b = 6.00 and scale = 1.00000
 Grid used for NLC:  SG-1 standard quadrature
performing fock build at end of subrot_r(subrot) constructor so that all methods have access
<S^2> of polarized wavefunction before ct-allowed iterations 0.0000000000
Beginning iterations for the determination of the CT-Allowed wavefunction
Energy prior to optimization (guess energy) = -543.173004559439
Begin Timing: Total SCF Calculation
begin iterations for algorithm: DIIS         
the SCF tolerance is set to 1.00e-08
    1    -543.1730045594      6.31e-05     00000 
    2    -543.1738271987      6.29e-06     00000 
    3    -543.1738509539      1.10e-06     00000 
    4    -543.1738518096      5.29e-07     00000 
    5    -543.1738518843      1.40e-07     00000 
    6    -543.1738518946      4.52e-08     00000 
    7    -543.1738518953      1.24e-08     00000 
    8    -543.1738518954      3.92e-09     00000 Convergence criterion met
write pseudocanon occs and virts to disk
write pseudocanon orbital energies to disk
Timing for Total SCF: 6341.00s (wall), 12636.42s (cpu)
<S^2> of ct_allowed wavefunction after ct-allowed iterations 0.0000000000

================================
        Results of EDA2         
================================
Basic EDA Quantities
--------------------
Fragment Energies (Ha):
1 -271.5792386192
2 -271.5806438780
--------------------
  E_prp (kJ/mol) = 0.0000
  E_sol (kJ/mol) = 0.5657
  E_frz (kJ/mol) = -9.6363
  E_pol (kJ/mol) = -0.5694
  E_vct (kJ/mol) = -2.2247
  E_int (kJ/mol) = -11.8647
--------------------


Initial Wavefunction Decomposition
--------------------
  --------------------
  Orthogonal Fragment Subspace Decomposition:
  --------------------
     E_elec   (ELEC)   (kJ/mol) = -19.7897
     E_pauli  (PAULI)  (kJ/mol) = 28.1442
     E_disp   (DISP)   (kJ/mol) = -17.9908
     --------------------
     Terms summing to E_pauli:
     --------------------
        E_kep_pauli       (kJ/mol) = 37.0668
        E_disp_free_pauli (kJ/mol) = -8.9226
  --------------------
  Classical Frozen Decomposition:
  --------------------
     E_cls_elec  (CLS ELEC)  (kJ/mol) = -8.0381
     E_cls_pauli (CLS PAULI) (kJ/mol) = -1.5982
    [E_mod_pauli (MOD PAULI) (kJ/mol) = 16.3926 (CLS PAULI - DISP from orthogonal decomposition) ]
  --------------------
--------------------

Simplified EDA Summary (kJ/mol)
--------------------
 PREPARATION     0.0000
 SOLVATION       0.5657
 FROZEN          8.3545      (does not include dispersion)
[PAULI           28.1442]     (if this is negligible, then frozen describes electrostatics)
 DISPERSION      -17.9908
 POLARIZATION    -0.5694
 CHARGE TRANSFER -2.2247
 TOTAL           -11.8647     (PRP + SOL + FRZ + DISP + POL + CT)
--------------------
 
 --------------------------------------------------------------
 
                    Orbital Energies (a.u.)
 --------------------------------------------------------------
 
 Alpha MOs
 -- Occupied --
-10.2805 -10.2770 -10.2695 -10.2688 -10.2673 -10.2673 -10.2657 -10.2656
-10.2653 -10.2641 -10.2640 -10.2633 -10.2549 -10.2533  -0.9929  -0.9914
 -0.9015  -0.9011  -0.8745  -0.8737  -0.8077  -0.8061  -0.7247  -0.7244
 -0.7016  -0.6995  -0.6246  -0.6234  -0.5677  -0.5671  -0.5619  -0.5617
 -0.5323  -0.5289  -0.5239  -0.5213  -0.5095  -0.5074  -0.4811  -0.4788
 -0.4705  -0.4657  -0.4362  -0.4352  -0.4345  -0.4334  -0.3475  -0.3456
 -0.3355  -0.3310
 -- Virtual --
  0.0607   0.0613   0.0669   0.0690   0.0752   0.0768   0.0805   0.0836
  0.0968   0.1003   0.1047   0.1140   0.1172   0.1226   0.1264   0.1354
  0.1407   0.1528   0.1592   0.1649   0.1674   0.1705   0.1754   0.1878
  0.1901   0.1972   0.2023   0.2057   0.2132   0.2158   0.2201   0.2251
  0.2304   0.2326   0.2367   0.2421   0.2484   0.2537   0.2562   0.2585
  0.2614   0.2661   0.2689   0.2728   0.2766   0.2794   0.2826   0.2867
  0.2875   0.2930   0.2967   0.2995   0.3017   0.3051   0.3082   0.3097
  0.3136   0.3189   0.3227   0.3238   0.3287   0.3319   0.3364   0.3415
  0.3429   0.3451   0.3510   0.3543   0.3548   0.3606   0.3620   0.3651
  0.3712   0.3758   0.3776   0.3784   0.3799   0.3817   0.3892   0.3907
  0.3915   0.3956   0.3981   0.4012   0.4051   0.4066   0.4073   0.4147
  0.4184   0.4213   0.4295   0.4315   0.4363   0.4393   0.4426   0.4438
  0.4469   0.4479   0.4518   0.4520   0.4571   0.4601   0.4629   0.4693
  0.4718   0.4734   0.4786   0.4846   0.4869   0.4887   0.4905   0.4953
  0.4967   0.5028   0.5053   0.5079   0.5100   0.5168   0.5185   0.5239
  0.5260   0.5296   0.5305   0.5372   0.5424   0.5444   0.5516   0.5544
  0.5590   0.5622   0.5641   0.5705   0.5728   0.5778   0.5835   0.5852
  0.5889   0.5964   0.6002   0.6037   0.6090   0.6116   0.6215   0.6246
  0.6297   0.6320   0.6346   0.6387   0.6425   0.6454   0.6535   0.6600
  0.6665   0.6682   0.6740   0.6845   0.6881   0.6951   0.6960   0.6992
  0.7049   0.7121   0.7138   0.7172   0.7221   0.7261   0.7299   0.7334
  0.7403   0.7416   0.7480   0.7513   0.7551   0.7600   0.7666   0.7676
  0.7710   0.7712   0.7742   0.7801   0.7859   0.7872   0.7930   0.7947
  0.7997   0.8012   0.8045   0.8069   0.8123   0.8129   0.8158   0.8215
  0.8274   0.8309   0.8335   0.8384   0.8404   0.8435   0.8438   0.8487
  0.8538   0.8593   0.8613   0.8676   0.8689   0.8724   0.8777   0.8802
  0.8864   0.8885   0.8987   0.8997   0.9027   0.9103   0.9175   0.9249
  0.9292   0.9328   0.9410   0.9450   0.9486   0.9526   0.9599   0.9604
  0.9722   0.9934   0.9969   1.0054   1.0140   1.0196   1.0236   1.0378
  1.0409   1.0504   1.0531   1.0772   1.0797   1.0871   1.0873   1.0922
  1.0994   1.1045   1.1087   1.1138   1.1188   1.1288   1.1320   1.1415
  1.1545   1.1617   1.1630   1.1843   1.1873   1.1935   1.2268   1.2340
  1.2536   1.2623   1.2806   1.2891   1.3201   1.3320   1.3428   1.3485
  1.3560   1.3707   1.3731   1.3767   1.3948   1.4185   1.4356   1.4457
  1.4542   1.4626   1.4701   1.4820   1.4829   1.4896   1.4945   1.5063
  1.5136   1.5183   1.5436   1.5469   1.5713   1.5726   1.5808   1.6142
  1.6203   1.6312   1.6412   1.6486   1.6636   1.6683   1.6789   1.6856
  1.6935   1.6998   1.7107   1.7657   1.7819   1.7943   1.7958   1.8057
  1.8167   1.8199   1.8285   1.8402   1.8472   1.8508   1.8715   1.8964
  1.9038   1.9177   1.9274   1.9311   1.9387   1.9470   1.9571   1.9603
  1.9661   1.9843   1.9878   1.9923   1.9969   2.0055   2.0076   2.0219
  2.0279   2.0366   2.0516   2.0554   2.0631   2.0669   2.0761   2.0824
  2.0885   2.0997   2.1014   2.1194   2.1357   2.1445   2.1571   2.1684
  2.1776   2.1929   2.1939   2.2103   2.2157   2.2270   2.2451   2.2548
  2.2576   2.2697   2.2802   2.2835   2.3010   2.3107   2.3242   2.3333
  2.3509   2.3630   2.3687   2.4061   2.4105   2.4190   2.4282   2.4328
  2.4459   2.4533   2.4705   2.4986   2.5165   2.5367   2.5453   2.5548
  2.5787   2.5865   2.5940   2.5992   2.6092   2.6301   2.6339   2.6391
  2.6471   2.6586   2.6643   2.6909   2.6982   2.7030   2.7078   2.7276
  2.7310   2.7413   2.7515   2.7695   2.7828   2.7929   2.8036   2.8060
  2.8174   2.8314   2.8363   2.8494   2.8608   2.8651   2.8718   2.8768
  2.8859   2.9145   2.9177   2.9325   2.9357   2.9455   2.9470   2.9554
  2.9576   2.9689   2.9770   2.9881   2.9984   3.0133   3.0209   3.0271
  3.0300   3.0440   3.0496   3.0576   3.0660   3.0757   3.0879   3.1002
  3.1058   3.1138   3.1146   3.1281   3.1427   3.1524   3.1831   3.1952
  3.2046   3.2151   3.2202   3.2235   3.2423   3.2485   3.2540   3.2642
  3.2742   3.2862   3.3061   3.3208   3.3249   3.3389   3.3529   3.3579
  3.3696   3.3798   3.3866   3.3957   3.4090   3.4173   3.4302   3.4422
  3.4491   3.4562   3.4602   3.4621   3.4719   3.4766   3.4792   3.4849
  3.4923   3.5017   3.5068   3.5175   3.5199   3.5237   3.5334   3.5362
  3.5458   3.5513   3.5547   3.5656   3.5668   3.5702   3.5773   3.5866
  3.5896   3.5983   3.6066   3.6141   3.6190   3.6268   3.6388   3.6413
  3.6508   3.6566   3.6696   3.6835   3.6993   3.7042   3.7097   3.7183
  3.7266   3.7481   3.7529   3.7737   3.7953   3.8177   3.8315   3.8532
  3.8779   3.9024   3.9171   3.9375   3.9474   3.9574   3.9747   3.9762
  3.9869   4.0152   4.0279   4.0477   4.0503   4.0715   4.0841   4.1474
  4.1488   4.2253   4.2407   4.2756   4.2840   4.2921   4.3026   4.3072
  4.3208   4.3249   4.3349   4.3416   4.3437   4.3559   4.3578   4.3615
  4.3738   4.3741   4.3785   4.3861   4.3974   4.4029   4.4323   4.4432
  4.4520   4.4650   4.4966   4.5031   4.5273   4.5488   4.5618   4.6216
  4.6362   4.6411   4.6642   4.7552   4.7601   4.7787   4.8011   4.8144
  4.8384   4.8532   4.8946   4.9239   4.9404   4.9660   4.9765   5.0364
  5.0503   5.0676   5.0853   5.1763   5.1963   5.2786   5.2930   5.3792
  5.3800   5.3854   5.3915   5.4908   5.5187   5.5320   5.5421   5.6835
  5.6975   5.8329   5.8570  22.6633  22.6882  22.7076  22.7564  22.9205
 22.9309  22.9520  22.9682  23.0337  23.0434  23.1061  23.1123  23.4249
 23.4359
 --------------------------------------------------------------
 
          Ground-State Mulliken Net Atomic Charges

     Atom                 Charge (a.u.)
  ----------------------------------------
      1 C                    -1.268470
      2 C                    -0.520648
      3 C                    -0.607476
      4 C                    -0.270588
      5 C                     0.981123
      6 C                    -0.536757
      7 C                    -0.550633
      8 H                     0.372648
      9 H                     0.411256
     10 H                     0.394389
     11 H                     0.382906
     12 H                     0.264646
     13 H                     0.286391
     14 H                     0.410736
     15 H                     0.312716
     16 C                    -1.134741
     17 C                    -0.200548
     18 C                    -0.428666
     19 C                    -0.764082
     20 C                     0.558587
     21 C                    -0.645045
     22 C                    -0.456863
     23 H                     0.467917
     24 H                     0.454435
     25 H                     0.399496
     26 H                     0.402743
     27 H                     0.309454
     28 H                     0.296134
     29 H                     0.427878
     30 H                     0.251064
  ----------------------------------------
  Sum of atomic charges =     0.000000

 -----------------------------------------------------------------
                    Cartesian Multipole Moments
 -----------------------------------------------------------------
    Charge (ESU x 10^10)
                -0.0000
    Dipole Moment (Debye)
         X      -0.2624      Y      -0.1247      Z      -0.5511
       Tot       0.6230
    Quadrupole Moments (Debye-Ang)
        XX     -80.8420     XY      -3.4456     YY     -78.6822
        XZ      -2.9546     YZ      -3.8108     ZZ     -80.4918
    Octopole Moments (Debye-Ang^2)
       XXX     -61.6886    XXY     -16.1057    XYY       4.6975
       YYY       7.7270    XXZ       3.4537    XYZ       7.7598
       YYZ       8.2710    XZZ      14.3332    YZZ       1.4066
       ZZZ      -5.5741
    Hexadecapole Moments (Debye-Ang^3)
      XXXX   -3707.9988   XXXY    -371.1778   XXYY    -773.4958
      XYYY    -309.7237   YYYY    -850.2666   XXXZ     320.9579
      XXYZ       8.4198   XYYZ     108.5798   YYYZ      64.8606
      XXZZ    -728.8568   XYZZ     -88.5913   YYZZ    -267.9510
      XZZZ     369.4658   YZZZ      84.6911   ZZZZ    -828.5941
 -----------------------------------------------------------------
Archival summary:
1\1\nid00529\SP\ProcedureUnspecified\BasisUnspecified\1416\meili\MonSep2703:37:292021MonSep2703:37:292021\0\\#,ProcedureUnspecified,BasisUnspecified,\\0,1\C\H,1,1.07995\C,1,1.39356,2,119.917\H,3,1.07758,1,119.731,2,0.489266,0\C,1,1.39569,2,120.147,3,-179.948,0\H,5,1.08007,1,119.589,2,-0.624764,0\C,3,1.39642,1,120.383,2,-179.908,0\C,7,1.39449,3,119.424,1,0.233064,0\H,8,1.08035,7,119.929,3,-179.873,0\C,8,1.39311,7,120.468,3,-0.44516,0\H,10,1.08119,8,119.931,7,-179.479,0\C,7,1.50134,3,120.341,1,179.865,0\H,12,1.09146,7,108.973,3,-141.116,0\H,12,1.09171,7,108.078,3,-25.0232,0\H,12,1.1,7,114.301,3,96.7256,0\C,2,2.79846,1,158.869,3,-163.555,0\C,16,1.39572,2,76.0588,1,-42.0013,0\H,17,1.08104,16,119.623,2,106.584,0\C,17,1.39009,16,121.269,2,-72.4972,0\H,19,1.07799,17,119.701,16,177.706,0\C,19,1.38917,17,119.959,16,-0.715337,0\H,21,1.08208,19,120.168,17,179.838,0\C,21,1.39489,19,119.657,17,0.143168,0\H,23,1.08145,21,119.719,19,-179.788,0\C,16,1.39959,2,83.0855,1,-163.863,0\H,25,1.06683,16,121.412,2,-113.334,0\C,16,1.51015,2,112.277,1,72.4734,0\H,27,1.08731,16,106.791,2,-151.782,0\H,27,1.09112,16,108.115,2,-36.0069,0\H,27,1.1,16,117.235,2,87.6113,0\\\@

 Total job time:  88721.84s(wall), 62063.38s(cpu) 
 Mon Sep 27 03:37:32 2021

        *************************************************************
        *                                                           *
        *  Thank you very much for using Q-Chem.  Have a nice day.  *
        *                                                           *
        *************************************************************


