
Running Job 1 of 1 SSI-031TYR-048HIE-1_SMD_TZVPD.in
qchem SSI-031TYR-048HIE-1_SMD_TZVPD.in_23106.0 /tmp/qchem23106/ 0
/global/common/cori/software/qchem/5.2/exe/qcprog.exe_s SSI-031TYR-048HIE-1_SMD_TZVPD.in_23106.0 /tmp/qchem23106/
                  Welcome to Q-Chem
     A Quantum Leap Into The Future Of Chemistry


 Q-Chem 5.2, Q-Chem, Inc., Pleasanton, CA (2019)

 License issued to: National Energy Research Scientific Computing Center

 Yihan Shao,  Zhengting Gan,  E. Epifanovsky,  A. T. B. Gilbert,  M. Wormit,  
 J. Kussmann,  A. W. Lange,  A. Behn,  Jia Deng,  Xintian Feng,  D. Ghosh,  
 M. Goldey,  P. R. Horn,  L. D. Jacobson,  I. Kaliman,  T. Kus,  A. Landau,  
 Jie Liu,  E. I. Proynov,  R. M. Richard,  R. P. Steele,  E. J. Sundstrom,  
 H. L. Woodcock III,  P. M. Zimmerman,  D. Zuev,  B. Albrecht,  E. Alguire,  
 S. A. Baeppler,  D. Barton,  Z. Benda,  Y. A. Bernard,  E. J. Berquist,  
 K. B. Bravaya,  H. Burton,  D. Casanova,  Chun-Min Chang,  Yunqing Chen,  
 A. Chien,  K. D. Closser,  M. P. Coons,  S. Coriani,  S. Dasgupta,  
 A. L. Dempwolff,  M. Diedenhofen,  Hainam Do,  R. G. Edgar,  Po-Tung Fang,  
 S. Faraji,  S. Fatehi,  Qingguo Feng,  K. D. Fenk,  J. Fosso-Tande,  
 J. Gayvert,  Qinghui Ge,  A. Ghysels,  G. Gidofalvi,  J. Gomes,  
 J. Gonthier,  A. Gunina,  D. Hait,  M. W. D. Hanson-Heine,  
 P. H. P. Harbach,  A. W. Hauser,  M. F. Herbst,  J. E. Herr,  
 E. G. Hohenstein,  Z. C. Holden,  Kerwin Hui,  B. C. Huynh,  T.-C. Jagau,  
 Hyunjun Ji,  B. Kaduk,  K. Khistyaev,  Jaehoon Kim,  P. Klunzinger,  K. Koh,  
 D. Kosenkov,  L. Koulias,  T. Kowalczyk,  C. M. Krauter,  A. Kunitsa,  
 Ka Un Lao,  A. Laurent,  K. V. Lawler,  Joonho Lee,  D. Lefrancois,  
 S. Lehtola,  D. S. Levine,  Yi-Pei Li,  You-Sheng Lin,  Fenglai Liu,  
 E. Livshits,  A. Luenser,  P. Manohar,  E. Mansoor,  S. F. Manzer,  
 Shan-Ping Mao,  Yuezhi Mao,  N. Mardirossian,  A. V. Marenich,  
 T. Markovich,  L. A. Martinez-Martinez,  S. A. Maurer,  N. J. Mayhall,  
 S. C. McKenzie,  J.-M. Mewes,  P. Morgante,  A. F. Morrison,  
 J. W. Mullinax,  K. Nanda,  T. S. Nguyen-Beck,  R. Olivares-Amaya,  
 J. A. Parkhill,  Zheng Pei,  T. M. Perrine,  F. Plasser,  P. Pokhilko,  
 S. Prager,  A. Prociuk,  E. Ramos,  D. R. Rehn,  F. Rob,  M. Scheurer,  
 M. Schneider,  N. Sergueev,  S. M. Sharada,  S. Sharma,  D. W. Small,  
 T. Stauch,  T. Stein,  Yu-Chuan Su,  A. J. W. Thom,  A. Tkatchenko,  
 T. Tsuchimochi,  N. M. Tubman,  L. Vogt,  M. L. Vidal,  O. Vydrov,  
 M. A. Watson,  J. Wenzel,  M. de Wergifosse,  T. A. Wesolowski,  A. White,  
 J. Witte,  A. Yamada,  Jun Yang,  K. Yao,  S. Yeganeh,  S. R. Yost,  
 Zhi-Qiang You,  A. Zech,  Igor Ying Zhang,  Xing Zhang,  Yan Zhao,  
 Ying Zhu,  B. R. Brooks,  G. K. L. Chan,  C. J. Cramer,  M. S. Gordon,  
 W. J. Hehre,  A. Klamt,  M. W. Schmidt,  C. D. Sherrill,  D. G. Truhlar,  
 A. Aspuru-Guzik,  R. Baer,  A. T. Bell,  N. A. Besley,  Jeng-Da Chai,  
 A. E. DePrince, III,  R. A. DiStasio Jr.,  A. Dreuw,  B. D. Dunietz,  
 T. R. Furlani,  Chao-Ping Hsu,  Yousung Jung,  Jing Kong,  D. S. Lambrecht,  
 WanZhen Liang,  C. Ochsenfeld,  V. A. Rassolov,  L. V. Slipchenko,  
 J. E. Subotnik,  T. Van Voorhis,  J. M. Herbert,  A. I. Krylov,  
 P. M. W. Gill,  M. Head-Gordon

 Contributors to earlier versions of Q-Chem not listed above: 
 R. D. Adamson,  B. Austin,  J. Baker,  G. J. O. Beran,  K. Brandhorst,  
 S. T. Brown,  E. F. C. Byrd,  A. K. Chakraborty,  C.-L. Cheng,  
 Siu Hung Chien,  D. M. Chipman,  D. L. Crittenden,  H. Dachsel,  
 R. J. Doerksen,  A. D. Dutoi,  L. Fusti-Molnar,  W. A. Goddard III,  
 A. Golubeva-Zadorozhnaya,  S. R. Gwaltney,  G. Hawkins,  A. Heyden,  
 S. Hirata,  G. Kedziora,  F. J. Keil,  C. Kelley,  Jihan Kim,  R. A. King,  
 R. Z. Khaliullin,  P. P. Korambath,  W. Kurlancheek,  A. M. Lee,  M. S. Lee,  
 S. V. Levchenko,  Ching Yeh Lin,  D. Liotard,  R. C. Lochan,  I. Lotan,  
 P. E. Maslen,  N. Nair,  D. P. O'Neill,  D. Neuhauser,  E. Neuscamman,  
 C. M. Oana,  R. Olson,  B. Peters,  R. Peverati,  P. A. Pieniazek,  
 Y. M. Rhee,  J. Ritchie,  M. A. Rohrdanz,  E. Rosta,  N. J. Russ,  
 H. F. Schaefer III,  N. E. Schultz,  N. Shenvi,  A. C. Simmonett,  A. Sodt,  
 D. Stuck,  K. S. Thanthiriwatte,  V. Vanovschi,  Tao Wang,  A. Warshel,  
 C. F. Williams,  Q. Wu,  X. Xu,  W. Zhang

 Please cite Q-Chem as follows:
 Y. Shao et al., Mol. Phys. 113, 184-215 (2015)
 DOI: 10.1080/00268976.2014.952696

 Q-Chem 5.2.0 for Intel X86 EM64T Linux

 Parts of Q-Chem use Armadillo 8.300.2 (Tropical Shenanigans).
 http://arma.sourceforge.net/

 Q-Chem begins on Sun Sep 26 05:15:13 2021  

Host: cori01
0

     Scratch files written to /tmp/qchem23106//
 May1019 |scratch|qcdevops|jenkins|workspace|build_RNUM -1
Processing $rem in /global/common/cori/software/qchem/5.2/config/preferences:
	 MEM_TOTAL  96000 
NAlpha2: 102
NElect   102
Mult     1
Symmetry turned off for PCM/SM12/SMD calculation

 Q-Chem warning in module libgen/rem_setup.C, line 2803:

 Neither GIA nor STOLL is specified by user. Use STOLL as the default


Checking the input file for inconsistencies... 	...done.

--------------------------------------------------------------
User input:
--------------------------------------------------------------
$comment
SSI-031TYR-048HIE-1.pdb
$end

$molecule
0 1
--
0 1
C    2.080500064232    3.657309123477   -0.309928554720
C   -0.814499935768    1.653309123477    1.158071445280
C   -0.144499935768    0.541309123477    1.669071445280
C   -0.084499935768    2.660309123477    0.517071445280
C    1.301500064232    2.568309123477    0.382071445280
C    1.242500064232    0.434309123477    1.538071445280
C    1.957500064232    1.451309123477    0.895071445280
O   -0.848499935768   -0.443690876523    2.300071445280
H   -1.883499935768    1.736309123477    1.265071445280
H   -0.607499935768    3.521309123477    0.122071445280
H    1.763500064232   -0.420690876523    1.935071445280
H   -0.268499935768   -1.221690876523    2.376071445280
H    2.720500064232    4.145309123477    0.427071445280
H    1.389500064232    4.402309123477   -0.702928554720
H    3.028500064232    1.378309123477    0.807071445280
H    2.704900064232    3.281369123477   -1.133819554720
--
0 1
C   -1.765499935768   -3.987690876523   -1.185928554720
C   -0.755499935768   -0.484690876523   -1.278928554720
C   -1.019499935768   -2.674690876523   -1.270928554720
C    0.240500064232   -2.400690876523   -1.702928554720
N   -1.623499935768   -1.458690876523   -1.011928554720
N    0.380500064232   -1.027690876523   -1.696928554720
H   -0.950499935768    0.579309123477   -1.208928554720
H    1.193500064232   -0.485690876523   -1.987928554720
H    0.953500064232   -3.113690876523   -2.081928554720
H   -2.223499935768   -4.147690876523   -2.163928554720
H   -2.577499935768   -3.894690876523   -0.462928554720
H   -1.159359935768   -4.874030876523   -0.947188554720
$end

$rem
JOBTYPE			EDA
EDA2			1
method			wB97X-V
BASIS			def2-TZVPD
XC_GRID			000099000590
NL_GRID			1
UNRESTRICTED		FALSE
MAX_SCF_CYCLES		200
SYMMETRY		FALSE
SYM_IGNORE		TRUE
MEM_STATIC		2000
BASIS_LIN_DEP_THRESH 	6
THRESH 			14
SCF_CONVERGENCE 	8
SCF_PRINT_FRGM 		TRUE
SOLVENT_METHOD          SMD
$end

$SMX
SOLVENT			WATER
$END
--------------------------------------------------------------
 ----------------------------------------------------------------
             Standard Nuclear Orientation (Angstroms)
    I     Atom           X                Y                Z
 ----------------------------------------------------------------
    1      C       2.0805000642     3.6573091235    -0.3099285547
    2      C      -0.8144999358     1.6533091235     1.1580714453
    3      C      -0.1444999358     0.5413091235     1.6690714453
    4      C      -0.0844999358     2.6603091235     0.5170714453
    5      C       1.3015000642     2.5683091235     0.3820714453
    6      C       1.2425000642     0.4343091235     1.5380714453
    7      C       1.9575000642     1.4513091235     0.8950714453
    8      O      -0.8484999358    -0.4436908765     2.3000714453
    9      H      -1.8834999358     1.7363091235     1.2650714453
   10      H      -0.6074999358     3.5213091235     0.1220714453
   11      H       1.7635000642    -0.4206908765     1.9350714453
   12      H      -0.2684999358    -1.2216908765     2.3760714453
   13      H       2.7205000642     4.1453091235     0.4270714453
   14      H       1.3895000642     4.4023091235    -0.7029285547
   15      H       3.0285000642     1.3783091235     0.8070714453
   16      H       2.7049000642     3.2813691235    -1.1338195547
   17      C      -1.7654999358    -3.9876908765    -1.1859285547
   18      C      -0.7554999358    -0.4846908765    -1.2789285547
   19      C      -1.0194999358    -2.6746908765    -1.2709285547
   20      C       0.2405000642    -2.4006908765    -1.7029285547
   21      N      -1.6234999358    -1.4586908765    -1.0119285547
   22      N       0.3805000642    -1.0276908765    -1.6969285547
   23      H      -0.9504999358     0.5793091235    -1.2089285547
   24      H       1.1935000642    -0.4856908765    -1.9879285547
   25      H       0.9535000642    -3.1136908765    -2.0819285547
   26      H      -2.2234999358    -4.1476908765    -2.1639285547
   27      H      -2.5774999358    -3.8946908765    -0.4629285547
   28      H      -1.1593599358    -4.8740308765    -0.9471885547
 ----------------------------------------------------------------
 Nuclear Repulsion Energy =         849.18879687 hartrees
 There are       51 alpha and       51 beta electrons
 Requested basis set is def2-TZVPD
 There are 253 shells and 647 basis functions

 Total QAlloc Memory Limit  96000 MB
 Mega-Array Size      1956 MB
 MEM_STATIC part      2000 MB
 
 Citation of the SMD model:
 Marenich, A.V.; Cramer, C.J.; Truhlar, D.G.
 J. Phys. Chem. B 2009, 113, 6378-6396.
 iSolventCode=           1
 Solvent: water                                                           
 
 vradii
            1           2           3           4           5           6
    1   1.8500000   1.8500000   1.8500000   1.8500000   1.8500000   1.8500000
            7           8           9          10          11          12
    1   1.8500000   1.5200000   1.2000000   1.2000000   1.2000000   1.2000000
           13          14          15          16          17          18
    1   1.2000000   1.2000000   1.2000000   1.2000000   1.8500000   1.8500000
           19          20          21          22          23          24
    1   1.8500000   1.8500000   1.8900000   1.8900000   1.2000000   1.2000000
           25          26          27          28
    1   1.2000000   1.2000000   1.2000000   1.2000000
 Changing PCM_VDW_RADII to SMD_RADIUS
 Discretize the solute cavity surface with Lebedev spheres
	Using 110 Lebedev grid points for each H atom
	Using 194 Lebedev grid points for other atoms
	Atomic van der Waals radii will be scaled by 1.20
 Remove points where switching function is < 1.0e-08
 Keep 2054 surface tesserae and discard 2202 interior tesserae
 Molecular Surface Area = 246.569 Angst**2
 A cutoff of  1.0D-14 yielded  27996 shell pairs
 There are    185624 function pairs (    236055 Cartesian)
 Smallest overlap matrix eigenvalue = 4.54E-07
 Linear dependence detected in AO basis
 Tighter screening thresholds may be required for diffuse basis sets
 Use S2THRESH > 14 and THRESH = 14 in case of SCF convergence issues
 Number of orthogonalized atomic orbitals = 646
 Maximum deviation from orthogonality = 2.535E-10

 Scale SEOQF with 1.000000e-01/1.000000e-01/1.000000e-01

 Standard Electronic Orientation quadrupole field applied
 Nucleus-field energy     =     0.0000000233 hartrees

 -----------------------------------------------------------------------
  General SCF calculation program by
  Eric Jon Sundstrom, Paul Horn, Yuezhi Mao, Dmitri Zuev, Alec White,
  David Stuck, Shaama M.S., Shane Yost, Joonho Lee, David Small,
  Daniel Levine, Susi Lehtola, Hugh Burton, Evgeny Epifanovsky
 -----------------------------------------------------------------------
================================================================
                 ALMO-EDA with the EDA2 driver                  
================================================================
 The second-generation ALMO-EDA (for DFT):                      
 P. R. Horn, Y. Mao and M. Head-Gordon, PCCP, 18, 23067 (2016)  
 Decomposition of the frozen energy:                            
 P. R. Horn, Y. Mao and M. Head-Gordon, JCP, 144, 114107 (2016) 
 FERF model for polarization:                                   
 P. R. Horn and M. Head-Gordon, JCP, 143, 114111 (2015)         
Using eda2 option set 1
Option set summary: Frozen orbital wavefunction, initial wavefunction decomposition, and nDQ polarization.
--------------------------------
Printing EDA Options
--------------------------------
eda_child_super_basis      0
fragmo_guess_mode          0
child_mp                   1
child_mp_orders            232
cls_elec                   1
cls_disp                   0
scfmi_mode                 1
scfmi_occs                 0
scfmi_virts                0
frz_relax                  0
frz_relax_method           0
dc_pen_start               0
dc_pen_conv                0
dc_pen_increment           0
dc_pen_steps               0
dc_pen_thresh_factor       0
dc_pen_pre_newton_thresh   0
frz_ortho_decomp           1
frz_ortho_decomp_conv      6
frgm_method                2
scfmi_freeze_ss            0
separate_rehyb             0
plot_diff_den              0
eda_nocv                   0
eda_vct_relax              1
disp_free_x                0
disp_free_c                0
eda_bsse                   0
eda_pct_a                  0
eda_covp                   0
--------------------------------
Attempting to make child job directory: /tmp/qchem23106//Frg1/
Attempting to make child job directory: /tmp/qchem23106//Frg2/
Creating input file /tmp/qchem23106/Frg1.input
using default PutDataFrgm: nothing
calling putenv with: QCSCRATCH=/tmp/qchem23106/ 
calling putenv with: QCLOCALSCR=/tmp/qchem23106/ 
Spawning Job For Fragment 0
                  Welcome to Q-Chem
     A Quantum Leap Into The Future Of Chemistry


 Q-Chem 5.2, Q-Chem, Inc., Pleasanton, CA (2019)

 License issued to: National Energy Research Scientific Computing Center

 Yihan Shao,  Zhengting Gan,  E. Epifanovsky,  A. T. B. Gilbert,  M. Wormit,  
 J. Kussmann,  A. W. Lange,  A. Behn,  Jia Deng,  Xintian Feng,  D. Ghosh,  
 M. Goldey,  P. R. Horn,  L. D. Jacobson,  I. Kaliman,  T. Kus,  A. Landau,  
 Jie Liu,  E. I. Proynov,  R. M. Richard,  R. P. Steele,  E. J. Sundstrom,  
 H. L. Woodcock III,  P. M. Zimmerman,  D. Zuev,  B. Albrecht,  E. Alguire,  
 S. A. Baeppler,  D. Barton,  Z. Benda,  Y. A. Bernard,  E. J. Berquist,  
 K. B. Bravaya,  H. Burton,  D. Casanova,  Chun-Min Chang,  Yunqing Chen,  
 A. Chien,  K. D. Closser,  M. P. Coons,  S. Coriani,  S. Dasgupta,  
 A. L. Dempwolff,  M. Diedenhofen,  Hainam Do,  R. G. Edgar,  Po-Tung Fang,  
 S. Faraji,  S. Fatehi,  Qingguo Feng,  K. D. Fenk,  J. Fosso-Tande,  
 J. Gayvert,  Qinghui Ge,  A. Ghysels,  G. Gidofalvi,  J. Gomes,  
 J. Gonthier,  A. Gunina,  D. Hait,  M. W. D. Hanson-Heine,  
 P. H. P. Harbach,  A. W. Hauser,  M. F. Herbst,  J. E. Herr,  
 E. G. Hohenstein,  Z. C. Holden,  Kerwin Hui,  B. C. Huynh,  T.-C. Jagau,  
 Hyunjun Ji,  B. Kaduk,  K. Khistyaev,  Jaehoon Kim,  P. Klunzinger,  K. Koh,  
 D. Kosenkov,  L. Koulias,  T. Kowalczyk,  C. M. Krauter,  A. Kunitsa,  
 Ka Un Lao,  A. Laurent,  K. V. Lawler,  Joonho Lee,  D. Lefrancois,  
 S. Lehtola,  D. S. Levine,  Yi-Pei Li,  You-Sheng Lin,  Fenglai Liu,  
 E. Livshits,  A. Luenser,  P. Manohar,  E. Mansoor,  S. F. Manzer,  
 Shan-Ping Mao,  Yuezhi Mao,  N. Mardirossian,  A. V. Marenich,  
 T. Markovich,  L. A. Martinez-Martinez,  S. A. Maurer,  N. J. Mayhall,  
 S. C. McKenzie,  J.-M. Mewes,  P. Morgante,  A. F. Morrison,  
 J. W. Mullinax,  K. Nanda,  T. S. Nguyen-Beck,  R. Olivares-Amaya,  
 J. A. Parkhill,  Zheng Pei,  T. M. Perrine,  F. Plasser,  P. Pokhilko,  
 S. Prager,  A. Prociuk,  E. Ramos,  D. R. Rehn,  F. Rob,  M. Scheurer,  
 M. Schneider,  N. Sergueev,  S. M. Sharada,  S. Sharma,  D. W. Small,  
 T. Stauch,  T. Stein,  Yu-Chuan Su,  A. J. W. Thom,  A. Tkatchenko,  
 T. Tsuchimochi,  N. M. Tubman,  L. Vogt,  M. L. Vidal,  O. Vydrov,  
 M. A. Watson,  J. Wenzel,  M. de Wergifosse,  T. A. Wesolowski,  A. White,  
 J. Witte,  A. Yamada,  Jun Yang,  K. Yao,  S. Yeganeh,  S. R. Yost,  
 Zhi-Qiang You,  A. Zech,  Igor Ying Zhang,  Xing Zhang,  Yan Zhao,  
 Ying Zhu,  B. R. Brooks,  G. K. L. Chan,  C. J. Cramer,  M. S. Gordon,  
 W. J. Hehre,  A. Klamt,  M. W. Schmidt,  C. D. Sherrill,  D. G. Truhlar,  
 A. Aspuru-Guzik,  R. Baer,  A. T. Bell,  N. A. Besley,  Jeng-Da Chai,  
 A. E. DePrince, III,  R. A. DiStasio Jr.,  A. Dreuw,  B. D. Dunietz,  
 T. R. Furlani,  Chao-Ping Hsu,  Yousung Jung,  Jing Kong,  D. S. Lambrecht,  
 WanZhen Liang,  C. Ochsenfeld,  V. A. Rassolov,  L. V. Slipchenko,  
 J. E. Subotnik,  T. Van Voorhis,  J. M. Herbert,  A. I. Krylov,  
 P. M. W. Gill,  M. Head-Gordon

 Contributors to earlier versions of Q-Chem not listed above: 
 R. D. Adamson,  B. Austin,  J. Baker,  G. J. O. Beran,  K. Brandhorst,  
 S. T. Brown,  E. F. C. Byrd,  A. K. Chakraborty,  C.-L. Cheng,  
 Siu Hung Chien,  D. M. Chipman,  D. L. Crittenden,  H. Dachsel,  
 R. J. Doerksen,  A. D. Dutoi,  L. Fusti-Molnar,  W. A. Goddard III,  
 A. Golubeva-Zadorozhnaya,  S. R. Gwaltney,  G. Hawkins,  A. Heyden,  
 S. Hirata,  G. Kedziora,  F. J. Keil,  C. Kelley,  Jihan Kim,  R. A. King,  
 R. Z. Khaliullin,  P. P. Korambath,  W. Kurlancheek,  A. M. Lee,  M. S. Lee,  
 S. V. Levchenko,  Ching Yeh Lin,  D. Liotard,  R. C. Lochan,  I. Lotan,  
 P. E. Maslen,  N. Nair,  D. P. O'Neill,  D. Neuhauser,  E. Neuscamman,  
 C. M. Oana,  R. Olson,  B. Peters,  R. Peverati,  P. A. Pieniazek,  
 Y. M. Rhee,  J. Ritchie,  M. A. Rohrdanz,  E. Rosta,  N. J. Russ,  
 H. F. Schaefer III,  N. E. Schultz,  N. Shenvi,  A. C. Simmonett,  A. Sodt,  
 D. Stuck,  K. S. Thanthiriwatte,  V. Vanovschi,  Tao Wang,  A. Warshel,  
 C. F. Williams,  Q. Wu,  X. Xu,  W. Zhang

 Please cite Q-Chem as follows:
 Y. Shao et al., Mol. Phys. 113, 184-215 (2015)
 DOI: 10.1080/00268976.2014.952696

 Q-Chem 5.2.0 for Intel X86 EM64T Linux

 Parts of Q-Chem use Armadillo 8.300.2 (Tropical Shenanigans).
 http://arma.sourceforge.net/

 Q-Chem begins on Sun Sep 26 05:15:21 2021  

Host: cori01
0

     Scratch files written to /tmp/qchem23106//Frg1//
 May1019 |scratch|qcdevops|jenkins|workspace|build_RNUM -1
Processing $rem in /global/common/cori/software/qchem/5.2/config/preferences:
	 MEM_TOTAL  96000 
NAlpha2: 58
NElect   58
Mult     1
Symmetry turned off for PCM/SM12/SMD calculation

Checking the input file for inconsistencies... 	...done.

--------------------------------------------------------------
User input:
--------------------------------------------------------------
$molecule
0 1
 6	2.0805000642	3.6573091235	-0.3099285547
 6	-0.8144999358	1.6533091235	1.1580714453
 6	-0.1444999358	0.5413091235	1.6690714453
 6	-0.0844999358	2.6603091235	0.5170714453
 6	1.3015000642	2.5683091235	0.3820714453
 6	1.2425000642	0.4343091235	1.5380714453
 6	1.9575000642	1.4513091235	0.8950714453
 8	-0.8484999358	-0.4436908765	2.3000714453
 1	-1.8834999358	1.7363091235	1.2650714453
 1	-0.6074999358	3.5213091235	0.1220714453
 1	1.7635000642	-0.4206908765	1.9350714453
 1	-0.2684999358	-1.2216908765	2.3760714453
 1	2.7205000642	4.1453091235	0.4270714453
 1	1.3895000642	4.4023091235	-0.7029285547
 1	3.0285000642	1.3783091235	0.8070714453
 1	2.7049000642	3.2813691235	-1.1338195547
$end
$rem
EDA2		1
METHOD		WB97X-V
BASIS		DEF2-TZVPD
XC_GRID		000099000590
NL_GRID		1
UNRESTRICTED		FALSE
MAX_SCF_CYCLES		200
SYMMETRY		FALSE
SYM_IGNORE		TRUE
BASIS_LIN_DEP_THRESH		6
THRESH		14
SCF_CONVERGENCE		8
SCF_PRINT_FRGM		TRUE
SOLVENT_METHOD		SMD
!required keywords
JOBTYPE		SP
SYM_IGNORE		TRUE
SUBSYSTEM		TRUE
GEN_SCFMAN		TRUE
CHILD_INSTRUCTION		2
SYM_IGNORE		TRUE
SCFMI		0
RI_K 0		
PARI_K 0		
MIN_PARI_K 0		
IARI_K 0		
OCC_RI_K 0		
PURECART		1111
MEM_STATIC		2000
MEM_TOTAL		96000
GUI		0
CHILD_MP		1
CHILD_MP_ORDERS		232
FRZ_RELAX		0
FRZ_RELAX_METHOD		0
EDA_CLS_ELEC		1
EDA_CLS_DISP		0
FRZ_ORTHO_DECOMP		1
EDA2		FALSE
FRGM_METHOD		FALSE
CIS_N_ROOTS  0
LOCAL_CIS    0
CIS_RLX_DNS  1
$end
$smx
SOLVENT			WATER
$end
--------------------------------------------------------------
 ----------------------------------------------------------------
             Standard Nuclear Orientation (Angstroms)
    I     Atom           X                Y                Z
 ----------------------------------------------------------------
    1      C       2.0805000642     3.6573091235    -0.3099285547
    2      C      -0.8144999358     1.6533091235     1.1580714453
    3      C      -0.1444999358     0.5413091235     1.6690714453
    4      C      -0.0844999358     2.6603091235     0.5170714453
    5      C       1.3015000642     2.5683091235     0.3820714453
    6      C       1.2425000642     0.4343091235     1.5380714453
    7      C       1.9575000642     1.4513091235     0.8950714453
    8      O      -0.8484999358    -0.4436908765     2.3000714453
    9      H      -1.8834999358     1.7363091235     1.2650714453
   10      H      -0.6074999358     3.5213091235     0.1220714453
   11      H       1.7635000642    -0.4206908765     1.9350714453
   12      H      -0.2684999358    -1.2216908765     2.3760714453
   13      H       2.7205000642     4.1453091235     0.4270714453
   14      H       1.3895000642     4.4023091235    -0.7029285547
   15      H       3.0285000642     1.3783091235     0.8070714453
   16      H       2.7049000642     3.2813691235    -1.1338195547
 ----------------------------------------------------------------
 Nuclear Repulsion Energy =         342.63177061 hartrees
 There are       29 alpha and       29 beta electrons
 Requested basis set is def2-TZVPD
 There are 145 shells and 371 basis functions

 Total QAlloc Memory Limit  96000 MB
 Mega-Array Size      1956 MB
 MEM_STATIC part      2000 MB
 
 Citation of the SMD model:
 Marenich, A.V.; Cramer, C.J.; Truhlar, D.G.
 J. Phys. Chem. B 2009, 113, 6378-6396.
 iSolventCode=           1
 Solvent: water                                                           
 
 vradii
            1           2           3           4           5           6
    1   1.8500000   1.8500000   1.8500000   1.8500000   1.8500000   1.8500000
            7           8           9          10          11          12
    1   1.8500000   1.5200000   1.2000000   1.2000000   1.2000000   1.2000000
           13          14          15          16
    1   1.2000000   1.2000000   1.2000000   1.2000000
 Changing PCM_VDW_RADII to SMD_RADIUS
 Discretize the solute cavity surface with Lebedev spheres
	Using 110 Lebedev grid points for each H atom
	Using 194 Lebedev grid points for other atoms
	Atomic van der Waals radii will be scaled by 1.20
 Remove points where switching function is < 1.0e-08
 Keep 1179 surface tesserae and discard 1253 interior tesserae
 Molecular Surface Area = 141.286 Angst**2
 A cutoff of  1.0D-14 yielded  10046 shell pairs
 There are     67088 function pairs (     85787 Cartesian)
 Smallest overlap matrix eigenvalue = 5.69E-07
 Linear dependence detected in AO basis
 Tighter screening thresholds may be required for diffuse basis sets
 Use S2THRESH > 14 and THRESH = 14 in case of SCF convergence issues
 Number of orthogonalized atomic orbitals = 370
 Maximum deviation from orthogonality = 2.842E-10

 Scale SEOQF with 1.000000e-01/1.000000e-01/1.000000e-01

 Standard Electronic Orientation quadrupole field applied
 Nucleus-field energy     =     0.0000000117 hartrees
 Guess from superposition of atomic densities
 Warning:  Energy on first SCF cycle will be non-variational
 SAD guess density has 57.738434 electrons

 -----------------------------------------------------------------------
  General SCF calculation program by
  Eric Jon Sundstrom, Paul Horn, Yuezhi Mao, Dmitri Zuev, Alec White,
  David Stuck, Shaama M.S., Shane Yost, Joonho Lee, David Small,
  Daniel Levine, Susi Lehtola, Hugh Burton, Evgeny Epifanovsky
 -----------------------------------------------------------------------
 Exchange:     0.1670 Hartree-Fock + 1.0000 wB97X-V + LR-HF
 Correlation:  1.0000 wB97X-V
 Using Euler-Maclaurin-Lebedev (99,590) quadrature formula
 Nonlocal Correlation:  VV10 with C = 0.0100 and b = 6.00 and scale = 1.00000
 Grid used for NLC:  SG-1 standard quadrature
Energy prior to optimization (guess energy) = -346.495659085800
Begin Timing: Total SCF Calculation
begin iterations for algorithm: DIIS         
the SCF tolerance is set to 1.00e-08
    1    -346.4956590858      5.17e-03     00000 
    2    -346.4321730736      5.61e-03     00000 
    3    -346.8206207614      5.31e-04     00000 
    4    -346.8255256473      1.74e-04     00000 
    5    -346.8262225864      3.78e-05     00000 
    6    -346.8262740046      1.28e-05     00000 
    7    -346.8262787144      4.83e-06     00000 
    8    -346.8262794168      1.52e-06     00000 
    9    -346.8262795116      4.90e-07     00000 
   10    -346.8262795252      2.69e-07     00000 
   11    -346.8262795293      7.57e-08     00000 
   12    -346.8262795300      3.53e-08     00000 
   13    -346.8262795302      1.47e-08     00000 
   14    -346.8262795302      3.66e-09     00000 Convergence criterion met
Timing for Total SCF: 2282.00s (wall), 4533.57s (cpu)
(3)  G-ENP(liq) elect-nuc-pol free energy of system     -346.826279530 a.u.
(4)  G-CDS(liq) cavity-dispersion-solvent structure 
     free energy                                                3.7669 kcal/mol
(6)  G-S(liq) free energy of system                     -346.820276656 a.u.
E_pcm = -0.0174655295
E_cds = 0.0060028739
Multipole orders to be included
        2
        3
computing dipole RHS
computing quadrupole RHS
total number of RHS in solve_reponses: 8
RHS batch sizes
        8
Beginning Block Conjugate Gradient Iterations. Batch Number: 0
computing hessian-vector products by finite difference
              1      6.55e-01     00000 Conjugate Gradient Iteration
computing hessian-vector products by finite difference
              2      2.02e-01     00000 Conjugate Gradient Iteration
computing hessian-vector products by finite difference
              3      5.20e-02     00000 Conjugate Gradient Iteration
computing hessian-vector products by finite difference
              4      1.63e-02     00000 Conjugate Gradient Iteration
computing hessian-vector products by finite difference
              5      4.35e-03     00000 Conjugate Gradient Iteration
computing hessian-vector products by finite difference
              6      1.74e-03     00000 Conjugate Gradient Iteration
computing hessian-vector products by finite difference
              7      4.29e-04     00000 Conjugate Gradient Iteration
computing hessian-vector products by finite difference
              8      9.01e-05     00000 Conjugate Gradient Iteration
computing hessian-vector products by finite difference
              9      1.70e-05     00000 Conjugate Gradient Iteration
computing hessian-vector products by finite difference
             10      2.28e-06     00000 Conjugate Gradient Iteration
computing hessian-vector products by finite difference
             11      3.57e-07     00000 Conjugate Gradient Iteration
computing hessian-vector products by finite difference
             12      7.41e-08     00000 Conjugate Gradient Iteration
computing hessian-vector products by finite difference
             13      1.14e-08     00000 Conjugate Gradient Iteration
computing hessian-vector products by finite difference
             14      2.20e-09     00000 CG Converged
batch 0 complete
Done Calculating Responses
TESTING ORTHOGONALIZATION OF MULTIPOLE BASIS
Multipole virts passed orthogonality test
Virts Per Order
           87
          145
 
 --------------------------------------------------------------
 
                    Orbital Energies (a.u.)
 --------------------------------------------------------------
 
 Alpha MOs
 -- Occupied --
-19.2413 -10.3311 -10.2715 -10.2695 -10.2687 -10.2676 -10.2669 -10.2528
 -1.1898  -0.9893  -0.8952  -0.8779  -0.8023  -0.7427  -0.7060  -0.6557
 -0.5983  -0.5738  -0.5466  -0.5355  -0.5273  -0.5168  -0.5055  -0.4722
 -0.4492  -0.4398  -0.4343  -0.3485  -0.3102
 -- Virtual --
  0.0619   0.0637   0.0743   0.0821   0.0888   0.0997   0.1142   0.1153
  0.1183   0.1368   0.1508   0.1567   0.1613   0.1772   0.1852   0.1972
  0.2049   0.2091   0.2214   0.2326   0.2385   0.2445   0.2528   0.2603
  0.2683   0.2734   0.2759   0.2817   0.2886   0.3000   0.3012   0.3076
  0.3107   0.3137   0.3170   0.3310   0.3383   0.3447   0.3504   0.3574
  0.3590   0.3633   0.3704   0.3747   0.3802   0.3852   0.3867   0.3972
  0.4010   0.4022   0.4045   0.4114   0.4168   0.4217   0.4326   0.4365
  0.4401   0.4587   0.4647   0.4659   0.4777   0.4818   0.4855   0.4892
  0.4962   0.5010   0.5047   0.5101   0.5136   0.5178   0.5312   0.5388
  0.5456   0.5510   0.5568   0.5600   0.5613   0.5716   0.5811   0.5961
  0.6051   0.6088   0.6184   0.6241   0.6508   0.6572   0.6639   0.6745
  0.6836   0.6876   0.6934   0.7005   0.7083   0.7127   0.7222   0.7341
  0.7377   0.7430   0.7497   0.7578   0.7637   0.7732   0.7847   0.7890
  0.7930   0.7964   0.7985   0.8043   0.8093   0.8238   0.8315   0.8375
  0.8437   0.8557   0.8606   0.8636   0.8719   0.8799   0.8850   0.8911
  0.9076   0.9140   0.9436   0.9478   0.9621   0.9766   1.0030   1.0188
  1.0211   1.0419   1.0464   1.0534   1.0594   1.0696   1.0770   1.0837
  1.0992   1.1248   1.1414   1.1637   1.2040   1.2362   1.2614   1.3008
  1.3101   1.3188   1.3218   1.3580   1.3700   1.3830   1.4036   1.4442
  1.4545   1.4654   1.4749   1.4907   1.5317   1.5683   1.6114   1.6300
  1.6417   1.6512   1.6677   1.6845   1.7078   1.7313   1.7594   1.8006
  1.8269   1.8319   1.8371   1.8545   1.8626   1.8949   1.9216   1.9268
  1.9478   1.9621   1.9825   1.9918   1.9972   2.0307   2.0436   2.0531
  2.0655   2.0787   2.0921   2.1170   2.1229   2.1639   2.2039   2.2086
  2.2334   2.2524   2.2693   2.2859   2.2999   2.3205   2.3405   2.3704
  2.4031   2.4120   2.4384   2.4656   2.4885   2.5061   2.5343   2.5598
  2.5800   2.6257   2.6273   2.6423   2.6613   2.6661   2.6978   2.7387
  2.7555   2.7723   2.7785   2.8078   2.8177   2.8326   2.8654   2.8763
  2.8858   2.9206   2.9358   2.9443   2.9695   2.9817   2.9845   3.0085
  3.0287   3.0331   3.0651   3.0863   3.1088   3.1397   3.1571   3.1659
  3.1878   3.2010   3.2165   3.2222   3.2433   3.2619   3.2930   3.2984
  3.3087   3.3718   3.3889   3.3911   3.4000   3.4174   3.4409   3.4585
  3.4615   3.4769   3.4921   3.5099   3.5274   3.5314   3.5435   3.5482
  3.5543   3.5702   3.5728   3.5930   3.6064   3.6313   3.6466   3.6877
  3.6904   3.7054   3.7465   3.7483   3.7911   3.8100   3.8547   3.9311
  3.9383   3.9605   3.9756   4.0019   4.0394   4.0763   4.1400   4.1644
  4.2487   4.2716   4.2817   4.3064   4.3213   4.3366   4.3508   4.3641
  4.3723   4.3841   4.4159   4.4686   4.4926   4.5482   4.5976   4.6174
  4.7392   4.7668   4.7952   4.8112   4.8327   4.9258   5.0187   5.0639
  5.0889   5.1393   5.1432   5.2953   5.3170   5.4366   5.4553   5.5349
  5.5946   5.6650   5.7255   5.7768   5.9502   6.1745   6.4522   6.5363
  6.6806   6.8774   7.0127   7.2889   7.4393  22.6847  22.6914  22.9373
 22.9832  23.0222  23.1766  23.4970  44.4131
 --------------------------------------------------------------
 
          Ground-State Mulliken Net Atomic Charges

     Atom                 Charge (a.u.)
  ----------------------------------------
      1 C                    -1.075886
      2 C                    -0.750868
      3 C                     0.656015
      4 C                    -0.472119
      5 C                     0.468085
      6 C                    -0.400585
      7 C                    -0.592546
      8 O                    -0.552274
      9 H                     0.401358
     10 H                     0.364719
     11 H                     0.375461
     12 H                     0.340756
     13 H                     0.247315
     14 H                     0.296969
     15 H                     0.417566
     16 H                     0.276032
  ----------------------------------------
  Sum of atomic charges =     0.000000

 -----------------------------------------------------------------
                    Cartesian Multipole Moments
 -----------------------------------------------------------------
    Charge (ESU x 10^10)
                -0.0000
    Dipole Moment (Debye)
         X       2.0051      Y      -0.6092      Z      -0.4301
       Tot       2.1392
    Quadrupole Moments (Debye-Ang)
        XX     -44.5572     XY      -1.1773     YY     -41.2138
        XZ       3.6714     YZ      -5.8074     ZZ     -51.2992
    Octopole Moments (Debye-Ang^2)
       XXX     -78.9077    XXY     -67.9018    XYY     -30.1033
       YYY    -220.7482    XXZ     -47.6993    XYZ      -5.2782
       YYZ     -47.5459    XZZ     -21.5183    YZZ     -93.5680
       ZZZ    -152.2133
    Hexadecapole Moments (Debye-Ang^3)
      XXXX    -552.2722   XXXY    -249.2249   XXYY    -306.2719
      XYYY    -260.1795   YYYY   -1288.5369   XXXZ       7.5644
      XXYZ     -18.4231   XYYZ      -1.9668   YYYZ    -101.8515
      XXZZ    -196.9909   XYZZ     -96.5335   YYZZ    -317.0327
      XZZZ      17.5103   YZZZ    -105.0972   ZZZZ    -568.2061
 -----------------------------------------------------------------
Archival summary:
1\1\nid00536\SP\ProcedureUnspecified\BasisUnspecified\178\meili\SunSep2616:28:432021SunSep2616:28:432021\0\\#,ProcedureUnspecified,BasisUnspecified,\\0,1\C\O,1,1.36528\H,2,0.973376,1,107.787\C,1,1.39519,2,119.78,3,165.483,0\H,4,1.07754,1,120.095,2,0.27158,0\C,1,1.39728,2,119.996,3,-14.5846,0\H,6,1.07707,1,120.424,2,-0.195894,0\C,4,1.39922,1,119.397,2,179.774,0\H,8,1.08207,4,119.191,1,-179.995,0\C,8,1.39559,4,120.998,1,-0.00634265,0\C,10,1.39327,8,119.001,4,0.111735,0\H,11,1.07709,10,119.5,8,-179.182,0\C,10,1.50719,8,120.669,4,179.992,0\H,13,1.08947,10,109.383,8,-4.03174,0\H,13,1.09129,10,108.43,8,113.575,0\H,13,1.1,10,112.975,8,-125.478,0\\\@

 Total job time:  40406.99s(wall), 80211.95s(cpu) 
 Sun Sep 26 16:28:47 2021

        *************************************************************
        *                                                           *
        *  Thank you very much for using Q-Chem.  Have a nice day.  *
        *                                                           *
        *************************************************************


Done Job For Fragment 0
calling putenv with: QCSCRATCH=/global/cscratch1/sd/meili 
calling putenv with: QCLOCALSCR=/tmp 
calling putenv with: QCTHREADS=32 
Creating input file /tmp/qchem23106/Frg2.input
using default PutDataFrgm: nothing
calling putenv with: QCSCRATCH=/tmp/qchem23106/ 
calling putenv with: QCLOCALSCR=/tmp/qchem23106/ 
Spawning Job For Fragment 1
                  Welcome to Q-Chem
     A Quantum Leap Into The Future Of Chemistry


 Q-Chem 5.2, Q-Chem, Inc., Pleasanton, CA (2019)

 License issued to: National Energy Research Scientific Computing Center

 Yihan Shao,  Zhengting Gan,  E. Epifanovsky,  A. T. B. Gilbert,  M. Wormit,  
 J. Kussmann,  A. W. Lange,  A. Behn,  Jia Deng,  Xintian Feng,  D. Ghosh,  
 M. Goldey,  P. R. Horn,  L. D. Jacobson,  I. Kaliman,  T. Kus,  A. Landau,  
 Jie Liu,  E. I. Proynov,  R. M. Richard,  R. P. Steele,  E. J. Sundstrom,  
 H. L. Woodcock III,  P. M. Zimmerman,  D. Zuev,  B. Albrecht,  E. Alguire,  
 S. A. Baeppler,  D. Barton,  Z. Benda,  Y. A. Bernard,  E. J. Berquist,  
 K. B. Bravaya,  H. Burton,  D. Casanova,  Chun-Min Chang,  Yunqing Chen,  
 A. Chien,  K. D. Closser,  M. P. Coons,  S. Coriani,  S. Dasgupta,  
 A. L. Dempwolff,  M. Diedenhofen,  Hainam Do,  R. G. Edgar,  Po-Tung Fang,  
 S. Faraji,  S. Fatehi,  Qingguo Feng,  K. D. Fenk,  J. Fosso-Tande,  
 J. Gayvert,  Qinghui Ge,  A. Ghysels,  G. Gidofalvi,  J. Gomes,  
 J. Gonthier,  A. Gunina,  D. Hait,  M. W. D. Hanson-Heine,  
 P. H. P. Harbach,  A. W. Hauser,  M. F. Herbst,  J. E. Herr,  
 E. G. Hohenstein,  Z. C. Holden,  Kerwin Hui,  B. C. Huynh,  T.-C. Jagau,  
 Hyunjun Ji,  B. Kaduk,  K. Khistyaev,  Jaehoon Kim,  P. Klunzinger,  K. Koh,  
 D. Kosenkov,  L. Koulias,  T. Kowalczyk,  C. M. Krauter,  A. Kunitsa,  
 Ka Un Lao,  A. Laurent,  K. V. Lawler,  Joonho Lee,  D. Lefrancois,  
 S. Lehtola,  D. S. Levine,  Yi-Pei Li,  You-Sheng Lin,  Fenglai Liu,  
 E. Livshits,  A. Luenser,  P. Manohar,  E. Mansoor,  S. F. Manzer,  
 Shan-Ping Mao,  Yuezhi Mao,  N. Mardirossian,  A. V. Marenich,  
 T. Markovich,  L. A. Martinez-Martinez,  S. A. Maurer,  N. J. Mayhall,  
 S. C. McKenzie,  J.-M. Mewes,  P. Morgante,  A. F. Morrison,  
 J. W. Mullinax,  K. Nanda,  T. S. Nguyen-Beck,  R. Olivares-Amaya,  
 J. A. Parkhill,  Zheng Pei,  T. M. Perrine,  F. Plasser,  P. Pokhilko,  
 S. Prager,  A. Prociuk,  E. Ramos,  D. R. Rehn,  F. Rob,  M. Scheurer,  
 M. Schneider,  N. Sergueev,  S. M. Sharada,  S. Sharma,  D. W. Small,  
 T. Stauch,  T. Stein,  Yu-Chuan Su,  A. J. W. Thom,  A. Tkatchenko,  
 T. Tsuchimochi,  N. M. Tubman,  L. Vogt,  M. L. Vidal,  O. Vydrov,  
 M. A. Watson,  J. Wenzel,  M. de Wergifosse,  T. A. Wesolowski,  A. White,  
 J. Witte,  A. Yamada,  Jun Yang,  K. Yao,  S. Yeganeh,  S. R. Yost,  
 Zhi-Qiang You,  A. Zech,  Igor Ying Zhang,  Xing Zhang,  Yan Zhao,  
 Ying Zhu,  B. R. Brooks,  G. K. L. Chan,  C. J. Cramer,  M. S. Gordon,  
 W. J. Hehre,  A. Klamt,  M. W. Schmidt,  C. D. Sherrill,  D. G. Truhlar,  
 A. Aspuru-Guzik,  R. Baer,  A. T. Bell,  N. A. Besley,  Jeng-Da Chai,  
 A. E. DePrince, III,  R. A. DiStasio Jr.,  A. Dreuw,  B. D. Dunietz,  
 T. R. Furlani,  Chao-Ping Hsu,  Yousung Jung,  Jing Kong,  D. S. Lambrecht,  
 WanZhen Liang,  C. Ochsenfeld,  V. A. Rassolov,  L. V. Slipchenko,  
 J. E. Subotnik,  T. Van Voorhis,  J. M. Herbert,  A. I. Krylov,  
 P. M. W. Gill,  M. Head-Gordon

 Contributors to earlier versions of Q-Chem not listed above: 
 R. D. Adamson,  B. Austin,  J. Baker,  G. J. O. Beran,  K. Brandhorst,  
 S. T. Brown,  E. F. C. Byrd,  A. K. Chakraborty,  C.-L. Cheng,  
 Siu Hung Chien,  D. M. Chipman,  D. L. Crittenden,  H. Dachsel,  
 R. J. Doerksen,  A. D. Dutoi,  L. Fusti-Molnar,  W. A. Goddard III,  
 A. Golubeva-Zadorozhnaya,  S. R. Gwaltney,  G. Hawkins,  A. Heyden,  
 S. Hirata,  G. Kedziora,  F. J. Keil,  C. Kelley,  Jihan Kim,  R. A. King,  
 R. Z. Khaliullin,  P. P. Korambath,  W. Kurlancheek,  A. M. Lee,  M. S. Lee,  
 S. V. Levchenko,  Ching Yeh Lin,  D. Liotard,  R. C. Lochan,  I. Lotan,  
 P. E. Maslen,  N. Nair,  D. P. O'Neill,  D. Neuhauser,  E. Neuscamman,  
 C. M. Oana,  R. Olson,  B. Peters,  R. Peverati,  P. A. Pieniazek,  
 Y. M. Rhee,  J. Ritchie,  M. A. Rohrdanz,  E. Rosta,  N. J. Russ,  
 H. F. Schaefer III,  N. E. Schultz,  N. Shenvi,  A. C. Simmonett,  A. Sodt,  
 D. Stuck,  K. S. Thanthiriwatte,  V. Vanovschi,  Tao Wang,  A. Warshel,  
 C. F. Williams,  Q. Wu,  X. Xu,  W. Zhang

 Please cite Q-Chem as follows:
 Y. Shao et al., Mol. Phys. 113, 184-215 (2015)
 DOI: 10.1080/00268976.2014.952696

 Q-Chem 5.2.0 for Intel X86 EM64T Linux

 Parts of Q-Chem use Armadillo 8.300.2 (Tropical Shenanigans).
 http://arma.sourceforge.net/

 Q-Chem begins on Sun Sep 26 16:28:54 2021  

Host: cori01
0

     Scratch files written to /tmp/qchem23106//Frg2//
 May1019 |scratch|qcdevops|jenkins|workspace|build_RNUM -1
Processing $rem in /global/common/cori/software/qchem/5.2/config/preferences:
	 MEM_TOTAL  96000 
NAlpha2: 44
NElect   44
Mult     1
Symmetry turned off for PCM/SM12/SMD calculation

Checking the input file for inconsistencies... 	...done.

--------------------------------------------------------------
User input:
--------------------------------------------------------------
$molecule
0 1
 6	-1.7654999358	-3.9876908765	-1.1859285547
 6	-0.7554999358	-0.4846908765	-1.2789285547
 6	-1.0194999358	-2.6746908765	-1.2709285547
 6	0.2405000642	-2.4006908765	-1.7029285547
 7	-1.6234999358	-1.4586908765	-1.0119285547
 7	0.3805000642	-1.0276908765	-1.6969285547
 1	-0.9504999358	0.5793091235	-1.2089285547
 1	1.1935000642	-0.4856908765	-1.9879285547
 1	0.9535000642	-3.1136908765	-2.0819285547
 1	-2.2234999358	-4.1476908765	-2.1639285547
 1	-2.5774999358	-3.8946908765	-0.4629285547
 1	-1.1593599358	-4.8740308765	-0.9471885547
$end
$rem
EDA2		1
METHOD		WB97X-V
BASIS		DEF2-TZVPD
XC_GRID		000099000590
NL_GRID		1
UNRESTRICTED		FALSE
MAX_SCF_CYCLES		200
SYMMETRY		FALSE
SYM_IGNORE		TRUE
BASIS_LIN_DEP_THRESH		6
THRESH		14
SCF_CONVERGENCE		8
SCF_PRINT_FRGM		TRUE
SOLVENT_METHOD		SMD
!required keywords
JOBTYPE		SP
SYM_IGNORE		TRUE
SUBSYSTEM		TRUE
GEN_SCFMAN		TRUE
CHILD_INSTRUCTION		2
SYM_IGNORE		TRUE
SCFMI		0
RI_K 0		
PARI_K 0		
MIN_PARI_K 0		
IARI_K 0		
OCC_RI_K 0		
PURECART		1111
MEM_STATIC		2000
MEM_TOTAL		96000
GUI		0
CHILD_MP		1
CHILD_MP_ORDERS		232
FRZ_RELAX		0
FRZ_RELAX_METHOD		0
EDA_CLS_ELEC		1
EDA_CLS_DISP		0
FRZ_ORTHO_DECOMP		1
EDA2		FALSE
FRGM_METHOD		FALSE
CIS_N_ROOTS  0
LOCAL_CIS    0
CIS_RLX_DNS  1
$end
$smx
SOLVENT			WATER
$end
--------------------------------------------------------------
 ----------------------------------------------------------------
             Standard Nuclear Orientation (Angstroms)
    I     Atom           X                Y                Z
 ----------------------------------------------------------------
    1      C      -1.7654999358    -3.9876908765    -1.1859285547
    2      C      -0.7554999358    -0.4846908765    -1.2789285547
    3      C      -1.0194999358    -2.6746908765    -1.2709285547
    4      C       0.2405000642    -2.4006908765    -1.7029285547
    5      N      -1.6234999358    -1.4586908765    -1.0119285547
    6      N       0.3805000642    -1.0276908765    -1.6969285547
    7      H      -0.9504999358     0.5793091235    -1.2089285547
    8      H       1.1935000642    -0.4856908765    -1.9879285547
    9      H       0.9535000642    -3.1136908765    -2.0819285547
   10      H      -2.2234999358    -4.1476908765    -2.1639285547
   11      H      -2.5774999358    -3.8946908765    -0.4629285547
   12      H      -1.1593599358    -4.8740308765    -0.9471885547
 ----------------------------------------------------------------
 Nuclear Repulsion Energy =         224.14055558 hartrees
 There are       22 alpha and       22 beta electrons
 Requested basis set is def2-TZVPD
 There are 108 shells and 276 basis functions

 Total QAlloc Memory Limit  96000 MB
 Mega-Array Size      1956 MB
 MEM_STATIC part      2000 MB
 
 Citation of the SMD model:
 Marenich, A.V.; Cramer, C.J.; Truhlar, D.G.
 J. Phys. Chem. B 2009, 113, 6378-6396.
 iSolventCode=           1
 Solvent: water                                                           
 
 vradii
            1           2           3           4           5           6
    1   1.8500000   1.8500000   1.8500000   1.8500000   1.8900000   1.8900000
            7           8           9          10          11          12
    1   1.2000000   1.2000000   1.2000000   1.2000000   1.2000000   1.2000000
 Changing PCM_VDW_RADII to SMD_RADIUS
 Discretize the solute cavity surface with Lebedev spheres
	Using 110 Lebedev grid points for each H atom
	Using 194 Lebedev grid points for other atoms
	Atomic van der Waals radii will be scaled by 1.20
 Remove points where switching function is < 1.0e-08
 Keep 903 surface tesserae and discard 921 interior tesserae
 Molecular Surface Area = 116.544 Angst**2

                       Distance Matrix (Angstroms)
             C (  1)   C (  2)   C (  3)   C (  4)   N (  5)   N (  6)
   C (  2)  3.646883
   C (  3)  1.512518  2.205869
   C (  4)  2.609577  2.200647  1.359890
   N (  5)  2.538953  1.331687  1.382228  2.199850
   N (  6)  3.691617  1.326676  2.203199  1.380132  2.161250
   H (  7)  4.639207  1.083984  3.255322  3.246986  2.155268  2.142931
   H (  8)  4.654341  2.073953  3.194242  2.157929  3.136048  1.019517
   H (  9)  2.993268  3.236840  2.177882  1.077209  3.244203  2.197260
   H ( 10)  1.091718  4.044233  2.101617  3.055458  2.986273  4.090636
   H ( 11)  1.091202  3.951410  2.137435  3.422099  2.673128  4.300257
   H ( 12)  1.100000  4.420346  2.227435  2.940776  3.447342  4.210417
             H (  7)   H (  8)   H (  9)   H ( 10)   H ( 11)
   H (  8)  2.517499
   H (  9)  4.245656  2.640610
   H ( 10)  4.987693  5.011697  3.342037
   H ( 11)  4.818747  5.307292  3.962207  1.755769
   H ( 12)  5.463611  5.086907  2.974997  1.772123  1.790178
 
 A cutoff of  1.0D-14 yielded   5732 shell pairs
 There are     38158 function pairs (     48934 Cartesian)
 Smallest overlap matrix eigenvalue = 1.94E-06

 Scale SEOQF with 1.000000e-01/1.000000e-01/1.000000e-01

 Standard Electronic Orientation quadrupole field applied
 Nucleus-field energy     =     0.0000000116 hartrees
 Guess from superposition of atomic densities
 Warning:  Energy on first SCF cycle will be non-variational
 SAD guess density has 43.559167 electrons

 -----------------------------------------------------------------------
  General SCF calculation program by
  Eric Jon Sundstrom, Paul Horn, Yuezhi Mao, Dmitri Zuev, Alec White,
  David Stuck, Shaama M.S., Shane Yost, Joonho Lee, David Small,
  Daniel Levine, Susi Lehtola, Hugh Burton, Evgeny Epifanovsky
 -----------------------------------------------------------------------
 Exchange:     0.1670 Hartree-Fock + 1.0000 wB97X-V + LR-HF
 Correlation:  1.0000 wB97X-V
 Using Euler-Maclaurin-Lebedev (99,590) quadrature formula
 Nonlocal Correlation:  VV10 with C = 0.0100 and b = 6.00 and scale = 1.00000
 Grid used for NLC:  SG-1 standard quadrature
Energy prior to optimization (guess energy) = -265.141892619835
Begin Timing: Total SCF Calculation
begin iterations for algorithm: DIIS         
the SCF tolerance is set to 1.00e-08
    1    -265.1418926198      7.21e-03     00000 
    2    -265.0983480066      7.39e-03     00000 
    3    -265.5652439142      7.28e-04     00000 
    4    -265.5699560304      3.81e-04     00000 
    5    -265.5713689795      1.13e-04     00000 
    6    -265.5715307738      4.21e-05     00000 
    7    -265.5715557436      1.17e-05     00000 
    8    -265.5715584181      3.41e-06     00000 
    9    -265.5715587158      1.68e-06     00000 
   10    -265.5715587675      4.10e-07     00000 
   11    -265.5715587728      7.84e-08     00000 
   12    -265.5715587730      3.98e-08     00000 
   13    -265.5715587731      1.10e-08     00000 
   14    -265.5715587731      4.26e-09     00000 Convergence criterion met
Timing for Total SCF: 962.00s (wall), 1906.42s (cpu)
(3)  G-ENP(liq) elect-nuc-pol free energy of system     -265.571558773 a.u.
(4)  G-CDS(liq) cavity-dispersion-solvent structure 
     free energy                                                2.1554 kcal/mol
(6)  G-S(liq) free energy of system                     -265.568123990 a.u.
E_pcm = -0.0228989509
E_cds = 0.0034347835
Multipole orders to be included
        2
        3
computing dipole RHS
computing quadrupole RHS
total number of RHS in solve_reponses: 8
RHS batch sizes
        8
Beginning Block Conjugate Gradient Iterations. Batch Number: 0
computing hessian-vector products by finite difference
              1      6.59e-01     00000 Conjugate Gradient Iteration
computing hessian-vector products by finite difference
              2      2.11e-01     00000 Conjugate Gradient Iteration
computing hessian-vector products by finite difference
              3      5.02e-02     00000 Conjugate Gradient Iteration
computing hessian-vector products by finite difference
              4      1.43e-02     00000 Conjugate Gradient Iteration
computing hessian-vector products by finite difference
              5      2.80e-03     00000 Conjugate Gradient Iteration
computing hessian-vector products by finite difference
              6      5.85e-04     00000 Conjugate Gradient Iteration
computing hessian-vector products by finite difference
              7      1.06e-04     00000 Conjugate Gradient Iteration
computing hessian-vector products by finite difference
              8      1.81e-05     00000 Conjugate Gradient Iteration
computing hessian-vector products by finite difference
              9      2.81e-06     00000 Conjugate Gradient Iteration
computing hessian-vector products by finite difference
             10      5.00e-07     00000 Conjugate Gradient Iteration
computing hessian-vector products by finite difference
             11      9.22e-08     00000 Conjugate Gradient Iteration
computing hessian-vector products by finite difference
             12      1.43e-08     00000 Conjugate Gradient Iteration
computing hessian-vector products by finite difference
             13      3.72e-09     00000 CG Converged
batch 0 complete
Done Calculating Responses
TESTING ORTHOGONALIZATION OF MULTIPOLE BASIS
Multipole virts passed orthogonality test
Virts Per Order
           66
          110
 
 --------------------------------------------------------------
 
                    Orbital Energies (a.u.)
 --------------------------------------------------------------
 
 Alpha MOs
 -- Occupied --
-14.4595 -14.3866 -10.3172 -10.2855 -10.2828 -10.2591  -1.1509  -0.9922
 -0.8932  -0.8226  -0.7204  -0.6812  -0.6638  -0.5613  -0.5524  -0.5359
 -0.5061  -0.4937  -0.4791  -0.3765  -0.3754  -0.3208
 -- Virtual --
  0.0688   0.0873   0.0976   0.1064   0.1177   0.1308   0.1365   0.1456
  0.1684   0.1754   0.1794   0.1889   0.1982   0.2063   0.2266   0.2428
  0.2464   0.2549   0.2608   0.2630   0.2681   0.2898   0.2983   0.3041
  0.3141   0.3156   0.3240   0.3280   0.3325   0.3418   0.3520   0.3556
  0.3583   0.3668   0.3792   0.3868   0.3940   0.3973   0.4133   0.4177
  0.4238   0.4281   0.4352   0.4529   0.4608   0.4687   0.4737   0.4850
  0.4880   0.4914   0.4974   0.5140   0.5180   0.5391   0.5516   0.5587
  0.5687   0.5768   0.5838   0.5935   0.6051   0.6095   0.6292   0.6338
  0.6510   0.6637   0.6692   0.6795   0.6933   0.6994   0.7073   0.7200
  0.7319   0.7424   0.7691   0.7767   0.7853   0.7901   0.7964   0.8007
  0.8076   0.8240   0.8291   0.8585   0.8631   0.8798   0.8816   0.8936
  0.9176   0.9320   0.9626   0.9746   0.9996   1.0134   1.0207   1.0522
  1.0593   1.0743   1.0813   1.1077   1.1288   1.1659   1.1703   1.2159
  1.2319   1.2372   1.2754   1.3278   1.3405   1.3602   1.3750   1.4315
  1.4469   1.4650   1.5342   1.5388   1.6079   1.6338   1.6471   1.6803
  1.6991   1.7480   1.8039   1.8288   1.8498   1.8592   1.8749   1.8840
  1.9100   1.9287   1.9425   1.9564   1.9759   1.9842   1.9997   2.0268
  2.0338   2.0812   2.0865   2.1249   2.1752   2.2266   2.2506   2.2744
  2.3052   2.3392   2.3865   2.4106   2.4298   2.4545   2.4600   2.5102
  2.5376   2.5632   2.6055   2.6175   2.6451   2.6825   2.6837   2.7216
  2.7602   2.7684   2.7935   2.8373   2.8566   2.8785   2.9042   2.9838
  3.0060   3.0202   3.0535   3.0698   3.0901   3.1069   3.1484   3.1666
  3.1858   3.2136   3.2241   3.2508   3.2758   3.2830   3.3239   3.3274
  3.3498   3.3725   3.3828   3.4069   3.4104   3.4297   3.4795   3.4950
  3.5108   3.5190   3.5607   3.6144   3.6215   3.6613   3.6720   3.7185
  3.7437   3.7809   3.8264   3.8608   3.8935   3.9452   3.9660   4.0376
  4.0838   4.1038   4.1181   4.2365   4.3006   4.3641   4.4280   4.4714
  4.5138   4.5632   4.6049   4.7384   4.7739   4.8139   4.8325   4.8675
  4.9049   4.9660   5.0306   5.0380   5.0459   5.0701   5.1653   5.1931
  5.2327   5.3034   5.3774   5.4392   5.4828   5.5308   5.5785   5.6020
  5.6659   5.6943   5.7509   5.7936   5.8728   6.0322   6.2026   6.2872
 22.6082  22.8608  23.1194  23.3567  32.6470  32.7657
 --------------------------------------------------------------
 
          Ground-State Mulliken Net Atomic Charges

     Atom                 Charge (a.u.)
  ----------------------------------------
      1 C                    -0.847712
      2 C                    -0.234493
      3 C                     0.524180
      4 C                    -0.587415
      5 N                    -0.541612
      6 N                     0.072852
      7 H                     0.341978
      8 H                     0.207268
      9 H                     0.324428
     10 H                     0.203990
     11 H                     0.259744
     12 H                     0.276791
  ----------------------------------------
  Sum of atomic charges =     0.000000

 -----------------------------------------------------------------
                    Cartesian Multipole Moments
 -----------------------------------------------------------------
    Charge (ESU x 10^10)
                 0.0000
    Dipole Moment (Debye)
         X       4.5030      Y       0.8628      Z      -1.9661
       Tot       4.9887
    Quadrupole Moments (Debye-Ang)
        XX     -41.2603     XY      -4.5006     YY     -30.0779
        XZ      -6.0679     YZ       1.5437     ZZ     -32.7269
    Octopole Moments (Debye-Ang^2)
       XXX     108.8439    XXY      80.5830    XYY      28.2322
       YYY     192.0734    XXZ      49.6078    XYZ       6.1258
       YYZ      35.9269    XZZ      39.8069    YZZ      72.4336
       ZZZ     142.9673
    Hexadecapole Moments (Debye-Ang^3)
      XXXX    -405.2106   XXXY    -253.7299   XXYY    -275.0097
      XYYY    -215.6643   YYYY   -1186.6005   XXXZ    -116.5454
      XXYZ    -100.0949   XYYZ     -34.2960   YYYZ    -245.7121
      XXZZ    -130.7502   XYZZ     -87.1730   YYZZ    -281.3363
      XZZZ    -111.3078   YZZZ    -298.2475   ZZZZ    -462.7806
 -----------------------------------------------------------------
Archival summary:
1\1\nid00536\SP\ProcedureUnspecified\BasisUnspecified\246\meili\SunSep2620:53:562021SunSep2620:53:562021\0\\#,ProcedureUnspecified,BasisUnspecified,\\0,1\N\C,1,1.33169\H,2,1.08398,1,125.995\N,2,1.32668,1,108.78,3,-177.635,0\H,4,1.01952,2,123.722,1,178.282,0\C,4,1.38013,2,108.765,1,0.132443,0\H,6,1.07721,4,126.36,2,173.644,0\C,6,1.35989,4,107.041,2,-0.140277,0\C,8,1.51252,6,130.523,4,174.142,0\H,9,1.0912,8,109.285,6,158.636,0\H,9,1.09172,8,106.487,6,-86.008,0\H,9,1.1,8,116.097,6,34.1293,0\\\@

 Total job time:  15907.44s(wall), 31487.98s(cpu) 
 Sun Sep 26 20:54:01 2021

        *************************************************************
        *                                                           *
        *  Thank you very much for using Q-Chem.  Have a nice day.  *
        *                                                           *
        *************************************************************


Done Job For Fragment 1
calling putenv with: QCSCRATCH=/global/cscratch1/sd/meili 
calling putenv with: QCLOCALSCR=/tmp 
calling putenv with: QCTHREADS=32 
Doing General SCFMI
 Exchange:     0.1670 Hartree-Fock + 1.0000 wB97X-V + LR-HF
 Correlation:  1.0000 wB97X-V
 Using Euler-Maclaurin-Lebedev (99,590) quadrature formula
 Nonlocal Correlation:  VV10 with C = 0.0100 and b = 6.00 and scale = 1.00000
 Grid used for NLC:  SG-1 standard quadrature
performing fock build before subrot guess so that all methods have access
Printing subrot_rss_gen Method Specification:
Occupied Subspace Method is 0
Virtual Subspace Method is 0
Energy of the unrelaxed supersystem initial determinant -612.359112730272
performing fock build before subrot guess so that all methods have access
Printing subrot_rss_gen Method Specification:
Occupied Subspace Method is 0
Virtual Subspace Method is 0
Energy of the unrelaxed supersystem initial determinant w/ solvent -612.398717652765
write pseudocanon occs and virts to disk
write pseudocanon orbital energies to disk
Tolerance of ortho_decomp_scf: 1.00e-06
GDM subspace size: 20
Beginning the Orthogonal Decomposition of the Initial Supersystem Wavefunction
    1    -612.3272743450      2.89e-02     ortho_decomp Preconditoned Steepest Descent
    2    -612.3308204819      7.59e-04     ortho_decomp BFGS Step
    3    -612.3308329059      5.98e-05     ortho_decomp BFGS Step
    4    -612.3308329316      2.72e-06     ortho_decomp BFGS Step
    5    -612.3308329317      1.20e-07     ortho_decomp 00000 Convergence criterion met
 Hartree-Fock
 Hartree-Fock
 Hartree-Fock
Doing General SCFMI
 Exchange:     0.1670 Hartree-Fock + 1.0000 wB97X-V + LR-HF
 Correlation:  1.0000 wB97X-V
 Using Euler-Maclaurin-Lebedev (99,590) quadrature formula
 Nonlocal Correlation:  VV10 with C = 0.0100 and b = 6.00 and scale = 1.00000
 Grid used for NLC:  SG-1 standard quadrature
performing fock build at end of subrot_r(subrot) constructor so that all methods have access
<S^2> of initial wavefunction before polarization iterations 0.0000000000
Beginning iterations for the determination of the polarized wavefunction
Energy prior to optimization (guess energy) = -612.398717652764
Begin Timing: Total SCF Calculation
begin iterations for algorithm: DIIS         
the SCF tolerance is set to 1.00e-08
    1    -612.3987176528      5.45e-05     00000 
    2    -612.3990180789      2.73e-05     00000 
    3    -612.3990633808      1.15e-05     00000 
    4    -612.3990760134      3.75e-06     00000 
    5    -612.3990776243      1.93e-06     00000 
    6    -612.3990781124      7.44e-07     00000 
    7    -612.3990781601      3.96e-07     00000 
    8    -612.3990781692      1.76e-07     00000 
    9    -612.3990781709      7.53e-08     00000 
   10    -612.3990781712      3.22e-08     00000 
   11    -612.3990781713      1.29e-08     00000 
   12    -612.3990781713      5.70e-09     00000 Convergence criterion met
write pseudocanon occs and virts to disk
write pseudocanon orbital energies to disk
Timing for Total SCF: 9632.00s (wall), 19189.76s (cpu)
<S^2> of polarized wavefunction after polarization iterations 0.0000000000
relaxing scfmi constraint to allow all rotations in the entire AO span
Doing General SCFMI
 Exchange:     0.1670 Hartree-Fock + 1.0000 wB97X-V + LR-HF
 Correlation:  1.0000 wB97X-V
 Using Euler-Maclaurin-Lebedev (99,590) quadrature formula
 Nonlocal Correlation:  VV10 with C = 0.0100 and b = 6.00 and scale = 1.00000
 Grid used for NLC:  SG-1 standard quadrature
performing fock build at end of subrot_r(subrot) constructor so that all methods have access
<S^2> of polarized wavefunction before ct-allowed iterations 0.0000000000
Beginning iterations for the determination of the CT-Allowed wavefunction
Energy prior to optimization (guess energy) = -612.399078171335
Begin Timing: Total SCF Calculation
begin iterations for algorithm: DIIS         
the SCF tolerance is set to 1.00e-08
    1    -612.3990781713      7.77e-05     00000 
    2    -612.4004862881      9.16e-06     00000 
    3    -612.4005497214      1.91e-06     00000 
    4    -612.4005532171      8.35e-07     00000 
    5    -612.4005534120      2.69e-07     00000 
    6    -612.4005534415      1.01e-07     00000 
    7    -612.4005534439      2.58e-08     00000 
    8    -612.4005534442      1.22e-08     00000 
    9    -612.4005534442      2.94e-09     00000 Convergence criterion met
write pseudocanon occs and virts to disk
write pseudocanon orbital energies to disk
Timing for Total SCF: 6986.00s (wall), 13914.09s (cpu)
<S^2> of ct_allowed wavefunction after ct-allowed iterations 0.0000000000

================================
        Results of EDA2         
================================
Basic EDA Quantities
--------------------
Fragment Energies (Ha):
1 -346.8202766562
2 -265.5681239896
--------------------
  E_prp (kJ/mol) = 0.0000
  E_sol (kJ/mol) = -1.8617
  E_frz (kJ/mol) = -4.3030
  E_pol (kJ/mol) = -0.9466
  E_vct (kJ/mol) = -3.8734
  E_int (kJ/mol) = -10.9846
--------------------


Initial Wavefunction Decomposition
--------------------
  --------------------
  Orthogonal Fragment Subspace Decomposition:
  --------------------
     E_elec   (ELEC)   (kJ/mol) = -34.9940
     E_pauli  (PAULI)  (kJ/mol) = 55.3877
     E_disp   (DISP)   (kJ/mol) = -24.6967
     --------------------
     Terms summing to E_pauli:
     --------------------
        E_kep_pauli       (kJ/mol) = 69.9465
        E_disp_free_pauli (kJ/mol) = -14.5588
  --------------------
  Classical Frozen Decomposition:
  --------------------
     E_cls_elec  (CLS ELEC)  (kJ/mol) = -13.9372
     E_cls_pauli (CLS PAULI) (kJ/mol) = 9.6342
    [E_mod_pauli (MOD PAULI) (kJ/mol) = 34.3309 (CLS PAULI - DISP from orthogonal decomposition) ]
  --------------------
--------------------

Simplified EDA Summary (kJ/mol)
--------------------
 PREPARATION     0.0000
 SOLVATION       -1.8617
 FROZEN          20.3937      (does not include dispersion)
[PAULI           55.3877]     (if this is negligible, then frozen describes electrostatics)
 DISPERSION      -24.6967
 POLARIZATION    -0.9466
 CHARGE TRANSFER -3.8734
 TOTAL           -10.9846     (PRP + SOL + FRZ + DISP + POL + CT)
--------------------
 
 --------------------------------------------------------------
 
                    Orbital Energies (a.u.)
 --------------------------------------------------------------
 
 Alpha MOs
 -- Occupied --
-19.2412 -14.4576 -14.3849 -10.3302 -10.3146 -10.2847 -10.2817 -10.2721
-10.2694 -10.2690 -10.2676 -10.2661 -10.2589 -10.2531  -1.1895  -1.1493
 -0.9909  -0.9894  -0.8957  -0.8918  -0.8780  -0.8218  -0.8024  -0.7427
 -0.7192  -0.7061  -0.6800  -0.6631  -0.6556  -0.5983  -0.5740  -0.5637
 -0.5532  -0.5453  -0.5375  -0.5304  -0.5273  -0.5167  -0.5068  -0.5036
 -0.4930  -0.4787  -0.4720  -0.4494  -0.4392  -0.4343  -0.3759  -0.3738
 -0.3473  -0.3223  -0.3065
 -- Virtual --
  0.0587   0.0613   0.0695   0.0736   0.0823   0.0860   0.0940   0.1014
  0.1064   0.1101   0.1140   0.1166   0.1216   0.1310   0.1340   0.1399
  0.1441   0.1503   0.1602   0.1661   0.1700   0.1738   0.1813   0.1838
  0.1873   0.1960   0.1982   0.2037   0.2137   0.2154   0.2210   0.2241
  0.2325   0.2342   0.2394   0.2426   0.2503   0.2542   0.2562   0.2618
  0.2661   0.2726   0.2744   0.2784   0.2841   0.2882   0.2910   0.2962
  0.3001   0.3054   0.3066   0.3116   0.3144   0.3167   0.3216   0.3231
  0.3257   0.3301   0.3323   0.3334   0.3400   0.3446   0.3488   0.3497
  0.3517   0.3533   0.3581   0.3599   0.3654   0.3702   0.3726   0.3747
  0.3801   0.3844   0.3880   0.3894   0.3915   0.3953   0.4008   0.4038
  0.4051   0.4084   0.4160   0.4197   0.4238   0.4283   0.4303   0.4346
  0.4376   0.4383   0.4398   0.4467   0.4492   0.4527   0.4576   0.4627
  0.4706   0.4724   0.4754   0.4787   0.4810   0.4860   0.4869   0.4921
  0.4925   0.4975   0.5005   0.5046   0.5078   0.5108   0.5152   0.5201
  0.5235   0.5260   0.5347   0.5368   0.5416   0.5448   0.5498   0.5516
  0.5547   0.5589   0.5635   0.5678   0.5724   0.5761   0.5816   0.5865
  0.5871   0.5983   0.5985   0.6072   0.6091   0.6167   0.6218   0.6253
  0.6292   0.6301   0.6466   0.6503   0.6580   0.6618   0.6633   0.6664
  0.6710   0.6767   0.6789   0.6866   0.6877   0.6924   0.6991   0.7028
  0.7078   0.7124   0.7145   0.7203   0.7250   0.7286   0.7299   0.7343
  0.7403   0.7490   0.7499   0.7543   0.7584   0.7622   0.7661   0.7750
  0.7774   0.7809   0.7876   0.7929   0.7946   0.7996   0.8012   0.8068
  0.8129   0.8153   0.8192   0.8284   0.8303   0.8316   0.8347   0.8429
  0.8446   0.8484   0.8495   0.8562   0.8599   0.8662   0.8672   0.8696
  0.8766   0.8820   0.8887   0.8914   0.8988   0.9053   0.9120   0.9149
  0.9208   0.9241   0.9285   0.9446   0.9537   0.9609   0.9665   0.9745
  0.9831   0.9915   0.9975   1.0026   1.0077   1.0167   1.0236   1.0267
  1.0391   1.0494   1.0543   1.0614   1.0674   1.0693   1.0853   1.0887
  1.0983   1.1021   1.1049   1.1156   1.1159   1.1313   1.1423   1.1489
  1.1541   1.1636   1.1720   1.1750   1.1923   1.2044   1.2078   1.2146
  1.2306   1.2335   1.2403   1.2730   1.2771   1.2800   1.2984   1.3098
  1.3216   1.3273   1.3473   1.3615   1.3746   1.3815   1.3870   1.3892
  1.3911   1.4129   1.4284   1.4433   1.4558   1.4651   1.4772   1.4854
  1.4994   1.5001   1.5096   1.5278   1.5386   1.5445   1.5659   1.5838
  1.5937   1.6188   1.6393   1.6523   1.6587   1.6746   1.6779   1.6882
  1.7000   1.7167   1.7311   1.7462   1.7539   1.7629   1.7673   1.7933
  1.8227   1.8370   1.8468   1.8538   1.8688   1.8814   1.8845   1.8986
  1.9056   1.9131   1.9240   1.9353   1.9425   1.9445   1.9625   1.9648
  1.9685   1.9758   1.9886   1.9978   2.0068   2.0177   2.0240   2.0355
  2.0400   2.0497   2.0541   2.0737   2.0777   2.0827   2.0878   2.0938
  2.1150   2.1154   2.1393   2.1477   2.1527   2.1663   2.1821   2.1904
  2.2069   2.2273   2.2367   2.2537   2.2567   2.2756   2.2854   2.2867
  2.2952   2.3197   2.3256   2.3314   2.3393   2.3541   2.3738   2.3812
  2.4021   2.4108   2.4288   2.4339   2.4562   2.4652   2.4770   2.4818
  2.4941   2.5024   2.5150   2.5224   2.5461   2.5550   2.5760   2.5956
  2.6033   2.6114   2.6383   2.6397   2.6468   2.6492   2.6637   2.6771
  2.6882   2.6893   2.7014   2.7180   2.7288   2.7462   2.7508   2.7794
  2.7886   2.7974   2.8006   2.8067   2.8203   2.8315   2.8441   2.8470
  2.8603   2.8748   2.8797   2.8851   2.9081   2.9167   2.9277   2.9372
  2.9477   2.9770   2.9879   2.9961   3.0062   3.0146   3.0273   3.0413
  3.0540   3.0599   3.0680   3.0831   3.0906   3.1085   3.1119   3.1231
  3.1272   3.1386   3.1462   3.1786   3.1799   3.1854   3.1904   3.2062
  3.2153   3.2261   3.2368   3.2490   3.2596   3.2698   3.2732   3.2759
  3.3013   3.3068   3.3139   3.3246   3.3295   3.3504   3.3576   3.3688
  3.3797   3.3890   3.3983   3.4000   3.4150   3.4304   3.4351   3.4460
  3.4489   3.4543   3.4637   3.4695   3.4756   3.4876   3.4986   3.5044
  3.5179   3.5268   3.5383   3.5428   3.5495   3.5555   3.5613   3.5785
  3.5833   3.5871   3.5946   3.6100   3.6135   3.6223   3.6327   3.6481
  3.6504   3.6587   3.6606   3.6894   3.6976   3.7031   3.7126   3.7183
  3.7331   3.7499   3.7643   3.7753   3.7869   3.8136   3.8200   3.8448
  3.8565   3.8735   3.8849   3.9093   3.9482   3.9511   3.9704   3.9783
  3.9871   3.9917   4.0185   4.0555   4.0806   4.0999   4.1162   4.1235
  4.1443   4.1704   4.1785   4.2565   4.2637   4.2867   4.2954   4.3212
  4.3253   4.3365   4.3462   4.3629   4.3728   4.3759   4.3890   4.4053
  4.4299   4.4466   4.4758   4.4940   4.5014   4.5353   4.5588   4.5811
  4.6072   4.6303   4.6332   4.7573   4.7655   4.7716   4.7902   4.8087
  4.8180   4.8324   4.8432   4.8470   4.9141   4.9260   4.9449   5.0024
  5.0302   5.0516   5.0717   5.0789   5.0824   5.0893   5.1101   5.1486
  5.1583   5.1943   5.2339   5.2679   5.3029   5.3234   5.3544   5.4025
  5.4484   5.4629   5.4744   5.5181   5.5411   5.5678   5.6019   5.6162
  5.6287   5.6749   5.7019   5.7348   5.7507   5.7880   5.8280   5.8414
  5.9108   5.9608   6.0769   6.1885   6.2305   6.3126   6.4572   6.5577
  6.7129   6.9047   7.0450   7.3119   7.4540  22.6220  22.7035  22.7572
 22.9188  22.9913  23.0298  23.0663  23.2051  23.2177  23.3940  23.5084
 32.7486  32.8579  44.5304
 --------------------------------------------------------------
 
          Ground-State Mulliken Net Atomic Charges

     Atom                 Charge (a.u.)
  ----------------------------------------
      1 C                    -1.194989
      2 C                    -0.762305
      3 C                     0.685795
      4 C                    -0.532310
      5 C                     0.694877
      6 C                    -0.470417
      7 C                    -0.591855
      8 O                    -0.575097
      9 H                     0.355738
     10 H                     0.364908
     11 H                     0.387530
     12 H                     0.361459
     13 H                     0.275384
     14 H                     0.307994
     15 H                     0.422306
     16 H                     0.270477
     17 C                    -0.960155
     18 C                    -0.433405
     19 C                     0.639417
     20 C                    -0.704232
     21 N                    -0.510377
     22 N                     0.149590
     23 H                     0.486863
     24 H                     0.232358
     25 H                     0.332169
     26 H                     0.220718
     27 H                     0.266302
     28 H                     0.281259
  ----------------------------------------
  Sum of atomic charges =     0.000000

 -----------------------------------------------------------------
                    Cartesian Multipole Moments
 -----------------------------------------------------------------
    Charge (ESU x 10^10)
                -0.0000
    Dipole Moment (Debye)
         X       6.4999      Y       0.3899      Z      -2.3181
       Tot       6.9120
    Quadrupole Moments (Debye-Ang)
        XX     -85.9668     XY      -5.7130     YY     -71.7552
        XZ      -2.4123     YZ      -4.5050     ZZ     -84.4536
    Octopole Moments (Debye-Ang^2)
       XXX      30.2779    XXY      13.1588    XYY      -1.4777
       YYY     -27.1875    XXZ       2.1794    XYZ       1.0158
       YYZ     -11.2786    XZZ      18.4194    YZZ     -20.9290
       ZZZ      -8.9274
    Hexadecapole Moments (Debye-Ang^3)
      XXXX    -959.0872   XXXY    -503.4805   XXYY    -582.0854
      XYYY    -475.9203   YYYY   -2480.7395   XXXZ    -109.3425
      XXYZ    -118.9355   XYYZ     -36.2805   YYYZ    -349.7662
      XXZZ    -328.6039   XYZZ    -183.8283   YYZZ    -600.2433
      XZZZ     -94.0887   YZZZ    -405.0438   ZZZZ   -1035.0148
 -----------------------------------------------------------------
Archival summary:
1\1\nid00536\SP\ProcedureUnspecified\BasisUnspecified\121114\meili\MonSep2705:22:052021MonSep2705:22:052021\0\\#,ProcedureUnspecified,BasisUnspecified,\\0,1\N\H,1,1.01952\C,1,1.32668,2,123.722\H,3,1.08398,1,125.179,2,0.623102,0\N,3,1.33169,1,108.78,2,178.282,0\C,1,1.38013,2,127.483,3,177.792,0\H,6,1.07721,1,126.36,2,-4.41615,0\C,6,1.35989,1,107.041,2,-178.201,0\C,8,1.51252,6,130.523,1,174.142,0\H,9,1.0912,8,109.285,6,158.636,0\H,9,1.09172,8,106.487,6,-86.008,0\H,9,1.1,8,116.097,6,34.1293,0\C,4,2.60282,3,117.023,1,-101.801,0\H,13,1.07754,4,94.0284,3,-104.905,0\C,13,1.39519,4,91.6785,3,15.4236,0\O,15,1.36528,13,119.78,4,-95.3648,0\H,16,0.973376,15,107.787,13,165.483,0\C,15,1.39728,13,120.224,4,84.7029,0\H,18,1.07707,15,120.424,13,179.736,0\C,13,1.39922,4,84.6993,3,134.794,0\H,20,1.08207,13,119.191,4,91.0653,0\C,20,1.39559,13,120.998,4,-88.9459,0\C,22,1.39327,20,119.001,13,0.111735,0\H,23,1.07709,22,119.5,20,-179.182,0\C,22,1.50719,20,120.669,13,179.992,0\H,25,1.08947,22,109.383,20,-4.03174,0\H,25,1.09129,22,108.43,20,113.575,0\H,25,1.1,22,112.975,20,-125.478,0\\\@

 Total job time:  86816.19s(wall), 60770.17s(cpu) 
 Mon Sep 27 05:22:09 2021

        *************************************************************
        *                                                           *
        *  Thank you very much for using Q-Chem.  Have a nice day.  *
        *                                                           *
        *************************************************************


