
Running Job 1 of 1 SSI-007ASP-131ARG-1_SMD_TZVPD.in
qchem SSI-007ASP-131ARG-1_SMD_TZVPD.in_60489.0 /tmp/qchem60489/ 0
/global/common/cori/software/qchem/5.2/exe/qcprog.exe_s SSI-007ASP-131ARG-1_SMD_TZVPD.in_60489.0 /tmp/qchem60489/
                  Welcome to Q-Chem
     A Quantum Leap Into The Future Of Chemistry


 Q-Chem 5.2, Q-Chem, Inc., Pleasanton, CA (2019)

 License issued to: National Energy Research Scientific Computing Center

 Yihan Shao,  Zhengting Gan,  E. Epifanovsky,  A. T. B. Gilbert,  M. Wormit,  
 J. Kussmann,  A. W. Lange,  A. Behn,  Jia Deng,  Xintian Feng,  D. Ghosh,  
 M. Goldey,  P. R. Horn,  L. D. Jacobson,  I. Kaliman,  T. Kus,  A. Landau,  
 Jie Liu,  E. I. Proynov,  R. M. Richard,  R. P. Steele,  E. J. Sundstrom,  
 H. L. Woodcock III,  P. M. Zimmerman,  D. Zuev,  B. Albrecht,  E. Alguire,  
 S. A. Baeppler,  D. Barton,  Z. Benda,  Y. A. Bernard,  E. J. Berquist,  
 K. B. Bravaya,  H. Burton,  D. Casanova,  Chun-Min Chang,  Yunqing Chen,  
 A. Chien,  K. D. Closser,  M. P. Coons,  S. Coriani,  S. Dasgupta,  
 A. L. Dempwolff,  M. Diedenhofen,  Hainam Do,  R. G. Edgar,  Po-Tung Fang,  
 S. Faraji,  S. Fatehi,  Qingguo Feng,  K. D. Fenk,  J. Fosso-Tande,  
 J. Gayvert,  Qinghui Ge,  A. Ghysels,  G. Gidofalvi,  J. Gomes,  
 J. Gonthier,  A. Gunina,  D. Hait,  M. W. D. Hanson-Heine,  
 P. H. P. Harbach,  A. W. Hauser,  M. F. Herbst,  J. E. Herr,  
 E. G. Hohenstein,  Z. C. Holden,  Kerwin Hui,  B. C. Huynh,  T.-C. Jagau,  
 Hyunjun Ji,  B. Kaduk,  K. Khistyaev,  Jaehoon Kim,  P. Klunzinger,  K. Koh,  
 D. Kosenkov,  L. Koulias,  T. Kowalczyk,  C. M. Krauter,  A. Kunitsa,  
 Ka Un Lao,  A. Laurent,  K. V. Lawler,  Joonho Lee,  D. Lefrancois,  
 S. Lehtola,  D. S. Levine,  Yi-Pei Li,  You-Sheng Lin,  Fenglai Liu,  
 E. Livshits,  A. Luenser,  P. Manohar,  E. Mansoor,  S. F. Manzer,  
 Shan-Ping Mao,  Yuezhi Mao,  N. Mardirossian,  A. V. Marenich,  
 T. Markovich,  L. A. Martinez-Martinez,  S. A. Maurer,  N. J. Mayhall,  
 S. C. McKenzie,  J.-M. Mewes,  P. Morgante,  A. F. Morrison,  
 J. W. Mullinax,  K. Nanda,  T. S. Nguyen-Beck,  R. Olivares-Amaya,  
 J. A. Parkhill,  Zheng Pei,  T. M. Perrine,  F. Plasser,  P. Pokhilko,  
 S. Prager,  A. Prociuk,  E. Ramos,  D. R. Rehn,  F. Rob,  M. Scheurer,  
 M. Schneider,  N. Sergueev,  S. M. Sharada,  S. Sharma,  D. W. Small,  
 T. Stauch,  T. Stein,  Yu-Chuan Su,  A. J. W. Thom,  A. Tkatchenko,  
 T. Tsuchimochi,  N. M. Tubman,  L. Vogt,  M. L. Vidal,  O. Vydrov,  
 M. A. Watson,  J. Wenzel,  M. de Wergifosse,  T. A. Wesolowski,  A. White,  
 J. Witte,  A. Yamada,  Jun Yang,  K. Yao,  S. Yeganeh,  S. R. Yost,  
 Zhi-Qiang You,  A. Zech,  Igor Ying Zhang,  Xing Zhang,  Yan Zhao,  
 Ying Zhu,  B. R. Brooks,  G. K. L. Chan,  C. J. Cramer,  M. S. Gordon,  
 W. J. Hehre,  A. Klamt,  M. W. Schmidt,  C. D. Sherrill,  D. G. Truhlar,  
 A. Aspuru-Guzik,  R. Baer,  A. T. Bell,  N. A. Besley,  Jeng-Da Chai,  
 A. E. DePrince, III,  R. A. DiStasio Jr.,  A. Dreuw,  B. D. Dunietz,  
 T. R. Furlani,  Chao-Ping Hsu,  Yousung Jung,  Jing Kong,  D. S. Lambrecht,  
 WanZhen Liang,  C. Ochsenfeld,  V. A. Rassolov,  L. V. Slipchenko,  
 J. E. Subotnik,  T. Van Voorhis,  J. M. Herbert,  A. I. Krylov,  
 P. M. W. Gill,  M. Head-Gordon

 Contributors to earlier versions of Q-Chem not listed above: 
 R. D. Adamson,  B. Austin,  J. Baker,  G. J. O. Beran,  K. Brandhorst,  
 S. T. Brown,  E. F. C. Byrd,  A. K. Chakraborty,  C.-L. Cheng,  
 Siu Hung Chien,  D. M. Chipman,  D. L. Crittenden,  H. Dachsel,  
 R. J. Doerksen,  A. D. Dutoi,  L. Fusti-Molnar,  W. A. Goddard III,  
 A. Golubeva-Zadorozhnaya,  S. R. Gwaltney,  G. Hawkins,  A. Heyden,  
 S. Hirata,  G. Kedziora,  F. J. Keil,  C. Kelley,  Jihan Kim,  R. A. King,  
 R. Z. Khaliullin,  P. P. Korambath,  W. Kurlancheek,  A. M. Lee,  M. S. Lee,  
 S. V. Levchenko,  Ching Yeh Lin,  D. Liotard,  R. C. Lochan,  I. Lotan,  
 P. E. Maslen,  N. Nair,  D. P. O'Neill,  D. Neuhauser,  E. Neuscamman,  
 C. M. Oana,  R. Olson,  B. Peters,  R. Peverati,  P. A. Pieniazek,  
 Y. M. Rhee,  J. Ritchie,  M. A. Rohrdanz,  E. Rosta,  N. J. Russ,  
 H. F. Schaefer III,  N. E. Schultz,  N. Shenvi,  A. C. Simmonett,  A. Sodt,  
 D. Stuck,  K. S. Thanthiriwatte,  V. Vanovschi,  Tao Wang,  A. Warshel,  
 C. F. Williams,  Q. Wu,  X. Xu,  W. Zhang

 Please cite Q-Chem as follows:
 Y. Shao et al., Mol. Phys. 113, 184-215 (2015)
 DOI: 10.1080/00268976.2014.952696

 Q-Chem 5.2.0 for Intel X86 EM64T Linux

 Parts of Q-Chem use Armadillo 8.300.2 (Tropical Shenanigans).
 http://arma.sourceforge.net/

 Q-Chem begins on Sun Sep 26 01:58:00 2021  

Host: cori01
0

     Scratch files written to /tmp/qchem60489//
 May1019 |scratch|qcdevops|jenkins|workspace|build_RNUM -1
Processing $rem in /global/common/cori/software/qchem/5.2/config/preferences:
	 MEM_TOTAL  96000 
NAlpha2: 72
NElect   72
Mult     1
Symmetry turned off for PCM/SM12/SMD calculation

 Q-Chem warning in module libgen/rem_setup.C, line 2803:

 Neither GIA nor STOLL is specified by user. Use STOLL as the default


Checking the input file for inconsistencies... 	...done.

--------------------------------------------------------------
User input:
--------------------------------------------------------------
$comment
SSI-007ASP-131ARG-1.pdb
$end

$molecule
0 1
--
-1 1
C    2.980185962119    0.415798856773    1.912050807390
C    2.120185962119    0.528798856773    0.681050807390
O    1.251185962119   -0.351201143227    0.435050807390
O    2.410185962119    1.458798856773   -0.094949192610
H    3.241185962119    1.404798856773    2.293050807390
H    3.900185962119   -0.088201143227    1.613050807390
H    2.469225962119   -0.160201143227    2.697640807390
--
1 1
C   -1.155814037881   -0.324201143227   -2.497949192610
C   -1.898814037881   -0.420201143227   -0.115949192610
N   -0.961814037881   -0.373201143227   -1.041949192610
N   -3.201814037881   -0.389201143227   -0.408949192610
N   -1.485814037881   -0.515201143227    1.124050807390
H   -0.002814037881   -0.392201143227   -0.697949192610
H   -3.511814037881   -0.372201143227   -1.371949192610
H   -3.882814037881   -0.420201143227    0.333050807390
H   -0.478814037881   -0.571201143227    1.255050807390
H   -2.146814037881   -0.621201143227    1.885050807390
H   -2.195814037881   -0.156201143227   -2.774949192610
H   -0.854814037881   -1.288201143227   -2.912949192610
H   -0.508523037881    0.454408856773   -2.927799192610
$end

$rem
JOBTYPE			EDA
EDA2			1
method			wB97X-V
BASIS			def2-TZVPD
XC_GRID			000099000590
NL_GRID			1
UNRESTRICTED		FALSE
MAX_SCF_CYCLES		200
SYMMETRY		FALSE
SYM_IGNORE		TRUE
MEM_STATIC		2000
BASIS_LIN_DEP_THRESH 	6
THRESH 			14
SCF_CONVERGENCE 	8
SCF_PRINT_FRGM 		TRUE
SOLVENT_METHOD          SMD
$end

$SMX
SOLVENT			WATER
$END
--------------------------------------------------------------
 ----------------------------------------------------------------
             Standard Nuclear Orientation (Angstroms)
    I     Atom           X                Y                Z
 ----------------------------------------------------------------
    1      C       2.9801859621     0.4157988568     1.9120508074
    2      C       2.1201859621     0.5287988568     0.6810508074
    3      O       1.2511859621    -0.3512011432     0.4350508074
    4      O       2.4101859621     1.4587988568    -0.0949491926
    5      H       3.2411859621     1.4047988568     2.2930508074
    6      H       3.9001859621    -0.0882011432     1.6130508074
    7      H       2.4692259621    -0.1602011432     2.6976408074
    8      C      -1.1558140379    -0.3242011432    -2.4979491926
    9      C      -1.8988140379    -0.4202011432    -0.1159491926
   10      N      -0.9618140379    -0.3732011432    -1.0419491926
   11      N      -3.2018140379    -0.3892011432    -0.4089491926
   12      N      -1.4858140379    -0.5152011432     1.1240508074
   13      H      -0.0028140379    -0.3922011432    -0.6979491926
   14      H      -3.5118140379    -0.3722011432    -1.3719491926
   15      H      -3.8828140379    -0.4202011432     0.3330508074
   16      H      -0.4788140379    -0.5712011432     1.2550508074
   17      H      -2.1468140379    -0.6212011432     1.8850508074
   18      H      -2.1958140379    -0.1562011432    -2.7749491926
   19      H      -0.8548140379    -1.2882011432    -2.9129491926
   20      H      -0.5085230379     0.4544088568    -2.9277991926
 ----------------------------------------------------------------
 Nuclear Repulsion Energy =         462.83528317 hartrees
 There are       36 alpha and       36 beta electrons
 Requested basis set is def2-TZVPD
 There are 174 shells and 438 basis functions

 Total QAlloc Memory Limit  96000 MB
 Mega-Array Size      1956 MB
 MEM_STATIC part      2000 MB
 
 Citation of the SMD model:
 Marenich, A.V.; Cramer, C.J.; Truhlar, D.G.
 J. Phys. Chem. B 2009, 113, 6378-6396.
 iSolventCode=           1
 Solvent: water                                                           
 
 vradii
            1           2           3           4           5           6
    1   1.8500000   1.8500000   1.5200000   1.5200000   1.2000000   1.2000000
            7           8           9          10          11          12
    1   1.2000000   1.8500000   1.8500000   1.8900000   1.8900000   1.8900000
           13          14          15          16          17          18
    1   1.2000000   1.2000000   1.2000000   1.2000000   1.2000000   1.2000000
           19          20
    1   1.2000000   1.2000000
 Changing PCM_VDW_RADII to SMD_RADIUS
 Discretize the solute cavity surface with Lebedev spheres
	Using 110 Lebedev grid points for each H atom
	Using 194 Lebedev grid points for other atoms
	Atomic van der Waals radii will be scaled by 1.20
 Remove points where switching function is < 1.0e-08
 Keep 1483 surface tesserae and discard 1473 interior tesserae
 Molecular Surface Area = 179.866 Angst**2
 A cutoff of  1.0D-14 yielded  13592 shell pairs
 There are     86962 function pairs (    109266 Cartesian)
 Smallest overlap matrix eigenvalue = 8.76E-06

 Scale SEOQF with 1.000000e-01/1.000000e-01/1.000000e-01

 Standard Electronic Orientation quadrupole field applied
 Nucleus-field energy     =     0.0000000003 hartrees

 -----------------------------------------------------------------------
  General SCF calculation program by
  Eric Jon Sundstrom, Paul Horn, Yuezhi Mao, Dmitri Zuev, Alec White,
  David Stuck, Shaama M.S., Shane Yost, Joonho Lee, David Small,
  Daniel Levine, Susi Lehtola, Hugh Burton, Evgeny Epifanovsky
 -----------------------------------------------------------------------
================================================================
                 ALMO-EDA with the EDA2 driver                  
================================================================
 The second-generation ALMO-EDA (for DFT):                      
 P. R. Horn, Y. Mao and M. Head-Gordon, PCCP, 18, 23067 (2016)  
 Decomposition of the frozen energy:                            
 P. R. Horn, Y. Mao and M. Head-Gordon, JCP, 144, 114107 (2016) 
 FERF model for polarization:                                   
 P. R. Horn and M. Head-Gordon, JCP, 143, 114111 (2015)         
Using eda2 option set 1
Option set summary: Frozen orbital wavefunction, initial wavefunction decomposition, and nDQ polarization.
--------------------------------
Printing EDA Options
--------------------------------
eda_child_super_basis      0
fragmo_guess_mode          0
child_mp                   1
child_mp_orders            232
cls_elec                   1
cls_disp                   0
scfmi_mode                 1
scfmi_occs                 0
scfmi_virts                0
frz_relax                  0
frz_relax_method           0
dc_pen_start               0
dc_pen_conv                0
dc_pen_increment           0
dc_pen_steps               0
dc_pen_thresh_factor       0
dc_pen_pre_newton_thresh   0
frz_ortho_decomp           1
frz_ortho_decomp_conv      6
frgm_method                2
scfmi_freeze_ss            0
separate_rehyb             0
plot_diff_den              0
eda_nocv                   0
eda_vct_relax              1
disp_free_x                0
disp_free_c                0
eda_bsse                   0
eda_pct_a                  0
eda_covp                   0
--------------------------------
Attempting to make child job directory: /tmp/qchem60489//Frg1/
Attempting to make child job directory: /tmp/qchem60489//Frg2/
Creating input file /tmp/qchem60489/Frg1.input
using default PutDataFrgm: nothing
calling putenv with: QCSCRATCH=/tmp/qchem60489/ 
calling putenv with: QCLOCALSCR=/tmp/qchem60489/ 
Spawning Job For Fragment 0
                  Welcome to Q-Chem
     A Quantum Leap Into The Future Of Chemistry


 Q-Chem 5.2, Q-Chem, Inc., Pleasanton, CA (2019)

 License issued to: National Energy Research Scientific Computing Center

 Yihan Shao,  Zhengting Gan,  E. Epifanovsky,  A. T. B. Gilbert,  M. Wormit,  
 J. Kussmann,  A. W. Lange,  A. Behn,  Jia Deng,  Xintian Feng,  D. Ghosh,  
 M. Goldey,  P. R. Horn,  L. D. Jacobson,  I. Kaliman,  T. Kus,  A. Landau,  
 Jie Liu,  E. I. Proynov,  R. M. Richard,  R. P. Steele,  E. J. Sundstrom,  
 H. L. Woodcock III,  P. M. Zimmerman,  D. Zuev,  B. Albrecht,  E. Alguire,  
 S. A. Baeppler,  D. Barton,  Z. Benda,  Y. A. Bernard,  E. J. Berquist,  
 K. B. Bravaya,  H. Burton,  D. Casanova,  Chun-Min Chang,  Yunqing Chen,  
 A. Chien,  K. D. Closser,  M. P. Coons,  S. Coriani,  S. Dasgupta,  
 A. L. Dempwolff,  M. Diedenhofen,  Hainam Do,  R. G. Edgar,  Po-Tung Fang,  
 S. Faraji,  S. Fatehi,  Qingguo Feng,  K. D. Fenk,  J. Fosso-Tande,  
 J. Gayvert,  Qinghui Ge,  A. Ghysels,  G. Gidofalvi,  J. Gomes,  
 J. Gonthier,  A. Gunina,  D. Hait,  M. W. D. Hanson-Heine,  
 P. H. P. Harbach,  A. W. Hauser,  M. F. Herbst,  J. E. Herr,  
 E. G. Hohenstein,  Z. C. Holden,  Kerwin Hui,  B. C. Huynh,  T.-C. Jagau,  
 Hyunjun Ji,  B. Kaduk,  K. Khistyaev,  Jaehoon Kim,  P. Klunzinger,  K. Koh,  
 D. Kosenkov,  L. Koulias,  T. Kowalczyk,  C. M. Krauter,  A. Kunitsa,  
 Ka Un Lao,  A. Laurent,  K. V. Lawler,  Joonho Lee,  D. Lefrancois,  
 S. Lehtola,  D. S. Levine,  Yi-Pei Li,  You-Sheng Lin,  Fenglai Liu,  
 E. Livshits,  A. Luenser,  P. Manohar,  E. Mansoor,  S. F. Manzer,  
 Shan-Ping Mao,  Yuezhi Mao,  N. Mardirossian,  A. V. Marenich,  
 T. Markovich,  L. A. Martinez-Martinez,  S. A. Maurer,  N. J. Mayhall,  
 S. C. McKenzie,  J.-M. Mewes,  P. Morgante,  A. F. Morrison,  
 J. W. Mullinax,  K. Nanda,  T. S. Nguyen-Beck,  R. Olivares-Amaya,  
 J. A. Parkhill,  Zheng Pei,  T. M. Perrine,  F. Plasser,  P. Pokhilko,  
 S. Prager,  A. Prociuk,  E. Ramos,  D. R. Rehn,  F. Rob,  M. Scheurer,  
 M. Schneider,  N. Sergueev,  S. M. Sharada,  S. Sharma,  D. W. Small,  
 T. Stauch,  T. Stein,  Yu-Chuan Su,  A. J. W. Thom,  A. Tkatchenko,  
 T. Tsuchimochi,  N. M. Tubman,  L. Vogt,  M. L. Vidal,  O. Vydrov,  
 M. A. Watson,  J. Wenzel,  M. de Wergifosse,  T. A. Wesolowski,  A. White,  
 J. Witte,  A. Yamada,  Jun Yang,  K. Yao,  S. Yeganeh,  S. R. Yost,  
 Zhi-Qiang You,  A. Zech,  Igor Ying Zhang,  Xing Zhang,  Yan Zhao,  
 Ying Zhu,  B. R. Brooks,  G. K. L. Chan,  C. J. Cramer,  M. S. Gordon,  
 W. J. Hehre,  A. Klamt,  M. W. Schmidt,  C. D. Sherrill,  D. G. Truhlar,  
 A. Aspuru-Guzik,  R. Baer,  A. T. Bell,  N. A. Besley,  Jeng-Da Chai,  
 A. E. DePrince, III,  R. A. DiStasio Jr.,  A. Dreuw,  B. D. Dunietz,  
 T. R. Furlani,  Chao-Ping Hsu,  Yousung Jung,  Jing Kong,  D. S. Lambrecht,  
 WanZhen Liang,  C. Ochsenfeld,  V. A. Rassolov,  L. V. Slipchenko,  
 J. E. Subotnik,  T. Van Voorhis,  J. M. Herbert,  A. I. Krylov,  
 P. M. W. Gill,  M. Head-Gordon

 Contributors to earlier versions of Q-Chem not listed above: 
 R. D. Adamson,  B. Austin,  J. Baker,  G. J. O. Beran,  K. Brandhorst,  
 S. T. Brown,  E. F. C. Byrd,  A. K. Chakraborty,  C.-L. Cheng,  
 Siu Hung Chien,  D. M. Chipman,  D. L. Crittenden,  H. Dachsel,  
 R. J. Doerksen,  A. D. Dutoi,  L. Fusti-Molnar,  W. A. Goddard III,  
 A. Golubeva-Zadorozhnaya,  S. R. Gwaltney,  G. Hawkins,  A. Heyden,  
 S. Hirata,  G. Kedziora,  F. J. Keil,  C. Kelley,  Jihan Kim,  R. A. King,  
 R. Z. Khaliullin,  P. P. Korambath,  W. Kurlancheek,  A. M. Lee,  M. S. Lee,  
 S. V. Levchenko,  Ching Yeh Lin,  D. Liotard,  R. C. Lochan,  I. Lotan,  
 P. E. Maslen,  N. Nair,  D. P. O'Neill,  D. Neuhauser,  E. Neuscamman,  
 C. M. Oana,  R. Olson,  B. Peters,  R. Peverati,  P. A. Pieniazek,  
 Y. M. Rhee,  J. Ritchie,  M. A. Rohrdanz,  E. Rosta,  N. J. Russ,  
 H. F. Schaefer III,  N. E. Schultz,  N. Shenvi,  A. C. Simmonett,  A. Sodt,  
 D. Stuck,  K. S. Thanthiriwatte,  V. Vanovschi,  Tao Wang,  A. Warshel,  
 C. F. Williams,  Q. Wu,  X. Xu,  W. Zhang

 Please cite Q-Chem as follows:
 Y. Shao et al., Mol. Phys. 113, 184-215 (2015)
 DOI: 10.1080/00268976.2014.952696

 Q-Chem 5.2.0 for Intel X86 EM64T Linux

 Parts of Q-Chem use Armadillo 8.300.2 (Tropical Shenanigans).
 http://arma.sourceforge.net/

 Q-Chem begins on Sun Sep 26 01:58:03 2021  

Host: cori01
0

     Scratch files written to /tmp/qchem60489//Frg1//
 May1019 |scratch|qcdevops|jenkins|workspace|build_RNUM -1
Processing $rem in /global/common/cori/software/qchem/5.2/config/preferences:
	 MEM_TOTAL  96000 
NAlpha2: 32
NElect   32
Mult     1
Symmetry turned off for PCM/SM12/SMD calculation

Checking the input file for inconsistencies... 	...done.

--------------------------------------------------------------
User input:
--------------------------------------------------------------
$molecule
-1 1
 6	2.9801859621	0.4157988568	1.9120508074
 6	2.1201859621	0.5287988568	0.6810508074
 8	1.2511859621	-0.3512011432	0.4350508074
 8	2.4101859621	1.4587988568	-0.0949491926
 1	3.2411859621	1.4047988568	2.2930508074
 1	3.9001859621	-0.0882011432	1.6130508074
 1	2.4692259621	-0.1602011432	2.6976408074
$end
$rem
EDA2		1
METHOD		WB97X-V
BASIS		DEF2-TZVPD
XC_GRID		000099000590
NL_GRID		1
UNRESTRICTED		FALSE
MAX_SCF_CYCLES		200
SYMMETRY		FALSE
SYM_IGNORE		TRUE
BASIS_LIN_DEP_THRESH		6
THRESH		14
SCF_CONVERGENCE		8
SCF_PRINT_FRGM		TRUE
SOLVENT_METHOD		SMD
!required keywords
JOBTYPE		SP
SYM_IGNORE		TRUE
SUBSYSTEM		TRUE
GEN_SCFMAN		TRUE
CHILD_INSTRUCTION		2
SYM_IGNORE		TRUE
SCFMI		0
RI_K 0		
PARI_K 0		
MIN_PARI_K 0		
IARI_K 0		
OCC_RI_K 0		
PURECART		1111
MEM_STATIC		2000
MEM_TOTAL		96000
GUI		0
CHILD_MP		1
CHILD_MP_ORDERS		232
FRZ_RELAX		0
FRZ_RELAX_METHOD		0
EDA_CLS_ELEC		1
EDA_CLS_DISP		0
FRZ_ORTHO_DECOMP		1
EDA2		FALSE
FRGM_METHOD		FALSE
CIS_N_ROOTS  0
LOCAL_CIS    0
CIS_RLX_DNS  1
$end
$smx
SOLVENT			WATER
$end
--------------------------------------------------------------
 ----------------------------------------------------------------
             Standard Nuclear Orientation (Angstroms)
    I     Atom           X                Y                Z
 ----------------------------------------------------------------
    1      C       2.9801859621     0.4157988568     1.9120508074
    2      C       2.1201859621     0.5287988568     0.6810508074
    3      O       1.2511859621    -0.3512011432     0.4350508074
    4      O       2.4101859621     1.4587988568    -0.0949491926
    5      H       3.2411859621     1.4047988568     2.2930508074
    6      H       3.9001859621    -0.0882011432     1.6130508074
    7      H       2.4692259621    -0.1602011432     2.6976408074
 ----------------------------------------------------------------
 Nuclear Repulsion Energy =         112.94624300 hartrees
 There are       16 alpha and       16 beta electrons
 Requested basis set is def2-TZVPD
 There are 69 shells and 181 basis functions

 Total QAlloc Memory Limit  96000 MB
 Mega-Array Size      1956 MB
 MEM_STATIC part      2000 MB
 
 Citation of the SMD model:
 Marenich, A.V.; Cramer, C.J.; Truhlar, D.G.
 J. Phys. Chem. B 2009, 113, 6378-6396.
 iSolventCode=           1
 Solvent: water                                                           
 
 vradii
            1           2           3           4           5           6
    1   1.8500000   1.8500000   1.5200000   1.5200000   1.2000000   1.2000000
            7
    1   1.2000000
 Changing PCM_VDW_RADII to SMD_RADIUS
 Discretize the solute cavity surface with Lebedev spheres
	Using 110 Lebedev grid points for each H atom
	Using 194 Lebedev grid points for other atoms
	Atomic van der Waals radii will be scaled by 1.20
 Remove points where switching function is < 1.0e-08
 Keep 643 surface tesserae and discard 463 interior tesserae
 Molecular Surface Area = 79.658 Angst**2

                       Distance Matrix (Angstroms)
             C (  1)   C (  2)   O (  3)   O (  4)   H (  5)   H (  6)
   C (  2)  1.505898
   O (  3)  2.399846  1.260983
   O (  4)  2.332552  1.245462  2.213658
   H (  5)  1.091514  2.150014  3.239722  2.529036
   H (  6)  1.090787  2.101836  2.911023  2.744189  1.767973
   H (  7)  1.100004  2.159441  2.576706  3.228499  1.791324  1.796988

 
 A cutoff of  1.0D-14 yielded   2391 shell pairs
 There are     16695 function pairs (     21491 Cartesian)
 Smallest overlap matrix eigenvalue = 1.66E-05

 Scale SEOQF with 1.000000e-01/1.000000e-01/1.000000e-01

 Standard Electronic Orientation quadrupole field applied
 Nucleus-field energy     =     0.0000000033 hartrees
 Guess from superposition of atomic densities
 Warning:  Energy on first SCF cycle will be non-variational
 SAD guess density has 30.625312 electrons

 -----------------------------------------------------------------------
  General SCF calculation program by
  Eric Jon Sundstrom, Paul Horn, Yuezhi Mao, Dmitri Zuev, Alec White,
  David Stuck, Shaama M.S., Shane Yost, Joonho Lee, David Small,
  Daniel Levine, Susi Lehtola, Hugh Burton, Evgeny Epifanovsky
 -----------------------------------------------------------------------
 Exchange:     0.1670 Hartree-Fock + 1.0000 wB97X-V + LR-HF
 Correlation:  1.0000 wB97X-V
 Using Euler-Maclaurin-Lebedev (99,590) quadrature formula
 Nonlocal Correlation:  VV10 with C = 0.0100 and b = 6.00 and scale = 1.00000
 Grid used for NLC:  SG-1 standard quadrature
Energy prior to optimization (guess energy) = -227.763189430615
Begin Timing: Total SCF Calculation
begin iterations for algorithm: DIIS         
the SCF tolerance is set to 1.00e-08
    1    -227.7631894306      1.66e-02     00000 
    2    -225.6289314820      2.49e-02     00000 
    3    -228.6063725733      4.07e-03     00000 
    4    -228.6590359547      1.38e-03     00000 
    5    -228.6648889709      2.70e-04     00000 
    6    -228.6651405041      1.89e-04     00000 
    7    -228.6652343570      5.09e-05     00000 
    8    -228.6652442105      1.30e-05     00000 
    9    -228.6652452844      3.57e-06     00000 
   10    -228.6652453841      1.05e-06     00000 
   11    -228.6652453928      2.13e-07     00000 
   12    -228.6652453931      4.73e-08     00000 
   13    -228.6652453932      1.13e-08     00000 
   14    -228.6652453932      2.85e-09     00000 Convergence criterion met
Timing for Total SCF: 278.00s (wall), 546.14s (cpu)
(3)  G-ENP(liq) elect-nuc-pol free energy of system     -228.665245393 a.u.
(4)  G-CDS(liq) cavity-dispersion-solvent structure 
     free energy                                                3.8741 kcal/mol
(6)  G-S(liq) free energy of system                     -228.659071668 a.u.
E_pcm = -0.1304456018
E_cds = 0.0061737248
Multipole orders to be included
        2
        3
computing dipole RHS
computing quadrupole RHS
total number of RHS in solve_reponses: 8
RHS batch sizes
        8
Beginning Block Conjugate Gradient Iterations. Batch Number: 0
computing hessian-vector products by finite difference
              1      7.04e-01     00000 Conjugate Gradient Iteration
computing hessian-vector products by finite difference
              2      2.13e-01     00000 Conjugate Gradient Iteration
computing hessian-vector products by finite difference
              3      5.81e-02     00000 Conjugate Gradient Iteration
computing hessian-vector products by finite difference
              4      1.56e-02     00000 Conjugate Gradient Iteration
computing hessian-vector products by finite difference
              5      2.33e-03     00000 Conjugate Gradient Iteration
computing hessian-vector products by finite difference
              6      6.22e-04     00000 Conjugate Gradient Iteration
computing hessian-vector products by finite difference
              7      8.88e-05     00000 Conjugate Gradient Iteration
computing hessian-vector products by finite difference
              8      1.09e-05     00000 Conjugate Gradient Iteration
computing hessian-vector products by finite difference
              9      1.68e-06     00000 Conjugate Gradient Iteration
computing hessian-vector products by finite difference
             10      1.65e-07     00000 Conjugate Gradient Iteration
computing hessian-vector products by finite difference
             11      2.10e-08     00000 Conjugate Gradient Iteration
computing hessian-vector products by finite difference
             12      7.99e-09     00000 CG Converged
batch 0 complete
Done Calculating Responses
TESTING ORTHOGONALIZATION OF MULTIPOLE BASIS
Multipole virts passed orthogonality test
Virts Per Order
        48
        80
 
 --------------------------------------------------------------
 
                    Orbital Energies (a.u.)
 --------------------------------------------------------------
 
 Alpha MOs
 -- Occupied --
-19.1539 -19.1527 -10.3531 -10.2449  -1.1644  -1.0662  -0.8420  -0.6169
 -0.5496  -0.5455  -0.5428  -0.4821  -0.4613  -0.3662  -0.3563  -0.3458
 -- Virtual --
  0.0668   0.1000   0.1011   0.1070   0.1355   0.1416   0.1457   0.1507
  0.1589   0.1908   0.2057   0.2206   0.2358   0.2410   0.2578   0.2668
  0.2996   0.3126   0.3335   0.3472   0.3559   0.3646   0.3730   0.3781
  0.3867   0.4060   0.4160   0.4228   0.4324   0.4550   0.4653   0.4710
  0.4848   0.4899   0.5005   0.5119   0.5481   0.5666   0.5717   0.5941
  0.6186   0.6265   0.6354   0.6440   0.6482   0.6771   0.6877   0.6923
  0.7098   0.7279   0.7787   0.7925   0.8076   0.8125   0.8303   0.8462
  0.8624   0.9580   0.9765   0.9853   0.9909   1.0221   1.0536   1.0856
  1.1293   1.2104   1.2343   1.2588   1.2640   1.3037   1.3467   1.3801
  1.4223   1.5399   1.5782   1.7335   1.8050   1.8551   1.8598   1.8905
  1.9237   1.9376   1.9474   1.9601   2.0101   2.0982   2.1102   2.1754
  2.1788   2.2282   2.2826   2.3286   2.4110   2.4260   2.4501   2.4868
  2.5533   2.5890   2.6089   2.6347   2.7865   2.8080   2.8569   2.8858
  2.9327   3.0186   3.0526   3.1413   3.2085   3.2351   3.2539   3.2882
  3.3337   3.3370   3.3725   3.4048   3.4075   3.4982   3.5599   3.5776
  3.5842   3.6448   3.7023   3.7240   3.7376   3.8584   3.9407   4.0607
  4.0889   4.1875   4.3418   4.5771   4.6174   4.6749   4.7756   4.8028
  4.9697   5.2963   5.3265   5.3318   5.3477   5.4790   5.6832   5.7205
  5.7803   5.9860   6.2271   6.2996   6.3213   6.5974   6.5993   6.6746
  6.7153   6.7266   6.9180   6.9425   7.0175   7.2067   7.3386   7.3458
  7.3847  22.5984  23.7107  44.1946  44.3382
 --------------------------------------------------------------
 
          Ground-State Mulliken Net Atomic Charges

     Atom                 Charge (a.u.)
  ----------------------------------------
      1 C                    -0.581674
      2 C                     0.489085
      3 O                    -0.783298
      4 O                    -0.761522
      5 H                     0.226028
      6 H                     0.190429
      7 H                     0.220952
  ----------------------------------------
  Sum of atomic charges =    -1.000000

 -----------------------------------------------------------------
                    Cartesian Multipole Moments
 -----------------------------------------------------------------
    Charge (ESU x 10^10)
                -4.8032
    Dipole Moment (Debye)
         X      -7.4811      Y      -2.7155      Z       1.0599
       Tot       8.0289
    Quadrupole Moments (Debye-Ang)
        XX     -38.8936     XY      -9.0042     YY     -34.0108
        XZ       3.8925     YZ       2.8905     ZZ     -24.8533
    Octopole Moments (Debye-Ang^2)
       XXX    -197.1506    XXY     -38.8222    XYY     -77.1587
       YYY     -50.3654    XXZ      -9.4601    XYZ       5.7467
       YYZ     -18.3551    XZZ     -54.9238    YZZ     -11.3023
       ZZZ     -59.2367
    Hexadecapole Moments (Debye-Ang^3)
      XXXX    -918.1856   XXXY    -177.8529   XXYY    -216.9032
      XYYY    -134.1341   YYYY    -160.7534   XXXZ    -133.2251
      XXYZ       6.7592   XYYZ     -48.4900   YYYZ     -12.5956
      XXZZ    -179.5997   XYZZ     -30.6856   YYZZ     -60.0422
      XZZZ    -160.3990   YZZZ     -15.3724   ZZZZ    -231.4500
 -----------------------------------------------------------------
Archival summary:
1\1\nid00509\SP\ProcedureUnspecified\BasisUnspecified\223(1-,1)\meili\SunSep2603:14:082021SunSep2603:14:082021\0\\#,ProcedureUnspecified,BasisUnspecified,\\-1,1\C\O,1,1.24546\O,1,1.26098,2,124.057\C,1,1.5059,2,115.619,3,173.905,0\H,4,1.09079,1,106.994,2,-80.0817,0\H,4,1.09151,1,110.726,2,37.6414,0\H,4,1.1,1,110.966,2,159.646,0\\\@

 Total job time:  4566.84s(wall), 8945.55s(cpu) 
 Sun Sep 26 03:14:10 2021

        *************************************************************
        *                                                           *
        *  Thank you very much for using Q-Chem.  Have a nice day.  *
        *                                                           *
        *************************************************************


Done Job For Fragment 0
calling putenv with: QCSCRATCH=/global/cscratch1/sd/meili 
calling putenv with: QCLOCALSCR=/tmp 
calling putenv with: QCTHREADS=32 
Creating input file /tmp/qchem60489/Frg2.input
using default PutDataFrgm: nothing
calling putenv with: QCSCRATCH=/tmp/qchem60489/ 
calling putenv with: QCLOCALSCR=/tmp/qchem60489/ 
Spawning Job For Fragment 1
                  Welcome to Q-Chem
     A Quantum Leap Into The Future Of Chemistry


 Q-Chem 5.2, Q-Chem, Inc., Pleasanton, CA (2019)

 License issued to: National Energy Research Scientific Computing Center

 Yihan Shao,  Zhengting Gan,  E. Epifanovsky,  A. T. B. Gilbert,  M. Wormit,  
 J. Kussmann,  A. W. Lange,  A. Behn,  Jia Deng,  Xintian Feng,  D. Ghosh,  
 M. Goldey,  P. R. Horn,  L. D. Jacobson,  I. Kaliman,  T. Kus,  A. Landau,  
 Jie Liu,  E. I. Proynov,  R. M. Richard,  R. P. Steele,  E. J. Sundstrom,  
 H. L. Woodcock III,  P. M. Zimmerman,  D. Zuev,  B. Albrecht,  E. Alguire,  
 S. A. Baeppler,  D. Barton,  Z. Benda,  Y. A. Bernard,  E. J. Berquist,  
 K. B. Bravaya,  H. Burton,  D. Casanova,  Chun-Min Chang,  Yunqing Chen,  
 A. Chien,  K. D. Closser,  M. P. Coons,  S. Coriani,  S. Dasgupta,  
 A. L. Dempwolff,  M. Diedenhofen,  Hainam Do,  R. G. Edgar,  Po-Tung Fang,  
 S. Faraji,  S. Fatehi,  Qingguo Feng,  K. D. Fenk,  J. Fosso-Tande,  
 J. Gayvert,  Qinghui Ge,  A. Ghysels,  G. Gidofalvi,  J. Gomes,  
 J. Gonthier,  A. Gunina,  D. Hait,  M. W. D. Hanson-Heine,  
 P. H. P. Harbach,  A. W. Hauser,  M. F. Herbst,  J. E. Herr,  
 E. G. Hohenstein,  Z. C. Holden,  Kerwin Hui,  B. C. Huynh,  T.-C. Jagau,  
 Hyunjun Ji,  B. Kaduk,  K. Khistyaev,  Jaehoon Kim,  P. Klunzinger,  K. Koh,  
 D. Kosenkov,  L. Koulias,  T. Kowalczyk,  C. M. Krauter,  A. Kunitsa,  
 Ka Un Lao,  A. Laurent,  K. V. Lawler,  Joonho Lee,  D. Lefrancois,  
 S. Lehtola,  D. S. Levine,  Yi-Pei Li,  You-Sheng Lin,  Fenglai Liu,  
 E. Livshits,  A. Luenser,  P. Manohar,  E. Mansoor,  S. F. Manzer,  
 Shan-Ping Mao,  Yuezhi Mao,  N. Mardirossian,  A. V. Marenich,  
 T. Markovich,  L. A. Martinez-Martinez,  S. A. Maurer,  N. J. Mayhall,  
 S. C. McKenzie,  J.-M. Mewes,  P. Morgante,  A. F. Morrison,  
 J. W. Mullinax,  K. Nanda,  T. S. Nguyen-Beck,  R. Olivares-Amaya,  
 J. A. Parkhill,  Zheng Pei,  T. M. Perrine,  F. Plasser,  P. Pokhilko,  
 S. Prager,  A. Prociuk,  E. Ramos,  D. R. Rehn,  F. Rob,  M. Scheurer,  
 M. Schneider,  N. Sergueev,  S. M. Sharada,  S. Sharma,  D. W. Small,  
 T. Stauch,  T. Stein,  Yu-Chuan Su,  A. J. W. Thom,  A. Tkatchenko,  
 T. Tsuchimochi,  N. M. Tubman,  L. Vogt,  M. L. Vidal,  O. Vydrov,  
 M. A. Watson,  J. Wenzel,  M. de Wergifosse,  T. A. Wesolowski,  A. White,  
 J. Witte,  A. Yamada,  Jun Yang,  K. Yao,  S. Yeganeh,  S. R. Yost,  
 Zhi-Qiang You,  A. Zech,  Igor Ying Zhang,  Xing Zhang,  Yan Zhao,  
 Ying Zhu,  B. R. Brooks,  G. K. L. Chan,  C. J. Cramer,  M. S. Gordon,  
 W. J. Hehre,  A. Klamt,  M. W. Schmidt,  C. D. Sherrill,  D. G. Truhlar,  
 A. Aspuru-Guzik,  R. Baer,  A. T. Bell,  N. A. Besley,  Jeng-Da Chai,  
 A. E. DePrince, III,  R. A. DiStasio Jr.,  A. Dreuw,  B. D. Dunietz,  
 T. R. Furlani,  Chao-Ping Hsu,  Yousung Jung,  Jing Kong,  D. S. Lambrecht,  
 WanZhen Liang,  C. Ochsenfeld,  V. A. Rassolov,  L. V. Slipchenko,  
 J. E. Subotnik,  T. Van Voorhis,  J. M. Herbert,  A. I. Krylov,  
 P. M. W. Gill,  M. Head-Gordon

 Contributors to earlier versions of Q-Chem not listed above: 
 R. D. Adamson,  B. Austin,  J. Baker,  G. J. O. Beran,  K. Brandhorst,  
 S. T. Brown,  E. F. C. Byrd,  A. K. Chakraborty,  C.-L. Cheng,  
 Siu Hung Chien,  D. M. Chipman,  D. L. Crittenden,  H. Dachsel,  
 R. J. Doerksen,  A. D. Dutoi,  L. Fusti-Molnar,  W. A. Goddard III,  
 A. Golubeva-Zadorozhnaya,  S. R. Gwaltney,  G. Hawkins,  A. Heyden,  
 S. Hirata,  G. Kedziora,  F. J. Keil,  C. Kelley,  Jihan Kim,  R. A. King,  
 R. Z. Khaliullin,  P. P. Korambath,  W. Kurlancheek,  A. M. Lee,  M. S. Lee,  
 S. V. Levchenko,  Ching Yeh Lin,  D. Liotard,  R. C. Lochan,  I. Lotan,  
 P. E. Maslen,  N. Nair,  D. P. O'Neill,  D. Neuhauser,  E. Neuscamman,  
 C. M. Oana,  R. Olson,  B. Peters,  R. Peverati,  P. A. Pieniazek,  
 Y. M. Rhee,  J. Ritchie,  M. A. Rohrdanz,  E. Rosta,  N. J. Russ,  
 H. F. Schaefer III,  N. E. Schultz,  N. Shenvi,  A. C. Simmonett,  A. Sodt,  
 D. Stuck,  K. S. Thanthiriwatte,  V. Vanovschi,  Tao Wang,  A. Warshel,  
 C. F. Williams,  Q. Wu,  X. Xu,  W. Zhang

 Please cite Q-Chem as follows:
 Y. Shao et al., Mol. Phys. 113, 184-215 (2015)
 DOI: 10.1080/00268976.2014.952696

 Q-Chem 5.2.0 for Intel X86 EM64T Linux

 Parts of Q-Chem use Armadillo 8.300.2 (Tropical Shenanigans).
 http://arma.sourceforge.net/

 Q-Chem begins on Sun Sep 26 03:14:11 2021  

Host: cori01
0

     Scratch files written to /tmp/qchem60489//Frg2//
 May1019 |scratch|qcdevops|jenkins|workspace|build_RNUM -1
Processing $rem in /global/common/cori/software/qchem/5.2/config/preferences:
	 MEM_TOTAL  96000 
NAlpha2: 40
NElect   40
Mult     1
Symmetry turned off for PCM/SM12/SMD calculation

Checking the input file for inconsistencies... 	...done.

--------------------------------------------------------------
User input:
--------------------------------------------------------------
$molecule
1 1
 6	-1.1558140379	-0.3242011432	-2.4979491926
 6	-1.8988140379	-0.4202011432	-0.1159491926
 7	-0.9618140379	-0.3732011432	-1.0419491926
 7	-3.2018140379	-0.3892011432	-0.4089491926
 7	-1.4858140379	-0.5152011432	1.1240508074
 1	-0.0028140379	-0.3922011432	-0.6979491926
 1	-3.5118140379	-0.3722011432	-1.3719491926
 1	-3.8828140379	-0.4202011432	0.3330508074
 1	-0.4788140379	-0.5712011432	1.2550508074
 1	-2.1468140379	-0.6212011432	1.8850508074
 1	-2.1958140379	-0.1562011432	-2.7749491926
 1	-0.8548140379	-1.2882011432	-2.9129491926
 1	-0.5085230379	0.4544088568	-2.9277991926
$end
$rem
EDA2		1
METHOD		WB97X-V
BASIS		DEF2-TZVPD
XC_GRID		000099000590
NL_GRID		1
UNRESTRICTED		FALSE
MAX_SCF_CYCLES		200
SYMMETRY		FALSE
SYM_IGNORE		TRUE
BASIS_LIN_DEP_THRESH		6
THRESH		14
SCF_CONVERGENCE		8
SCF_PRINT_FRGM		TRUE
SOLVENT_METHOD		SMD
!required keywords
JOBTYPE		SP
SYM_IGNORE		TRUE
SUBSYSTEM		TRUE
GEN_SCFMAN		TRUE
CHILD_INSTRUCTION		2
SYM_IGNORE		TRUE
SCFMI		0
RI_K 0		
PARI_K 0		
MIN_PARI_K 0		
IARI_K 0		
OCC_RI_K 0		
PURECART		1111
MEM_STATIC		2000
MEM_TOTAL		96000
GUI		0
CHILD_MP		1
CHILD_MP_ORDERS		232
FRZ_RELAX		0
FRZ_RELAX_METHOD		0
EDA_CLS_ELEC		1
EDA_CLS_DISP		0
FRZ_ORTHO_DECOMP		1
EDA2		FALSE
FRGM_METHOD		FALSE
CIS_N_ROOTS  0
LOCAL_CIS    0
CIS_RLX_DNS  1
$end
$smx
SOLVENT			WATER
$end
--------------------------------------------------------------
 ----------------------------------------------------------------
             Standard Nuclear Orientation (Angstroms)
    I     Atom           X                Y                Z
 ----------------------------------------------------------------
    1      C      -1.1558140379    -0.3242011432    -2.4979491926
    2      C      -1.8988140379    -0.4202011432    -0.1159491926
    3      N      -0.9618140379    -0.3732011432    -1.0419491926
    4      N      -3.2018140379    -0.3892011432    -0.4089491926
    5      N      -1.4858140379    -0.5152011432     1.1240508074
    6      H      -0.0028140379    -0.3922011432    -0.6979491926
    7      H      -3.5118140379    -0.3722011432    -1.3719491926
    8      H      -3.8828140379    -0.4202011432     0.3330508074
    9      H      -0.4788140379    -0.5712011432     1.2550508074
   10      H      -2.1468140379    -0.6212011432     1.8850508074
   11      H      -2.1958140379    -0.1562011432    -2.7749491926
   12      H      -0.8548140379    -1.2882011432    -2.9129491926
   13      H      -0.5085230379     0.4544088568    -2.9277991926
 ----------------------------------------------------------------
 Nuclear Repulsion Energy =         193.80967779 hartrees
 There are       20 alpha and       20 beta electrons
 Requested basis set is def2-TZVPD
 There are 105 shells and 257 basis functions

 Total QAlloc Memory Limit  96000 MB
 Mega-Array Size      1956 MB
 MEM_STATIC part      2000 MB
 
 Citation of the SMD model:
 Marenich, A.V.; Cramer, C.J.; Truhlar, D.G.
 J. Phys. Chem. B 2009, 113, 6378-6396.
 iSolventCode=           1
 Solvent: water                                                           
 
 vradii
            1           2           3           4           5           6
    1   1.8500000   1.8500000   1.8900000   1.8900000   1.8900000   1.2000000
            7           8           9          10          11          12
    1   1.2000000   1.2000000   1.2000000   1.2000000   1.2000000   1.2000000
           13
    1   1.2000000
 Changing PCM_VDW_RADII to SMD_RADIUS
 Discretize the solute cavity surface with Lebedev spheres
	Using 110 Lebedev grid points for each H atom
	Using 194 Lebedev grid points for other atoms
	Atomic van der Waals radii will be scaled by 1.20
 Remove points where switching function is < 1.0e-08
 Keep 917 surface tesserae and discard 933 interior tesserae
 Molecular Surface Area = 113.866 Angst**2

                       Distance Matrix (Angstroms)
             C (  1)   C (  2)   N (  3)   N (  4)   N (  5)   H (  6)
   C (  2)  2.497036
   N (  3)  1.469685  1.318201
   N (  4)  2.924767  1.335896  2.327777
   N (  5)  3.642014  1.310417  2.233002  2.304478
   H (  6)  2.138699  1.983513  1.019008  3.212029  2.352467
   H (  7)  2.611688  2.044898  2.571264  1.011809  3.217940  3.573200
   H (  8)  3.931960  2.034172  3.228788  1.007614  2.525929  4.014741
   H (  9)  3.821563  1.979607  2.355568  3.196365  1.017028  2.018124
   H ( 10)  4.503441  2.026304  3.167500  2.535603  1.013547  3.364679
   H ( 11)  1.089290  2.688529  2.138489  2.581527  3.979344  3.029666
   H ( 12)  1.091843  3.109111  2.085501  3.547764  4.158492  2.536719
   H ( 13)  1.099996  3.256432  2.108753  3.782869  4.279338  2.438180
             H (  7)   H (  8)   H (  9)   H ( 10)   H ( 11)   H ( 12)
   H (  8)  1.745557
   H (  9)  4.017439  3.529887
   H ( 10)  3.540237  2.337264  1.783711
   H ( 11)  1.935697  3.546171  4.400138  4.683399
   H ( 12)  3.205212  4.523132  4.245903  5.013478  1.760326
   H ( 13)  3.481912  4.773251  4.306854  5.196582  1.800877  1.776746

 
 A cutoff of  1.0D-14 yielded   5443 shell pairs
 There are     33183 function pairs (     41519 Cartesian)
 Smallest overlap matrix eigenvalue = 1.46E-05

 Scale SEOQF with 1.000000e-01/1.000000e-01/1.000000e-01

 Standard Electronic Orientation quadrupole field applied
 Nucleus-field energy     =    -0.0000000030 hartrees
 Guess from superposition of atomic densities
 Warning:  Energy on first SCF cycle will be non-variational
 SAD guess density has 40.388232 electrons

 -----------------------------------------------------------------------
  General SCF calculation program by
  Eric Jon Sundstrom, Paul Horn, Yuezhi Mao, Dmitri Zuev, Alec White,
  David Stuck, Shaama M.S., Shane Yost, Joonho Lee, David Small,
  Daniel Levine, Susi Lehtola, Hugh Burton, Evgeny Epifanovsky
 -----------------------------------------------------------------------
 Exchange:     0.1670 Hartree-Fock + 1.0000 wB97X-V + LR-HF
 Correlation:  1.0000 wB97X-V
 Using Euler-Maclaurin-Lebedev (99,590) quadrature formula
 Nonlocal Correlation:  VV10 with C = 0.0100 and b = 6.00 and scale = 1.00000
 Grid used for NLC:  SG-1 standard quadrature
Energy prior to optimization (guess energy) = -244.721682231539
Begin Timing: Total SCF Calculation
begin iterations for algorithm: DIIS         
the SCF tolerance is set to 1.00e-08
    1    -244.7216822315      7.92e-03     00000 
    2    -244.9616406794      6.23e-03     00000 
    3    -245.2018852947      3.30e-04     00000 
    4    -245.2028570426      1.69e-04     00000 
    5    -245.2030840757      4.62e-05     00000 
    6    -245.2031023282      1.98e-05     00000 
    7    -245.2031055261      3.33e-06     00000 
    8    -245.2031057114      9.66e-07     00000 
    9    -245.2031057238      3.74e-07     00000 
   10    -245.2031057261      9.69e-08     00000 
   11    -245.2031057263      5.10e-08     00000 
   12    -245.2031057263      1.21e-08     00000 
   13    -245.2031057263      2.06e-09     00000 Convergence criterion met
Timing for Total SCF: 734.00s (wall), 1455.05s (cpu)
(3)  G-ENP(liq) elect-nuc-pol free energy of system     -245.203105726 a.u.
(4)  G-CDS(liq) cavity-dispersion-solvent structure 
     free energy                                                2.8581 kcal/mol
(6)  G-S(liq) free energy of system                     -245.198551005 a.u.
E_pcm = -0.1091777508
E_cds = 0.0045547212
Multipole orders to be included
        2
        3
computing dipole RHS
computing quadrupole RHS
total number of RHS in solve_reponses: 8
RHS batch sizes
        8
Beginning Block Conjugate Gradient Iterations. Batch Number: 0
computing hessian-vector products by finite difference
              1      4.94e-01     00000 Conjugate Gradient Iteration
computing hessian-vector products by finite difference
              2      1.93e-01     00000 Conjugate Gradient Iteration
computing hessian-vector products by finite difference
              3      5.17e-02     00000 Conjugate Gradient Iteration
computing hessian-vector products by finite difference
              4      1.43e-02     00000 Conjugate Gradient Iteration
computing hessian-vector products by finite difference
              5      2.20e-03     00000 Conjugate Gradient Iteration
computing hessian-vector products by finite difference
              6      4.13e-04     00000 Conjugate Gradient Iteration
computing hessian-vector products by finite difference
              7      5.64e-05     00000 Conjugate Gradient Iteration
computing hessian-vector products by finite difference
              8      8.41e-06     00000 Conjugate Gradient Iteration
computing hessian-vector products by finite difference
              9      1.25e-06     00000 Conjugate Gradient Iteration
computing hessian-vector products by finite difference
             10      1.59e-07     00000 Conjugate Gradient Iteration
computing hessian-vector products by finite difference
             11      1.69e-08     00000 Conjugate Gradient Iteration
computing hessian-vector products by finite difference
             12      2.21e-09     00000 CG Converged
batch 0 complete
Done Calculating Responses
TESTING ORTHOGONALIZATION OF MULTIPOLE BASIS
Multipole virts passed orthogonality test
Virts Per Order
           60
          100
 
 --------------------------------------------------------------
 
                    Orbital Energies (a.u.)
 --------------------------------------------------------------
 
 Alpha MOs
 -- Occupied --
-14.4551 -14.4480 -14.4459 -10.4215 -10.3063  -1.1736  -1.0523  -1.0424
 -0.8536  -0.7637  -0.7165  -0.6892  -0.6171  -0.6104  -0.5939  -0.5674
 -0.5256  -0.5118  -0.3996  -0.3734
 -- Virtual --
  0.0581   0.0858   0.0983   0.1056   0.1240   0.1272   0.1395   0.1522
  0.1720   0.1805   0.1921   0.2003   0.2023   0.2135   0.2222   0.2331
  0.2412   0.2452   0.2492   0.2721   0.2844   0.2890   0.3012   0.3047
  0.3108   0.3204   0.3220   0.3251   0.3337   0.3497   0.3544   0.3613
  0.3649   0.3686   0.3769   0.3864   0.4126   0.4139   0.4247   0.4293
  0.4365   0.4469   0.4620   0.4708   0.4787   0.4864   0.4924   0.5011
  0.5117   0.5142   0.5189   0.5237   0.5309   0.5430   0.5475   0.5563
  0.5600   0.5761   0.5885   0.5949   0.6161   0.6246   0.6283   0.6479
  0.6638   0.6770   0.6965   0.7033   0.7132   0.7210   0.7467   0.7642
  0.8028   0.8057   0.8083   0.8260   0.8304   0.8505   0.8565   0.8667
  0.8793   0.8932   0.9022   0.9333   0.9404   0.9731   0.9963   1.0026
  1.0410   1.0611   1.0927   1.0957   1.1114   1.1170   1.1432   1.1554
  1.1738   1.1899   1.2186   1.2427   1.2751   1.3418   1.3817   1.4288
  1.4392   1.4461   1.4910   1.5035   1.5568   1.5633   1.6305   1.6730
  1.7025   1.7088   1.7422   1.7865   1.8089   1.8574   1.8786   1.8967
  1.9040   1.9192   1.9384   1.9846   1.9923   2.0188   2.0286   2.0695
  2.0777   2.1112   2.1876   2.2310   2.2507   2.2613   2.2787   2.2933
  2.3021   2.3522   2.3733   2.4041   2.4550   2.4792   2.5085   2.5430
  2.5690   2.5955   2.6098   2.6331   2.6526   2.6606   2.6994   2.7298
  2.7670   2.8164   2.8348   2.8612   2.8933   2.9248   2.9606   2.9696
  3.0519   3.1326   3.1399   3.1570   3.1807   3.1965   3.2284   3.2377
  3.2868   3.2943   3.3018   3.3275   3.3703   3.3810   3.4373   3.4583
  3.5003   3.5278   3.5468   3.5541   3.5992   3.6719   3.7326   3.7585
  3.7919   3.8943   3.9196   4.0031   4.0587   4.1319   4.2028   4.2338
  4.2866   4.2959   4.3293   4.3598   4.4164   4.4987   4.5679   4.6041
  4.6826   4.8215   4.8622   4.8768   4.9189   4.9963   5.0088   5.0422
  5.0996   5.1089   5.1447   5.1611   5.1975   5.2499   5.3131   5.3386
  5.3887   5.4132   5.4444   5.4726   5.4934   5.4993   5.5879   5.6579
  5.7105   5.7686   5.8001   5.8970   6.1361   6.2109   6.3760   6.4861
 22.6482  23.6421  32.3310  32.4573  32.8424
 --------------------------------------------------------------
 
          Ground-State Mulliken Net Atomic Charges

     Atom                 Charge (a.u.)
  ----------------------------------------
      1 C                    -0.766518
      2 C                     0.504103
      3 N                    -0.142047
      4 N                    -0.279892
      5 N                    -0.304801
      6 H                     0.258432
      7 H                     0.183568
      8 H                     0.240824
      9 H                     0.254597
     10 H                     0.243648
     11 H                     0.303312
     12 H                     0.244702
     13 H                     0.260073
  ----------------------------------------
  Sum of atomic charges =     1.000000

 -----------------------------------------------------------------
                    Cartesian Multipole Moments
 -----------------------------------------------------------------
    Charge (ESU x 10^10)
                 4.8032
    Dipole Moment (Debye)
         X      -8.6907      Y      -2.3424      Z      -1.1414
       Tot       9.0730
    Quadrupole Moments (Debye-Ang)
        XX       0.1488     XY       4.2214     YY     -31.3313
        XZ       1.2997     YZ      -0.7574     ZZ     -14.8397
    Octopole Moments (Debye-Ang^2)
       XXX      47.0720    XXY      -1.3559    XYY      55.8956
       YYY      38.7525    XXZ      16.0547    XYZ       1.2903
       YYZ      19.5116    XZZ      24.1834    YZZ       5.3087
       ZZZ      46.3651
    Hexadecapole Moments (Debye-Ang^3)
      XXXX    -304.7031   XXXY     -16.5874   XXYY    -140.3418
      XYYY     -69.4268   YYYY     -70.8750   XXXZ     -60.4796
      XXYZ      -9.4707   XYYZ     -27.7480   YYYZ     -14.1280
      XXZZ    -113.5375   XYZZ      -7.5931   YYZZ     -76.8774
      XZZZ     -58.7709   YZZZ     -17.2931   ZZZZ    -341.4090
 -----------------------------------------------------------------
Archival summary:
1\1\nid00509\SP\ProcedureUnspecified\BasisUnspecified\328(1+,1)\meili\SunSep2606:46:432021SunSep2606:46:432021\0\\#,ProcedureUnspecified,BasisUnspecified,\\1,1\C\N,1,1.31042\H,2,1.01355,1,120.832\H,2,1.01703,1,115.972,3,173.994,0\N,1,1.3182,2,116.314,3,-175.71,0\H,5,1.01901,1,115.541,2,-1.46628,0\N,1,1.3359,2,121.107,3,3.55967,0\H,7,1.00761,1,119.801,2,1.25879,0\H,7,1.01181,1,120.529,2,-176.28,0\C,5,1.46968,1,127.106,2,177.222,0\H,10,1.08929,5,112.526,1,9.93102,0\H,10,1.09184,5,108.103,1,-108.779,0\H,10,1.1,5,109.455,1,133.443,0\\\@

 Total job time:  12755.86s(wall), 25230.35s(cpu) 
 Sun Sep 26 06:46:47 2021

        *************************************************************
        *                                                           *
        *  Thank you very much for using Q-Chem.  Have a nice day.  *
        *                                                           *
        *************************************************************


Done Job For Fragment 1
calling putenv with: QCSCRATCH=/global/cscratch1/sd/meili 
calling putenv with: QCLOCALSCR=/tmp 
calling putenv with: QCTHREADS=32 
Doing General SCFMI
 Exchange:     0.1670 Hartree-Fock + 1.0000 wB97X-V + LR-HF
 Correlation:  1.0000 wB97X-V
 Using Euler-Maclaurin-Lebedev (99,590) quadrature formula
 Nonlocal Correlation:  VV10 with C = 0.0100 and b = 6.00 and scale = 1.00000
 Grid used for NLC:  SG-1 standard quadrature
performing fock build before subrot guess so that all methods have access
Printing subrot_rss_gen Method Specification:
Occupied Subspace Method is 0
Virtual Subspace Method is 0
Energy of the unrelaxed supersystem initial determinant -473.776081108199
performing fock build before subrot guess so that all methods have access
Printing subrot_rss_gen Method Specification:
Occupied Subspace Method is 0
Virtual Subspace Method is 0
Energy of the unrelaxed supersystem initial determinant w/ solvent -473.861140584561
write pseudocanon occs and virts to disk
write pseudocanon orbital energies to disk
Tolerance of ortho_decomp_scf: 1.00e-06
GDM subspace size: 20
Beginning the Orthogonal Decomposition of the Initial Supersystem Wavefunction
    1    -473.5058308654      1.27e-01     ortho_decomp Preconditoned Steepest Descent
    2    -473.5292327873      3.38e-03     ortho_decomp BFGS Step
    3    -473.5293306146      3.38e-04     ortho_decomp BFGS Step
    4    -473.5293308974      1.60e-05     ortho_decomp BFGS Step
    5    -473.5293308983      5.99e-07     ortho_decomp 00000 Convergence criterion met
 Hartree-Fock
 Hartree-Fock
 Hartree-Fock
Doing General SCFMI
 Exchange:     0.1670 Hartree-Fock + 1.0000 wB97X-V + LR-HF
 Correlation:  1.0000 wB97X-V
 Using Euler-Maclaurin-Lebedev (99,590) quadrature formula
 Nonlocal Correlation:  VV10 with C = 0.0100 and b = 6.00 and scale = 1.00000
 Grid used for NLC:  SG-1 standard quadrature
performing fock build at end of subrot_r(subrot) constructor so that all methods have access
<S^2> of initial wavefunction before polarization iterations 0.0000000000
Beginning iterations for the determination of the polarized wavefunction
Energy prior to optimization (guess energy) = -473.861140584560
Begin Timing: Total SCF Calculation
begin iterations for algorithm: DIIS         
the SCF tolerance is set to 1.00e-08
    1    -473.8611405846      3.00e-04     00000 
    2    -473.8653951396      1.34e-04     00000 
    3    -473.8659099999      8.56e-05     00000 
    4    -473.8661185582      2.91e-05     00000 
    5    -473.8661504332      1.23e-05     00000 
    6    -473.8661600976      5.70e-06     00000 
    7    -473.8661619153      2.49e-06     00000 
    8    -473.8661622816      7.77e-07     00000 
    9    -473.8661623148      3.77e-07     00000 
   10    -473.8661623190      1.30e-07     00000 
   11    -473.8661623199      5.60e-08     00000 
   12    -473.8661623200      2.79e-08     00000 
   13    -473.8661623200      9.27e-09     00000 Convergence criterion met
write pseudocanon occs and virts to disk
write pseudocanon orbital energies to disk
Timing for Total SCF: 2884.00s (wall), 5736.98s (cpu)
<S^2> of polarized wavefunction after polarization iterations 0.0000000000
relaxing scfmi constraint to allow all rotations in the entire AO span
Doing General SCFMI
 Exchange:     0.1670 Hartree-Fock + 1.0000 wB97X-V + LR-HF
 Correlation:  1.0000 wB97X-V
 Using Euler-Maclaurin-Lebedev (99,590) quadrature formula
 Nonlocal Correlation:  VV10 with C = 0.0100 and b = 6.00 and scale = 1.00000
 Grid used for NLC:  SG-1 standard quadrature
performing fock build at end of subrot_r(subrot) constructor so that all methods have access
<S^2> of polarized wavefunction before ct-allowed iterations 0.0000000000
Beginning iterations for the determination of the CT-Allowed wavefunction
Energy prior to optimization (guess energy) = -473.866162319980
Begin Timing: Total SCF Calculation
begin iterations for algorithm: DIIS         
the SCF tolerance is set to 1.00e-08
    1    -473.8661623200      3.09e-04     00000 
    2    -473.8768294269      5.34e-05     00000 
    3    -473.8772418742      3.35e-05     00000 
    4    -473.8773128095      1.05e-05     00000 
    5    -473.8773233875      3.26e-06     00000 
    6    -473.8773243069      9.49e-07     00000 
    7    -473.8773244483      4.51e-07     00000 
    8    -473.8773244748      9.07e-08     00000 
    9    -473.8773244772      4.19e-08     00000 
   10    -473.8773244776      1.57e-08     00000 
   11    -473.8773244776      4.39e-09     00000 Convergence criterion met
write pseudocanon occs and virts to disk
write pseudocanon orbital energies to disk
Timing for Total SCF: 2448.00s (wall), 4866.58s (cpu)
<S^2> of ct_allowed wavefunction after ct-allowed iterations 0.0000000000

================================
        Results of EDA2         
================================
Basic EDA Quantities
--------------------
Fragment Energies (Ha):
1 -228.6590716684
2 -245.1985510051
--------------------
  E_prp (kJ/mol) = 0.0000
  E_sol (kJ/mol) = 400.7590
  E_frz (kJ/mol) = -386.8808
  E_pol (kJ/mol) = -13.1847
  E_vct (kJ/mol) = -29.3066
  E_int (kJ/mol) = -28.6131
--------------------


Initial Wavefunction Decomposition
--------------------
  --------------------
  Orthogonal Fragment Subspace Decomposition:
  --------------------
     E_elec   (ELEC)   (kJ/mol) = -579.5954
     E_pauli  (PAULI)  (kJ/mol) = 217.9247
     E_disp   (DISP)   (kJ/mol) = -25.2102
     --------------------
     Terms summing to E_pauli:
     --------------------
        E_kep_pauli       (kJ/mol) = 260.9696
        E_disp_free_pauli (kJ/mol) = -43.0448
  --------------------
  Classical Frozen Decomposition:
  --------------------
     E_cls_elec  (CLS ELEC)  (kJ/mol) = -507.4208
     E_cls_pauli (CLS PAULI) (kJ/mol) = 120.5400
    [E_mod_pauli (MOD PAULI) (kJ/mol) = 145.7501 (CLS PAULI - DISP from orthogonal decomposition) ]
  --------------------
--------------------

Simplified EDA Summary (kJ/mol)
--------------------
 PREPARATION     0.0000
 SOLVATION       400.7590
 FROZEN          -361.6706      (does not include dispersion)
[PAULI           217.9247]     (if this is negligible, then frozen describes electrostatics)
 DISPERSION      -25.2102
 POLARIZATION    -13.1847
 CHARGE TRANSFER -29.3066
 TOTAL           -28.6131     (PRP + SOL + FRZ + DISP + POL + CT)
--------------------
 
 --------------------------------------------------------------
 
                    Orbital Energies (a.u.)
 --------------------------------------------------------------
 
 Alpha MOs
 -- Occupied --
-19.1680 -19.1606 -14.4397 -14.4298 -14.4296 -10.4086 -10.3637 -10.2988
-10.2491  -1.1773  -1.1600  -1.0801  -1.0383  -1.0312  -0.8478  -0.8433
 -0.7551  -0.7059  -0.6789  -0.6413  -0.6030  -0.6003  -0.5834  -0.5630
 -0.5560  -0.5522  -0.5419  -0.5182  -0.5029  -0.4844  -0.4673  -0.3917
 -0.3770  -0.3673  -0.3587  -0.3552
 -- Virtual --
  0.0573   0.0772   0.0845   0.0920   0.1046   0.1096   0.1152   0.1230
  0.1315   0.1330   0.1358   0.1436   0.1554   0.1584   0.1709   0.1785
  0.1831   0.1874   0.2024   0.2063   0.2091   0.2148   0.2222   0.2248
  0.2322   0.2404   0.2488   0.2512   0.2628   0.2673   0.2691   0.2747
  0.2831   0.2889   0.2914   0.2946   0.3047   0.3146   0.3175   0.3239
  0.3260   0.3293   0.3394   0.3412   0.3464   0.3508   0.3551   0.3591
  0.3655   0.3674   0.3696   0.3717   0.3808   0.3835   0.3902   0.3953
  0.4053   0.4066   0.4162   0.4208   0.4250   0.4294   0.4394   0.4403
  0.4459   0.4594   0.4639   0.4664   0.4691   0.4729   0.4805   0.4862
  0.4878   0.4947   0.5017   0.5059   0.5161   0.5186   0.5246   0.5317
  0.5372   0.5375   0.5451   0.5483   0.5574   0.5658   0.5690   0.5730
  0.5804   0.5884   0.5941   0.6016   0.6048   0.6127   0.6207   0.6226
  0.6340   0.6404   0.6505   0.6557   0.6593   0.6711   0.6776   0.6828
  0.6836   0.6988   0.7077   0.7162   0.7203   0.7239   0.7360   0.7428
  0.7522   0.7572   0.7680   0.7699   0.7842   0.7904   0.7957   0.8043
  0.8084   0.8158   0.8207   0.8249   0.8378   0.8446   0.8543   0.8613
  0.8649   0.8801   0.8890   0.8918   0.9035   0.9212   0.9241   0.9303
  0.9378   0.9558   0.9717   0.9842   0.9945   1.0208   1.0235   1.0409
  1.0496   1.0537   1.0661   1.0810   1.0812   1.0910   1.1080   1.1260
  1.1408   1.1537   1.1604   1.1805   1.1932   1.1936   1.2016   1.2107
  1.2308   1.2353   1.2528   1.2741   1.2956   1.2993   1.3096   1.3212
  1.3369   1.3500   1.3649   1.3850   1.4043   1.4156   1.4454   1.4632
  1.4791   1.4961   1.5498   1.5639   1.5759   1.5886   1.6195   1.6405
  1.6599   1.6884   1.7102   1.7381   1.7515   1.7628   1.7775   1.8422
  1.8526   1.8841   1.8924   1.9108   1.9133   1.9158   1.9248   1.9407
  1.9479   1.9535   1.9667   1.9740   1.9821   2.0045   2.0194   2.0316
  2.0377   2.0534   2.0616   2.0901   2.1154   2.1396   2.1458   2.1539
  2.1641   2.2040   2.2166   2.2456   2.2661   2.2838   2.2889   2.3078
  2.3249   2.3304   2.3398   2.3531   2.3874   2.4233   2.4549   2.4624
  2.4760   2.4909   2.4990   2.5215   2.5424   2.5559   2.5800   2.5949
  2.6024   2.6137   2.6222   2.6374   2.6471   2.6585   2.6762   2.6979
  2.7105   2.7174   2.7378   2.7859   2.8062   2.8426   2.8543   2.8637
  2.8712   2.9000   2.9102   2.9347   2.9557   2.9633   3.0034   3.0159
  3.0281   3.0772   3.0912   3.1308   3.1563   3.1640   3.1851   3.2012
  3.2348   3.2404   3.2590   3.2667   3.2785   3.2904   3.3007   3.3075
  3.3324   3.3402   3.3452   3.3590   3.3766   3.3888   3.3962   3.4110
  3.4363   3.4380   3.4697   3.4881   3.5086   3.5271   3.5358   3.5644
  3.5704   3.5794   3.6145   3.6259   3.6432   3.6821   3.6898   3.7176
  3.7265   3.7385   3.7544   3.7779   3.8086   3.8680   3.8826   3.9319
  3.9640   3.9865   4.0428   4.0768   4.0894   4.1032   4.1706   4.2127
  4.2506   4.2705   4.3079   4.3357   4.3470   4.3706   4.3911   4.4457
  4.5280   4.5864   4.6058   4.6268   4.6432   4.7029   4.7101   4.8082
  4.8537   4.8779   4.8809   4.9172   4.9874   4.9937   5.0318   5.0391
  5.0787   5.1220   5.1505   5.1869   5.2163   5.2204   5.2817   5.2944
  5.3219   5.3245   5.3449   5.3531   5.3800   5.4238   5.4389   5.4688
  5.4889   5.5065   5.5359   5.5589   5.6252   5.7084   5.7241   5.7290
  5.7562   5.8022   5.8332   5.8442   5.9428   6.0201   6.1705   6.2481
  6.2682   6.3245   6.3560   6.4121   6.5182   6.6303   6.6446   6.7072
  6.7577   6.7863   6.9815   6.9962   7.0575   7.2503   7.3563   7.4090
  7.4590  22.6217  22.6827  23.7032  23.7460  32.3892  32.5474  32.9929
 44.3062  44.4326
 --------------------------------------------------------------
 
          Ground-State Mulliken Net Atomic Charges

     Atom                 Charge (a.u.)
  ----------------------------------------
      1 C                    -0.742092
      2 C                     0.548828
      3 O                    -0.905442
      4 O                    -0.759480
      5 H                     0.262898
      6 H                     0.216734
      7 H                     0.234780
      8 C                    -0.850735
      9 C                     0.556514
     10 N                     0.023664
     11 N                    -0.270322
     12 N                    -0.200301
     13 H                     0.170341
     14 H                     0.181503
     15 H                     0.242308
     16 H                     0.236117
     17 H                     0.205357
     18 H                     0.322010
     19 H                     0.262603
     20 H                     0.264714
  ----------------------------------------
  Sum of atomic charges =     0.000000

 -----------------------------------------------------------------
                    Cartesian Multipole Moments
 -----------------------------------------------------------------
    Charge (ESU x 10^10)
                -0.0000
    Dipole Moment (Debye)
         X     -14.7014      Y      -4.7752      Z       0.3087
       Tot      15.4605
    Quadrupole Moments (Debye-Ang)
        XX     -39.3061     XY      -4.7359     YY     -65.0945
        XZ       5.2771     YZ       2.1063     ZZ     -40.6631
    Octopole Moments (Debye-Ang^2)
       XXX    -136.5749    XXY     -37.8909    XYY     -19.1078
       YYY     -10.4735    XXZ       8.9080    XYZ       7.1760
       YYZ       1.6181    XZZ     -26.5252    YZZ      -5.1957
       ZZZ      -8.6563
    Hexadecapole Moments (Debye-Ang^3)
      XXXX   -1229.0820   XXXY    -193.2064   XXYY    -355.5818
      XYYY    -202.3634   YYYY    -229.9895   XXXZ    -190.4190
      XXYZ      -2.2360   XYYZ     -75.8935   YYYZ     -26.8524
      XXZZ    -294.5082   XYZZ     -38.6253   YYZZ    -137.6844
      XZZZ    -219.7997   YZZZ     -33.1379   ZZZZ    -583.8390
 -----------------------------------------------------------------
Archival summary:
1\1\nid00509\SP\ProcedureUnspecified\BasisUnspecified\23411\meili\SunSep2609:16:322021SunSep2609:16:322021\0\\#,ProcedureUnspecified,BasisUnspecified,\\0,1\O\C,1,1.26098\O,2,1.24546,1,124.057\C,2,1.5059,1,120.044,3,-173.65,0\H,4,1.09079,2,106.994,1,94.0861,0\H,4,1.09151,2,110.726,1,-148.191,0\H,4,1.1,2,110.966,1,-26.1859,0\H,1,1.69053,2,131.214,3,-17.0853,0\N,8,1.01901,1,157.502,2,-108.783,0\C,9,1.3182,8,115.541,1,-9.00041,0\N,10,1.31042,9,116.314,8,-1.46628,0\H,11,1.01355,10,120.832,9,-175.71,0\H,11,1.01703,10,115.972,9,-1.71542,0\N,10,1.3359,9,122.576,8,179.276,0\H,14,1.00761,10,119.801,9,-179.518,0\H,14,1.01181,10,120.529,9,2.94282,0\C,9,1.46968,8,117.341,1,172.177,0\H,17,1.08929,9,112.526,8,-171.401,0\H,17,1.09184,9,108.103,8,69.8891,0\H,17,1.1,9,109.455,8,-47.889,0\\\@

 Total job time:  26316.82s(wall), 17887.37s(cpu) 
 Sun Sep 26 09:16:36 2021

        *************************************************************
        *                                                           *
        *  Thank you very much for using Q-Chem.  Have a nice day.  *
        *                                                           *
        *************************************************************


