
Running Job 1 of 1 SSI-103ASP-269HIE-1_SMD_TZVPD.in
qchem SSI-103ASP-269HIE-1_SMD_TZVPD.in_14370.0 /tmp/qchem14370/ 0
/global/common/cori/software/qchem/5.2/exe/qcprog.exe_s SSI-103ASP-269HIE-1_SMD_TZVPD.in_14370.0 /tmp/qchem14370/
                  Welcome to Q-Chem
     A Quantum Leap Into The Future Of Chemistry


 Q-Chem 5.2, Q-Chem, Inc., Pleasanton, CA (2019)

 License issued to: National Energy Research Scientific Computing Center

 Yihan Shao,  Zhengting Gan,  E. Epifanovsky,  A. T. B. Gilbert,  M. Wormit,  
 J. Kussmann,  A. W. Lange,  A. Behn,  Jia Deng,  Xintian Feng,  D. Ghosh,  
 M. Goldey,  P. R. Horn,  L. D. Jacobson,  I. Kaliman,  T. Kus,  A. Landau,  
 Jie Liu,  E. I. Proynov,  R. M. Richard,  R. P. Steele,  E. J. Sundstrom,  
 H. L. Woodcock III,  P. M. Zimmerman,  D. Zuev,  B. Albrecht,  E. Alguire,  
 S. A. Baeppler,  D. Barton,  Z. Benda,  Y. A. Bernard,  E. J. Berquist,  
 K. B. Bravaya,  H. Burton,  D. Casanova,  Chun-Min Chang,  Yunqing Chen,  
 A. Chien,  K. D. Closser,  M. P. Coons,  S. Coriani,  S. Dasgupta,  
 A. L. Dempwolff,  M. Diedenhofen,  Hainam Do,  R. G. Edgar,  Po-Tung Fang,  
 S. Faraji,  S. Fatehi,  Qingguo Feng,  K. D. Fenk,  J. Fosso-Tande,  
 J. Gayvert,  Qinghui Ge,  A. Ghysels,  G. Gidofalvi,  J. Gomes,  
 J. Gonthier,  A. Gunina,  D. Hait,  M. W. D. Hanson-Heine,  
 P. H. P. Harbach,  A. W. Hauser,  M. F. Herbst,  J. E. Herr,  
 E. G. Hohenstein,  Z. C. Holden,  Kerwin Hui,  B. C. Huynh,  T.-C. Jagau,  
 Hyunjun Ji,  B. Kaduk,  K. Khistyaev,  Jaehoon Kim,  P. Klunzinger,  K. Koh,  
 D. Kosenkov,  L. Koulias,  T. Kowalczyk,  C. M. Krauter,  A. Kunitsa,  
 Ka Un Lao,  A. Laurent,  K. V. Lawler,  Joonho Lee,  D. Lefrancois,  
 S. Lehtola,  D. S. Levine,  Yi-Pei Li,  You-Sheng Lin,  Fenglai Liu,  
 E. Livshits,  A. Luenser,  P. Manohar,  E. Mansoor,  S. F. Manzer,  
 Shan-Ping Mao,  Yuezhi Mao,  N. Mardirossian,  A. V. Marenich,  
 T. Markovich,  L. A. Martinez-Martinez,  S. A. Maurer,  N. J. Mayhall,  
 S. C. McKenzie,  J.-M. Mewes,  P. Morgante,  A. F. Morrison,  
 J. W. Mullinax,  K. Nanda,  T. S. Nguyen-Beck,  R. Olivares-Amaya,  
 J. A. Parkhill,  Zheng Pei,  T. M. Perrine,  F. Plasser,  P. Pokhilko,  
 S. Prager,  A. Prociuk,  E. Ramos,  D. R. Rehn,  F. Rob,  M. Scheurer,  
 M. Schneider,  N. Sergueev,  S. M. Sharada,  S. Sharma,  D. W. Small,  
 T. Stauch,  T. Stein,  Yu-Chuan Su,  A. J. W. Thom,  A. Tkatchenko,  
 T. Tsuchimochi,  N. M. Tubman,  L. Vogt,  M. L. Vidal,  O. Vydrov,  
 M. A. Watson,  J. Wenzel,  M. de Wergifosse,  T. A. Wesolowski,  A. White,  
 J. Witte,  A. Yamada,  Jun Yang,  K. Yao,  S. Yeganeh,  S. R. Yost,  
 Zhi-Qiang You,  A. Zech,  Igor Ying Zhang,  Xing Zhang,  Yan Zhao,  
 Ying Zhu,  B. R. Brooks,  G. K. L. Chan,  C. J. Cramer,  M. S. Gordon,  
 W. J. Hehre,  A. Klamt,  M. W. Schmidt,  C. D. Sherrill,  D. G. Truhlar,  
 A. Aspuru-Guzik,  R. Baer,  A. T. Bell,  N. A. Besley,  Jeng-Da Chai,  
 A. E. DePrince, III,  R. A. DiStasio Jr.,  A. Dreuw,  B. D. Dunietz,  
 T. R. Furlani,  Chao-Ping Hsu,  Yousung Jung,  Jing Kong,  D. S. Lambrecht,  
 WanZhen Liang,  C. Ochsenfeld,  V. A. Rassolov,  L. V. Slipchenko,  
 J. E. Subotnik,  T. Van Voorhis,  J. M. Herbert,  A. I. Krylov,  
 P. M. W. Gill,  M. Head-Gordon

 Contributors to earlier versions of Q-Chem not listed above: 
 R. D. Adamson,  B. Austin,  J. Baker,  G. J. O. Beran,  K. Brandhorst,  
 S. T. Brown,  E. F. C. Byrd,  A. K. Chakraborty,  C.-L. Cheng,  
 Siu Hung Chien,  D. M. Chipman,  D. L. Crittenden,  H. Dachsel,  
 R. J. Doerksen,  A. D. Dutoi,  L. Fusti-Molnar,  W. A. Goddard III,  
 A. Golubeva-Zadorozhnaya,  S. R. Gwaltney,  G. Hawkins,  A. Heyden,  
 S. Hirata,  G. Kedziora,  F. J. Keil,  C. Kelley,  Jihan Kim,  R. A. King,  
 R. Z. Khaliullin,  P. P. Korambath,  W. Kurlancheek,  A. M. Lee,  M. S. Lee,  
 S. V. Levchenko,  Ching Yeh Lin,  D. Liotard,  R. C. Lochan,  I. Lotan,  
 P. E. Maslen,  N. Nair,  D. P. O'Neill,  D. Neuhauser,  E. Neuscamman,  
 C. M. Oana,  R. Olson,  B. Peters,  R. Peverati,  P. A. Pieniazek,  
 Y. M. Rhee,  J. Ritchie,  M. A. Rohrdanz,  E. Rosta,  N. J. Russ,  
 H. F. Schaefer III,  N. E. Schultz,  N. Shenvi,  A. C. Simmonett,  A. Sodt,  
 D. Stuck,  K. S. Thanthiriwatte,  V. Vanovschi,  Tao Wang,  A. Warshel,  
 C. F. Williams,  Q. Wu,  X. Xu,  W. Zhang

 Please cite Q-Chem as follows:
 Y. Shao et al., Mol. Phys. 113, 184-215 (2015)
 DOI: 10.1080/00268976.2014.952696

 Q-Chem 5.2.0 for Intel X86 EM64T Linux

 Parts of Q-Chem use Armadillo 8.300.2 (Tropical Shenanigans).
 http://arma.sourceforge.net/

 Q-Chem begins on Sun Sep 26 13:08:55 2021  

Host: cori01
0

     Scratch files written to /tmp/qchem14370//
 May1019 |scratch|qcdevops|jenkins|workspace|build_RNUM -1
Processing $rem in /global/common/cori/software/qchem/5.2/config/preferences:
	 MEM_TOTAL  96000 
NAlpha2: 84
NElect   84
Mult     1
Symmetry turned off for PCM/SM12/SMD calculation

 Q-Chem warning in module libgen/rem_setup.C, line 2803:

 Neither GIA nor STOLL is specified by user. Use STOLL as the default


Checking the input file for inconsistencies... 	...done.

--------------------------------------------------------------
User input:
--------------------------------------------------------------
$comment
SSI-103ASP-269HIE-1.pdb
$end

$molecule
-1 1
--
-1 1
C   -1.510459745239    0.849271326263   -1.982771733355
C   -1.950459745239    2.323271326263   -2.105771733355
C   -0.140459745239    0.595271326263   -2.631771733355
O    0.876540254761    1.130271326263   -2.132771733355
O   -0.091459745239   -0.105728673737   -3.670771733355
H   -1.451459745239    0.626271326263   -0.919771733355
H   -2.258459745239    0.197271326263   -2.437771733355
H   -1.166459745239    2.957271326263   -1.688771733355
H   -2.887339745239    2.441311326263   -1.541561733355
H   -2.024819745239    2.677031326263   -3.144671733355
--
0 1
C    1.096540254761   -1.866728673737    4.126228266645
C    0.208540254761    0.399271326263    1.401228266645
C    0.673540254761   -1.217728673737    2.828228266645
C    0.336540254761   -1.783728673737    1.634228266645
N    0.583540254761    0.151271326263    2.650228266645
N    0.053540254761   -0.760728673737    0.766228266645
H    0.070540254761    1.409271326263    1.032228266645
H   -0.223459745239   -0.875728673737   -0.196771733355
H    0.276540254761   -2.813728673737    1.336228266645
H    2.040540254761   -1.404728673737    4.417228266645
H    1.262540254761   -2.918728673737    3.912228266645
H    0.365000254761   -1.739848673737    4.937868266645
$end

$rem
JOBTYPE			EDA
EDA2			1
method			wB97X-V
BASIS			def2-TZVPD
XC_GRID			000099000590
NL_GRID			1
UNRESTRICTED		FALSE
MAX_SCF_CYCLES		200
SYMMETRY		FALSE
SYM_IGNORE		TRUE
MEM_STATIC		2000
BASIS_LIN_DEP_THRESH 	6
THRESH 			14
SCF_CONVERGENCE 	8
SCF_PRINT_FRGM 		TRUE
SOLVENT_METHOD          SMD
$end

$SMX
SOLVENT			WATER
$END
--------------------------------------------------------------
 ----------------------------------------------------------------
             Standard Nuclear Orientation (Angstroms)
    I     Atom           X                Y                Z
 ----------------------------------------------------------------
    1      C      -1.5104597452     0.8492713263    -1.9827717334
    2      C      -1.9504597452     2.3232713263    -2.1057717334
    3      C      -0.1404597452     0.5952713263    -2.6317717334
    4      O       0.8765402548     1.1302713263    -2.1327717334
    5      O      -0.0914597452    -0.1057286737    -3.6707717334
    6      H      -1.4514597452     0.6262713263    -0.9197717334
    7      H      -2.2584597452     0.1972713263    -2.4377717334
    8      H      -1.1664597452     2.9572713263    -1.6887717334
    9      H      -2.8873397452     2.4413113263    -1.5415617334
   10      H      -2.0248197452     2.6770313263    -3.1446717334
   11      C       1.0965402548    -1.8667286737     4.1262282666
   12      C       0.2085402548     0.3992713263     1.4012282666
   13      C       0.6735402548    -1.2177286737     2.8282282666
   14      C       0.3365402548    -1.7837286737     1.6342282666
   15      N       0.5835402548     0.1512713263     2.6502282666
   16      N       0.0535402548    -0.7607286737     0.7662282666
   17      H       0.0705402548     1.4092713263     1.0322282666
   18      H      -0.2234597452    -0.8757286737    -0.1967717334
   19      H       0.2765402548    -2.8137286737     1.3362282666
   20      H       2.0405402548    -1.4047286737     4.4172282666
   21      H       1.2625402548    -2.9187286737     3.9122282666
   22      H       0.3650002548    -1.7398486737     4.9378682666
 ----------------------------------------------------------------
 Nuclear Repulsion Energy =         569.30613986 hartrees
 There are       42 alpha and       42 beta electrons
 Requested basis set is def2-TZVPD
 There are 200 shells and 512 basis functions

 Total QAlloc Memory Limit  96000 MB
 Mega-Array Size      1956 MB
 MEM_STATIC part      2000 MB
 
 Citation of the SMD model:
 Marenich, A.V.; Cramer, C.J.; Truhlar, D.G.
 J. Phys. Chem. B 2009, 113, 6378-6396.
 iSolventCode=           1
 Solvent: water                                                           
 
 vradii
            1           2           3           4           5           6
    1   1.8500000   1.8500000   1.8500000   1.5200000   1.5200000   1.2000000
            7           8           9          10          11          12
    1   1.2000000   1.2000000   1.2000000   1.2000000   1.8500000   1.8500000
           13          14          15          16          17          18
    1   1.8500000   1.8500000   1.8900000   1.8900000   1.2000000   1.2000000
           19          20          21          22
    1   1.2000000   1.2000000   1.2000000   1.2000000
 Changing PCM_VDW_RADII to SMD_RADIUS
 Discretize the solute cavity surface with Lebedev spheres
	Using 110 Lebedev grid points for each H atom
	Using 194 Lebedev grid points for other atoms
	Atomic van der Waals radii will be scaled by 1.20
 Remove points where switching function is < 1.0e-08
 Keep 1720 surface tesserae and discard 1624 interior tesserae
 Molecular Surface Area = 209.980 Angst**2
 A cutoff of  1.0D-14 yielded  17274 shell pairs
 There are    113510 function pairs (    143593 Cartesian)
 Smallest overlap matrix eigenvalue = 1.22E-06

 Scale SEOQF with 1.000000e-01/1.000000e-01/1.000000e-01

 Standard Electronic Orientation quadrupole field applied
 Nucleus-field energy     =    -0.0000000454 hartrees

 -----------------------------------------------------------------------
  General SCF calculation program by
  Eric Jon Sundstrom, Paul Horn, Yuezhi Mao, Dmitri Zuev, Alec White,
  David Stuck, Shaama M.S., Shane Yost, Joonho Lee, David Small,
  Daniel Levine, Susi Lehtola, Hugh Burton, Evgeny Epifanovsky
 -----------------------------------------------------------------------
================================================================
                 ALMO-EDA with the EDA2 driver                  
================================================================
 The second-generation ALMO-EDA (for DFT):                      
 P. R. Horn, Y. Mao and M. Head-Gordon, PCCP, 18, 23067 (2016)  
 Decomposition of the frozen energy:                            
 P. R. Horn, Y. Mao and M. Head-Gordon, JCP, 144, 114107 (2016) 
 FERF model for polarization:                                   
 P. R. Horn and M. Head-Gordon, JCP, 143, 114111 (2015)         
Using eda2 option set 1
Option set summary: Frozen orbital wavefunction, initial wavefunction decomposition, and nDQ polarization.
--------------------------------
Printing EDA Options
--------------------------------
eda_child_super_basis      0
fragmo_guess_mode          0
child_mp                   1
child_mp_orders            232
cls_elec                   1
cls_disp                   0
scfmi_mode                 1
scfmi_occs                 0
scfmi_virts                0
frz_relax                  0
frz_relax_method           0
dc_pen_start               0
dc_pen_conv                0
dc_pen_increment           0
dc_pen_steps               0
dc_pen_thresh_factor       0
dc_pen_pre_newton_thresh   0
frz_ortho_decomp           1
frz_ortho_decomp_conv      6
frgm_method                2
scfmi_freeze_ss            0
separate_rehyb             0
plot_diff_den              0
eda_nocv                   0
eda_vct_relax              1
disp_free_x                0
disp_free_c                0
eda_bsse                   0
eda_pct_a                  0
eda_covp                   0
--------------------------------
Attempting to make child job directory: /tmp/qchem14370//Frg1/
Attempting to make child job directory: /tmp/qchem14370//Frg2/
Creating input file /tmp/qchem14370/Frg1.input
using default PutDataFrgm: nothing
calling putenv with: QCSCRATCH=/tmp/qchem14370/ 
calling putenv with: QCLOCALSCR=/tmp/qchem14370/ 
Spawning Job For Fragment 0
                  Welcome to Q-Chem
     A Quantum Leap Into The Future Of Chemistry


 Q-Chem 5.2, Q-Chem, Inc., Pleasanton, CA (2019)

 License issued to: National Energy Research Scientific Computing Center

 Yihan Shao,  Zhengting Gan,  E. Epifanovsky,  A. T. B. Gilbert,  M. Wormit,  
 J. Kussmann,  A. W. Lange,  A. Behn,  Jia Deng,  Xintian Feng,  D. Ghosh,  
 M. Goldey,  P. R. Horn,  L. D. Jacobson,  I. Kaliman,  T. Kus,  A. Landau,  
 Jie Liu,  E. I. Proynov,  R. M. Richard,  R. P. Steele,  E. J. Sundstrom,  
 H. L. Woodcock III,  P. M. Zimmerman,  D. Zuev,  B. Albrecht,  E. Alguire,  
 S. A. Baeppler,  D. Barton,  Z. Benda,  Y. A. Bernard,  E. J. Berquist,  
 K. B. Bravaya,  H. Burton,  D. Casanova,  Chun-Min Chang,  Yunqing Chen,  
 A. Chien,  K. D. Closser,  M. P. Coons,  S. Coriani,  S. Dasgupta,  
 A. L. Dempwolff,  M. Diedenhofen,  Hainam Do,  R. G. Edgar,  Po-Tung Fang,  
 S. Faraji,  S. Fatehi,  Qingguo Feng,  K. D. Fenk,  J. Fosso-Tande,  
 J. Gayvert,  Qinghui Ge,  A. Ghysels,  G. Gidofalvi,  J. Gomes,  
 J. Gonthier,  A. Gunina,  D. Hait,  M. W. D. Hanson-Heine,  
 P. H. P. Harbach,  A. W. Hauser,  M. F. Herbst,  J. E. Herr,  
 E. G. Hohenstein,  Z. C. Holden,  Kerwin Hui,  B. C. Huynh,  T.-C. Jagau,  
 Hyunjun Ji,  B. Kaduk,  K. Khistyaev,  Jaehoon Kim,  P. Klunzinger,  K. Koh,  
 D. Kosenkov,  L. Koulias,  T. Kowalczyk,  C. M. Krauter,  A. Kunitsa,  
 Ka Un Lao,  A. Laurent,  K. V. Lawler,  Joonho Lee,  D. Lefrancois,  
 S. Lehtola,  D. S. Levine,  Yi-Pei Li,  You-Sheng Lin,  Fenglai Liu,  
 E. Livshits,  A. Luenser,  P. Manohar,  E. Mansoor,  S. F. Manzer,  
 Shan-Ping Mao,  Yuezhi Mao,  N. Mardirossian,  A. V. Marenich,  
 T. Markovich,  L. A. Martinez-Martinez,  S. A. Maurer,  N. J. Mayhall,  
 S. C. McKenzie,  J.-M. Mewes,  P. Morgante,  A. F. Morrison,  
 J. W. Mullinax,  K. Nanda,  T. S. Nguyen-Beck,  R. Olivares-Amaya,  
 J. A. Parkhill,  Zheng Pei,  T. M. Perrine,  F. Plasser,  P. Pokhilko,  
 S. Prager,  A. Prociuk,  E. Ramos,  D. R. Rehn,  F. Rob,  M. Scheurer,  
 M. Schneider,  N. Sergueev,  S. M. Sharada,  S. Sharma,  D. W. Small,  
 T. Stauch,  T. Stein,  Yu-Chuan Su,  A. J. W. Thom,  A. Tkatchenko,  
 T. Tsuchimochi,  N. M. Tubman,  L. Vogt,  M. L. Vidal,  O. Vydrov,  
 M. A. Watson,  J. Wenzel,  M. de Wergifosse,  T. A. Wesolowski,  A. White,  
 J. Witte,  A. Yamada,  Jun Yang,  K. Yao,  S. Yeganeh,  S. R. Yost,  
 Zhi-Qiang You,  A. Zech,  Igor Ying Zhang,  Xing Zhang,  Yan Zhao,  
 Ying Zhu,  B. R. Brooks,  G. K. L. Chan,  C. J. Cramer,  M. S. Gordon,  
 W. J. Hehre,  A. Klamt,  M. W. Schmidt,  C. D. Sherrill,  D. G. Truhlar,  
 A. Aspuru-Guzik,  R. Baer,  A. T. Bell,  N. A. Besley,  Jeng-Da Chai,  
 A. E. DePrince, III,  R. A. DiStasio Jr.,  A. Dreuw,  B. D. Dunietz,  
 T. R. Furlani,  Chao-Ping Hsu,  Yousung Jung,  Jing Kong,  D. S. Lambrecht,  
 WanZhen Liang,  C. Ochsenfeld,  V. A. Rassolov,  L. V. Slipchenko,  
 J. E. Subotnik,  T. Van Voorhis,  J. M. Herbert,  A. I. Krylov,  
 P. M. W. Gill,  M. Head-Gordon

 Contributors to earlier versions of Q-Chem not listed above: 
 R. D. Adamson,  B. Austin,  J. Baker,  G. J. O. Beran,  K. Brandhorst,  
 S. T. Brown,  E. F. C. Byrd,  A. K. Chakraborty,  C.-L. Cheng,  
 Siu Hung Chien,  D. M. Chipman,  D. L. Crittenden,  H. Dachsel,  
 R. J. Doerksen,  A. D. Dutoi,  L. Fusti-Molnar,  W. A. Goddard III,  
 A. Golubeva-Zadorozhnaya,  S. R. Gwaltney,  G. Hawkins,  A. Heyden,  
 S. Hirata,  G. Kedziora,  F. J. Keil,  C. Kelley,  Jihan Kim,  R. A. King,  
 R. Z. Khaliullin,  P. P. Korambath,  W. Kurlancheek,  A. M. Lee,  M. S. Lee,  
 S. V. Levchenko,  Ching Yeh Lin,  D. Liotard,  R. C. Lochan,  I. Lotan,  
 P. E. Maslen,  N. Nair,  D. P. O'Neill,  D. Neuhauser,  E. Neuscamman,  
 C. M. Oana,  R. Olson,  B. Peters,  R. Peverati,  P. A. Pieniazek,  
 Y. M. Rhee,  J. Ritchie,  M. A. Rohrdanz,  E. Rosta,  N. J. Russ,  
 H. F. Schaefer III,  N. E. Schultz,  N. Shenvi,  A. C. Simmonett,  A. Sodt,  
 D. Stuck,  K. S. Thanthiriwatte,  V. Vanovschi,  Tao Wang,  A. Warshel,  
 C. F. Williams,  Q. Wu,  X. Xu,  W. Zhang

 Please cite Q-Chem as follows:
 Y. Shao et al., Mol. Phys. 113, 184-215 (2015)
 DOI: 10.1080/00268976.2014.952696

 Q-Chem 5.2.0 for Intel X86 EM64T Linux

 Parts of Q-Chem use Armadillo 8.300.2 (Tropical Shenanigans).
 http://arma.sourceforge.net/

 Q-Chem begins on Sun Sep 26 13:08:59 2021  

Host: cori01
0

     Scratch files written to /tmp/qchem14370//Frg1//
 May1019 |scratch|qcdevops|jenkins|workspace|build_RNUM -1
Processing $rem in /global/common/cori/software/qchem/5.2/config/preferences:
	 MEM_TOTAL  96000 
NAlpha2: 40
NElect   40
Mult     1
Symmetry turned off for PCM/SM12/SMD calculation

Checking the input file for inconsistencies... 	...done.

--------------------------------------------------------------
User input:
--------------------------------------------------------------
$molecule
-1 1
 6	-1.5104597452	0.8492713263	-1.9827717334
 6	-1.9504597452	2.3232713263	-2.1057717334
 6	-0.1404597452	0.5952713263	-2.6317717334
 8	0.8765402548	1.1302713263	-2.1327717334
 8	-0.0914597452	-0.1057286737	-3.6707717334
 1	-1.4514597452	0.6262713263	-0.9197717334
 1	-2.2584597452	0.1972713263	-2.4377717334
 1	-1.1664597452	2.9572713263	-1.6887717334
 1	-2.8873397452	2.4413113263	-1.5415617334
 1	-2.0248197452	2.6770313263	-3.1446717334
$end
$rem
EDA2		1
METHOD		WB97X-V
BASIS		DEF2-TZVPD
XC_GRID		000099000590
NL_GRID		1
UNRESTRICTED		FALSE
MAX_SCF_CYCLES		200
SYMMETRY		FALSE
SYM_IGNORE		TRUE
BASIS_LIN_DEP_THRESH		6
THRESH		14
SCF_CONVERGENCE		8
SCF_PRINT_FRGM		TRUE
SOLVENT_METHOD		SMD
!required keywords
JOBTYPE		SP
SYM_IGNORE		TRUE
SUBSYSTEM		TRUE
GEN_SCFMAN		TRUE
CHILD_INSTRUCTION		2
SYM_IGNORE		TRUE
SCFMI		0
RI_K 0		
PARI_K 0		
MIN_PARI_K 0		
IARI_K 0		
OCC_RI_K 0		
PURECART		1111
MEM_STATIC		2000
MEM_TOTAL		96000
GUI		0
CHILD_MP		1
CHILD_MP_ORDERS		232
FRZ_RELAX		0
FRZ_RELAX_METHOD		0
EDA_CLS_ELEC		1
EDA_CLS_DISP		0
FRZ_ORTHO_DECOMP		1
EDA2		FALSE
FRGM_METHOD		FALSE
CIS_N_ROOTS  0
LOCAL_CIS    0
CIS_RLX_DNS  1
$end
$smx
SOLVENT			WATER
$end
--------------------------------------------------------------
 ----------------------------------------------------------------
             Standard Nuclear Orientation (Angstroms)
    I     Atom           X                Y                Z
 ----------------------------------------------------------------
    1      C      -1.5104597452     0.8492713263    -1.9827717334
    2      C      -1.9504597452     2.3232713263    -2.1057717334
    3      C      -0.1404597452     0.5952713263    -2.6317717334
    4      O       0.8765402548     1.1302713263    -2.1327717334
    5      O      -0.0914597452    -0.1057286737    -3.6707717334
    6      H      -1.4514597452     0.6262713263    -0.9197717334
    7      H      -2.2584597452     0.1972713263    -2.4377717334
    8      H      -1.1664597452     2.9572713263    -1.6887717334
    9      H      -2.8873397452     2.4413113263    -1.5415617334
   10      H      -2.0248197452     2.6770313263    -3.1446717334
 ----------------------------------------------------------------
 Nuclear Repulsion Energy =         168.28447542 hartrees
 There are       20 alpha and       20 beta electrons
 Requested basis set is def2-TZVPD
 There are 92 shells and 236 basis functions

 Total QAlloc Memory Limit  96000 MB
 Mega-Array Size      1956 MB
 MEM_STATIC part      2000 MB
 
 Citation of the SMD model:
 Marenich, A.V.; Cramer, C.J.; Truhlar, D.G.
 J. Phys. Chem. B 2009, 113, 6378-6396.
 iSolventCode=           1
 Solvent: water                                                           
 
 vradii
            1           2           3           4           5           6
    1   1.8500000   1.8500000   1.8500000   1.5200000   1.5200000   1.2000000
            7           8           9          10
    1   1.2000000   1.2000000   1.2000000   1.2000000
 Changing PCM_VDW_RADII to SMD_RADIUS
 Discretize the solute cavity surface with Lebedev spheres
	Using 110 Lebedev grid points for each H atom
	Using 194 Lebedev grid points for other atoms
	Atomic van der Waals radii will be scaled by 1.20
 Remove points where switching function is < 1.0e-08
 Keep 837 surface tesserae and discard 683 interior tesserae
 Molecular Surface Area = 100.579 Angst**2

                       Distance Matrix (Angstroms)
             C (  1)   C (  2)   C (  3)   O (  4)   O (  5)   H (  6)
   C (  2)  1.543180
   C (  3)  1.537081  2.557100
   O (  4)  2.408159  3.068535  1.252803
   O (  5)  2.403108  3.435862  1.254322  2.197763
   H (  6)  1.087740  2.129649  2.156531  2.673007  3.154905
   H (  7)  1.091619  2.173698  2.163785  3.285078  2.511571  1.771896
   H (  8)  2.156023  1.091101  2.742439  2.776493  3.803409  2.471062
   H (  9)  2.150594  1.100005  3.484504  4.029286  4.340264  2.396402
   H ( 10)  2.226047  1.099995  2.854401  3.440101  3.429055  3.079698
             H (  7)   H (  8)   H (  9)
   H (  8)  3.061220
   H (  9)  2.496878  1.802585
   H ( 10)  2.589113  1.713173  1.835611
 
 A cutoff of  1.0D-14 yielded   4193 shell pairs
 There are     28043 function pairs (     35736 Cartesian)
 Smallest overlap matrix eigenvalue = 1.19E-05

 Scale SEOQF with 1.000000e-01/1.000000e-01/1.000000e-01

 Standard Electronic Orientation quadrupole field applied
 Nucleus-field energy     =    -0.0000000202 hartrees
 Guess from superposition of atomic densities
 Warning:  Energy on first SCF cycle will be non-variational
 SAD guess density has 38.612942 electrons

 -----------------------------------------------------------------------
  General SCF calculation program by
  Eric Jon Sundstrom, Paul Horn, Yuezhi Mao, Dmitri Zuev, Alec White,
  David Stuck, Shaama M.S., Shane Yost, Joonho Lee, David Small,
  Daniel Levine, Susi Lehtola, Hugh Burton, Evgeny Epifanovsky
 -----------------------------------------------------------------------
 Exchange:     0.1670 Hartree-Fock + 1.0000 wB97X-V + LR-HF
 Correlation:  1.0000 wB97X-V
 Using Euler-Maclaurin-Lebedev (99,590) quadrature formula
 Nonlocal Correlation:  VV10 with C = 0.0100 and b = 6.00 and scale = 1.00000
 Grid used for NLC:  SG-1 standard quadrature
Energy prior to optimization (guess energy) = -267.071156125507
Begin Timing: Total SCF Calculation
begin iterations for algorithm: DIIS         
the SCF tolerance is set to 1.00e-08
    1    -267.0711561255      1.28e-02     00000 
    2    -263.2519755687      2.03e-02     00000 
    3    -267.8320664405      5.01e-03     00000 
    4    -267.9534040856      2.19e-03     00000 
    5    -267.9785801753      3.97e-04     00000 
    6    -267.9797289298      2.17e-04     00000 
    7    -267.9799396320      7.42e-05     00000 
    8    -267.9799691782      1.62e-05     00000 
    9    -267.9799712630      5.80e-06     00000 
   10    -267.9799715690      2.07e-06     00000 
   11    -267.9799716272      2.68e-07     00000 
   12    -267.9799716293      6.66e-08     00000 
   13    -267.9799716294      2.65e-08     00000 
   14    -267.9799716294      8.71e-09     00000 Convergence criterion met
Timing for Total SCF: 554.00s (wall), 1098.56s (cpu)
(3)  G-ENP(liq) elect-nuc-pol free energy of system     -267.979971629 a.u.
(4)  G-CDS(liq) cavity-dispersion-solvent structure 
     free energy                                                4.0699 kcal/mol
(6)  G-S(liq) free energy of system                     -267.973485788 a.u.
E_pcm = -0.1311187123
E_cds = 0.0064858413
Multipole orders to be included
        2
        3
computing dipole RHS
computing quadrupole RHS
total number of RHS in solve_reponses: 8
RHS batch sizes
        8
Beginning Block Conjugate Gradient Iterations. Batch Number: 0
computing hessian-vector products by finite difference
              1      6.23e-01     00000 Conjugate Gradient Iteration
computing hessian-vector products by finite difference
              2      1.98e-01     00000 Conjugate Gradient Iteration
computing hessian-vector products by finite difference
              3      5.22e-02     00000 Conjugate Gradient Iteration
computing hessian-vector products by finite difference
              4      1.37e-02     00000 Conjugate Gradient Iteration
computing hessian-vector products by finite difference
              5      2.01e-03     00000 Conjugate Gradient Iteration
computing hessian-vector products by finite difference
              6      4.61e-04     00000 Conjugate Gradient Iteration
computing hessian-vector products by finite difference
              7      7.37e-05     00000 Conjugate Gradient Iteration
computing hessian-vector products by finite difference
              8      1.35e-05     00000 Conjugate Gradient Iteration
computing hessian-vector products by finite difference
              9      2.14e-06     00000 Conjugate Gradient Iteration
computing hessian-vector products by finite difference
             10      3.36e-07     00000 Conjugate Gradient Iteration
computing hessian-vector products by finite difference
             11      3.85e-08     00000 Conjugate Gradient Iteration
computing hessian-vector products by finite difference
             12      7.12e-09     00000 CG Converged
batch 0 complete
Done Calculating Responses
TESTING ORTHOGONALIZATION OF MULTIPOLE BASIS
Multipole virts passed orthogonality test
Virts Per Order
           60
          100
 
 --------------------------------------------------------------
 
                    Orbital Energies (a.u.)
 --------------------------------------------------------------
 
 Alpha MOs
 -- Occupied --
-19.1535 -19.1534 -10.3525 -10.2533 -10.2508  -1.1643  -1.0640  -0.8872
 -0.7507  -0.6187  -0.5610  -0.5564  -0.5273  -0.5099  -0.4816  -0.4475
 -0.4350  -0.3648  -0.3529  -0.3447
 -- Virtual --
  0.0675   0.0915   0.0969   0.1008   0.1236   0.1352   0.1429   0.1483
  0.1494   0.1570   0.1881   0.1966   0.2017   0.2074   0.2239   0.2302
  0.2522   0.2598   0.2743   0.2911   0.2966   0.3034   0.3221   0.3322
  0.3404   0.3513   0.3545   0.3651   0.3669   0.3755   0.3779   0.3871
  0.4049   0.4075   0.4167   0.4181   0.4239   0.4436   0.4588   0.4632
  0.4767   0.4936   0.4973   0.5047   0.5080   0.5226   0.5292   0.5367
  0.5386   0.5516   0.5574   0.5810   0.5904   0.6031   0.6298   0.6455
  0.6511   0.6689   0.6748   0.6836   0.6923   0.7143   0.7250   0.7343
  0.7557   0.7654   0.7700   0.7919   0.7960   0.8061   0.8129   0.8216
  0.8316   0.8481   0.8727   0.8776   0.9035   0.9201   0.9612   0.9837
  1.0013   1.0429   1.0586   1.0779   1.1185   1.1342   1.1753   1.1957
  1.2152   1.2545   1.2764   1.2983   1.3219   1.3425   1.3913   1.4117
  1.4284   1.4668   1.5091   1.5894   1.6193   1.7762   1.8466   1.8530
  1.8793   1.8930   1.9072   1.9199   1.9494   1.9571   1.9852   1.9922
  2.0291   2.0391   2.0647   2.1081   2.1589   2.1804   2.1972   2.2237
  2.2695   2.3205   2.3541   2.3831   2.4426   2.4569   2.4777   2.5220
  2.5476   2.5667   2.5925   2.6288   2.6775   2.6992   2.7305   2.7734
  2.8067   2.8467   2.8752   2.8943   2.9287   2.9674   3.0303   3.0542
  3.1035   3.1233   3.2218   3.2298   3.2678   3.2776   3.3131   3.3305
  3.3583   3.3788   3.4315   3.4437   3.5011   3.5122   3.5490   3.5738
  3.5872   3.5952   3.6248   3.6397   3.6631   3.7013   3.7231   3.7579
  3.8011   3.8491   3.9456   4.0161   4.0754   4.1037   4.1631   4.2156
  4.2330   4.4217   4.5409   4.6056   4.6496   4.7129   4.7493   4.8018
  4.8665   5.0009   5.0970   5.3017   5.3289   5.3398   5.3463   5.4674
  5.6850   5.7429   5.7846   5.9910   6.2101   6.3125   6.3271   6.5863
  6.6078   6.6950   6.7295   6.7425   6.9322   6.9603   7.0258   7.2263
  7.3161   7.3579   7.3880  22.6147  22.7371  23.7112  44.2358  44.3609
 --------------------------------------------------------------
 
          Ground-State Mulliken Net Atomic Charges

     Atom                 Charge (a.u.)
  ----------------------------------------
      1 C                    -0.007800
      2 C                    -0.891777
      3 C                     0.395333
      4 O                    -0.787552
      5 O                    -0.779462
      6 H                     0.183032
      7 H                     0.180704
      8 H                     0.224602
      9 H                     0.219677
     10 H                     0.263242
  ----------------------------------------
  Sum of atomic charges =    -1.000000

 -----------------------------------------------------------------
                    Cartesian Multipole Moments
 -----------------------------------------------------------------
    Charge (ESU x 10^10)
                -4.8032
    Dipole Moment (Debye)
         X      -3.9290      Y      -2.0488      Z      15.0305
       Tot      15.6701
    Quadrupole Moments (Debye-Ang)
        XX     -35.3180     XY      -4.5593     YY     -36.4226
        XZ       7.7091     YZ       2.2769     ZZ     -83.3706
    Octopole Moments (Debye-Ang^2)
       XXX      56.5558    XXY     -36.6632    XYY      17.0015
       YYY    -105.4570    XXZ      88.6118    XYZ       9.5727
       YYZ      87.1442    XZZ       5.3976    YZZ     -31.0912
       ZZZ     423.5961
    Hexadecapole Moments (Debye-Ang^3)
      XXXX    -352.6880   XXXY     108.3010   XXYY    -132.4010
      XYYY     113.1459   YYYY    -408.5360   XXXZ    -120.9479
      XXYZ      79.8953   XYYZ     -34.4708   YYYZ     216.7037
      XXZZ    -302.3015   XYZZ      15.0374   YYZZ    -295.6471
      XZZZ     -99.8234   YZZZ     179.8076   ZZZZ   -1999.2048
 -----------------------------------------------------------------
Archival summary:
1\1\nid00543\SP\ProcedureUnspecified\BasisUnspecified\235(1-,1)\meili\SunSep2615:44:552021SunSep2615:44:552021\0\\#,ProcedureUnspecified,BasisUnspecified,\\-1,1\C\O,1,1.2528\O,1,1.25432,2,122.472\C,1,1.53708,2,118.999,3,-177.517,0\H,4,1.08774,1,109.293,2,-52.2046,0\H,4,1.09162,1,109.636,2,-171.36,0\C,4,1.54318,1,112.23,2,66.0932,0\H,7,1.0911,4,108.644,1,-54.928,0\H,7,1.09999,4,113.687,1,58.939,0\H,7,1.1,4,107.726,1,-174.903,0\\\@

 Total job time:  9355.98s(wall), 18186.63s(cpu) 
 Sun Sep 26 15:44:55 2021

        *************************************************************
        *                                                           *
        *  Thank you very much for using Q-Chem.  Have a nice day.  *
        *                                                           *
        *************************************************************


Done Job For Fragment 0
calling putenv with: QCSCRATCH=/global/cscratch1/sd/meili 
calling putenv with: QCLOCALSCR=/tmp 
calling putenv with: QCTHREADS=32 
Creating input file /tmp/qchem14370/Frg2.input
using default PutDataFrgm: nothing
calling putenv with: QCSCRATCH=/tmp/qchem14370/ 
calling putenv with: QCLOCALSCR=/tmp/qchem14370/ 
Spawning Job For Fragment 1
                  Welcome to Q-Chem
     A Quantum Leap Into The Future Of Chemistry


 Q-Chem 5.2, Q-Chem, Inc., Pleasanton, CA (2019)

 License issued to: National Energy Research Scientific Computing Center

 Yihan Shao,  Zhengting Gan,  E. Epifanovsky,  A. T. B. Gilbert,  M. Wormit,  
 J. Kussmann,  A. W. Lange,  A. Behn,  Jia Deng,  Xintian Feng,  D. Ghosh,  
 M. Goldey,  P. R. Horn,  L. D. Jacobson,  I. Kaliman,  T. Kus,  A. Landau,  
 Jie Liu,  E. I. Proynov,  R. M. Richard,  R. P. Steele,  E. J. Sundstrom,  
 H. L. Woodcock III,  P. M. Zimmerman,  D. Zuev,  B. Albrecht,  E. Alguire,  
 S. A. Baeppler,  D. Barton,  Z. Benda,  Y. A. Bernard,  E. J. Berquist,  
 K. B. Bravaya,  H. Burton,  D. Casanova,  Chun-Min Chang,  Yunqing Chen,  
 A. Chien,  K. D. Closser,  M. P. Coons,  S. Coriani,  S. Dasgupta,  
 A. L. Dempwolff,  M. Diedenhofen,  Hainam Do,  R. G. Edgar,  Po-Tung Fang,  
 S. Faraji,  S. Fatehi,  Qingguo Feng,  K. D. Fenk,  J. Fosso-Tande,  
 J. Gayvert,  Qinghui Ge,  A. Ghysels,  G. Gidofalvi,  J. Gomes,  
 J. Gonthier,  A. Gunina,  D. Hait,  M. W. D. Hanson-Heine,  
 P. H. P. Harbach,  A. W. Hauser,  M. F. Herbst,  J. E. Herr,  
 E. G. Hohenstein,  Z. C. Holden,  Kerwin Hui,  B. C. Huynh,  T.-C. Jagau,  
 Hyunjun Ji,  B. Kaduk,  K. Khistyaev,  Jaehoon Kim,  P. Klunzinger,  K. Koh,  
 D. Kosenkov,  L. Koulias,  T. Kowalczyk,  C. M. Krauter,  A. Kunitsa,  
 Ka Un Lao,  A. Laurent,  K. V. Lawler,  Joonho Lee,  D. Lefrancois,  
 S. Lehtola,  D. S. Levine,  Yi-Pei Li,  You-Sheng Lin,  Fenglai Liu,  
 E. Livshits,  A. Luenser,  P. Manohar,  E. Mansoor,  S. F. Manzer,  
 Shan-Ping Mao,  Yuezhi Mao,  N. Mardirossian,  A. V. Marenich,  
 T. Markovich,  L. A. Martinez-Martinez,  S. A. Maurer,  N. J. Mayhall,  
 S. C. McKenzie,  J.-M. Mewes,  P. Morgante,  A. F. Morrison,  
 J. W. Mullinax,  K. Nanda,  T. S. Nguyen-Beck,  R. Olivares-Amaya,  
 J. A. Parkhill,  Zheng Pei,  T. M. Perrine,  F. Plasser,  P. Pokhilko,  
 S. Prager,  A. Prociuk,  E. Ramos,  D. R. Rehn,  F. Rob,  M. Scheurer,  
 M. Schneider,  N. Sergueev,  S. M. Sharada,  S. Sharma,  D. W. Small,  
 T. Stauch,  T. Stein,  Yu-Chuan Su,  A. J. W. Thom,  A. Tkatchenko,  
 T. Tsuchimochi,  N. M. Tubman,  L. Vogt,  M. L. Vidal,  O. Vydrov,  
 M. A. Watson,  J. Wenzel,  M. de Wergifosse,  T. A. Wesolowski,  A. White,  
 J. Witte,  A. Yamada,  Jun Yang,  K. Yao,  S. Yeganeh,  S. R. Yost,  
 Zhi-Qiang You,  A. Zech,  Igor Ying Zhang,  Xing Zhang,  Yan Zhao,  
 Ying Zhu,  B. R. Brooks,  G. K. L. Chan,  C. J. Cramer,  M. S. Gordon,  
 W. J. Hehre,  A. Klamt,  M. W. Schmidt,  C. D. Sherrill,  D. G. Truhlar,  
 A. Aspuru-Guzik,  R. Baer,  A. T. Bell,  N. A. Besley,  Jeng-Da Chai,  
 A. E. DePrince, III,  R. A. DiStasio Jr.,  A. Dreuw,  B. D. Dunietz,  
 T. R. Furlani,  Chao-Ping Hsu,  Yousung Jung,  Jing Kong,  D. S. Lambrecht,  
 WanZhen Liang,  C. Ochsenfeld,  V. A. Rassolov,  L. V. Slipchenko,  
 J. E. Subotnik,  T. Van Voorhis,  J. M. Herbert,  A. I. Krylov,  
 P. M. W. Gill,  M. Head-Gordon

 Contributors to earlier versions of Q-Chem not listed above: 
 R. D. Adamson,  B. Austin,  J. Baker,  G. J. O. Beran,  K. Brandhorst,  
 S. T. Brown,  E. F. C. Byrd,  A. K. Chakraborty,  C.-L. Cheng,  
 Siu Hung Chien,  D. M. Chipman,  D. L. Crittenden,  H. Dachsel,  
 R. J. Doerksen,  A. D. Dutoi,  L. Fusti-Molnar,  W. A. Goddard III,  
 A. Golubeva-Zadorozhnaya,  S. R. Gwaltney,  G. Hawkins,  A. Heyden,  
 S. Hirata,  G. Kedziora,  F. J. Keil,  C. Kelley,  Jihan Kim,  R. A. King,  
 R. Z. Khaliullin,  P. P. Korambath,  W. Kurlancheek,  A. M. Lee,  M. S. Lee,  
 S. V. Levchenko,  Ching Yeh Lin,  D. Liotard,  R. C. Lochan,  I. Lotan,  
 P. E. Maslen,  N. Nair,  D. P. O'Neill,  D. Neuhauser,  E. Neuscamman,  
 C. M. Oana,  R. Olson,  B. Peters,  R. Peverati,  P. A. Pieniazek,  
 Y. M. Rhee,  J. Ritchie,  M. A. Rohrdanz,  E. Rosta,  N. J. Russ,  
 H. F. Schaefer III,  N. E. Schultz,  N. Shenvi,  A. C. Simmonett,  A. Sodt,  
 D. Stuck,  K. S. Thanthiriwatte,  V. Vanovschi,  Tao Wang,  A. Warshel,  
 C. F. Williams,  Q. Wu,  X. Xu,  W. Zhang

 Please cite Q-Chem as follows:
 Y. Shao et al., Mol. Phys. 113, 184-215 (2015)
 DOI: 10.1080/00268976.2014.952696

 Q-Chem 5.2.0 for Intel X86 EM64T Linux

 Parts of Q-Chem use Armadillo 8.300.2 (Tropical Shenanigans).
 http://arma.sourceforge.net/

 Q-Chem begins on Sun Sep 26 15:44:56 2021  

Host: cori01
0

     Scratch files written to /tmp/qchem14370//Frg2//
 May1019 |scratch|qcdevops|jenkins|workspace|build_RNUM -1
Processing $rem in /global/common/cori/software/qchem/5.2/config/preferences:
	 MEM_TOTAL  96000 
NAlpha2: 44
NElect   44
Mult     1
Symmetry turned off for PCM/SM12/SMD calculation

Checking the input file for inconsistencies... 	...done.

--------------------------------------------------------------
User input:
--------------------------------------------------------------
$molecule
0 1
 6	1.0965402548	-1.8667286737	4.1262282666
 6	0.2085402548	0.3992713263	1.4012282666
 6	0.6735402548	-1.2177286737	2.8282282666
 6	0.3365402548	-1.7837286737	1.6342282666
 7	0.5835402548	0.1512713263	2.6502282666
 7	0.0535402548	-0.7607286737	0.7662282666
 1	0.0705402548	1.4092713263	1.0322282666
 1	-0.2234597452	-0.8757286737	-0.1967717334
 1	0.2765402548	-2.8137286737	1.3362282666
 1	2.0405402548	-1.4047286737	4.4172282666
 1	1.2625402548	-2.9187286737	3.9122282666
 1	0.3650002548	-1.7398486737	4.9378682666
$end
$rem
EDA2		1
METHOD		WB97X-V
BASIS		DEF2-TZVPD
XC_GRID		000099000590
NL_GRID		1
UNRESTRICTED		FALSE
MAX_SCF_CYCLES		200
SYMMETRY		FALSE
SYM_IGNORE		TRUE
BASIS_LIN_DEP_THRESH		6
THRESH		14
SCF_CONVERGENCE		8
SCF_PRINT_FRGM		TRUE
SOLVENT_METHOD		SMD
!required keywords
JOBTYPE		SP
SYM_IGNORE		TRUE
SUBSYSTEM		TRUE
GEN_SCFMAN		TRUE
CHILD_INSTRUCTION		2
SYM_IGNORE		TRUE
SCFMI		0
RI_K 0		
PARI_K 0		
MIN_PARI_K 0		
IARI_K 0		
OCC_RI_K 0		
PURECART		1111
MEM_STATIC		2000
MEM_TOTAL		96000
GUI		0
CHILD_MP		1
CHILD_MP_ORDERS		232
FRZ_RELAX		0
FRZ_RELAX_METHOD		0
EDA_CLS_ELEC		1
EDA_CLS_DISP		0
FRZ_ORTHO_DECOMP		1
EDA2		FALSE
FRGM_METHOD		FALSE
CIS_N_ROOTS  0
LOCAL_CIS    0
CIS_RLX_DNS  1
$end
$smx
SOLVENT			WATER
$end
--------------------------------------------------------------
 ----------------------------------------------------------------
             Standard Nuclear Orientation (Angstroms)
    I     Atom           X                Y                Z
 ----------------------------------------------------------------
    1      C       1.0965402548    -1.8667286737     4.1262282666
    2      C       0.2085402548     0.3992713263     1.4012282666
    3      C       0.6735402548    -1.2177286737     2.8282282666
    4      C       0.3365402548    -1.7837286737     1.6342282666
    5      N       0.5835402548     0.1512713263     2.6502282666
    6      N       0.0535402548    -0.7607286737     0.7662282666
    7      H       0.0705402548     1.4092713263     1.0322282666
    8      H      -0.2234597452    -0.8757286737    -0.1967717334
    9      H       0.2765402548    -2.8137286737     1.3362282666
   10      H       2.0405402548    -1.4047286737     4.4172282666
   11      H       1.2625402548    -2.9187286737     3.9122282666
   12      H       0.3650002548    -1.7398486737     4.9378682666
 ----------------------------------------------------------------
 Nuclear Repulsion Energy =         224.36752056 hartrees
 There are       22 alpha and       22 beta electrons
 Requested basis set is def2-TZVPD
 There are 108 shells and 276 basis functions

 Total QAlloc Memory Limit  96000 MB
 Mega-Array Size      1956 MB
 MEM_STATIC part      2000 MB
 
 Citation of the SMD model:
 Marenich, A.V.; Cramer, C.J.; Truhlar, D.G.
 J. Phys. Chem. B 2009, 113, 6378-6396.
 iSolventCode=           1
 Solvent: water                                                           
 
 vradii
            1           2           3           4           5           6
    1   1.8500000   1.8500000   1.8500000   1.8500000   1.8900000   1.8900000
            7           8           9          10          11          12
    1   1.2000000   1.2000000   1.2000000   1.2000000   1.2000000   1.2000000
 Changing PCM_VDW_RADII to SMD_RADIUS
 Discretize the solute cavity surface with Lebedev spheres
	Using 110 Lebedev grid points for each H atom
	Using 194 Lebedev grid points for other atoms
	Atomic van der Waals radii will be scaled by 1.20
 Remove points where switching function is < 1.0e-08
 Keep 896 surface tesserae and discard 928 interior tesserae
 Molecular Surface Area = 116.418 Angst**2

                       Distance Matrix (Angstroms)
             C (  1)   C (  2)   C (  3)   C (  4)   N (  5)   N (  6)
   C (  2)  3.653618
   C (  3)  1.511600  2.206183
   C (  4)  2.606636  2.199128  1.363657
   N (  5)  2.552267  1.327452  1.383454  2.199429
   N (  6)  3.687911  1.331484  2.201157  1.371146  2.159190
   H (  7)  4.621438  1.084115  3.238882  3.260124  2.112737  2.186309
   H (  8)  4.627398  2.089462  3.173673  2.119109  3.132313  1.008624
   H (  9)  3.058318  3.214377  2.220561  1.073920  3.257617  2.142297
   H ( 10)  1.090532  3.963193  2.104419  3.285171  2.768804  4.206270
   H ( 11)  1.086304  4.292454  2.101280  2.708318  3.388006  4.001995
   H ( 12)  1.100004  4.136198  2.195082  3.304054  2.976137  4.296308
             H (  7)   H (  8)   H (  9)   H ( 10)   H ( 11)
   H (  8)  2.611150
   H (  9)  4.238936  2.521098
   H ( 10)  4.822626  5.166675  3.819625
   H ( 11)  5.333559  4.823477  2.760253  1.775529
   H ( 12)  5.025703  5.239992  3.759369  1.786283  1.802019
 
 A cutoff of  1.0D-14 yielded   5737 shell pairs
 There are     38177 function pairs (     48959 Cartesian)
 Smallest overlap matrix eigenvalue = 1.52E-06

 Scale SEOQF with 1.000000e-01/1.000000e-01/1.000000e-01

 Standard Electronic Orientation quadrupole field applied
 Nucleus-field energy     =    -0.0000000251 hartrees
 Guess from superposition of atomic densities
 Warning:  Energy on first SCF cycle will be non-variational
 SAD guess density has 43.559167 electrons

 -----------------------------------------------------------------------
  General SCF calculation program by
  Eric Jon Sundstrom, Paul Horn, Yuezhi Mao, Dmitri Zuev, Alec White,
  David Stuck, Shaama M.S., Shane Yost, Joonho Lee, David Small,
  Daniel Levine, Susi Lehtola, Hugh Burton, Evgeny Epifanovsky
 -----------------------------------------------------------------------
 Exchange:     0.1670 Hartree-Fock + 1.0000 wB97X-V + LR-HF
 Correlation:  1.0000 wB97X-V
 Using Euler-Maclaurin-Lebedev (99,590) quadrature formula
 Nonlocal Correlation:  VV10 with C = 0.0100 and b = 6.00 and scale = 1.00000
 Grid used for NLC:  SG-1 standard quadrature
Energy prior to optimization (guess energy) = -265.142664540530
Begin Timing: Total SCF Calculation
begin iterations for algorithm: DIIS         
the SCF tolerance is set to 1.00e-08
    1    -265.1426645405      7.23e-03     00000 
    2    -265.1010508045      7.39e-03     00000 
    3    -265.5672172010      7.30e-04     00000 
    4    -265.5719342061      3.81e-04     00000 
    5    -265.5733487411      1.12e-04     00000 
    6    -265.5735075665      4.18e-05     00000 
    7    -265.5735321689      1.17e-05     00000 
    8    -265.5735347824      3.42e-06     00000 
    9    -265.5735350764      1.68e-06     00000 
   10    -265.5735351285      4.00e-07     00000 
   11    -265.5735351337      7.80e-08     00000 
   12    -265.5735351339      4.12e-08     00000 
   13    -265.5735351340      1.11e-08     00000 
   14    -265.5735351340      4.49e-09     00000 Convergence criterion met
Timing for Total SCF: 904.00s (wall), 1778.58s (cpu)
(3)  G-ENP(liq) elect-nuc-pol free energy of system     -265.573535134 a.u.
(4)  G-CDS(liq) cavity-dispersion-solvent structure 
     free energy                                                2.1274 kcal/mol
(6)  G-S(liq) free energy of system                     -265.570144954 a.u.
E_pcm = -0.0227297085
E_cds = 0.0033901801
Multipole orders to be included
        2
        3
computing dipole RHS
computing quadrupole RHS
total number of RHS in solve_reponses: 8
RHS batch sizes
        8
Beginning Block Conjugate Gradient Iterations. Batch Number: 0
computing hessian-vector products by finite difference
              1      6.44e-01     00000 Conjugate Gradient Iteration
computing hessian-vector products by finite difference
              2      1.98e-01     00000 Conjugate Gradient Iteration
computing hessian-vector products by finite difference
              3      5.38e-02     00000 Conjugate Gradient Iteration
computing hessian-vector products by finite difference
              4      1.59e-02     00000 Conjugate Gradient Iteration
computing hessian-vector products by finite difference
              5      2.97e-03     00000 Conjugate Gradient Iteration
computing hessian-vector products by finite difference
              6      5.74e-04     00000 Conjugate Gradient Iteration
computing hessian-vector products by finite difference
              7      1.07e-04     00000 Conjugate Gradient Iteration
computing hessian-vector products by finite difference
              8      1.93e-05     00000 Conjugate Gradient Iteration
computing hessian-vector products by finite difference
              9      3.02e-06     00000 Conjugate Gradient Iteration
computing hessian-vector products by finite difference
             10      4.23e-07     00000 Conjugate Gradient Iteration
computing hessian-vector products by finite difference
             11      6.09e-08     00000 Conjugate Gradient Iteration
computing hessian-vector products by finite difference
             12      9.18e-09     00000 CG Converged
batch 0 complete
Done Calculating Responses
TESTING ORTHOGONALIZATION OF MULTIPOLE BASIS
Multipole virts passed orthogonality test
Virts Per Order
           66
          110
 
 --------------------------------------------------------------
 
                    Orbital Energies (a.u.)
 --------------------------------------------------------------
 
 Alpha MOs
 -- Occupied --
-14.4580 -14.3855 -10.3170 -10.2849 -10.2831 -10.2585  -1.1517  -0.9932
 -0.8944  -0.8214  -0.7220  -0.6871  -0.6593  -0.5617  -0.5522  -0.5377
 -0.5089  -0.4929  -0.4777  -0.3766  -0.3761  -0.3211
 -- Virtual --
  0.0691   0.0880   0.0981   0.1085   0.1190   0.1309   0.1354   0.1461
  0.1716   0.1746   0.1810   0.1877   0.2027   0.2041   0.2262   0.2402
  0.2503   0.2525   0.2643   0.2657   0.2736   0.2921   0.3010   0.3082
  0.3155   0.3195   0.3252   0.3257   0.3337   0.3386   0.3500   0.3622
  0.3642   0.3671   0.3769   0.3822   0.3941   0.4019   0.4112   0.4147
  0.4213   0.4269   0.4350   0.4501   0.4600   0.4703   0.4738   0.4816
  0.4910   0.4962   0.5009   0.5192   0.5349   0.5476   0.5519   0.5636
  0.5661   0.5791   0.5927   0.5959   0.6079   0.6118   0.6269   0.6293
  0.6463   0.6559   0.6754   0.6806   0.6932   0.7035   0.7116   0.7174
  0.7358   0.7447   0.7559   0.7707   0.7781   0.7863   0.7931   0.8055
  0.8143   0.8202   0.8246   0.8392   0.8691   0.8717   0.8794   0.9005
  0.9179   0.9402   0.9698   0.9866   0.9987   1.0077   1.0249   1.0270
  1.0666   1.0757   1.1115   1.1244   1.1329   1.1589   1.1894   1.2243
  1.2326   1.2441   1.2728   1.3264   1.3461   1.3587   1.3775   1.4249
  1.4482   1.4613   1.5405   1.5491   1.5947   1.6429   1.6626   1.6767
  1.7010   1.7341   1.7997   1.8272   1.8327   1.8709   1.8742   1.8860
  1.9062   1.9541   1.9568   1.9575   1.9705   1.9916   1.9950   2.0150
  2.0273   2.0635   2.0906   2.1360   2.1900   2.2344   2.2735   2.2767
  2.3096   2.3513   2.3700   2.3909   2.4224   2.4596   2.4731   2.5041
  2.5654   2.5870   2.6151   2.6182   2.6335   2.6527   2.6874   2.7214
  2.7489   2.7723   2.8040   2.8424   2.8726   2.8744   2.9073   2.9889
  3.0162   3.0574   3.0676   3.0771   3.0891   3.1232   3.1293   3.1594
  3.1714   3.1932   3.2134   3.2259   3.2832   3.2966   3.3093   3.3381
  3.3518   3.3733   3.3870   3.3926   3.4236   3.4453   3.4798   3.5086
  3.5235   3.5380   3.5769   3.6038   3.6332   3.6536   3.7235   3.7359
  3.7539   3.7924   3.8086   3.8348   3.8640   3.9285   3.9566   4.0346
  4.0751   4.1012   4.1452   4.2446   4.2975   4.4173   4.4340   4.4835
  4.5245   4.5776   4.6304   4.6785   4.7637   4.8223   4.8465   4.8769
  4.9620   4.9789   5.0206   5.0386   5.0415   5.0613   5.1649   5.1921
  5.2299   5.3002   5.3738   5.4487   5.4878   5.5313   5.5844   5.6034
  5.6723   5.7014   5.7543   5.7875   5.8832   6.0339   6.2484   6.2853
 22.6141  22.8914  23.1273  23.3571  32.6509  32.7684
 --------------------------------------------------------------
 
          Ground-State Mulliken Net Atomic Charges

     Atom                 Charge (a.u.)
  ----------------------------------------
      1 C                    -0.795394
      2 C                    -0.275055
      3 C                     0.437152
      4 C                    -0.466690
      5 N                    -0.534557
      6 N                     0.075247
      7 H                     0.336006
      8 H                     0.189652
      9 H                     0.325179
     10 H                     0.235544
     11 H                     0.229041
     12 H                     0.243875
  ----------------------------------------
  Sum of atomic charges =     0.000000

 -----------------------------------------------------------------
                    Cartesian Multipole Moments
 -----------------------------------------------------------------
    Charge (ESU x 10^10)
                 0.0000
    Dipole Moment (Debye)
         X      -1.1640      Y      -2.2581      Z      -4.3381
       Tot       5.0272
    Quadrupole Moments (Debye-Ang)
        XX     -38.6293     XY      -1.4949     YY     -30.4249
        XZ      -1.4664     YZ      -5.5056     ZZ     -47.0735
    Octopole Moments (Debye-Ang^2)
       XXX     -57.9296    XXY      32.5154    XYY     -17.0792
       YYY      83.7099    XXZ     -87.0198    XYZ      -6.4130
       YYZ     -77.2330    XZZ     -22.6041    YZZ       9.5457
       ZZZ    -277.9785
    Hexadecapole Moments (Debye-Ang^3)
      XXXX    -138.1502   XXXY      69.3881   XXYY     -97.6088
      XYYY      59.9900   YYYY    -367.9829   XXXZ    -178.9847
      XXYZ      89.0795   XYYZ     -53.4357   YYYZ     251.5207
      XXZZ    -279.4017   XYZZ       3.4433   YYZZ    -311.1241
      XZZZ    -189.5529   YZZZ     192.6303   ZZZZ   -1570.7655
 -----------------------------------------------------------------
Archival summary:
1\1\nid00543\SP\ProcedureUnspecified\BasisUnspecified\246\meili\SunSep2619:56:262021SunSep2619:56:262021\0\\#,ProcedureUnspecified,BasisUnspecified,\\0,1\N\C,1,1.32745\H,2,1.08411,1,122.023\N,2,1.33148,1,108.593,3,-179.926,0\H,4,1.00862,2,125.919,1,-179.755,0\C,4,1.37115,2,108.909,1,0.0504015,0\H,6,1.07392,4,121.896,2,179.97,0\C,6,1.36366,4,107.195,2,-0.0638136,0\C,8,1.5116,6,130.002,4,-178.902,0\H,9,1.0863,8,106.821,6,9.72957,0\H,9,1.09053,8,106.827,6,126.615,0\H,9,1.1,8,113.451,6,-112.927,0\\\@

 Total job time:  15093.09s(wall), 29700.90s(cpu) 
 Sun Sep 26 19:56:29 2021

        *************************************************************
        *                                                           *
        *  Thank you very much for using Q-Chem.  Have a nice day.  *
        *                                                           *
        *************************************************************


Done Job For Fragment 1
calling putenv with: QCSCRATCH=/global/cscratch1/sd/meili 
calling putenv with: QCLOCALSCR=/tmp 
calling putenv with: QCTHREADS=32 
Doing General SCFMI
 Exchange:     0.1670 Hartree-Fock + 1.0000 wB97X-V + LR-HF
 Correlation:  1.0000 wB97X-V
 Using Euler-Maclaurin-Lebedev (99,590) quadrature formula
 Nonlocal Correlation:  VV10 with C = 0.0100 and b = 6.00 and scale = 1.00000
 Grid used for NLC:  SG-1 standard quadrature
performing fock build before subrot guess so that all methods have access
Printing subrot_rss_gen Method Specification:
Occupied Subspace Method is 0
Virtual Subspace Method is 0
Energy of the unrelaxed supersystem initial determinant -533.416103398171
performing fock build before subrot guess so that all methods have access
Printing subrot_rss_gen Method Specification:
Occupied Subspace Method is 0
Virtual Subspace Method is 0
Energy of the unrelaxed supersystem initial determinant w/ solvent -533.553958307983
write pseudocanon occs and virts to disk
write pseudocanon orbital energies to disk
Tolerance of ortho_decomp_scf: 1.00e-06
GDM subspace size: 20
Beginning the Orthogonal Decomposition of the Initial Supersystem Wavefunction
    1    -533.3840390294      2.58e-02     ortho_decomp Preconditoned Steepest Descent
    2    -533.3859294033      6.60e-04     ortho_decomp BFGS Step
    3    -533.3859353011      4.30e-05     ortho_decomp BFGS Step
    4    -533.3859353087      1.70e-06     ortho_decomp BFGS Step
    5    -533.3859353088      7.23e-08     ortho_decomp 00000 Convergence criterion met
 Hartree-Fock
 Hartree-Fock
 Hartree-Fock
Doing General SCFMI
 Exchange:     0.1670 Hartree-Fock + 1.0000 wB97X-V + LR-HF
 Correlation:  1.0000 wB97X-V
 Using Euler-Maclaurin-Lebedev (99,590) quadrature formula
 Nonlocal Correlation:  VV10 with C = 0.0100 and b = 6.00 and scale = 1.00000
 Grid used for NLC:  SG-1 standard quadrature
performing fock build at end of subrot_r(subrot) constructor so that all methods have access
<S^2> of initial wavefunction before polarization iterations 0.0000000000
Beginning iterations for the determination of the polarized wavefunction
Energy prior to optimization (guess energy) = -533.553958307983
Begin Timing: Total SCF Calculation
begin iterations for algorithm: DIIS         
the SCF tolerance is set to 1.00e-08
    1    -533.5539583080      6.09e-05     00000 
    2    -533.5542316884      2.55e-05     00000 
    3    -533.5542565213      1.79e-05     00000 
    4    -533.5542675077      4.95e-06     00000 
    5    -533.5542687528      2.53e-06     00000 
    6    -533.5542692261      1.18e-06     00000 
    7    -533.5542693222      5.77e-07     00000 
    8    -533.5542693422      1.92e-07     00000 
    9    -533.5542693438      9.47e-08     00000 
   10    -533.5542693441      3.91e-08     00000 
   11    -533.5542693441      1.78e-08     00000 
   12    -533.5542693442      8.60e-09     00000 Convergence criterion met
write pseudocanon occs and virts to disk
write pseudocanon orbital energies to disk
Timing for Total SCF: 3999.00s (wall), 7896.27s (cpu)
<S^2> of polarized wavefunction after polarization iterations 0.0000000000
relaxing scfmi constraint to allow all rotations in the entire AO span
Doing General SCFMI
 Exchange:     0.1670 Hartree-Fock + 1.0000 wB97X-V + LR-HF
 Correlation:  1.0000 wB97X-V
 Using Euler-Maclaurin-Lebedev (99,590) quadrature formula
 Nonlocal Correlation:  VV10 with C = 0.0100 and b = 6.00 and scale = 1.00000
 Grid used for NLC:  SG-1 standard quadrature
performing fock build at end of subrot_r(subrot) constructor so that all methods have access
<S^2> of polarized wavefunction before ct-allowed iterations 0.0000000000
Beginning iterations for the determination of the CT-Allowed wavefunction
Energy prior to optimization (guess energy) = -533.554269344159
Begin Timing: Total SCF Calculation
begin iterations for algorithm: DIIS         
the SCF tolerance is set to 1.00e-08
    1    -533.5542693442      8.66e-05     00000 
    2    -533.5551089900      8.43e-06     00000 
    3    -533.5551298019      1.33e-06     00000 
    4    -533.5551303139      9.74e-07     00000 
    5    -533.5551304015      1.94e-07     00000 
    6    -533.5551304093      8.64e-08     00000 
    7    -533.5551304102      2.17e-08     00000 
    8    -533.5551304103      9.63e-09     00000 Convergence criterion met
write pseudocanon occs and virts to disk
write pseudocanon orbital energies to disk
Timing for Total SCF: 2544.00s (wall), 5066.58s (cpu)
<S^2> of ct_allowed wavefunction after ct-allowed iterations 0.0000000000

================================
        Results of EDA2         
================================
Basic EDA Quantities
--------------------
Fragment Energies (Ha):
1 -267.9734857881
2 -265.5701449539
--------------------
  E_prp (kJ/mol) = 0.0000
  E_sol (kJ/mol) = 37.8372
  E_frz (kJ/mol) = -43.1770
  E_pol (kJ/mol) = -0.8166
  E_vct (kJ/mol) = -2.2608
  E_int (kJ/mol) = -8.4172
--------------------


Initial Wavefunction Decomposition
--------------------
  --------------------
  Orthogonal Fragment Subspace Decomposition:
  --------------------
     E_elec   (ELEC)   (kJ/mol) = -58.4292
     E_pauli  (PAULI)  (kJ/mol) = 28.2751
     E_disp   (DISP)   (kJ/mol) = -13.0229
     --------------------
     Terms summing to E_pauli:
     --------------------
        E_kep_pauli       (kJ/mol) = 36.0303
        E_disp_free_pauli (kJ/mol) = -7.7552
  --------------------
  Classical Frozen Decomposition:
  --------------------
     E_cls_elec  (CLS ELEC)  (kJ/mol) = -46.7623
     E_cls_pauli (CLS PAULI) (kJ/mol) = 3.5853
    [E_mod_pauli (MOD PAULI) (kJ/mol) = 16.6081 (CLS PAULI - DISP from orthogonal decomposition) ]
  --------------------
--------------------

Simplified EDA Summary (kJ/mol)
--------------------
 PREPARATION     0.0000
 SOLVATION       37.8372
 FROZEN          -30.1541      (does not include dispersion)
[PAULI           28.2751]     (if this is negligible, then frozen describes electrostatics)
 DISPERSION      -13.0229
 POLARIZATION    -0.8166
 CHARGE TRANSFER -2.2608
 TOTAL           -8.4172     (PRP + SOL + FRZ + DISP + POL + CT)
--------------------
 
 --------------------------------------------------------------
 
                    Orbital Energies (a.u.)
 --------------------------------------------------------------
 
 Alpha MOs
 -- Occupied --
-19.1549 -19.1544 -14.4569 -14.3845 -10.3538 -10.3159 -10.2839 -10.2822
-10.2576 -10.2556 -10.2519  -1.1655  -1.1508  -1.0652  -0.9925  -0.8935
 -0.8889  -0.8208  -0.7528  -0.7212  -0.6860  -0.6597  -0.6199  -0.5636
 -0.5603  -0.5576  -0.5513  -0.5367  -0.5285  -0.5111  -0.5078  -0.4921
 -0.4824  -0.4768  -0.4491  -0.4365  -0.3759  -0.3750  -0.3655  -0.3541
 -0.3459  -0.3197
 -- Virtual --
  0.0627   0.0777   0.0823   0.0899   0.0961   0.1071   0.1099   0.1191
  0.1213   0.1227   0.1353   0.1368   0.1425   0.1513   0.1528   0.1578
  0.1689   0.1738   0.1776   0.1832   0.1898   0.1934   0.1996   0.2041
  0.2125   0.2162   0.2286   0.2332   0.2384   0.2441   0.2522   0.2534
  0.2617   0.2673   0.2730   0.2770   0.2846   0.2891   0.2912   0.2967
  0.3030   0.3080   0.3110   0.3162   0.3203   0.3217   0.3283   0.3327
  0.3345   0.3400   0.3441   0.3508   0.3557   0.3597   0.3656   0.3662
  0.3690   0.3746   0.3762   0.3820   0.3855   0.3873   0.3933   0.4002
  0.4039   0.4101   0.4119   0.4155   0.4216   0.4279   0.4324   0.4391
  0.4415   0.4430   0.4503   0.4515   0.4586   0.4638   0.4675   0.4784
  0.4850   0.4870   0.4946   0.4965   0.4976   0.5024   0.5059   0.5101
  0.5161   0.5214   0.5255   0.5288   0.5368   0.5385   0.5467   0.5514
  0.5574   0.5653   0.5688   0.5749   0.5822   0.5866   0.5883   0.5919
  0.5973   0.6031   0.6084   0.6156   0.6233   0.6303   0.6397   0.6472
  0.6507   0.6587   0.6618   0.6647   0.6737   0.6778   0.6827   0.6886
  0.6931   0.7008   0.7095   0.7119   0.7213   0.7226   0.7263   0.7324
  0.7389   0.7424   0.7461   0.7500   0.7596   0.7703   0.7754   0.7760
  0.7801   0.7836   0.7894   0.7952   0.7993   0.8054   0.8091   0.8216
  0.8255   0.8270   0.8310   0.8412   0.8433   0.8525   0.8606   0.8626
  0.8660   0.8743   0.8844   0.8878   0.8935   0.9040   0.9116   0.9262
  0.9337   0.9419   0.9523   0.9553   0.9677   0.9820   1.0002   1.0054
  1.0139   1.0283   1.0324   1.0501   1.0582   1.0669   1.0741   1.0941
  1.1026   1.1095   1.1181   1.1304   1.1370   1.1463   1.1686   1.1694
  1.1773   1.1805   1.1956   1.2152   1.2309   1.2331   1.2510   1.2567
  1.2662   1.2827   1.2895   1.3024   1.3180   1.3247   1.3383   1.3411
  1.3715   1.3834   1.3993   1.4041   1.4366   1.4457   1.4589   1.4723
  1.4747   1.4903   1.5028   1.5240   1.5460   1.5839   1.6047   1.6266
  1.6327   1.6453   1.6588   1.6943   1.7168   1.7374   1.7444   1.7898
  1.8196   1.8515   1.8572   1.8685   1.8849   1.8960   1.9036   1.9160
  1.9299   1.9323   1.9410   1.9584   1.9663   1.9706   1.9778   1.9804
  1.9913   1.9983   2.0023   2.0032   2.0226   2.0266   2.0388   2.0525
  2.0595   2.0636   2.0753   2.0958   2.0987   2.1411   2.1512   2.1676
  2.2079   2.2151   2.2341   2.2530   2.2606   2.2814   2.2853   2.3024
  2.3255   2.3445   2.3605   2.3727   2.3871   2.4000   2.4237   2.4364
  2.4594   2.4818   2.4891   2.4907   2.4966   2.5214   2.5382   2.5701
  2.5841   2.5873   2.6054   2.6117   2.6234   2.6337   2.6417   2.6644
  2.6796   2.6989   2.7156   2.7293   2.7343   2.7682   2.7781   2.7829
  2.8014   2.8157   2.8297   2.8347   2.8566   2.8705   2.8907   2.9034
  2.9146   2.9346   2.9465   2.9683   2.9967   3.0308   3.0582   3.0640
  3.0854   3.0902   3.0971   3.1170   3.1317   3.1436   3.1502   3.1670
  3.1732   3.1824   3.1910   3.2213   3.2361   3.2551   3.2691   3.2798
  3.2911   3.3026   3.3102   3.3194   3.3267   3.3435   3.3473   3.3595
  3.3818   3.3901   3.4029   3.4089   3.4177   3.4212   3.4434   3.4497
  3.4650   3.4748   3.5028   3.5209   3.5295   3.5355   3.5398   3.5521
  3.5800   3.5892   3.5987   3.6028   3.6161   3.6421   3.6498   3.6678
  3.6776   3.6885   3.7253   3.7337   3.7472   3.7541   3.7623   3.7642
  3.7721   3.8146   3.8254   3.8298   3.8408   3.8762   3.8942   3.9422
  3.9646   3.9696   4.0344   4.0624   4.0858   4.0882   4.1225   4.1331
  4.1583   4.1909   4.2301   4.2433   4.2743   4.3087   4.4243   4.4410
  4.4522   4.4999   4.5289   4.5516   4.5848   4.6247   4.6437   4.6621
  4.6869   4.7354   4.7708   4.7719   4.8335   4.8398   4.8699   4.8876
  4.9091   4.9911   5.0023   5.0255   5.0348   5.0489   5.0569   5.0791
  5.1169   5.1776   5.2399   5.2524   5.3055   5.3115   5.3362   5.3469
  5.3547   5.3950   5.4671   5.4766   5.5149   5.5431   5.6307   5.6357
  5.6875   5.7139   5.7351   5.7453   5.7853   5.8016   5.8306   5.9364
  5.9925   6.0475   6.2213   6.2568   6.3242   6.3308   6.3417   6.5936
  6.6257   6.7102   6.7553   6.7666   6.9424   6.9862   7.0464   7.2311
  7.3243   7.3704   7.4034  22.6225  22.6344  22.8036  22.9729  23.1892
 23.3774  23.7295  32.7594  32.8355  44.3491  44.4396
 --------------------------------------------------------------
 
          Ground-State Mulliken Net Atomic Charges

     Atom                 Charge (a.u.)
  ----------------------------------------
      1 C                     0.247706
      2 C                    -1.131097
      3 C                     0.481963
      4 O                    -0.785834
      5 O                    -0.808672
      6 H                    -0.026842
      7 H                     0.260794
      8 H                     0.245757
      9 H                     0.265178
     10 H                     0.274405
     11 C                    -0.866603
     12 C                    -0.241940
     13 C                     0.248112
     14 C                    -0.388186
     15 N                    -0.561803
     16 N                     0.235503
     17 H                     0.400026
     18 H                     0.054175
     19 H                     0.366942
     20 H                     0.246444
     21 H                     0.232608
     22 H                     0.251362
  ----------------------------------------
  Sum of atomic charges =    -1.000000

 -----------------------------------------------------------------
                    Cartesian Multipole Moments
 -----------------------------------------------------------------
    Charge (ESU x 10^10)
                -4.8032
    Dipole Moment (Debye)
         X      -5.0963      Y      -4.2380      Z      10.6104
       Tot      12.5105
    Quadrupole Moments (Debye-Ang)
        XX     -73.7832     XY      -6.1439     YY     -66.6684
        XZ       6.3418     YZ      -3.3850     ZZ    -130.1069
    Octopole Moments (Debye-Ang^2)
       XXX      -1.7492    XXY      -3.8524    XYY      -0.3370
       YYY     -21.2686    XXZ       1.1450    XYZ       3.3809
       YYZ       9.4626    XZZ     -17.5105    YZZ     -21.0344
       ZZZ     143.9395
    Hexadecapole Moments (Debye-Ang^3)
      XXXX    -489.4513   XXXY     176.9572   XXYY    -229.1960
      XYYY     172.2609   YYYY    -774.8908   XXXZ    -299.0068
      XXYZ     168.2570   XYYZ     -87.2701   YYYZ     467.0689
      XXZZ    -580.4627   XYZZ      17.9247   YYZZ    -605.7083
      XZZZ    -288.5201   YZZZ     371.3217   ZZZZ   -3565.2478
 -----------------------------------------------------------------
Archival summary:
1\1\nid00543\SP\ProcedureUnspecified\BasisUnspecified\22711(1-,1)\meili\SunSep2623:17:212021SunSep2623:17:212021\0\\#,ProcedureUnspecified,BasisUnspecified,\\-1,1\N\H,1,1.00862\C,1,1.33148,2,125.919\H,3,1.08411,1,129.383,2,0.326527,0\N,3,1.32745,1,108.593,2,-179.755,0\C,1,1.37115,2,125.172,3,-179.775,0\H,6,1.07392,1,121.896,2,-0.22296,0\C,6,1.36366,1,107.195,2,179.743,0\C,8,1.5116,6,130.002,1,-178.902,0\H,9,1.0863,8,106.821,6,9.72957,0\H,9,1.09053,8,106.827,6,126.615,0\H,9,1.1,8,113.451,6,-112.927,0\H,2,2.07044,1,114.43,3,-29.9218,0\C,13,1.08774,2,121.477,1,155.866,0\H,14,1.09162,13,108.787,2,86.4857,0\C,14,1.53708,13,109.293,2,-33.1947,0\O,16,1.2528,14,118.999,13,-52.2046,0\O,16,1.25432,14,118.484,13,130.179,0\C,14,1.54318,13,106.809,2,-154.827,0\H,19,1.0911,14,108.644,13,64.829,0\H,19,1.09999,14,113.687,13,178.696,0\H,19,1.1,14,107.726,13,-55.1462,0\\\@

 Total job time:  36508.41s(wall), 23934.52s(cpu) 
 Sun Sep 26 23:17:23 2021

        *************************************************************
        *                                                           *
        *  Thank you very much for using Q-Chem.  Have a nice day.  *
        *                                                           *
        *************************************************************


