
Running Job 1 of 1 SSI-007PHE-035PHE-1_SMD_TZVPD.in
qchem SSI-007PHE-035PHE-1_SMD_TZVPD.in_62983.0 /tmp/qchem62983/ 0
/global/common/cori/software/qchem/5.2/exe/qcprog.exe_s SSI-007PHE-035PHE-1_SMD_TZVPD.in_62983.0 /tmp/qchem62983/
                  Welcome to Q-Chem
     A Quantum Leap Into The Future Of Chemistry


 Q-Chem 5.2, Q-Chem, Inc., Pleasanton, CA (2019)

 License issued to: National Energy Research Scientific Computing Center

 Yihan Shao,  Zhengting Gan,  E. Epifanovsky,  A. T. B. Gilbert,  M. Wormit,  
 J. Kussmann,  A. W. Lange,  A. Behn,  Jia Deng,  Xintian Feng,  D. Ghosh,  
 M. Goldey,  P. R. Horn,  L. D. Jacobson,  I. Kaliman,  T. Kus,  A. Landau,  
 Jie Liu,  E. I. Proynov,  R. M. Richard,  R. P. Steele,  E. J. Sundstrom,  
 H. L. Woodcock III,  P. M. Zimmerman,  D. Zuev,  B. Albrecht,  E. Alguire,  
 S. A. Baeppler,  D. Barton,  Z. Benda,  Y. A. Bernard,  E. J. Berquist,  
 K. B. Bravaya,  H. Burton,  D. Casanova,  Chun-Min Chang,  Yunqing Chen,  
 A. Chien,  K. D. Closser,  M. P. Coons,  S. Coriani,  S. Dasgupta,  
 A. L. Dempwolff,  M. Diedenhofen,  Hainam Do,  R. G. Edgar,  Po-Tung Fang,  
 S. Faraji,  S. Fatehi,  Qingguo Feng,  K. D. Fenk,  J. Fosso-Tande,  
 J. Gayvert,  Qinghui Ge,  A. Ghysels,  G. Gidofalvi,  J. Gomes,  
 J. Gonthier,  A. Gunina,  D. Hait,  M. W. D. Hanson-Heine,  
 P. H. P. Harbach,  A. W. Hauser,  M. F. Herbst,  J. E. Herr,  
 E. G. Hohenstein,  Z. C. Holden,  Kerwin Hui,  B. C. Huynh,  T.-C. Jagau,  
 Hyunjun Ji,  B. Kaduk,  K. Khistyaev,  Jaehoon Kim,  P. Klunzinger,  K. Koh,  
 D. Kosenkov,  L. Koulias,  T. Kowalczyk,  C. M. Krauter,  A. Kunitsa,  
 Ka Un Lao,  A. Laurent,  K. V. Lawler,  Joonho Lee,  D. Lefrancois,  
 S. Lehtola,  D. S. Levine,  Yi-Pei Li,  You-Sheng Lin,  Fenglai Liu,  
 E. Livshits,  A. Luenser,  P. Manohar,  E. Mansoor,  S. F. Manzer,  
 Shan-Ping Mao,  Yuezhi Mao,  N. Mardirossian,  A. V. Marenich,  
 T. Markovich,  L. A. Martinez-Martinez,  S. A. Maurer,  N. J. Mayhall,  
 S. C. McKenzie,  J.-M. Mewes,  P. Morgante,  A. F. Morrison,  
 J. W. Mullinax,  K. Nanda,  T. S. Nguyen-Beck,  R. Olivares-Amaya,  
 J. A. Parkhill,  Zheng Pei,  T. M. Perrine,  F. Plasser,  P. Pokhilko,  
 S. Prager,  A. Prociuk,  E. Ramos,  D. R. Rehn,  F. Rob,  M. Scheurer,  
 M. Schneider,  N. Sergueev,  S. M. Sharada,  S. Sharma,  D. W. Small,  
 T. Stauch,  T. Stein,  Yu-Chuan Su,  A. J. W. Thom,  A. Tkatchenko,  
 T. Tsuchimochi,  N. M. Tubman,  L. Vogt,  M. L. Vidal,  O. Vydrov,  
 M. A. Watson,  J. Wenzel,  M. de Wergifosse,  T. A. Wesolowski,  A. White,  
 J. Witte,  A. Yamada,  Jun Yang,  K. Yao,  S. Yeganeh,  S. R. Yost,  
 Zhi-Qiang You,  A. Zech,  Igor Ying Zhang,  Xing Zhang,  Yan Zhao,  
 Ying Zhu,  B. R. Brooks,  G. K. L. Chan,  C. J. Cramer,  M. S. Gordon,  
 W. J. Hehre,  A. Klamt,  M. W. Schmidt,  C. D. Sherrill,  D. G. Truhlar,  
 A. Aspuru-Guzik,  R. Baer,  A. T. Bell,  N. A. Besley,  Jeng-Da Chai,  
 A. E. DePrince, III,  R. A. DiStasio Jr.,  A. Dreuw,  B. D. Dunietz,  
 T. R. Furlani,  Chao-Ping Hsu,  Yousung Jung,  Jing Kong,  D. S. Lambrecht,  
 WanZhen Liang,  C. Ochsenfeld,  V. A. Rassolov,  L. V. Slipchenko,  
 J. E. Subotnik,  T. Van Voorhis,  J. M. Herbert,  A. I. Krylov,  
 P. M. W. Gill,  M. Head-Gordon

 Contributors to earlier versions of Q-Chem not listed above: 
 R. D. Adamson,  B. Austin,  J. Baker,  G. J. O. Beran,  K. Brandhorst,  
 S. T. Brown,  E. F. C. Byrd,  A. K. Chakraborty,  C.-L. Cheng,  
 Siu Hung Chien,  D. M. Chipman,  D. L. Crittenden,  H. Dachsel,  
 R. J. Doerksen,  A. D. Dutoi,  L. Fusti-Molnar,  W. A. Goddard III,  
 A. Golubeva-Zadorozhnaya,  S. R. Gwaltney,  G. Hawkins,  A. Heyden,  
 S. Hirata,  G. Kedziora,  F. J. Keil,  C. Kelley,  Jihan Kim,  R. A. King,  
 R. Z. Khaliullin,  P. P. Korambath,  W. Kurlancheek,  A. M. Lee,  M. S. Lee,  
 S. V. Levchenko,  Ching Yeh Lin,  D. Liotard,  R. C. Lochan,  I. Lotan,  
 P. E. Maslen,  N. Nair,  D. P. O'Neill,  D. Neuhauser,  E. Neuscamman,  
 C. M. Oana,  R. Olson,  B. Peters,  R. Peverati,  P. A. Pieniazek,  
 Y. M. Rhee,  J. Ritchie,  M. A. Rohrdanz,  E. Rosta,  N. J. Russ,  
 H. F. Schaefer III,  N. E. Schultz,  N. Shenvi,  A. C. Simmonett,  A. Sodt,  
 D. Stuck,  K. S. Thanthiriwatte,  V. Vanovschi,  Tao Wang,  A. Warshel,  
 C. F. Williams,  Q. Wu,  X. Xu,  W. Zhang

 Please cite Q-Chem as follows:
 Y. Shao et al., Mol. Phys. 113, 184-215 (2015)
 DOI: 10.1080/00268976.2014.952696

 Q-Chem 5.2.0 for Intel X86 EM64T Linux

 Parts of Q-Chem use Armadillo 8.300.2 (Tropical Shenanigans).
 http://arma.sourceforge.net/

 Q-Chem begins on Sun Sep 26 02:02:06 2021  

Host: cori01
0

     Scratch files written to /tmp/qchem62983//
 May1019 |scratch|qcdevops|jenkins|workspace|build_RNUM -1
Processing $rem in /global/common/cori/software/qchem/5.2/config/preferences:
	 MEM_TOTAL  96000 
NAlpha2: 100
NElect   100
Mult     1
Symmetry turned off for PCM/SM12/SMD calculation

 Q-Chem warning in module libgen/rem_setup.C, line 2803:

 Neither GIA nor STOLL is specified by user. Use STOLL as the default


Checking the input file for inconsistencies... 	...done.

--------------------------------------------------------------
User input:
--------------------------------------------------------------
$comment
SSI-007PHE-035PHE-1.pdb
$end

$molecule
0 1
--
0 1
C   -3.776415663082   -1.691445438252    3.723332636115
C   -1.544415663082    0.600554561748    0.855332636115
C   -0.960415663082    0.280554561748    2.059332636115
C   -2.837415663082    0.184554561748    0.581332636115
C   -1.663415663082   -0.468445438252    3.005332636115
C   -3.538415663082   -0.560445438252    1.522332636115
C   -2.968415663082   -0.888445438252    2.744332636115
H   -0.997415663082    1.185554561748    0.129332636115
H    0.045584336918    0.615554561748    2.272332636115
H   -3.291415663082    0.399554561748   -0.370667363885
H   -1.194415663082   -0.643445438252    3.944332636115
H   -4.542415663082   -0.889445438252    1.294332636115
H   -4.161415663082   -2.566445438252    3.211332636115
H   -4.630415663082   -1.074445438252    4.006332636115
H   -3.263445663082   -2.001529438252    4.645672636115
--
0 1
C    4.757584336918    1.075554561748   -2.717667363885
C    0.782584336918   -0.141445438252   -1.651667363885
C    0.985584336918    0.874554561748   -2.565667363885
C    1.866584336918   -0.753445438252   -1.058667363885
C    2.268584336918    1.273554561748   -2.893667363885
C    3.153584336918   -0.369445438252   -1.400667363885
C    3.364584336918    0.661554561748   -2.308667363885
H   -0.220415663082   -0.459445438252   -1.407667363885
H    0.136584336918    1.346554561748   -3.027667363885
H    1.707584336918   -1.544445438252   -0.339667363885
H    2.408584336918    2.067554561748   -3.613667363885
H    3.994584336918   -0.858445438252   -0.936667363885
H    4.716584336918    1.408554561748   -3.757667363885
H    5.414584336918    0.204554561748   -2.689667363885
H    5.184864336918    1.883844561748   -2.106027363885
$end

$rem
JOBTYPE			EDA
EDA2			1
method			wB97X-V
BASIS			def2-TZVPD
XC_GRID			000099000590
NL_GRID			1
UNRESTRICTED		FALSE
MAX_SCF_CYCLES		200
SYMMETRY		FALSE
SYM_IGNORE		TRUE
MEM_STATIC		2000
BASIS_LIN_DEP_THRESH 	6
THRESH 			14
SCF_CONVERGENCE 	8
SCF_PRINT_FRGM 		TRUE
SOLVENT_METHOD          SMD
$end

$SMX
SOLVENT			WATER
$END
--------------------------------------------------------------
 ----------------------------------------------------------------
             Standard Nuclear Orientation (Angstroms)
    I     Atom           X                Y                Z
 ----------------------------------------------------------------
    1      C      -3.7764156631    -1.6914454383     3.7233326361
    2      C      -1.5444156631     0.6005545617     0.8553326361
    3      C      -0.9604156631     0.2805545617     2.0593326361
    4      C      -2.8374156631     0.1845545617     0.5813326361
    5      C      -1.6634156631    -0.4684454383     3.0053326361
    6      C      -3.5384156631    -0.5604454383     1.5223326361
    7      C      -2.9684156631    -0.8884454383     2.7443326361
    8      H      -0.9974156631     1.1855545617     0.1293326361
    9      H       0.0455843369     0.6155545617     2.2723326361
   10      H      -3.2914156631     0.3995545617    -0.3706673639
   11      H      -1.1944156631    -0.6434454383     3.9443326361
   12      H      -4.5424156631    -0.8894454383     1.2943326361
   13      H      -4.1614156631    -2.5664454383     3.2113326361
   14      H      -4.6304156631    -1.0744454383     4.0063326361
   15      H      -3.2634456631    -2.0015294383     4.6456726361
   16      C       4.7575843369     1.0755545617    -2.7176673639
   17      C       0.7825843369    -0.1414454383    -1.6516673639
   18      C       0.9855843369     0.8745545617    -2.5656673639
   19      C       1.8665843369    -0.7534454383    -1.0586673639
   20      C       2.2685843369     1.2735545617    -2.8936673639
   21      C       3.1535843369    -0.3694454383    -1.4006673639
   22      C       3.3645843369     0.6615545617    -2.3086673639
   23      H      -0.2204156631    -0.4594454383    -1.4076673639
   24      H       0.1365843369     1.3465545617    -3.0276673639
   25      H       1.7075843369    -1.5444454383    -0.3396673639
   26      H       2.4085843369     2.0675545617    -3.6136673639
   27      H       3.9945843369    -0.8584454383    -0.9366673639
   28      H       4.7165843369     1.4085545617    -3.7576673639
   29      H       5.4145843369     0.2045545617    -2.6896673639
   30      H       5.1848643369     1.8838445617    -2.1060273639
 ----------------------------------------------------------------
 Nuclear Repulsion Energy =         749.82304103 hartrees
 There are       50 alpha and       50 beta electrons
 Requested basis set is def2-TZVPD
 There are 262 shells and 662 basis functions

 Total QAlloc Memory Limit  96000 MB
 Mega-Array Size      1956 MB
 MEM_STATIC part      2000 MB
 
 Citation of the SMD model:
 Marenich, A.V.; Cramer, C.J.; Truhlar, D.G.
 J. Phys. Chem. B 2009, 113, 6378-6396.
 iSolventCode=           1
 Solvent: water                                                           
 
 vradii
            1           2           3           4           5           6
    1   1.8500000   1.8500000   1.8500000   1.8500000   1.8500000   1.8500000
            7           8           9          10          11          12
    1   1.8500000   1.2000000   1.2000000   1.2000000   1.2000000   1.2000000
           13          14          15          16          17          18
    1   1.2000000   1.2000000   1.2000000   1.8500000   1.8500000   1.8500000
           19          20          21          22          23          24
    1   1.8500000   1.8500000   1.8500000   1.8500000   1.2000000   1.2000000
           25          26          27          28          29          30
    1   1.2000000   1.2000000   1.2000000   1.2000000   1.2000000   1.2000000
 Changing PCM_VDW_RADII to SMD_RADIUS
 Discretize the solute cavity surface with Lebedev spheres
	Using 110 Lebedev grid points for each H atom
	Using 194 Lebedev grid points for other atoms
	Atomic van der Waals radii will be scaled by 1.20
 Remove points where switching function is < 1.0e-08
 Keep 2180 surface tesserae and discard 2296 interior tesserae
 Molecular Surface Area = 259.526 Angst**2
 A cutoff of  1.0D-14 yielded  27702 shell pairs
 There are    177196 function pairs (    223261 Cartesian)
 Smallest overlap matrix eigenvalue = 4.52E-07
 Linear dependence detected in AO basis
 Tighter screening thresholds may be required for diffuse basis sets
 Use S2THRESH > 14 and THRESH = 14 in case of SCF convergence issues
 Number of orthogonalized atomic orbitals = 659
 Maximum deviation from orthogonality = 2.032E-10

 Scale SEOQF with 1.000000e-02/1.000000e-01/1.000000e-01

 Standard Electronic Orientation quadrupole field applied
 Nucleus-field energy     =    -0.0000000500 hartrees

 -----------------------------------------------------------------------
  General SCF calculation program by
  Eric Jon Sundstrom, Paul Horn, Yuezhi Mao, Dmitri Zuev, Alec White,
  David Stuck, Shaama M.S., Shane Yost, Joonho Lee, David Small,
  Daniel Levine, Susi Lehtola, Hugh Burton, Evgeny Epifanovsky
 -----------------------------------------------------------------------
================================================================
                 ALMO-EDA with the EDA2 driver                  
================================================================
 The second-generation ALMO-EDA (for DFT):                      
 P. R. Horn, Y. Mao and M. Head-Gordon, PCCP, 18, 23067 (2016)  
 Decomposition of the frozen energy:                            
 P. R. Horn, Y. Mao and M. Head-Gordon, JCP, 144, 114107 (2016) 
 FERF model for polarization:                                   
 P. R. Horn and M. Head-Gordon, JCP, 143, 114111 (2015)         
Using eda2 option set 1
Option set summary: Frozen orbital wavefunction, initial wavefunction decomposition, and nDQ polarization.
--------------------------------
Printing EDA Options
--------------------------------
eda_child_super_basis      0
fragmo_guess_mode          0
child_mp                   1
child_mp_orders            232
cls_elec                   1
cls_disp                   0
scfmi_mode                 1
scfmi_occs                 0
scfmi_virts                0
frz_relax                  0
frz_relax_method           0
dc_pen_start               0
dc_pen_conv                0
dc_pen_increment           0
dc_pen_steps               0
dc_pen_thresh_factor       0
dc_pen_pre_newton_thresh   0
frz_ortho_decomp           1
frz_ortho_decomp_conv      6
frgm_method                2
scfmi_freeze_ss            0
separate_rehyb             0
plot_diff_den              0
eda_nocv                   0
eda_vct_relax              1
disp_free_x                0
disp_free_c                0
eda_bsse                   0
eda_pct_a                  0
eda_covp                   0
--------------------------------
Attempting to make child job directory: /tmp/qchem62983//Frg1/
Attempting to make child job directory: /tmp/qchem62983//Frg2/
Creating input file /tmp/qchem62983/Frg1.input
using default PutDataFrgm: nothing
calling putenv with: QCSCRATCH=/tmp/qchem62983/ 
calling putenv with: QCLOCALSCR=/tmp/qchem62983/ 
Spawning Job For Fragment 0
                  Welcome to Q-Chem
     A Quantum Leap Into The Future Of Chemistry


 Q-Chem 5.2, Q-Chem, Inc., Pleasanton, CA (2019)

 License issued to: National Energy Research Scientific Computing Center

 Yihan Shao,  Zhengting Gan,  E. Epifanovsky,  A. T. B. Gilbert,  M. Wormit,  
 J. Kussmann,  A. W. Lange,  A. Behn,  Jia Deng,  Xintian Feng,  D. Ghosh,  
 M. Goldey,  P. R. Horn,  L. D. Jacobson,  I. Kaliman,  T. Kus,  A. Landau,  
 Jie Liu,  E. I. Proynov,  R. M. Richard,  R. P. Steele,  E. J. Sundstrom,  
 H. L. Woodcock III,  P. M. Zimmerman,  D. Zuev,  B. Albrecht,  E. Alguire,  
 S. A. Baeppler,  D. Barton,  Z. Benda,  Y. A. Bernard,  E. J. Berquist,  
 K. B. Bravaya,  H. Burton,  D. Casanova,  Chun-Min Chang,  Yunqing Chen,  
 A. Chien,  K. D. Closser,  M. P. Coons,  S. Coriani,  S. Dasgupta,  
 A. L. Dempwolff,  M. Diedenhofen,  Hainam Do,  R. G. Edgar,  Po-Tung Fang,  
 S. Faraji,  S. Fatehi,  Qingguo Feng,  K. D. Fenk,  J. Fosso-Tande,  
 J. Gayvert,  Qinghui Ge,  A. Ghysels,  G. Gidofalvi,  J. Gomes,  
 J. Gonthier,  A. Gunina,  D. Hait,  M. W. D. Hanson-Heine,  
 P. H. P. Harbach,  A. W. Hauser,  M. F. Herbst,  J. E. Herr,  
 E. G. Hohenstein,  Z. C. Holden,  Kerwin Hui,  B. C. Huynh,  T.-C. Jagau,  
 Hyunjun Ji,  B. Kaduk,  K. Khistyaev,  Jaehoon Kim,  P. Klunzinger,  K. Koh,  
 D. Kosenkov,  L. Koulias,  T. Kowalczyk,  C. M. Krauter,  A. Kunitsa,  
 Ka Un Lao,  A. Laurent,  K. V. Lawler,  Joonho Lee,  D. Lefrancois,  
 S. Lehtola,  D. S. Levine,  Yi-Pei Li,  You-Sheng Lin,  Fenglai Liu,  
 E. Livshits,  A. Luenser,  P. Manohar,  E. Mansoor,  S. F. Manzer,  
 Shan-Ping Mao,  Yuezhi Mao,  N. Mardirossian,  A. V. Marenich,  
 T. Markovich,  L. A. Martinez-Martinez,  S. A. Maurer,  N. J. Mayhall,  
 S. C. McKenzie,  J.-M. Mewes,  P. Morgante,  A. F. Morrison,  
 J. W. Mullinax,  K. Nanda,  T. S. Nguyen-Beck,  R. Olivares-Amaya,  
 J. A. Parkhill,  Zheng Pei,  T. M. Perrine,  F. Plasser,  P. Pokhilko,  
 S. Prager,  A. Prociuk,  E. Ramos,  D. R. Rehn,  F. Rob,  M. Scheurer,  
 M. Schneider,  N. Sergueev,  S. M. Sharada,  S. Sharma,  D. W. Small,  
 T. Stauch,  T. Stein,  Yu-Chuan Su,  A. J. W. Thom,  A. Tkatchenko,  
 T. Tsuchimochi,  N. M. Tubman,  L. Vogt,  M. L. Vidal,  O. Vydrov,  
 M. A. Watson,  J. Wenzel,  M. de Wergifosse,  T. A. Wesolowski,  A. White,  
 J. Witte,  A. Yamada,  Jun Yang,  K. Yao,  S. Yeganeh,  S. R. Yost,  
 Zhi-Qiang You,  A. Zech,  Igor Ying Zhang,  Xing Zhang,  Yan Zhao,  
 Ying Zhu,  B. R. Brooks,  G. K. L. Chan,  C. J. Cramer,  M. S. Gordon,  
 W. J. Hehre,  A. Klamt,  M. W. Schmidt,  C. D. Sherrill,  D. G. Truhlar,  
 A. Aspuru-Guzik,  R. Baer,  A. T. Bell,  N. A. Besley,  Jeng-Da Chai,  
 A. E. DePrince, III,  R. A. DiStasio Jr.,  A. Dreuw,  B. D. Dunietz,  
 T. R. Furlani,  Chao-Ping Hsu,  Yousung Jung,  Jing Kong,  D. S. Lambrecht,  
 WanZhen Liang,  C. Ochsenfeld,  V. A. Rassolov,  L. V. Slipchenko,  
 J. E. Subotnik,  T. Van Voorhis,  J. M. Herbert,  A. I. Krylov,  
 P. M. W. Gill,  M. Head-Gordon

 Contributors to earlier versions of Q-Chem not listed above: 
 R. D. Adamson,  B. Austin,  J. Baker,  G. J. O. Beran,  K. Brandhorst,  
 S. T. Brown,  E. F. C. Byrd,  A. K. Chakraborty,  C.-L. Cheng,  
 Siu Hung Chien,  D. M. Chipman,  D. L. Crittenden,  H. Dachsel,  
 R. J. Doerksen,  A. D. Dutoi,  L. Fusti-Molnar,  W. A. Goddard III,  
 A. Golubeva-Zadorozhnaya,  S. R. Gwaltney,  G. Hawkins,  A. Heyden,  
 S. Hirata,  G. Kedziora,  F. J. Keil,  C. Kelley,  Jihan Kim,  R. A. King,  
 R. Z. Khaliullin,  P. P. Korambath,  W. Kurlancheek,  A. M. Lee,  M. S. Lee,  
 S. V. Levchenko,  Ching Yeh Lin,  D. Liotard,  R. C. Lochan,  I. Lotan,  
 P. E. Maslen,  N. Nair,  D. P. O'Neill,  D. Neuhauser,  E. Neuscamman,  
 C. M. Oana,  R. Olson,  B. Peters,  R. Peverati,  P. A. Pieniazek,  
 Y. M. Rhee,  J. Ritchie,  M. A. Rohrdanz,  E. Rosta,  N. J. Russ,  
 H. F. Schaefer III,  N. E. Schultz,  N. Shenvi,  A. C. Simmonett,  A. Sodt,  
 D. Stuck,  K. S. Thanthiriwatte,  V. Vanovschi,  Tao Wang,  A. Warshel,  
 C. F. Williams,  Q. Wu,  X. Xu,  W. Zhang

 Please cite Q-Chem as follows:
 Y. Shao et al., Mol. Phys. 113, 184-215 (2015)
 DOI: 10.1080/00268976.2014.952696

 Q-Chem 5.2.0 for Intel X86 EM64T Linux

 Parts of Q-Chem use Armadillo 8.300.2 (Tropical Shenanigans).
 http://arma.sourceforge.net/

 Q-Chem begins on Sun Sep 26 02:02:13 2021  

Host: cori01
0

     Scratch files written to /tmp/qchem62983//Frg1//
 May1019 |scratch|qcdevops|jenkins|workspace|build_RNUM -1
Processing $rem in /global/common/cori/software/qchem/5.2/config/preferences:
	 MEM_TOTAL  96000 
NAlpha2: 50
NElect   50
Mult     1
Symmetry turned off for PCM/SM12/SMD calculation

Checking the input file for inconsistencies... 	...done.

--------------------------------------------------------------
User input:
--------------------------------------------------------------
$molecule
0 1
 6	-3.7764156631	-1.6914454383	3.7233326361
 6	-1.5444156631	0.6005545617	0.8553326361
 6	-0.9604156631	0.2805545617	2.0593326361
 6	-2.8374156631	0.1845545617	0.5813326361
 6	-1.6634156631	-0.4684454383	3.0053326361
 6	-3.5384156631	-0.5604454383	1.5223326361
 6	-2.9684156631	-0.8884454383	2.7443326361
 1	-0.9974156631	1.1855545617	0.1293326361
 1	0.0455843369	0.6155545617	2.2723326361
 1	-3.2914156631	0.3995545617	-0.3706673639
 1	-1.1944156631	-0.6434454383	3.9443326361
 1	-4.5424156631	-0.8894454383	1.2943326361
 1	-4.1614156631	-2.5664454383	3.2113326361
 1	-4.6304156631	-1.0744454383	4.0063326361
 1	-3.2634456631	-2.0015294383	4.6456726361
$end
$rem
EDA2		1
METHOD		WB97X-V
BASIS		DEF2-TZVPD
XC_GRID		000099000590
NL_GRID		1
UNRESTRICTED		FALSE
MAX_SCF_CYCLES		200
SYMMETRY		FALSE
SYM_IGNORE		TRUE
BASIS_LIN_DEP_THRESH		6
THRESH		14
SCF_CONVERGENCE		8
SCF_PRINT_FRGM		TRUE
SOLVENT_METHOD		SMD
!required keywords
JOBTYPE		SP
SYM_IGNORE		TRUE
SUBSYSTEM		TRUE
GEN_SCFMAN		TRUE
CHILD_INSTRUCTION		2
SYM_IGNORE		TRUE
SCFMI		0
RI_K 0		
PARI_K 0		
MIN_PARI_K 0		
IARI_K 0		
OCC_RI_K 0		
PURECART		1111
MEM_STATIC		2000
MEM_TOTAL		96000
GUI		0
CHILD_MP		1
CHILD_MP_ORDERS		232
FRZ_RELAX		0
FRZ_RELAX_METHOD		0
EDA_CLS_ELEC		1
EDA_CLS_DISP		0
FRZ_ORTHO_DECOMP		1
EDA2		FALSE
FRGM_METHOD		FALSE
CIS_N_ROOTS  0
LOCAL_CIS    0
CIS_RLX_DNS  1
$end
$smx
SOLVENT			WATER
$end
--------------------------------------------------------------
 ----------------------------------------------------------------
             Standard Nuclear Orientation (Angstroms)
    I     Atom           X                Y                Z
 ----------------------------------------------------------------
    1      C      -3.7764156631    -1.6914454383     3.7233326361
    2      C      -1.5444156631     0.6005545617     0.8553326361
    3      C      -0.9604156631     0.2805545617     2.0593326361
    4      C      -2.8374156631     0.1845545617     0.5813326361
    5      C      -1.6634156631    -0.4684454383     3.0053326361
    6      C      -3.5384156631    -0.5604454383     1.5223326361
    7      C      -2.9684156631    -0.8884454383     2.7443326361
    8      H      -0.9974156631     1.1855545617     0.1293326361
    9      H       0.0455843369     0.6155545617     2.2723326361
   10      H      -3.2914156631     0.3995545617    -0.3706673639
   11      H      -1.1944156631    -0.6434454383     3.9443326361
   12      H      -4.5424156631    -0.8894454383     1.2943326361
   13      H      -4.1614156631    -2.5664454383     3.2113326361
   14      H      -4.6304156631    -1.0744454383     4.0063326361
   15      H      -3.2634456631    -2.0015294383     4.6456726361
 ----------------------------------------------------------------
 Nuclear Repulsion Energy =         270.53212113 hartrees
 There are       25 alpha and       25 beta electrons
 Requested basis set is def2-TZVPD
 There are 131 shells and 331 basis functions

 Total QAlloc Memory Limit  96000 MB
 Mega-Array Size      1956 MB
 MEM_STATIC part      2000 MB
 
 Citation of the SMD model:
 Marenich, A.V.; Cramer, C.J.; Truhlar, D.G.
 J. Phys. Chem. B 2009, 113, 6378-6396.
 iSolventCode=           1
 Solvent: water                                                           
 
 vradii
            1           2           3           4           5           6
    1   1.8500000   1.8500000   1.8500000   1.8500000   1.8500000   1.8500000
            7           8           9          10          11          12
    1   1.8500000   1.2000000   1.2000000   1.2000000   1.2000000   1.2000000
           13          14          15
    1   1.2000000   1.2000000   1.2000000
 Changing PCM_VDW_RADII to SMD_RADIUS
 Discretize the solute cavity surface with Lebedev spheres
	Using 110 Lebedev grid points for each H atom
	Using 194 Lebedev grid points for other atoms
	Atomic van der Waals radii will be scaled by 1.20
 Remove points where switching function is < 1.0e-08
 Keep 1088 surface tesserae and discard 1150 interior tesserae
 Molecular Surface Area = 131.796 Angst**2

                       Distance Matrix (Angstroms)
             C (  1)   C (  2)   C (  3)   C (  4)   C (  5)   C (  6)
   C (  2)  4.296570
   C (  3)  3.819363  1.375890
   C (  4)  3.777997  1.385634  2.390989
   C (  5)  2.544803  2.404043  1.396469  2.771364
   C (  6)  2.486002  2.401842  2.764369  1.389931  2.392358
   C (  7)  1.502037  2.795213  2.422365  2.418069  1.395545  1.387720
   H (  8)  5.377435  1.080976  2.131970  2.142873  3.383881  3.383141
   H (  9)  4.694181  2.129839  1.081494  3.370005  2.152447  3.845846
   H ( 10)  4.622590  2.143708  3.369365  1.076404  3.847231  2.136834
   H ( 11)  2.795330  3.348426  2.112287  3.833380  1.064099  3.371544
   H ( 12)  2.670206  3.376511  3.845107  2.137492  3.375412  1.080852
   H ( 13)  1.084433  4.735960  4.436092  4.029625  3.268646  2.695345
   H ( 14)  1.090914  4.717820  4.369867  4.065779  3.189408  2.761687
   H ( 15)  1.100001  4.908420  4.147410  4.634579  2.757020  3.450737
             C (  7)   H (  8)   H (  9)   H ( 10)   H ( 11)   H ( 12)
   H (  8)  3.876150
   H (  9)  3.401323  2.450551
   H ( 10)  3.386222  2.475931  4.262355
   H ( 11)  2.155714  4.235360  2.432748  4.909632
   H ( 12)  2.140088  4.269646  4.926586  2.449234  4.276929
   H ( 13)  2.111166  5.795440  5.357769  4.731256  3.610860  2.575341
   H ( 14)  2.095110  5.773856  5.265722  4.808714  3.463481  2.719727
   H ( 15)  2.222857  5.974088  4.840615  5.561443  2.572383  3.755526
             H ( 13)   H ( 14)
   H ( 14)  1.754437
   H ( 15)  1.784044  1.771115
 
 A cutoff of  1.0D-14 yielded   8368 shell pairs
 There are     54522 function pairs (     69478 Cartesian)
 Smallest overlap matrix eigenvalue = 5.40E-07
 Linear dependence detected in AO basis
 Tighter screening thresholds may be required for diffuse basis sets
 Use S2THRESH > 14 and THRESH = 14 in case of SCF convergence issues
 Number of orthogonalized atomic orbitals = 330
 Maximum deviation from orthogonality = 2.199E-10

 Scale SEOQF with 1.000000e-01/1.000000e-01/1.000000e-01

 Standard Electronic Orientation quadrupole field applied
 Nucleus-field energy     =    -0.0000000153 hartrees
 Guess from superposition of atomic densities
 Warning:  Energy on first SCF cycle will be non-variational
 SAD guess density has 49.913408 electrons

 -----------------------------------------------------------------------
  General SCF calculation program by
  Eric Jon Sundstrom, Paul Horn, Yuezhi Mao, Dmitri Zuev, Alec White,
  David Stuck, Shaama M.S., Shane Yost, Joonho Lee, David Small,
  Daniel Levine, Susi Lehtola, Hugh Burton, Evgeny Epifanovsky
 -----------------------------------------------------------------------
 Exchange:     0.1670 Hartree-Fock + 1.0000 wB97X-V + LR-HF
 Correlation:  1.0000 wB97X-V
 Using Euler-Maclaurin-Lebedev (99,590) quadrature formula
 Nonlocal Correlation:  VV10 with C = 0.0100 and b = 6.00 and scale = 1.00000
 Grid used for NLC:  SG-1 standard quadrature
Energy prior to optimization (guess energy) = -271.517076392707
Begin Timing: Total SCF Calculation
begin iterations for algorithm: DIIS         
the SCF tolerance is set to 1.00e-08
    1    -271.5170763927      1.99e-03     00000 
    2    -271.5587250282      1.30e-03     00000 
    3    -271.5832819809      1.56e-04     00000 
    4    -271.5839737664      4.78e-05     00000 
    5    -271.5840259392      2.25e-05     00000 
    6    -271.5840344815      5.59e-06     00000 
    7    -271.5840352424      2.01e-06     00000 
    8    -271.5840353128      4.29e-07     00000 
    9    -271.5840353199      1.23e-07     00000 
   10    -271.5840353207      5.22e-08     00000 
   11    -271.5840353209      2.70e-08     00000 
   12    -271.5840353210      7.91e-09     00000 Convergence criterion met
Timing for Total SCF: 1327.00s (wall), 2635.60s (cpu)
(3)  G-ENP(liq) elect-nuc-pol free energy of system     -271.584035321 a.u.
(4)  G-CDS(liq) cavity-dispersion-solvent structure 
     free energy                                                3.1440 kcal/mol
(6)  G-S(liq) free energy of system                     -271.579024971 a.u.
E_pcm = -0.0073498135
E_cds = 0.0050103502
Multipole orders to be included
        2
        3
computing dipole RHS
computing quadrupole RHS
total number of RHS in solve_reponses: 8
RHS batch sizes
        8
Beginning Block Conjugate Gradient Iterations. Batch Number: 0
computing hessian-vector products by finite difference
              1      6.17e-01     00000 Conjugate Gradient Iteration
computing hessian-vector products by finite difference
              2      1.90e-01     00000 Conjugate Gradient Iteration
computing hessian-vector products by finite difference
              3      4.52e-02     00000 Conjugate Gradient Iteration
computing hessian-vector products by finite difference
              4      1.13e-02     00000 Conjugate Gradient Iteration
computing hessian-vector products by finite difference
              5      1.99e-03     00000 Conjugate Gradient Iteration
computing hessian-vector products by finite difference
              6      5.17e-04     00000 Conjugate Gradient Iteration
computing hessian-vector products by finite difference
              7      1.49e-04     00000 Conjugate Gradient Iteration
computing hessian-vector products by finite difference
              8      2.31e-05     00000 Conjugate Gradient Iteration
computing hessian-vector products by finite difference
              9      2.65e-06     00000 Conjugate Gradient Iteration
computing hessian-vector products by finite difference
             10      4.63e-07     00000 Conjugate Gradient Iteration
computing hessian-vector products by finite difference
             11      9.20e-08     00000 Conjugate Gradient Iteration
computing hessian-vector products by finite difference
             12      1.17e-08     00000 Conjugate Gradient Iteration
computing hessian-vector products by finite difference
             13      1.70e-09     00000 CG Converged
batch 0 complete
Done Calculating Responses
TESTING ORTHOGONALIZATION OF MULTIPOLE BASIS
Multipole virts passed orthogonality test
Virts Per Order
           75
          125
 
 --------------------------------------------------------------
 
                    Orbital Energies (a.u.)
 --------------------------------------------------------------
 
 Alpha MOs
 -- Occupied --
-10.2776 -10.2661 -10.2653 -10.2626 -10.2622 -10.2615 -10.2534  -0.9949
 -0.9039  -0.8744  -0.8086  -0.7255  -0.7009  -0.6253  -0.5690  -0.5607
 -0.5304  -0.5230  -0.5099  -0.4821  -0.4696  -0.4369  -0.4331  -0.3456
 -0.3347
 -- Virtual --
  0.0674   0.0681   0.0746   0.0841   0.0899   0.1094   0.1154   0.1181
  0.1418   0.1606   0.1697   0.1772   0.1851   0.1951   0.1997   0.2080
  0.2294   0.2351   0.2382   0.2485   0.2519   0.2601   0.2653   0.2781
  0.2857   0.2884   0.2933   0.2969   0.2987   0.3040   0.3075   0.3195
  0.3284   0.3314   0.3353   0.3489   0.3501   0.3556   0.3721   0.3777
  0.3789   0.3864   0.3928   0.3964   0.3984   0.4025   0.4056   0.4075
  0.4209   0.4318   0.4352   0.4445   0.4477   0.4544   0.4583   0.4609
  0.4713   0.4734   0.4866   0.4909   0.5029   0.5057   0.5156   0.5172
  0.5213   0.5275   0.5364   0.5475   0.5494   0.5587   0.5654   0.5736
  0.5743   0.5781   0.5954   0.5978   0.6038   0.6279   0.6365   0.6503
  0.6599   0.6748   0.6857   0.6924   0.6976   0.7092   0.7230   0.7264
  0.7314   0.7342   0.7466   0.7667   0.7681   0.7713   0.7825   0.7885
  0.7917   0.8003   0.8026   0.8055   0.8188   0.8273   0.8306   0.8327
  0.8364   0.8448   0.8544   0.8577   0.8664   0.8817   0.8865   0.8993
  0.9247   0.9338   0.9469   0.9571   0.9701   1.0103   1.0424   1.0454
  1.0512   1.0664   1.0780   1.0819   1.0963   1.1034   1.1131   1.1440
  1.1648   1.1706   1.2622   1.2864   1.3018   1.3340   1.3612   1.3643
  1.3813   1.4492   1.4591   1.4648   1.4717   1.4836   1.5357   1.5499
  1.6144   1.6220   1.6265   1.6326   1.6434   1.6843   1.7456   1.7727
  1.7877   1.8044   1.8080   1.8232   1.8482   1.8582   1.8912   1.9140
  1.9278   1.9313   1.9388   1.9786   1.9965   2.0023   2.0176   2.0370
  2.0407   2.0505   2.0746   2.0990   2.1224   2.1349   2.1776   2.1831
  2.2157   2.2479   2.2559   2.2682   2.2973   2.3276   2.3796   2.4024
  2.4209   2.4453   2.4604   2.5286   2.5396   2.5656   2.5768   2.6124
  2.6303   2.6377   2.6753   2.6824   2.7276   2.7328   2.7791   2.7886
  2.7991   2.8236   2.8321   2.8555   2.8701   2.8982   2.9155   2.9249
  2.9362   2.9546   2.9758   2.9969   3.0169   3.0194   3.0310   3.0629
  3.0755   3.1044   3.1130   3.1602   3.1723   3.1955   3.1970   3.2152
  3.2442   3.2634   3.2705   3.2948   3.3371   3.3622   3.3723   3.3944
  3.4239   3.4305   3.4495   3.4588   3.4689   3.4711   3.4923   3.5066
  3.5204   3.5380   3.5406   3.5554   3.5604   3.5823   3.5889   3.6021
  3.6204   3.6526   3.6677   3.7033   3.7208   3.7562   3.7617   3.8026
  3.8709   3.9038   3.9509   3.9666   3.9826   4.0021   4.0471   4.0680
  4.1453   4.2212   4.2823   4.2850   4.2940   4.3352   4.3421   4.3697
  4.3723   4.3848   4.3900   4.4158   4.4339   4.4761   4.5340   4.5660
  4.6156   4.6565   4.7580   4.8032   4.8257   4.8614   4.9158   4.9598
  5.0384   5.0528   5.1793   5.2795   5.3994   5.4157   5.5026   5.5305
  5.6903   5.8609  22.5954  22.6984  22.9104  22.9354  23.0328  23.1087
 23.4550
 --------------------------------------------------------------
 
          Ground-State Mulliken Net Atomic Charges

     Atom                 Charge (a.u.)
  ----------------------------------------
      1 C                    -1.080077
      2 C                    -0.529986
      3 C                    -0.528423
      4 C                    -0.549338
      5 C                    -0.525046
      6 C                    -0.317355
      7 C                     0.770158
      8 H                     0.399214
      9 H                     0.364372
     10 H                     0.377470
     11 H                     0.393998
     12 H                     0.408018
     13 H                     0.266660
     14 H                     0.245505
     15 H                     0.304832
  ----------------------------------------
  Sum of atomic charges =     0.000000

 -----------------------------------------------------------------
                    Cartesian Multipole Moments
 -----------------------------------------------------------------
    Charge (ESU x 10^10)
                 0.0000
    Dipole Moment (Debye)
         X      -0.4080      Y      -0.2665      Z       0.3581
       Tot       0.6047
    Quadrupole Moments (Debye-Ang)
        XX     -36.5922     XY       3.7992     YY     -43.6569
        XZ      -0.6036     YZ      -3.5750     ZZ     -37.2308
    Octopole Moments (Debye-Ang^2)
       XXX     284.8810    XXY       0.7999    XYY     107.3289
       YYY      48.9749    XXZ     -80.6726    XYZ      13.2205
       YYZ     -90.7048    XZZ      96.1738    YZZ       3.9374
       ZZZ    -242.1815
    Hexadecapole Moments (Debye-Ang^3)
      XXXX   -1795.8057   XXXY    -143.6970   XXYY    -366.6968
      XYYY    -201.1604   YYYY    -262.8186   XXXZ     659.6068
      XXYZ      26.0558   XYYZ     233.0859   YYYZ     200.6391
      XXZZ    -542.4523   XYZZ     -32.3846   YYZZ    -297.4601
      XZZZ     662.8515   YZZZ     151.2115   ZZZZ   -1419.9952
 -----------------------------------------------------------------
Archival summary:
1\1\nid00509\SP\ProcedureUnspecified\BasisUnspecified\78\meili\SunSep2609:26:072021SunSep2609:26:072021\0\\#,ProcedureUnspecified,BasisUnspecified,\\0,1\C\C,1,1.38772\H,2,1.08085,1,119.693\C,2,1.38993,1,121.044,3,-179.875,0\H,4,1.0764,2,119.545,1,178.131,0\C,4,1.38563,2,119.846,1,0.55427,0\H,6,1.08098,4,120.123,2,-179.607,0\C,6,1.37589,4,119.953,2,-0.289308,0\H,8,1.08149,6,119.678,4,-179.42,0\C,1,1.39555,2,118.532,3,179.044,0\H,10,1.0641,1,121.85,2,176.54,0\C,1,1.50204,2,118.643,3,-0.347835,0\H,12,1.08443,1,108.337,2,51.2283,0\H,12,1.09091,1,106.728,2,-64.2791,0\H,12,1.1,1,116.51,2,175.182,0\\\@

 Total job time:  26637.76s(wall), 52962.25s(cpu) 
 Sun Sep 26 09:26:11 2021

        *************************************************************
        *                                                           *
        *  Thank you very much for using Q-Chem.  Have a nice day.  *
        *                                                           *
        *************************************************************


Done Job For Fragment 0
calling putenv with: QCSCRATCH=/global/cscratch1/sd/meili 
calling putenv with: QCLOCALSCR=/tmp 
calling putenv with: QCTHREADS=32 
Creating input file /tmp/qchem62983/Frg2.input
using default PutDataFrgm: nothing
calling putenv with: QCSCRATCH=/tmp/qchem62983/ 
calling putenv with: QCLOCALSCR=/tmp/qchem62983/ 
Spawning Job For Fragment 1
                  Welcome to Q-Chem
     A Quantum Leap Into The Future Of Chemistry


 Q-Chem 5.2, Q-Chem, Inc., Pleasanton, CA (2019)

 License issued to: National Energy Research Scientific Computing Center

 Yihan Shao,  Zhengting Gan,  E. Epifanovsky,  A. T. B. Gilbert,  M. Wormit,  
 J. Kussmann,  A. W. Lange,  A. Behn,  Jia Deng,  Xintian Feng,  D. Ghosh,  
 M. Goldey,  P. R. Horn,  L. D. Jacobson,  I. Kaliman,  T. Kus,  A. Landau,  
 Jie Liu,  E. I. Proynov,  R. M. Richard,  R. P. Steele,  E. J. Sundstrom,  
 H. L. Woodcock III,  P. M. Zimmerman,  D. Zuev,  B. Albrecht,  E. Alguire,  
 S. A. Baeppler,  D. Barton,  Z. Benda,  Y. A. Bernard,  E. J. Berquist,  
 K. B. Bravaya,  H. Burton,  D. Casanova,  Chun-Min Chang,  Yunqing Chen,  
 A. Chien,  K. D. Closser,  M. P. Coons,  S. Coriani,  S. Dasgupta,  
 A. L. Dempwolff,  M. Diedenhofen,  Hainam Do,  R. G. Edgar,  Po-Tung Fang,  
 S. Faraji,  S. Fatehi,  Qingguo Feng,  K. D. Fenk,  J. Fosso-Tande,  
 J. Gayvert,  Qinghui Ge,  A. Ghysels,  G. Gidofalvi,  J. Gomes,  
 J. Gonthier,  A. Gunina,  D. Hait,  M. W. D. Hanson-Heine,  
 P. H. P. Harbach,  A. W. Hauser,  M. F. Herbst,  J. E. Herr,  
 E. G. Hohenstein,  Z. C. Holden,  Kerwin Hui,  B. C. Huynh,  T.-C. Jagau,  
 Hyunjun Ji,  B. Kaduk,  K. Khistyaev,  Jaehoon Kim,  P. Klunzinger,  K. Koh,  
 D. Kosenkov,  L. Koulias,  T. Kowalczyk,  C. M. Krauter,  A. Kunitsa,  
 Ka Un Lao,  A. Laurent,  K. V. Lawler,  Joonho Lee,  D. Lefrancois,  
 S. Lehtola,  D. S. Levine,  Yi-Pei Li,  You-Sheng Lin,  Fenglai Liu,  
 E. Livshits,  A. Luenser,  P. Manohar,  E. Mansoor,  S. F. Manzer,  
 Shan-Ping Mao,  Yuezhi Mao,  N. Mardirossian,  A. V. Marenich,  
 T. Markovich,  L. A. Martinez-Martinez,  S. A. Maurer,  N. J. Mayhall,  
 S. C. McKenzie,  J.-M. Mewes,  P. Morgante,  A. F. Morrison,  
 J. W. Mullinax,  K. Nanda,  T. S. Nguyen-Beck,  R. Olivares-Amaya,  
 J. A. Parkhill,  Zheng Pei,  T. M. Perrine,  F. Plasser,  P. Pokhilko,  
 S. Prager,  A. Prociuk,  E. Ramos,  D. R. Rehn,  F. Rob,  M. Scheurer,  
 M. Schneider,  N. Sergueev,  S. M. Sharada,  S. Sharma,  D. W. Small,  
 T. Stauch,  T. Stein,  Yu-Chuan Su,  A. J. W. Thom,  A. Tkatchenko,  
 T. Tsuchimochi,  N. M. Tubman,  L. Vogt,  M. L. Vidal,  O. Vydrov,  
 M. A. Watson,  J. Wenzel,  M. de Wergifosse,  T. A. Wesolowski,  A. White,  
 J. Witte,  A. Yamada,  Jun Yang,  K. Yao,  S. Yeganeh,  S. R. Yost,  
 Zhi-Qiang You,  A. Zech,  Igor Ying Zhang,  Xing Zhang,  Yan Zhao,  
 Ying Zhu,  B. R. Brooks,  G. K. L. Chan,  C. J. Cramer,  M. S. Gordon,  
 W. J. Hehre,  A. Klamt,  M. W. Schmidt,  C. D. Sherrill,  D. G. Truhlar,  
 A. Aspuru-Guzik,  R. Baer,  A. T. Bell,  N. A. Besley,  Jeng-Da Chai,  
 A. E. DePrince, III,  R. A. DiStasio Jr.,  A. Dreuw,  B. D. Dunietz,  
 T. R. Furlani,  Chao-Ping Hsu,  Yousung Jung,  Jing Kong,  D. S. Lambrecht,  
 WanZhen Liang,  C. Ochsenfeld,  V. A. Rassolov,  L. V. Slipchenko,  
 J. E. Subotnik,  T. Van Voorhis,  J. M. Herbert,  A. I. Krylov,  
 P. M. W. Gill,  M. Head-Gordon

 Contributors to earlier versions of Q-Chem not listed above: 
 R. D. Adamson,  B. Austin,  J. Baker,  G. J. O. Beran,  K. Brandhorst,  
 S. T. Brown,  E. F. C. Byrd,  A. K. Chakraborty,  C.-L. Cheng,  
 Siu Hung Chien,  D. M. Chipman,  D. L. Crittenden,  H. Dachsel,  
 R. J. Doerksen,  A. D. Dutoi,  L. Fusti-Molnar,  W. A. Goddard III,  
 A. Golubeva-Zadorozhnaya,  S. R. Gwaltney,  G. Hawkins,  A. Heyden,  
 S. Hirata,  G. Kedziora,  F. J. Keil,  C. Kelley,  Jihan Kim,  R. A. King,  
 R. Z. Khaliullin,  P. P. Korambath,  W. Kurlancheek,  A. M. Lee,  M. S. Lee,  
 S. V. Levchenko,  Ching Yeh Lin,  D. Liotard,  R. C. Lochan,  I. Lotan,  
 P. E. Maslen,  N. Nair,  D. P. O'Neill,  D. Neuhauser,  E. Neuscamman,  
 C. M. Oana,  R. Olson,  B. Peters,  R. Peverati,  P. A. Pieniazek,  
 Y. M. Rhee,  J. Ritchie,  M. A. Rohrdanz,  E. Rosta,  N. J. Russ,  
 H. F. Schaefer III,  N. E. Schultz,  N. Shenvi,  A. C. Simmonett,  A. Sodt,  
 D. Stuck,  K. S. Thanthiriwatte,  V. Vanovschi,  Tao Wang,  A. Warshel,  
 C. F. Williams,  Q. Wu,  X. Xu,  W. Zhang

 Please cite Q-Chem as follows:
 Y. Shao et al., Mol. Phys. 113, 184-215 (2015)
 DOI: 10.1080/00268976.2014.952696

 Q-Chem 5.2.0 for Intel X86 EM64T Linux

 Parts of Q-Chem use Armadillo 8.300.2 (Tropical Shenanigans).
 http://arma.sourceforge.net/

 Q-Chem begins on Sun Sep 26 09:26:14 2021  

Host: cori01
0

     Scratch files written to /tmp/qchem62983//Frg2//
 May1019 |scratch|qcdevops|jenkins|workspace|build_RNUM -1
Processing $rem in /global/common/cori/software/qchem/5.2/config/preferences:
	 MEM_TOTAL  96000 
NAlpha2: 50
NElect   50
Mult     1
Symmetry turned off for PCM/SM12/SMD calculation

Checking the input file for inconsistencies... 	...done.

--------------------------------------------------------------
User input:
--------------------------------------------------------------
$molecule
0 1
 6	4.7575843369	1.0755545617	-2.7176673639
 6	0.7825843369	-0.1414454383	-1.6516673639
 6	0.9855843369	0.8745545617	-2.5656673639
 6	1.8665843369	-0.7534454383	-1.0586673639
 6	2.2685843369	1.2735545617	-2.8936673639
 6	3.1535843369	-0.3694454383	-1.4006673639
 6	3.3645843369	0.6615545617	-2.3086673639
 1	-0.2204156631	-0.4594454383	-1.4076673639
 1	0.1365843369	1.3465545617	-3.0276673639
 1	1.7075843369	-1.5444454383	-0.3396673639
 1	2.4085843369	2.0675545617	-3.6136673639
 1	3.9945843369	-0.8584454383	-0.9366673639
 1	4.7165843369	1.4085545617	-3.7576673639
 1	5.4145843369	0.2045545617	-2.6896673639
 1	5.1848643369	1.8838445617	-2.1060273639
$end
$rem
EDA2		1
METHOD		WB97X-V
BASIS		DEF2-TZVPD
XC_GRID		000099000590
NL_GRID		1
UNRESTRICTED		FALSE
MAX_SCF_CYCLES		200
SYMMETRY		FALSE
SYM_IGNORE		TRUE
BASIS_LIN_DEP_THRESH		6
THRESH		14
SCF_CONVERGENCE		8
SCF_PRINT_FRGM		TRUE
SOLVENT_METHOD		SMD
!required keywords
JOBTYPE		SP
SYM_IGNORE		TRUE
SUBSYSTEM		TRUE
GEN_SCFMAN		TRUE
CHILD_INSTRUCTION		2
SYM_IGNORE		TRUE
SCFMI		0
RI_K 0		
PARI_K 0		
MIN_PARI_K 0		
IARI_K 0		
OCC_RI_K 0		
PURECART		1111
MEM_STATIC		2000
MEM_TOTAL		96000
GUI		0
CHILD_MP		1
CHILD_MP_ORDERS		232
FRZ_RELAX		0
FRZ_RELAX_METHOD		0
EDA_CLS_ELEC		1
EDA_CLS_DISP		0
FRZ_ORTHO_DECOMP		1
EDA2		FALSE
FRGM_METHOD		FALSE
CIS_N_ROOTS  0
LOCAL_CIS    0
CIS_RLX_DNS  1
$end
$smx
SOLVENT			WATER
$end
--------------------------------------------------------------
 ----------------------------------------------------------------
             Standard Nuclear Orientation (Angstroms)
    I     Atom           X                Y                Z
 ----------------------------------------------------------------
    1      C       4.7575843369     1.0755545617    -2.7176673639
    2      C       0.7825843369    -0.1414454383    -1.6516673639
    3      C       0.9855843369     0.8745545617    -2.5656673639
    4      C       1.8665843369    -0.7534454383    -1.0586673639
    5      C       2.2685843369     1.2735545617    -2.8936673639
    6      C       3.1535843369    -0.3694454383    -1.4006673639
    7      C       3.3645843369     0.6615545617    -2.3086673639
    8      H      -0.2204156631    -0.4594454383    -1.4076673639
    9      H       0.1365843369     1.3465545617    -3.0276673639
   10      H       1.7075843369    -1.5444454383    -0.3396673639
   11      H       2.4085843369     2.0675545617    -3.6136673639
   12      H       3.9945843369    -0.8584454383    -0.9366673639
   13      H       4.7165843369     1.4085545617    -3.7576673639
   14      H       5.4145843369     0.2045545617    -2.6896673639
   15      H       5.1848643369     1.8838445617    -2.1060273639
 ----------------------------------------------------------------
 Nuclear Repulsion Energy =         270.94604982 hartrees
 There are       25 alpha and       25 beta electrons
 Requested basis set is def2-TZVPD
 There are 131 shells and 331 basis functions

 Total QAlloc Memory Limit  96000 MB
 Mega-Array Size      1956 MB
 MEM_STATIC part      2000 MB
 
 Citation of the SMD model:
 Marenich, A.V.; Cramer, C.J.; Truhlar, D.G.
 J. Phys. Chem. B 2009, 113, 6378-6396.
 iSolventCode=           1
 Solvent: water                                                           
 
 vradii
            1           2           3           4           5           6
    1   1.8500000   1.8500000   1.8500000   1.8500000   1.8500000   1.8500000
            7           8           9          10          11          12
    1   1.8500000   1.2000000   1.2000000   1.2000000   1.2000000   1.2000000
           13          14          15
    1   1.2000000   1.2000000   1.2000000
 Changing PCM_VDW_RADII to SMD_RADIUS
 Discretize the solute cavity surface with Lebedev spheres
	Using 110 Lebedev grid points for each H atom
	Using 194 Lebedev grid points for other atoms
	Atomic van der Waals radii will be scaled by 1.20
 Remove points where switching function is < 1.0e-08
 Keep 1092 surface tesserae and discard 1146 interior tesserae
 Molecular Surface Area = 131.777 Angst**2

                       Distance Matrix (Angstroms)
             C (  1)   C (  2)   C (  3)   C (  4)   C (  5)   C (  6)
   C (  2)  4.291628
   C (  3)  3.780409  1.381615
   C (  4)  3.802026  1.378858  2.386963
   C (  5)  2.503058  2.398538  1.383067  2.763613
   C (  6)  2.528899  2.395125  2.757714  1.385925  2.389921
   C (  7)  1.509677  2.782657  2.402303  2.410130  1.384913  1.389945
   H (  8)  5.371481  1.080125  2.138915  2.136307  3.377367  3.375207
   H (  9)  4.639308  2.127166  1.075653  3.358550  2.137454  3.833285
   H ( 10)  4.671379  2.131989  3.365698  1.080705  3.844315  2.144123
   H ( 11)  2.702717  3.372388  2.132248  3.844454  1.080942  3.375109
   H ( 12)  2.737606  3.367827  3.835494  2.134079  3.369621  1.077821
   H ( 13)  1.092781  4.723779  3.953022  4.481221  2.599505  3.340614
   H ( 14)  1.091363  4.759473  4.481107  4.020725  3.328918  2.665168
   H ( 15)  1.100002  4.867064  4.343258  4.366147  3.081805  3.114634
             C (  7)   H (  8)   H (  9)   H ( 10)   H ( 11)   H ( 12)
   H (  8)  3.862728
   H (  9)  3.377302  2.452241
   H ( 10)  3.389550  2.456630  4.248678
   H ( 11)  2.143314  4.261902  2.454633  4.925142
   H ( 12)  2.142355  4.259961  4.911056  2.461173  4.271206
   H ( 13)  2.117903  5.778053  4.638226  5.427432  2.404554  3.690341
   H ( 14)  2.134598  5.817013  5.410702  4.724759  3.655213  2.493868
   H ( 15)  2.201925  5.932602  5.159771  5.192752  3.164563  3.210035
             H ( 13)   H ( 14)
   H ( 14)  1.754265
   H ( 15)  1.781320  1.792602
 
 A cutoff of  1.0D-14 yielded   8362 shell pairs
 There are     54504 function pairs (     69458 Cartesian)
 Smallest overlap matrix eigenvalue = 5.18E-07
 Linear dependence detected in AO basis
 Tighter screening thresholds may be required for diffuse basis sets
 Use S2THRESH > 14 and THRESH = 14 in case of SCF convergence issues
 Number of orthogonalized atomic orbitals = 330
 Maximum deviation from orthogonality = 2.329E-10

 Scale SEOQF with 1.000000e-02/1.000000e-01/1.000000e-01

 Standard Electronic Orientation quadrupole field applied
 Nucleus-field energy     =    -0.0000000224 hartrees
 Guess from superposition of atomic densities
 Warning:  Energy on first SCF cycle will be non-variational
 SAD guess density has 49.913408 electrons

 -----------------------------------------------------------------------
  General SCF calculation program by
  Eric Jon Sundstrom, Paul Horn, Yuezhi Mao, Dmitri Zuev, Alec White,
  David Stuck, Shaama M.S., Shane Yost, Joonho Lee, David Small,
  Daniel Levine, Susi Lehtola, Hugh Burton, Evgeny Epifanovsky
 -----------------------------------------------------------------------
 Exchange:     0.1670 Hartree-Fock + 1.0000 wB97X-V + LR-HF
 Correlation:  1.0000 wB97X-V
 Using Euler-Maclaurin-Lebedev (99,590) quadrature formula
 Nonlocal Correlation:  VV10 with C = 0.0100 and b = 6.00 and scale = 1.00000
 Grid used for NLC:  SG-1 standard quadrature
Energy prior to optimization (guess energy) = -271.517526357114
Begin Timing: Total SCF Calculation
begin iterations for algorithm: DIIS         
the SCF tolerance is set to 1.00e-08
    1    -271.5175263571      2.01e-03     00000 
    2    -271.5591636369      1.31e-03     00000 
    3    -271.5842327775      1.56e-04     00000 
    4    -271.5849195875      4.75e-05     00000 
    5    -271.5849713335      2.16e-05     00000 
    6    -271.5849792715      5.20e-06     00000 
    7    -271.5849799660      1.39e-06     00000 
    8    -271.5849800024      4.44e-07     00000 
    9    -271.5849800073      1.00e-07     00000 
   10    -271.5849800076      2.70e-08     00000 
   11    -271.5849800076      1.32e-08     00000 
   12    -271.5849800076      4.03e-09     00000 Convergence criterion met
Timing for Total SCF: 1357.00s (wall), 2697.49s (cpu)
(3)  G-ENP(liq) elect-nuc-pol free energy of system     -271.584980008 a.u.
(4)  G-CDS(liq) cavity-dispersion-solvent structure 
     free energy                                                3.1398 kcal/mol
(6)  G-S(liq) free energy of system                     -271.579976472 a.u.
E_pcm = -0.0071965770
E_cds = 0.0050035360
Multipole orders to be included
        2
        3
computing dipole RHS
computing quadrupole RHS
total number of RHS in solve_reponses: 8
RHS batch sizes
        8
Beginning Block Conjugate Gradient Iterations. Batch Number: 0
computing hessian-vector products by finite difference
              1      6.21e-01     00000 Conjugate Gradient Iteration
computing hessian-vector products by finite difference
              2      1.89e-01     00000 Conjugate Gradient Iteration
computing hessian-vector products by finite difference
              3      4.58e-02     00000 Conjugate Gradient Iteration
computing hessian-vector products by finite difference
              4      1.16e-02     00000 Conjugate Gradient Iteration
computing hessian-vector products by finite difference
              5      2.01e-03     00000 Conjugate Gradient Iteration
computing hessian-vector products by finite difference
              6      5.24e-04     00000 Conjugate Gradient Iteration
computing hessian-vector products by finite difference
              7      1.36e-04     00000 Conjugate Gradient Iteration
computing hessian-vector products by finite difference
              8      2.22e-05     00000 Conjugate Gradient Iteration
computing hessian-vector products by finite difference
              9      3.12e-06     00000 Conjugate Gradient Iteration
computing hessian-vector products by finite difference
             10      5.13e-07     00000 Conjugate Gradient Iteration
computing hessian-vector products by finite difference
             11      8.05e-08     00000 Conjugate Gradient Iteration
computing hessian-vector products by finite difference
             12      1.36e-08     00000 Conjugate Gradient Iteration
computing hessian-vector products by finite difference
             13      3.71e-09     00000 CG Converged
batch 0 complete
Done Calculating Responses
TESTING ORTHOGONALIZATION OF MULTIPOLE BASIS
Multipole virts passed orthogonality test
Virts Per Order
           75
          125
 
 --------------------------------------------------------------
 
                    Orbital Energies (a.u.)
 --------------------------------------------------------------
 
 Alpha MOs
 -- Occupied --
-10.2755 -10.2650 -10.2641 -10.2623 -10.2615 -10.2613 -10.2540  -0.9968
 -0.9027  -0.8760  -0.8075  -0.7259  -0.7010  -0.6260  -0.5700  -0.5588
 -0.5294  -0.5242  -0.5084  -0.4790  -0.4719  -0.4346  -0.4341  -0.3472
 -0.3361
 -- Virtual --
  0.0683   0.0693   0.0736   0.0844   0.0899   0.1096   0.1161   0.1183
  0.1410   0.1599   0.1729   0.1732   0.1897   0.1941   0.2009   0.2079
  0.2276   0.2282   0.2403   0.2463   0.2575   0.2650   0.2667   0.2736
  0.2864   0.2887   0.2939   0.2979   0.2981   0.3053   0.3068   0.3156
  0.3222   0.3311   0.3396   0.3427   0.3558   0.3564   0.3710   0.3792
  0.3866   0.3876   0.3887   0.3941   0.3955   0.4067   0.4102   0.4140
  0.4165   0.4329   0.4348   0.4425   0.4488   0.4541   0.4551   0.4587
  0.4714   0.4730   0.4772   0.4870   0.5016   0.5056   0.5161   0.5238
  0.5250   0.5307   0.5369   0.5445   0.5488   0.5527   0.5581   0.5692
  0.5913   0.5935   0.6019   0.6061   0.6084   0.6248   0.6481   0.6522
  0.6629   0.6793   0.6893   0.6910   0.6941   0.6968   0.7259   0.7286
  0.7361   0.7379   0.7481   0.7618   0.7689   0.7718   0.7834   0.7929
  0.7974   0.7996   0.8026   0.8106   0.8121   0.8258   0.8300   0.8391
  0.8409   0.8424   0.8449   0.8610   0.8623   0.8819   0.8949   0.9022
  0.9125   0.9149   0.9417   0.9515   0.9581   1.0224   1.0272   1.0419
  1.0528   1.0694   1.0782   1.0904   1.0950   1.1020   1.1086   1.1474
  1.1695   1.1890   1.2566   1.2884   1.3004   1.3306   1.3550   1.3571
  1.3917   1.4429   1.4584   1.4684   1.4728   1.4933   1.5336   1.5509
  1.6077   1.6119   1.6232   1.6294   1.6696   1.6918   1.7427   1.7909
  1.8037   1.8041   1.8111   1.8250   1.8372   1.8752   1.8949   1.9157
  1.9255   1.9291   1.9599   1.9619   1.9886   2.0013   2.0185   2.0317
  2.0403   2.0524   2.0786   2.1053   2.1213   2.1323   2.1739   2.1824
  2.2070   2.2350   2.2438   2.2774   2.2926   2.3233   2.4034   2.4069
  2.4133   2.4188   2.4920   2.5118   2.5358   2.5624   2.5707   2.6089
  2.6242   2.6355   2.6731   2.6800   2.7091   2.7204   2.7717   2.7851
  2.8017   2.8257   2.8320   2.8619   2.8696   2.9106   2.9135   2.9217
  2.9468   2.9521   2.9694   2.9862   2.9978   3.0198   3.0281   3.0635
  3.0662   3.1005   3.1141   3.1258   3.1900   3.1957   3.2076   3.2264
  3.2328   3.2446   3.2983   3.3149   3.3249   3.3576   3.3691   3.3883
  3.4110   3.4501   3.4548   3.4669   3.4681   3.4795   3.4994   3.5157
  3.5210   3.5427   3.5463   3.5542   3.5722   3.5827   3.6013   3.6183
  3.6237   3.6569   3.6623   3.7084   3.7200   3.7692   3.7877   3.8324
  3.8454   3.8905   3.9194   3.9607   3.9697   4.0081   4.0531   4.0681
  4.1268   4.2092   4.2872   4.3000   4.3059   4.3405   4.3460   4.3492
  4.3753   4.3928   4.4097   4.4188   4.4517   4.4760   4.4922   4.5506
  4.6054   4.6419   4.7600   4.7747   4.8506   4.9056   4.9120   4.9553
  5.0481   5.0619   5.1858   5.2774   5.4069   5.4191   5.5176   5.5346
  5.6974   5.8659  22.5725  22.6627  22.9231  22.9338  23.0499  23.1204
 23.4635
 --------------------------------------------------------------
 
          Ground-State Mulliken Net Atomic Charges

     Atom                 Charge (a.u.)
  ----------------------------------------
      1 C                    -1.096577
      2 C                    -0.564802
      3 C                    -0.557351
      4 C                    -0.539487
      5 C                    -0.404484
      6 C                    -0.416150
      7 C                     0.838488
      8 H                     0.389290
      9 H                     0.377276
     10 H                     0.371419
     11 H                     0.378467
     12 H                     0.391487
     13 H                     0.290365
     14 H                     0.295179
     15 H                     0.246881
  ----------------------------------------
  Sum of atomic charges =     0.000000

 -----------------------------------------------------------------
                    Cartesian Multipole Moments
 -----------------------------------------------------------------
    Charge (ESU x 10^10)
                 0.0000
    Dipole Moment (Debye)
         X       0.4572      Y       0.1202      Z      -0.1829
       Tot       0.5068
    Quadrupole Moments (Debye-Ang)
        XX     -35.1914     XY       0.7167     YY     -41.4268
        XZ      -1.3699     YZ      -4.6721     ZZ     -41.5952
    Octopole Moments (Debye-Ang^2)
       XXX    -280.3478    XXY     -12.8668    XYY    -102.9558
       YYY     -48.4370    XXZ      73.7449    XYZ      -9.8422
       YYZ      85.5253    XZZ    -102.0577    YZZ       1.8768
       ZZZ     263.8331
    Hexadecapole Moments (Debye-Ang^3)
      XXXX   -2002.3714   XXXY    -154.6392   XXYY    -389.6093
      XYYY    -161.4393   YYYY    -260.2815   XXXZ     631.7472
      XXYZ      30.4181   XYYZ     227.0809   YYYZ     165.8510
      XXZZ    -546.6901   XYZZ     -17.9862   YYZZ    -241.2477
      XZZZ     690.0960   YZZZ     113.1076   ZZZZ   -1303.6794
 -----------------------------------------------------------------
Archival summary:
1\1\nid00509\SP\ProcedureUnspecified\BasisUnspecified\78\meili\SunSep2617:11:012021SunSep2617:11:012021\0\\#,ProcedureUnspecified,BasisUnspecified,\\0,1\C\C,1,1.38491\H,2,1.08094,1,120.229\C,2,1.38307,1,120.429,3,179.874,0\H,4,1.07565,2,120.247,1,-179.511,0\C,4,1.38162,2,120.353,1,-0.110713,0\H,6,1.08012,4,120.158,2,-179.185,0\C,6,1.37886,4,119.695,2,0.405049,0\H,8,1.0807,6,119.691,4,179.663,0\C,8,1.38593,6,120.062,4,-1.38448,0\H,10,1.07782,8,119.515,6,-179.581,0\C,1,1.50968,2,119.643,3,-2.14719,0\H,12,1.09136,1,109.248,2,-145.58,0\H,12,1.09278,1,107.865,2,-29.7629,0\H,12,1.1,1,114.16,2,91.0933,0\\\@

 Total job time:  27890.45s(wall), 55435.64s(cpu) 
 Sun Sep 26 17:11:04 2021

        *************************************************************
        *                                                           *
        *  Thank you very much for using Q-Chem.  Have a nice day.  *
        *                                                           *
        *************************************************************


Done Job For Fragment 1
calling putenv with: QCSCRATCH=/global/cscratch1/sd/meili 
calling putenv with: QCLOCALSCR=/tmp 
calling putenv with: QCTHREADS=32 
Doing General SCFMI
 Exchange:     0.1670 Hartree-Fock + 1.0000 wB97X-V + LR-HF
 Correlation:  1.0000 wB97X-V
 Using Euler-Maclaurin-Lebedev (99,590) quadrature formula
 Nonlocal Correlation:  VV10 with C = 0.0100 and b = 6.00 and scale = 1.00000
 Grid used for NLC:  SG-1 standard quadrature
performing fock build before subrot guess so that all methods have access
Printing subrot_rss_gen Method Specification:
Occupied Subspace Method is 0
Virtual Subspace Method is 0
Energy of the unrelaxed supersystem initial determinant -543.155769906308
performing fock build before subrot guess so that all methods have access
Printing subrot_rss_gen Method Specification:
Occupied Subspace Method is 0
Virtual Subspace Method is 0
Energy of the unrelaxed supersystem initial determinant w/ solvent -543.169472369066
write pseudocanon occs and virts to disk
write pseudocanon orbital energies to disk
Tolerance of ortho_decomp_scf: 1.00e-06
GDM subspace size: 20
Beginning the Orthogonal Decomposition of the Initial Supersystem Wavefunction
    1    -543.1425820873      1.67e-02     ortho_decomp Preconditoned Steepest Descent
    2    -543.1438216086      4.24e-04     ortho_decomp BFGS Step
    3    -543.1438254824      3.15e-05     ortho_decomp BFGS Step
    4    -543.1438254894      1.25e-06     ortho_decomp BFGS Step
    5    -543.1438254894      2.71e-08     ortho_decomp 00000 Convergence criterion met
 Hartree-Fock
 Hartree-Fock
 Hartree-Fock
Doing General SCFMI
 Exchange:     0.1670 Hartree-Fock + 1.0000 wB97X-V + LR-HF
 Correlation:  1.0000 wB97X-V
 Using Euler-Maclaurin-Lebedev (99,590) quadrature formula
 Nonlocal Correlation:  VV10 with C = 0.0100 and b = 6.00 and scale = 1.00000
 Grid used for NLC:  SG-1 standard quadrature
performing fock build at end of subrot_r(subrot) constructor so that all methods have access
<S^2> of initial wavefunction before polarization iterations 0.0000000000
Beginning iterations for the determination of the polarized wavefunction
Energy prior to optimization (guess energy) = -543.169472369067
Begin Timing: Total SCF Calculation
begin iterations for algorithm: DIIS         
the SCF tolerance is set to 1.00e-08
    1    -543.1694723691      2.96e-05     00000 
    2    -543.1695532071      1.39e-05     00000 
    3    -543.1695640540      6.50e-06     00000 
    4    -543.1695672623      1.53e-06     00000 
    5    -543.1695675240      7.81e-07     00000 
    6    -543.1695675877      2.45e-07     00000 
    7    -543.1695675946      8.75e-08     00000 
    8    -543.1695675953      2.97e-08     00000 
    9    -543.1695675954      7.85e-09     00000 Convergence criterion met
write pseudocanon occs and virts to disk
write pseudocanon orbital energies to disk
Timing for Total SCF: 6732.00s (wall), 13399.30s (cpu)
<S^2> of polarized wavefunction after polarization iterations 0.0000000000
relaxing scfmi constraint to allow all rotations in the entire AO span
Doing General SCFMI
 Exchange:     0.1670 Hartree-Fock + 1.0000 wB97X-V + LR-HF
 Correlation:  1.0000 wB97X-V
 Using Euler-Maclaurin-Lebedev (99,590) quadrature formula
 Nonlocal Correlation:  VV10 with C = 0.0100 and b = 6.00 and scale = 1.00000
 Grid used for NLC:  SG-1 standard quadrature
performing fock build at end of subrot_r(subrot) constructor so that all methods have access
<S^2> of polarized wavefunction before ct-allowed iterations 0.0000000000
Beginning iterations for the determination of the CT-Allowed wavefunction
Energy prior to optimization (guess energy) = -543.169567595395
Begin Timing: Total SCF Calculation
begin iterations for algorithm: DIIS         
the SCF tolerance is set to 1.00e-08
    1    -543.1695675954      4.74e-05     00000 
    2    -543.1701433949      5.40e-06     00000 
    3    -543.1701628827      8.57e-07     00000 
    4    -543.1701635561      1.58e-07     00000 
    5    -543.1701635722      1.02e-07     00000 
    6    -543.1701635752      1.79e-08     00000 
    7    -543.1701635754      7.36e-09     00000 Convergence criterion met
write pseudocanon occs and virts to disk
write pseudocanon orbital energies to disk
Timing for Total SCF: 5137.00s (wall), 10219.88s (cpu)
<S^2> of ct_allowed wavefunction after ct-allowed iterations 0.0000000000

================================
        Results of EDA2         
================================
Basic EDA Quantities
--------------------
Fragment Energies (Ha):
1 -271.5790249708
2 -271.5799764716
--------------------
  E_prp (kJ/mol) = -0.0000
  E_sol (kJ/mol) = 1.0233
  E_frz (kJ/mol) = -3.4157
  E_pol (kJ/mol) = -0.2500
  E_vct (kJ/mol) = -1.5648
  E_int (kJ/mol) = -4.2073
--------------------


Initial Wavefunction Decomposition
--------------------
  --------------------
  Orthogonal Fragment Subspace Decomposition:
  --------------------
     E_elec   (ELEC)   (kJ/mol) = -14.7939
     E_pauli  (PAULI)  (kJ/mol) = 21.9714
     E_disp   (DISP)   (kJ/mol) = -10.5933
     --------------------
     Terms summing to E_pauli:
     --------------------
        E_kep_pauli       (kJ/mol) = 27.9447
        E_disp_free_pauli (kJ/mol) = -5.9733
  --------------------
  Classical Frozen Decomposition:
  --------------------
     E_cls_elec  (CLS ELEC)  (kJ/mol) = -6.4451
     E_cls_pauli (CLS PAULI) (kJ/mol) = 3.0293
    [E_mod_pauli (MOD PAULI) (kJ/mol) = 13.6226 (CLS PAULI - DISP from orthogonal decomposition) ]
  --------------------
--------------------

Simplified EDA Summary (kJ/mol)
--------------------
 PREPARATION     -0.0000
 SOLVATION       1.0233
 FROZEN          7.1776      (does not include dispersion)
[PAULI           21.9714]     (if this is negligible, then frozen describes electrostatics)
 DISPERSION      -10.5933
 POLARIZATION    -0.2500
 CHARGE TRANSFER -1.5648
 TOTAL           -4.2073     (PRP + SOL + FRZ + DISP + POL + CT)
--------------------
 
 --------------------------------------------------------------
 
                    Orbital Energies (a.u.)
 --------------------------------------------------------------
 
 Alpha MOs
 -- Occupied --
-10.2773 -10.2752 -10.2658 -10.2650 -10.2647 -10.2638 -10.2625 -10.2623
-10.2621 -10.2613 -10.2608 -10.2607 -10.2539 -10.2533  -0.9967  -0.9947
 -0.9041  -0.9021  -0.8759  -0.8742  -0.8092  -0.8067  -0.7259  -0.7252
 -0.7019  -0.6998  -0.6294  -0.6218  -0.5699  -0.5687  -0.5608  -0.5584
 -0.5304  -0.5293  -0.5241  -0.5228  -0.5128  -0.5055  -0.4820  -0.4789
 -0.4725  -0.4683  -0.4369  -0.4351  -0.4341  -0.4315  -0.3474  -0.3453
 -0.3381  -0.3313
 -- Virtual --
  0.0628   0.0650   0.0690   0.0705   0.0722   0.0793   0.0809   0.0863
  0.0920   0.1002   0.1038   0.1090   0.1173   0.1175   0.1331   0.1362
  0.1411   0.1484   0.1560   0.1614   0.1654   0.1681   0.1740   0.1774
  0.1873   0.1928   0.1982   0.2068   0.2090   0.2108   0.2155   0.2247
  0.2301   0.2340   0.2356   0.2438   0.2451   0.2502   0.2517   0.2540
  0.2571   0.2629   0.2663   0.2682   0.2749   0.2750   0.2787   0.2811
  0.2827   0.2892   0.2915   0.2954   0.3005   0.3039   0.3046   0.3072
  0.3132   0.3148   0.3190   0.3236   0.3258   0.3279   0.3309   0.3345
  0.3412   0.3431   0.3508   0.3529   0.3545   0.3584   0.3609   0.3664
  0.3668   0.3743   0.3763   0.3797   0.3823   0.3838   0.3856   0.3872
  0.3901   0.3918   0.3954   0.3965   0.4001   0.4050   0.4082   0.4093
  0.4119   0.4152   0.4175   0.4261   0.4278   0.4311   0.4356   0.4399
  0.4459   0.4481   0.4501   0.4537   0.4545   0.4572   0.4630   0.4665
  0.4679   0.4703   0.4726   0.4749   0.4798   0.4829   0.4858   0.4893
  0.4920   0.5005   0.5009   0.5046   0.5074   0.5094   0.5136   0.5140
  0.5208   0.5275   0.5297   0.5300   0.5355   0.5396   0.5413   0.5429
  0.5455   0.5473   0.5508   0.5533   0.5566   0.5657   0.5700   0.5703
  0.5737   0.5854   0.5887   0.5924   0.5974   0.5996   0.6063   0.6089
  0.6128   0.6142   0.6264   0.6300   0.6333   0.6393   0.6398   0.6549
  0.6596   0.6651   0.6663   0.6773   0.6804   0.6851   0.6874   0.6936
  0.6971   0.6996   0.7038   0.7099   0.7122   0.7175   0.7244   0.7265
  0.7315   0.7330   0.7371   0.7424   0.7460   0.7494   0.7543   0.7581
  0.7639   0.7667   0.7710   0.7767   0.7796   0.7833   0.7874   0.7888
  0.7945   0.7965   0.7992   0.8045   0.8064   0.8131   0.8165   0.8193
  0.8215   0.8243   0.8263   0.8287   0.8306   0.8358   0.8377   0.8404
  0.8488   0.8511   0.8545   0.8582   0.8606   0.8609   0.8653   0.8711
  0.8766   0.8806   0.8869   0.8899   0.9001   0.9048   0.9130   0.9150
  0.9187   0.9229   0.9269   0.9318   0.9365   0.9420   0.9521   0.9588
  0.9659   0.9732   0.9781   0.9848   0.9879   0.9926   1.0010   1.0159
  1.0199   1.0218   1.0352   1.0390   1.0508   1.0597   1.0747   1.0768
  1.0829   1.0940   1.0973   1.1026   1.1077   1.1118   1.1219   1.1299
  1.1307   1.1425   1.1468   1.1682   1.1739   1.1826   1.1988   1.2079
  1.2212   1.2414   1.2529   1.2826   1.2943   1.3126   1.3240   1.3473
  1.3517   1.3551   1.3667   1.3745   1.3786   1.3898   1.3967   1.4207
  1.4511   1.4587   1.4623   1.4703   1.4735   1.4921   1.4945   1.4983
  1.5001   1.5103   1.5133   1.5541   1.5582   1.5619   1.5688   1.6134
  1.6212   1.6244   1.6376   1.6410   1.6498   1.6527   1.6594   1.6762
  1.6967   1.6980   1.7457   1.7747   1.7817   1.7849   1.7902   1.8062
  1.8110   1.8160   1.8182   1.8196   1.8338   1.8401   1.8439   1.8579
  1.8803   1.8993   1.9101   1.9168   1.9261   1.9322   1.9395   1.9497
  1.9520   1.9584   1.9627   1.9754   1.9834   1.9904   1.9961   2.0074
  2.0237   2.0336   2.0407   2.0485   2.0513   2.0576   2.0600   2.0670
  2.0819   2.0848   2.0862   2.1025   2.1048   2.1142   2.1244   2.1346
  2.1600   2.1630   2.1714   2.1901   2.1995   2.2169   2.2317   2.2388
  2.2465   2.2515   2.2617   2.2690   2.2766   2.2811   2.2951   2.3098
  2.3442   2.3526   2.3626   2.3891   2.4122   2.4226   2.4235   2.4359
  2.4402   2.4475   2.4651   2.4784   2.5039   2.5253   2.5378   2.5481
  2.5543   2.5782   2.5875   2.5928   2.6095   2.6169   2.6229   2.6308
  2.6451   2.6559   2.6671   2.6819   2.6919   2.6968   2.7084   2.7288
  2.7395   2.7460   2.7592   2.7772   2.7865   2.7939   2.7981   2.8092
  2.8161   2.8263   2.8285   2.8402   2.8432   2.8661   2.8714   2.8739
  2.8822   2.9093   2.9194   2.9259   2.9370   2.9424   2.9440   2.9528
  2.9598   2.9661   2.9737   2.9824   2.9877   3.0083   3.0155   3.0182
  3.0267   3.0308   3.0363   3.0597   3.0712   3.0746   3.0827   3.0916
  3.0948   3.1112   3.1117   3.1198   3.1234   3.1481   3.1828   3.1858
  3.1980   3.2079   3.2149   3.2179   3.2281   3.2415   3.2479   3.2595
  3.2632   3.2703   3.2951   3.3111   3.3159   3.3205   3.3288   3.3299
  3.3525   3.3710   3.3770   3.3813   3.3950   3.3967   3.4148   3.4265
  3.4389   3.4451   3.4576   3.4624   3.4655   3.4702   3.4758   3.4846
  3.4879   3.4944   3.5009   3.5079   3.5141   3.5227   3.5338   3.5385
  3.5494   3.5521   3.5531   3.5559   3.5606   3.5681   3.5713   3.5795
  3.5907   3.5910   3.6008   3.6027   3.6081   3.6192   3.6274   3.6341
  3.6469   3.6630   3.6669   3.6738   3.6792   3.7146   3.7190   3.7216
  3.7315   3.7395   3.7651   3.7807   3.7921   3.8126   3.8382   3.8528
  3.8756   3.8941   3.9133   3.9248   3.9549   3.9646   3.9723   3.9802
  3.9946   4.0084   4.0188   4.0619   4.0665   4.0787   4.1054   4.1348
  4.1573   4.2208   4.2373   4.2909   4.2927   4.2962   4.3019   4.3062
  4.3180   4.3407   4.3452   4.3516   4.3559   4.3637   4.3721   4.3807
  4.3866   4.3898   4.3964   4.3976   4.4199   4.4253   4.4312   4.4506
  4.4668   4.4818   4.4953   4.5022   4.5384   4.5671   4.5893   4.6144
  4.6223   4.6494   4.6626   4.7609   4.7667   4.7815   4.8104   4.8295
  4.8537   4.8661   4.9130   4.9159   4.9288   4.9771   4.9822   5.0505
  5.0609   5.0762   5.0846   5.1855   5.1970   5.2904   5.2920   5.4068
  5.4146   5.4204   5.4234   5.5049   5.5182   5.5360   5.5444   5.7049
  5.7157   5.8310   5.8684  22.6044  22.6242  22.6678  22.7023  22.9343
 22.9430  22.9565  22.9748  23.0454  23.0657  23.1213  23.1359  23.4642
 23.4848
 --------------------------------------------------------------
 
          Ground-State Mulliken Net Atomic Charges

     Atom                 Charge (a.u.)
  ----------------------------------------
      1 C                    -1.100068
      2 C                    -0.548625
      3 C                    -0.597374
      4 C                    -0.542057
      5 C                    -0.576982
      6 C                    -0.337429
      7 C                     0.773099
      8 H                     0.506337
      9 H                     0.384088
     10 H                     0.385171
     11 H                     0.404243
     12 H                     0.414878
     13 H                     0.272534
     14 H                     0.254578
     15 H                     0.307008
     16 C                    -1.157321
     17 C                    -0.589074
     18 C                    -0.479576
     19 C                    -0.505776
     20 C                    -0.399202
     21 C                    -0.418363
     22 C                     0.616950
     23 H                     0.493867
     24 H                     0.383798
     25 H                     0.386817
     26 H                     0.399592
     27 H                     0.418730
     28 H                     0.298482
     29 H                     0.304894
     30 H                     0.246779
  ----------------------------------------
  Sum of atomic charges =     0.000000

 -----------------------------------------------------------------
                    Cartesian Multipole Moments
 -----------------------------------------------------------------
    Charge (ESU x 10^10)
                 0.0000
    Dipole Moment (Debye)
         X       0.0328      Y      -0.1382      Z       0.1597
       Tot       0.2137
    Quadrupole Moments (Debye-Ang)
        XX     -72.0391     XY       4.4923     YY     -85.1696
        XZ      -1.8211     YZ      -8.2313     ZZ     -79.0324
    Octopole Moments (Debye-Ang^2)
       XXX       4.4727    XXY     -12.1131    XYY       4.4019
       YYY       0.5213    XXZ      -6.9294    XYZ       3.3779
       YYZ      -5.1975    XZZ      -5.8633    YZZ       5.8478
       ZZZ      21.6912
    Hexadecapole Moments (Debye-Ang^3)
      XXXX   -3802.7383   XXXY    -299.0361   XXYY    -756.9924
      XYYY    -362.6107   YYYY    -523.7725   XXXZ    1293.5877
      XXYZ      56.9963   XYYZ     460.6044   YYYZ     366.5006
      XXZZ   -1090.8715   XYZZ     -50.7889   YYZZ    -539.3308
      XZZZ    1354.4744   YZZZ     264.6540   ZZZZ   -2726.3233
 -----------------------------------------------------------------
Archival summary:
1\1\nid00509\SP\ProcedureUnspecified\BasisUnspecified\1416\meili\SunSep2623:59:232021SunSep2623:59:232021\0\\#,ProcedureUnspecified,BasisUnspecified,\\0,1\C\H,1,1.08012\C,1,1.37886,2,120.146\H,3,1.0807,1,119.691,2,-0.746343,0\C,1,1.38162,2,120.158,3,179.588,0\H,5,1.07565,1,119.397,2,0.21985,0\C,5,1.38307,1,120.353,2,-179.185,0\H,7,1.08094,5,119.342,1,179.764,0\C,7,1.38491,5,120.429,1,-0.110713,0\C,3,1.38593,1,120.062,2,178.206,0\H,10,1.07782,3,119.515,1,-179.581,0\C,9,1.50968,7,119.643,5,177.726,0\H,12,1.09136,9,109.248,7,-145.58,0\H,12,1.09278,9,107.865,7,-29.7629,0\H,12,1.1,9,114.16,7,91.0933,0\H,2,2.38162,1,104.205,3,101.161,0\C,16,1.08098,2,102.987,1,-140.205,0\C,17,1.37589,16,119.92,2,100.473,0\H,18,1.08149,17,119.678,16,-0.101118,0\C,17,1.38563,16,120.123,2,-80.209,0\H,20,1.0764,17,120.564,16,2.84181,0\C,20,1.38993,17,119.846,16,-179.607,0\H,22,1.08085,20,119.263,17,-179.321,0\C,22,1.38772,20,121.044,17,0.55427,0\C,24,1.39555,22,118.532,20,-0.830612,0\H,25,1.0641,24,121.85,22,176.54,0\C,24,1.50204,22,118.643,20,179.777,0\H,27,1.08443,24,108.337,22,51.2283,0\H,27,1.09091,24,106.728,22,-64.2791,0\H,27,1.1,24,116.51,22,175.182,0\\\@

 Total job time:  79041.86s(wall), 48780.51s(cpu) 
 Sun Sep 26 23:59:27 2021

        *************************************************************
        *                                                           *
        *  Thank you very much for using Q-Chem.  Have a nice day.  *
        *                                                           *
        *************************************************************


