
Running Job 1 of 1 SSI-007ASP-011GLN-1_SMD_TZVPD.in
qchem SSI-007ASP-011GLN-1_SMD_TZVPD.in_33500.0 /tmp/qchem33500/ 0
/global/common/cori/software/qchem/5.2/exe/qcprog.exe_s SSI-007ASP-011GLN-1_SMD_TZVPD.in_33500.0 /tmp/qchem33500/
                  Welcome to Q-Chem
     A Quantum Leap Into The Future Of Chemistry


 Q-Chem 5.2, Q-Chem, Inc., Pleasanton, CA (2019)

 License issued to: National Energy Research Scientific Computing Center

 Yihan Shao,  Zhengting Gan,  E. Epifanovsky,  A. T. B. Gilbert,  M. Wormit,  
 J. Kussmann,  A. W. Lange,  A. Behn,  Jia Deng,  Xintian Feng,  D. Ghosh,  
 M. Goldey,  P. R. Horn,  L. D. Jacobson,  I. Kaliman,  T. Kus,  A. Landau,  
 Jie Liu,  E. I. Proynov,  R. M. Richard,  R. P. Steele,  E. J. Sundstrom,  
 H. L. Woodcock III,  P. M. Zimmerman,  D. Zuev,  B. Albrecht,  E. Alguire,  
 S. A. Baeppler,  D. Barton,  Z. Benda,  Y. A. Bernard,  E. J. Berquist,  
 K. B. Bravaya,  H. Burton,  D. Casanova,  Chun-Min Chang,  Yunqing Chen,  
 A. Chien,  K. D. Closser,  M. P. Coons,  S. Coriani,  S. Dasgupta,  
 A. L. Dempwolff,  M. Diedenhofen,  Hainam Do,  R. G. Edgar,  Po-Tung Fang,  
 S. Faraji,  S. Fatehi,  Qingguo Feng,  K. D. Fenk,  J. Fosso-Tande,  
 J. Gayvert,  Qinghui Ge,  A. Ghysels,  G. Gidofalvi,  J. Gomes,  
 J. Gonthier,  A. Gunina,  D. Hait,  M. W. D. Hanson-Heine,  
 P. H. P. Harbach,  A. W. Hauser,  M. F. Herbst,  J. E. Herr,  
 E. G. Hohenstein,  Z. C. Holden,  Kerwin Hui,  B. C. Huynh,  T.-C. Jagau,  
 Hyunjun Ji,  B. Kaduk,  K. Khistyaev,  Jaehoon Kim,  P. Klunzinger,  K. Koh,  
 D. Kosenkov,  L. Koulias,  T. Kowalczyk,  C. M. Krauter,  A. Kunitsa,  
 Ka Un Lao,  A. Laurent,  K. V. Lawler,  Joonho Lee,  D. Lefrancois,  
 S. Lehtola,  D. S. Levine,  Yi-Pei Li,  You-Sheng Lin,  Fenglai Liu,  
 E. Livshits,  A. Luenser,  P. Manohar,  E. Mansoor,  S. F. Manzer,  
 Shan-Ping Mao,  Yuezhi Mao,  N. Mardirossian,  A. V. Marenich,  
 T. Markovich,  L. A. Martinez-Martinez,  S. A. Maurer,  N. J. Mayhall,  
 S. C. McKenzie,  J.-M. Mewes,  P. Morgante,  A. F. Morrison,  
 J. W. Mullinax,  K. Nanda,  T. S. Nguyen-Beck,  R. Olivares-Amaya,  
 J. A. Parkhill,  Zheng Pei,  T. M. Perrine,  F. Plasser,  P. Pokhilko,  
 S. Prager,  A. Prociuk,  E. Ramos,  D. R. Rehn,  F. Rob,  M. Scheurer,  
 M. Schneider,  N. Sergueev,  S. M. Sharada,  S. Sharma,  D. W. Small,  
 T. Stauch,  T. Stein,  Yu-Chuan Su,  A. J. W. Thom,  A. Tkatchenko,  
 T. Tsuchimochi,  N. M. Tubman,  L. Vogt,  M. L. Vidal,  O. Vydrov,  
 M. A. Watson,  J. Wenzel,  M. de Wergifosse,  T. A. Wesolowski,  A. White,  
 J. Witte,  A. Yamada,  Jun Yang,  K. Yao,  S. Yeganeh,  S. R. Yost,  
 Zhi-Qiang You,  A. Zech,  Igor Ying Zhang,  Xing Zhang,  Yan Zhao,  
 Ying Zhu,  B. R. Brooks,  G. K. L. Chan,  C. J. Cramer,  M. S. Gordon,  
 W. J. Hehre,  A. Klamt,  M. W. Schmidt,  C. D. Sherrill,  D. G. Truhlar,  
 A. Aspuru-Guzik,  R. Baer,  A. T. Bell,  N. A. Besley,  Jeng-Da Chai,  
 A. E. DePrince, III,  R. A. DiStasio Jr.,  A. Dreuw,  B. D. Dunietz,  
 T. R. Furlani,  Chao-Ping Hsu,  Yousung Jung,  Jing Kong,  D. S. Lambrecht,  
 WanZhen Liang,  C. Ochsenfeld,  V. A. Rassolov,  L. V. Slipchenko,  
 J. E. Subotnik,  T. Van Voorhis,  J. M. Herbert,  A. I. Krylov,  
 P. M. W. Gill,  M. Head-Gordon

 Contributors to earlier versions of Q-Chem not listed above: 
 R. D. Adamson,  B. Austin,  J. Baker,  G. J. O. Beran,  K. Brandhorst,  
 S. T. Brown,  E. F. C. Byrd,  A. K. Chakraborty,  C.-L. Cheng,  
 Siu Hung Chien,  D. M. Chipman,  D. L. Crittenden,  H. Dachsel,  
 R. J. Doerksen,  A. D. Dutoi,  L. Fusti-Molnar,  W. A. Goddard III,  
 A. Golubeva-Zadorozhnaya,  S. R. Gwaltney,  G. Hawkins,  A. Heyden,  
 S. Hirata,  G. Kedziora,  F. J. Keil,  C. Kelley,  Jihan Kim,  R. A. King,  
 R. Z. Khaliullin,  P. P. Korambath,  W. Kurlancheek,  A. M. Lee,  M. S. Lee,  
 S. V. Levchenko,  Ching Yeh Lin,  D. Liotard,  R. C. Lochan,  I. Lotan,  
 P. E. Maslen,  N. Nair,  D. P. O'Neill,  D. Neuhauser,  E. Neuscamman,  
 C. M. Oana,  R. Olson,  B. Peters,  R. Peverati,  P. A. Pieniazek,  
 Y. M. Rhee,  J. Ritchie,  M. A. Rohrdanz,  E. Rosta,  N. J. Russ,  
 H. F. Schaefer III,  N. E. Schultz,  N. Shenvi,  A. C. Simmonett,  A. Sodt,  
 D. Stuck,  K. S. Thanthiriwatte,  V. Vanovschi,  Tao Wang,  A. Warshel,  
 C. F. Williams,  Q. Wu,  X. Xu,  W. Zhang

 Please cite Q-Chem as follows:
 Y. Shao et al., Mol. Phys. 113, 184-215 (2015)
 DOI: 10.1080/00268976.2014.952696

 Q-Chem 5.2.0 for Intel X86 EM64T Linux

 Parts of Q-Chem use Armadillo 8.300.2 (Tropical Shenanigans).
 http://arma.sourceforge.net/

 Q-Chem begins on Sun Sep 26 01:55:41 2021  

Host: cori01
0

     Scratch files written to /tmp/qchem33500//
 May1019 |scratch|qcdevops|jenkins|workspace|build_RNUM -1
Processing $rem in /global/common/cori/software/qchem/5.2/config/preferences:
	 MEM_TOTAL  96000 
NAlpha2: 64
NElect   64
Mult     1
Symmetry turned off for PCM/SM12/SMD calculation

 Q-Chem warning in module libgen/rem_setup.C, line 2803:

 Neither GIA nor STOLL is specified by user. Use STOLL as the default


Checking the input file for inconsistencies... 	...done.

--------------------------------------------------------------
User input:
--------------------------------------------------------------
$comment
SSI-007ASP-011GLN-1.pdb
$end

$molecule
-1 1
--
-1 1
C    1.809469767376    3.004613036786   -0.813665838131
C    0.617469767376    2.122613036786   -0.457665838131
O   -0.113530232624    1.634613036786   -1.344665838131
O    0.388469767376    1.873613036786    0.748334161869
H    1.693469767376    3.971613036786   -0.320665838131
H    1.836469767376    3.178613036786   -1.891665838131
H    2.756119767376    2.547913036786   -0.489203838131
--
0 1
C    0.748469767376   -2.088386963214    0.742334161869
C   -0.728530232624   -2.129386963214    0.412334161869
O   -1.225530232624   -1.306386963214   -0.360665838131
N   -1.452530232624   -3.058386963214    1.023334161869
H    0.839469767376   -2.213386963214    1.822334161869
H    1.130469767376   -1.100386963214    0.505334161869
H   -2.444530232624   -3.100386963214    0.836334161869
H   -1.020530232624   -3.705386963214    1.668334161869
H    1.343019767376   -2.857766963214    0.227971161869
$end

$rem
JOBTYPE			EDA
EDA2			1
method			wB97X-V
BASIS			def2-TZVPD
XC_GRID			000099000590
NL_GRID			1
UNRESTRICTED		FALSE
MAX_SCF_CYCLES		200
SYMMETRY		FALSE
SYM_IGNORE		TRUE
MEM_STATIC		2000
BASIS_LIN_DEP_THRESH 	6
THRESH 			14
SCF_CONVERGENCE 	8
SCF_PRINT_FRGM 		TRUE
SOLVENT_METHOD          SMD
$end

$SMX
SOLVENT			WATER
$END
--------------------------------------------------------------
 ----------------------------------------------------------------
             Standard Nuclear Orientation (Angstroms)
    I     Atom           X                Y                Z
 ----------------------------------------------------------------
    1      C       1.8094697674     3.0046130368    -0.8136658381
    2      C       0.6174697674     2.1226130368    -0.4576658381
    3      O      -0.1135302326     1.6346130368    -1.3446658381
    4      O       0.3884697674     1.8736130368     0.7483341619
    5      H       1.6934697674     3.9716130368    -0.3206658381
    6      H       1.8364697674     3.1786130368    -1.8916658381
    7      H       2.7561197674     2.5479130368    -0.4892038381
    8      C       0.7484697674    -2.0883869632     0.7423341619
    9      C      -0.7285302326    -2.1293869632     0.4123341619
   10      O      -1.2255302326    -1.3063869632    -0.3606658381
   11      N      -1.4525302326    -3.0583869632     1.0233341619
   12      H       0.8394697674    -2.2133869632     1.8223341619
   13      H       1.1304697674    -1.1003869632     0.5053341619
   14      H      -2.4445302326    -3.1003869632     0.8363341619
   15      H      -1.0205302326    -3.7053869632     1.6683341619
   16      H       1.3430197674    -2.8577669632     0.2279711619
 ----------------------------------------------------------------
 Nuclear Repulsion Energy =         346.16818366 hartrees
 There are       32 alpha and       32 beta electrons
 Requested basis set is def2-TZVPD
 There are 147 shells and 377 basis functions

 Total QAlloc Memory Limit  96000 MB
 Mega-Array Size      1956 MB
 MEM_STATIC part      2000 MB
 
 Citation of the SMD model:
 Marenich, A.V.; Cramer, C.J.; Truhlar, D.G.
 J. Phys. Chem. B 2009, 113, 6378-6396.
 iSolventCode=           1
 Solvent: water                                                           
 
 vradii
            1           2           3           4           5           6
    1   1.8500000   1.8500000   1.5200000   1.5200000   1.2000000   1.2000000
            7           8           9          10          11          12
    1   1.2000000   1.8500000   1.8500000   1.5200000   1.8900000   1.2000000
           13          14          15          16
    1   1.2000000   1.2000000   1.2000000   1.2000000
 Changing PCM_VDW_RADII to SMD_RADIUS
 Discretize the solute cavity surface with Lebedev spheres
	Using 110 Lebedev grid points for each H atom
	Using 194 Lebedev grid points for other atoms
	Atomic van der Waals radii will be scaled by 1.20
 Remove points where switching function is < 1.0e-08
 Keep 1364 surface tesserae and discard 1068 interior tesserae
 Molecular Surface Area = 169.867 Angst**2
 A cutoff of  1.0D-14 yielded   9539 shell pairs
 There are     63143 function pairs (     79851 Cartesian)
 Smallest overlap matrix eigenvalue = 7.57E-06

 Scale SEOQF with 1.000000e-01/1.000000e-01/1.000000e-01

 Standard Electronic Orientation quadrupole field applied
 Nucleus-field energy     =     0.0000000216 hartrees

 -----------------------------------------------------------------------
  General SCF calculation program by
  Eric Jon Sundstrom, Paul Horn, Yuezhi Mao, Dmitri Zuev, Alec White,
  David Stuck, Shaama M.S., Shane Yost, Joonho Lee, David Small,
  Daniel Levine, Susi Lehtola, Hugh Burton, Evgeny Epifanovsky
 -----------------------------------------------------------------------
================================================================
                 ALMO-EDA with the EDA2 driver                  
================================================================
 The second-generation ALMO-EDA (for DFT):                      
 P. R. Horn, Y. Mao and M. Head-Gordon, PCCP, 18, 23067 (2016)  
 Decomposition of the frozen energy:                            
 P. R. Horn, Y. Mao and M. Head-Gordon, JCP, 144, 114107 (2016) 
 FERF model for polarization:                                   
 P. R. Horn and M. Head-Gordon, JCP, 143, 114111 (2015)         
Using eda2 option set 1
Option set summary: Frozen orbital wavefunction, initial wavefunction decomposition, and nDQ polarization.
--------------------------------
Printing EDA Options
--------------------------------
eda_child_super_basis      0
fragmo_guess_mode          0
child_mp                   1
child_mp_orders            232
cls_elec                   1
cls_disp                   0
scfmi_mode                 1
scfmi_occs                 0
scfmi_virts                0
frz_relax                  0
frz_relax_method           0
dc_pen_start               0
dc_pen_conv                0
dc_pen_increment           0
dc_pen_steps               0
dc_pen_thresh_factor       0
dc_pen_pre_newton_thresh   0
frz_ortho_decomp           1
frz_ortho_decomp_conv      6
frgm_method                2
scfmi_freeze_ss            0
separate_rehyb             0
plot_diff_den              0
eda_nocv                   0
eda_vct_relax              1
disp_free_x                0
disp_free_c                0
eda_bsse                   0
eda_pct_a                  0
eda_covp                   0
--------------------------------
Attempting to make child job directory: /tmp/qchem33500//Frg1/
Attempting to make child job directory: /tmp/qchem33500//Frg2/
Creating input file /tmp/qchem33500/Frg1.input
using default PutDataFrgm: nothing
calling putenv with: QCSCRATCH=/tmp/qchem33500/ 
calling putenv with: QCLOCALSCR=/tmp/qchem33500/ 
Spawning Job For Fragment 0
                  Welcome to Q-Chem
     A Quantum Leap Into The Future Of Chemistry


 Q-Chem 5.2, Q-Chem, Inc., Pleasanton, CA (2019)

 License issued to: National Energy Research Scientific Computing Center

 Yihan Shao,  Zhengting Gan,  E. Epifanovsky,  A. T. B. Gilbert,  M. Wormit,  
 J. Kussmann,  A. W. Lange,  A. Behn,  Jia Deng,  Xintian Feng,  D. Ghosh,  
 M. Goldey,  P. R. Horn,  L. D. Jacobson,  I. Kaliman,  T. Kus,  A. Landau,  
 Jie Liu,  E. I. Proynov,  R. M. Richard,  R. P. Steele,  E. J. Sundstrom,  
 H. L. Woodcock III,  P. M. Zimmerman,  D. Zuev,  B. Albrecht,  E. Alguire,  
 S. A. Baeppler,  D. Barton,  Z. Benda,  Y. A. Bernard,  E. J. Berquist,  
 K. B. Bravaya,  H. Burton,  D. Casanova,  Chun-Min Chang,  Yunqing Chen,  
 A. Chien,  K. D. Closser,  M. P. Coons,  S. Coriani,  S. Dasgupta,  
 A. L. Dempwolff,  M. Diedenhofen,  Hainam Do,  R. G. Edgar,  Po-Tung Fang,  
 S. Faraji,  S. Fatehi,  Qingguo Feng,  K. D. Fenk,  J. Fosso-Tande,  
 J. Gayvert,  Qinghui Ge,  A. Ghysels,  G. Gidofalvi,  J. Gomes,  
 J. Gonthier,  A. Gunina,  D. Hait,  M. W. D. Hanson-Heine,  
 P. H. P. Harbach,  A. W. Hauser,  M. F. Herbst,  J. E. Herr,  
 E. G. Hohenstein,  Z. C. Holden,  Kerwin Hui,  B. C. Huynh,  T.-C. Jagau,  
 Hyunjun Ji,  B. Kaduk,  K. Khistyaev,  Jaehoon Kim,  P. Klunzinger,  K. Koh,  
 D. Kosenkov,  L. Koulias,  T. Kowalczyk,  C. M. Krauter,  A. Kunitsa,  
 Ka Un Lao,  A. Laurent,  K. V. Lawler,  Joonho Lee,  D. Lefrancois,  
 S. Lehtola,  D. S. Levine,  Yi-Pei Li,  You-Sheng Lin,  Fenglai Liu,  
 E. Livshits,  A. Luenser,  P. Manohar,  E. Mansoor,  S. F. Manzer,  
 Shan-Ping Mao,  Yuezhi Mao,  N. Mardirossian,  A. V. Marenich,  
 T. Markovich,  L. A. Martinez-Martinez,  S. A. Maurer,  N. J. Mayhall,  
 S. C. McKenzie,  J.-M. Mewes,  P. Morgante,  A. F. Morrison,  
 J. W. Mullinax,  K. Nanda,  T. S. Nguyen-Beck,  R. Olivares-Amaya,  
 J. A. Parkhill,  Zheng Pei,  T. M. Perrine,  F. Plasser,  P. Pokhilko,  
 S. Prager,  A. Prociuk,  E. Ramos,  D. R. Rehn,  F. Rob,  M. Scheurer,  
 M. Schneider,  N. Sergueev,  S. M. Sharada,  S. Sharma,  D. W. Small,  
 T. Stauch,  T. Stein,  Yu-Chuan Su,  A. J. W. Thom,  A. Tkatchenko,  
 T. Tsuchimochi,  N. M. Tubman,  L. Vogt,  M. L. Vidal,  O. Vydrov,  
 M. A. Watson,  J. Wenzel,  M. de Wergifosse,  T. A. Wesolowski,  A. White,  
 J. Witte,  A. Yamada,  Jun Yang,  K. Yao,  S. Yeganeh,  S. R. Yost,  
 Zhi-Qiang You,  A. Zech,  Igor Ying Zhang,  Xing Zhang,  Yan Zhao,  
 Ying Zhu,  B. R. Brooks,  G. K. L. Chan,  C. J. Cramer,  M. S. Gordon,  
 W. J. Hehre,  A. Klamt,  M. W. Schmidt,  C. D. Sherrill,  D. G. Truhlar,  
 A. Aspuru-Guzik,  R. Baer,  A. T. Bell,  N. A. Besley,  Jeng-Da Chai,  
 A. E. DePrince, III,  R. A. DiStasio Jr.,  A. Dreuw,  B. D. Dunietz,  
 T. R. Furlani,  Chao-Ping Hsu,  Yousung Jung,  Jing Kong,  D. S. Lambrecht,  
 WanZhen Liang,  C. Ochsenfeld,  V. A. Rassolov,  L. V. Slipchenko,  
 J. E. Subotnik,  T. Van Voorhis,  J. M. Herbert,  A. I. Krylov,  
 P. M. W. Gill,  M. Head-Gordon

 Contributors to earlier versions of Q-Chem not listed above: 
 R. D. Adamson,  B. Austin,  J. Baker,  G. J. O. Beran,  K. Brandhorst,  
 S. T. Brown,  E. F. C. Byrd,  A. K. Chakraborty,  C.-L. Cheng,  
 Siu Hung Chien,  D. M. Chipman,  D. L. Crittenden,  H. Dachsel,  
 R. J. Doerksen,  A. D. Dutoi,  L. Fusti-Molnar,  W. A. Goddard III,  
 A. Golubeva-Zadorozhnaya,  S. R. Gwaltney,  G. Hawkins,  A. Heyden,  
 S. Hirata,  G. Kedziora,  F. J. Keil,  C. Kelley,  Jihan Kim,  R. A. King,  
 R. Z. Khaliullin,  P. P. Korambath,  W. Kurlancheek,  A. M. Lee,  M. S. Lee,  
 S. V. Levchenko,  Ching Yeh Lin,  D. Liotard,  R. C. Lochan,  I. Lotan,  
 P. E. Maslen,  N. Nair,  D. P. O'Neill,  D. Neuhauser,  E. Neuscamman,  
 C. M. Oana,  R. Olson,  B. Peters,  R. Peverati,  P. A. Pieniazek,  
 Y. M. Rhee,  J. Ritchie,  M. A. Rohrdanz,  E. Rosta,  N. J. Russ,  
 H. F. Schaefer III,  N. E. Schultz,  N. Shenvi,  A. C. Simmonett,  A. Sodt,  
 D. Stuck,  K. S. Thanthiriwatte,  V. Vanovschi,  Tao Wang,  A. Warshel,  
 C. F. Williams,  Q. Wu,  X. Xu,  W. Zhang

 Please cite Q-Chem as follows:
 Y. Shao et al., Mol. Phys. 113, 184-215 (2015)
 DOI: 10.1080/00268976.2014.952696

 Q-Chem 5.2.0 for Intel X86 EM64T Linux

 Parts of Q-Chem use Armadillo 8.300.2 (Tropical Shenanigans).
 http://arma.sourceforge.net/

 Q-Chem begins on Sun Sep 26 01:55:45 2021  

Host: cori01
0

     Scratch files written to /tmp/qchem33500//Frg1//
 May1019 |scratch|qcdevops|jenkins|workspace|build_RNUM -1
Processing $rem in /global/common/cori/software/qchem/5.2/config/preferences:
	 MEM_TOTAL  96000 
NAlpha2: 32
NElect   32
Mult     1
Symmetry turned off for PCM/SM12/SMD calculation

Checking the input file for inconsistencies... 	...done.

--------------------------------------------------------------
User input:
--------------------------------------------------------------
$molecule
-1 1
 6	1.8094697674	3.0046130368	-0.8136658381
 6	0.6174697674	2.1226130368	-0.4576658381
 8	-0.1135302326	1.6346130368	-1.3446658381
 8	0.3884697674	1.8736130368	0.7483341619
 1	1.6934697674	3.9716130368	-0.3206658381
 1	1.8364697674	3.1786130368	-1.8916658381
 1	2.7561197674	2.5479130368	-0.4892038381
$end
$rem
EDA2		1
METHOD		WB97X-V
BASIS		DEF2-TZVPD
XC_GRID		000099000590
NL_GRID		1
UNRESTRICTED		FALSE
MAX_SCF_CYCLES		200
SYMMETRY		FALSE
SYM_IGNORE		TRUE
BASIS_LIN_DEP_THRESH		6
THRESH		14
SCF_CONVERGENCE		8
SCF_PRINT_FRGM		TRUE
SOLVENT_METHOD		SMD
!required keywords
JOBTYPE		SP
SYM_IGNORE		TRUE
SUBSYSTEM		TRUE
GEN_SCFMAN		TRUE
CHILD_INSTRUCTION		2
SYM_IGNORE		TRUE
SCFMI		0
RI_K 0		
PARI_K 0		
MIN_PARI_K 0		
IARI_K 0		
OCC_RI_K 0		
PURECART		1111
MEM_STATIC		2000
MEM_TOTAL		96000
GUI		0
CHILD_MP		1
CHILD_MP_ORDERS		232
FRZ_RELAX		0
FRZ_RELAX_METHOD		0
EDA_CLS_ELEC		1
EDA_CLS_DISP		0
FRZ_ORTHO_DECOMP		1
EDA2		FALSE
FRGM_METHOD		FALSE
CIS_N_ROOTS  0
LOCAL_CIS    0
CIS_RLX_DNS  1
$end
$smx
SOLVENT			WATER
$end
--------------------------------------------------------------
 ----------------------------------------------------------------
             Standard Nuclear Orientation (Angstroms)
    I     Atom           X                Y                Z
 ----------------------------------------------------------------
    1      C       1.8094697674     3.0046130368    -0.8136658381
    2      C       0.6174697674     2.1226130368    -0.4576658381
    3      O      -0.1135302326     1.6346130368    -1.3446658381
    4      O       0.3884697674     1.8736130368     0.7483341619
    5      H       1.6934697674     3.9716130368    -0.3206658381
    6      H       1.8364697674     3.1786130368    -1.8916658381
    7      H       2.7561197674     2.5479130368    -0.4892038381
 ----------------------------------------------------------------
 Nuclear Repulsion Energy =         112.62030545 hartrees
 There are       16 alpha and       16 beta electrons
 Requested basis set is def2-TZVPD
 There are 69 shells and 181 basis functions

 Total QAlloc Memory Limit  96000 MB
 Mega-Array Size      1956 MB
 MEM_STATIC part      2000 MB
 
 Citation of the SMD model:
 Marenich, A.V.; Cramer, C.J.; Truhlar, D.G.
 J. Phys. Chem. B 2009, 113, 6378-6396.
 iSolventCode=           1
 Solvent: water                                                           
 
 vradii
            1           2           3           4           5           6
    1   1.8500000   1.8500000   1.5200000   1.5200000   1.2000000   1.2000000
            7
    1   1.2000000
 Changing PCM_VDW_RADII to SMD_RADIUS
 Discretize the solute cavity surface with Lebedev spheres
	Using 110 Lebedev grid points for each H atom
	Using 194 Lebedev grid points for other atoms
	Atomic van der Waals radii will be scaled by 1.20
 Remove points where switching function is < 1.0e-08
 Keep 638 surface tesserae and discard 468 interior tesserae
 Molecular Surface Area = 79.827 Angst**2

                       Distance Matrix (Angstroms)
             C (  1)   C (  2)   O (  3)   O (  4)   H (  5)   H (  6)
   C (  2)  1.524967
   O (  3)  2.420081  1.248709
   O (  4)  2.395464  1.252549  2.165589
   H (  5)  1.091602  2.143676  3.126563  2.692098
   H (  6)  1.092286  2.158113  2.546693  3.281666  1.765599
   H (  7)  1.099999  2.180756  3.130627  2.755349  1.784531  1.791770

 
 A cutoff of  1.0D-14 yielded   2390 shell pairs
 There are     16694 function pairs (     21490 Cartesian)
 Smallest overlap matrix eigenvalue = 1.61E-05

 Scale SEOQF with 1.000000e-01/1.000000e-01/1.000000e-01

 Standard Electronic Orientation quadrupole field applied
 Nucleus-field energy     =     0.0000000100 hartrees
 Guess from superposition of atomic densities
 Warning:  Energy on first SCF cycle will be non-variational
 SAD guess density has 30.625312 electrons

 -----------------------------------------------------------------------
  General SCF calculation program by
  Eric Jon Sundstrom, Paul Horn, Yuezhi Mao, Dmitri Zuev, Alec White,
  David Stuck, Shaama M.S., Shane Yost, Joonho Lee, David Small,
  Daniel Levine, Susi Lehtola, Hugh Burton, Evgeny Epifanovsky
 -----------------------------------------------------------------------
 Exchange:     0.1670 Hartree-Fock + 1.0000 wB97X-V + LR-HF
 Correlation:  1.0000 wB97X-V
 Using Euler-Maclaurin-Lebedev (99,590) quadrature formula
 Nonlocal Correlation:  VV10 with C = 0.0100 and b = 6.00 and scale = 1.00000
 Grid used for NLC:  SG-1 standard quadrature
Energy prior to optimization (guess energy) = -227.751414736585
Begin Timing: Total SCF Calculation
begin iterations for algorithm: DIIS         
the SCF tolerance is set to 1.00e-08
    1    -227.7514147366      1.67e-02     00000 
    2    -225.5389924078      2.53e-02     00000 
    3    -228.6044361619      4.08e-03     00000 
    4    -228.6579550779      1.38e-03     00000 
    5    -228.6639961342      2.06e-04     00000 
    6    -228.6642628854      6.78e-05     00000 
    7    -228.6642828404      2.78e-05     00000 
    8    -228.6642857914      1.48e-05     00000 
    9    -228.6642867291      4.46e-06     00000 
   10    -228.6642868550      1.18e-06     00000 
   11    -228.6642868667      2.64e-07     00000 
   12    -228.6642868673      5.99e-08     00000 
   13    -228.6642868673      1.56e-08     00000 
   14    -228.6642868673      4.04e-09     00000 Convergence criterion met
Timing for Total SCF: 288.00s (wall), 568.13s (cpu)
(3)  G-ENP(liq) elect-nuc-pol free energy of system     -228.664286867 a.u.
(4)  G-CDS(liq) cavity-dispersion-solvent structure 
     free energy                                                3.9142 kcal/mol
(6)  G-S(liq) free energy of system                     -228.658049137 a.u.
E_pcm = -0.1328957385
E_cds = 0.0062377301
Multipole orders to be included
        2
        3
computing dipole RHS
computing quadrupole RHS
total number of RHS in solve_reponses: 8
RHS batch sizes
        8
Beginning Block Conjugate Gradient Iterations. Batch Number: 0
computing hessian-vector products by finite difference
              1      7.58e-01     00000 Conjugate Gradient Iteration
computing hessian-vector products by finite difference
              2      2.41e-01     00000 Conjugate Gradient Iteration
computing hessian-vector products by finite difference
              3      6.77e-02     00000 Conjugate Gradient Iteration
computing hessian-vector products by finite difference
              4      1.82e-02     00000 Conjugate Gradient Iteration
computing hessian-vector products by finite difference
              5      2.64e-03     00000 Conjugate Gradient Iteration
computing hessian-vector products by finite difference
              6      6.87e-04     00000 Conjugate Gradient Iteration
computing hessian-vector products by finite difference
              7      9.88e-05     00000 Conjugate Gradient Iteration
computing hessian-vector products by finite difference
              8      1.20e-05     00000 Conjugate Gradient Iteration
computing hessian-vector products by finite difference
              9      1.81e-06     00000 Conjugate Gradient Iteration
computing hessian-vector products by finite difference
             10      1.80e-07     00000 Conjugate Gradient Iteration
computing hessian-vector products by finite difference
             11      2.94e-08     00000 Conjugate Gradient Iteration
computing hessian-vector products by finite difference
             12      6.14e-09     00000 CG Converged
batch 0 complete
Done Calculating Responses
TESTING ORTHOGONALIZATION OF MULTIPOLE BASIS
Multipole virts passed orthogonality test
Virts Per Order
        48
        80
 
 --------------------------------------------------------------
 
                    Orbital Energies (a.u.)
 --------------------------------------------------------------
 
 Alpha MOs
 -- Occupied --
-19.1524 -19.1495 -10.3537 -10.2495  -1.1671  -1.0611  -0.8418  -0.6173
 -0.5474  -0.5466  -0.5410  -0.4813  -0.4650  -0.3633  -0.3613  -0.3403
 -- Virtual --
  0.0672   0.0999   0.1006   0.1072   0.1350   0.1444   0.1461   0.1499
  0.1564   0.1896   0.2019   0.2274   0.2319   0.2375   0.2607   0.2655
  0.2989   0.3165   0.3332   0.3468   0.3522   0.3597   0.3702   0.3858
  0.3902   0.3946   0.4165   0.4253   0.4266   0.4539   0.4682   0.4714
  0.4839   0.4897   0.5059   0.5089   0.5473   0.5630   0.5843   0.6004
  0.6098   0.6203   0.6274   0.6499   0.6552   0.6657   0.6786   0.6996
  0.7067   0.7245   0.7632   0.7902   0.8043   0.8078   0.8357   0.8490
  0.8568   0.9580   0.9665   0.9813   0.9829   1.0348   1.0385   1.1118
  1.1661   1.1713   1.2405   1.2658   1.2790   1.3017   1.3269   1.3300
  1.4414   1.5544   1.5858   1.7314   1.8004   1.8486   1.8532   1.9042
  1.9077   1.9324   1.9461   1.9597   1.9979   2.0972   2.1160   2.1480
  2.1895   2.1999   2.3097   2.3241   2.3850   2.4256   2.4567   2.4817
  2.5707   2.5802   2.5994   2.6459   2.7888   2.8032   2.8833   2.9336
  2.9384   2.9662   3.0029   3.1639   3.1818   3.2347   3.2669   3.3003
  3.3186   3.3305   3.3868   3.3900   3.4148   3.5271   3.5369   3.5486
  3.6030   3.6229   3.6764   3.7392   3.7501   3.8858   3.9205   4.0360
  4.0679   4.1625   4.3271   4.5172   4.6166   4.6518   4.7848   4.8182
  4.9830   5.2991   5.3231   5.3350   5.3388   5.4487   5.6716   5.7770
  5.7872   6.0264   6.1754   6.3277   6.3392   6.5698   6.5971   6.7087
  6.7153   6.7300   6.9248   6.9558   7.0011   7.2319   7.2790   7.3693
  7.3809  22.5755  23.7100  44.1967  44.3171
 --------------------------------------------------------------
 
          Ground-State Mulliken Net Atomic Charges

     Atom                 Charge (a.u.)
  ----------------------------------------
      1 C                    -0.586128
      2 C                     0.506267
      3 O                    -0.770032
      4 O                    -0.784936
      5 H                     0.209736
      6 H                     0.207866
      7 H                     0.217226
  ----------------------------------------
  Sum of atomic charges =    -1.000000

 -----------------------------------------------------------------
                    Cartesian Multipole Moments
 -----------------------------------------------------------------
    Charge (ESU x 10^10)
                -4.8032
    Dipole Moment (Debye)
         X       1.2284      Y      -6.9790      Z       0.7885
       Tot       7.1300
    Quadrupole Moments (Debye-Ang)
        XX     -24.2579     XY       2.6439     YY     -34.2956
        XZ      -3.0531     YZ      -0.3552     ZZ     -35.3439
    Octopole Moments (Debye-Ang^2)
       XXX     -52.6200    XXY     -53.5392    XYY     -12.2767
       YYY    -174.1621    XXZ      10.8523    XYZ      -6.1705
       YYZ       8.3968    XZZ     -18.7855    YZZ     -72.6109
       ZZZ      45.1740
    Hexadecapole Moments (Debye-Ang^3)
      XXXX    -200.3484   XXXY    -153.1550   XXYY    -168.0040
      XYYY    -140.2908   YYYY    -804.0299   XXXZ      29.3630
      XXYZ      25.9074   XYYZ      -2.3512   YYYZ      74.2722
      XXZZ     -64.4999   XYZZ     -52.0954   YYZZ    -193.7658
      XZZZ      26.0358   YZZZ      97.3685   ZZZZ    -185.4700
 -----------------------------------------------------------------
Archival summary:
1\1\nid00549\SP\ProcedureUnspecified\BasisUnspecified\223(1-,1)\meili\SunSep2603:15:082021SunSep2603:15:082021\0\\#,ProcedureUnspecified,BasisUnspecified,\\-1,1\C\O,1,1.24871\O,1,1.25255,2,119.948\C,1,1.52497,2,121.184,3,178.927,0\H,4,1.0916,1,108.896,2,122.686,0\H,4,1.09229,1,109.99,2,4.64687,0\H,4,1.1,1,111.327,2,-117.077,0\\\@

 Total job time:  4764.56s(wall), 9367.99s(cpu) 
 Sun Sep 26 03:15:09 2021

        *************************************************************
        *                                                           *
        *  Thank you very much for using Q-Chem.  Have a nice day.  *
        *                                                           *
        *************************************************************


Done Job For Fragment 0
calling putenv with: QCSCRATCH=/global/cscratch1/sd/meili 
calling putenv with: QCLOCALSCR=/tmp 
calling putenv with: QCTHREADS=32 
Creating input file /tmp/qchem33500/Frg2.input
using default PutDataFrgm: nothing
calling putenv with: QCSCRATCH=/tmp/qchem33500/ 
calling putenv with: QCLOCALSCR=/tmp/qchem33500/ 
Spawning Job For Fragment 1
                  Welcome to Q-Chem
     A Quantum Leap Into The Future Of Chemistry


 Q-Chem 5.2, Q-Chem, Inc., Pleasanton, CA (2019)

 License issued to: National Energy Research Scientific Computing Center

 Yihan Shao,  Zhengting Gan,  E. Epifanovsky,  A. T. B. Gilbert,  M. Wormit,  
 J. Kussmann,  A. W. Lange,  A. Behn,  Jia Deng,  Xintian Feng,  D. Ghosh,  
 M. Goldey,  P. R. Horn,  L. D. Jacobson,  I. Kaliman,  T. Kus,  A. Landau,  
 Jie Liu,  E. I. Proynov,  R. M. Richard,  R. P. Steele,  E. J. Sundstrom,  
 H. L. Woodcock III,  P. M. Zimmerman,  D. Zuev,  B. Albrecht,  E. Alguire,  
 S. A. Baeppler,  D. Barton,  Z. Benda,  Y. A. Bernard,  E. J. Berquist,  
 K. B. Bravaya,  H. Burton,  D. Casanova,  Chun-Min Chang,  Yunqing Chen,  
 A. Chien,  K. D. Closser,  M. P. Coons,  S. Coriani,  S. Dasgupta,  
 A. L. Dempwolff,  M. Diedenhofen,  Hainam Do,  R. G. Edgar,  Po-Tung Fang,  
 S. Faraji,  S. Fatehi,  Qingguo Feng,  K. D. Fenk,  J. Fosso-Tande,  
 J. Gayvert,  Qinghui Ge,  A. Ghysels,  G. Gidofalvi,  J. Gomes,  
 J. Gonthier,  A. Gunina,  D. Hait,  M. W. D. Hanson-Heine,  
 P. H. P. Harbach,  A. W. Hauser,  M. F. Herbst,  J. E. Herr,  
 E. G. Hohenstein,  Z. C. Holden,  Kerwin Hui,  B. C. Huynh,  T.-C. Jagau,  
 Hyunjun Ji,  B. Kaduk,  K. Khistyaev,  Jaehoon Kim,  P. Klunzinger,  K. Koh,  
 D. Kosenkov,  L. Koulias,  T. Kowalczyk,  C. M. Krauter,  A. Kunitsa,  
 Ka Un Lao,  A. Laurent,  K. V. Lawler,  Joonho Lee,  D. Lefrancois,  
 S. Lehtola,  D. S. Levine,  Yi-Pei Li,  You-Sheng Lin,  Fenglai Liu,  
 E. Livshits,  A. Luenser,  P. Manohar,  E. Mansoor,  S. F. Manzer,  
 Shan-Ping Mao,  Yuezhi Mao,  N. Mardirossian,  A. V. Marenich,  
 T. Markovich,  L. A. Martinez-Martinez,  S. A. Maurer,  N. J. Mayhall,  
 S. C. McKenzie,  J.-M. Mewes,  P. Morgante,  A. F. Morrison,  
 J. W. Mullinax,  K. Nanda,  T. S. Nguyen-Beck,  R. Olivares-Amaya,  
 J. A. Parkhill,  Zheng Pei,  T. M. Perrine,  F. Plasser,  P. Pokhilko,  
 S. Prager,  A. Prociuk,  E. Ramos,  D. R. Rehn,  F. Rob,  M. Scheurer,  
 M. Schneider,  N. Sergueev,  S. M. Sharada,  S. Sharma,  D. W. Small,  
 T. Stauch,  T. Stein,  Yu-Chuan Su,  A. J. W. Thom,  A. Tkatchenko,  
 T. Tsuchimochi,  N. M. Tubman,  L. Vogt,  M. L. Vidal,  O. Vydrov,  
 M. A. Watson,  J. Wenzel,  M. de Wergifosse,  T. A. Wesolowski,  A. White,  
 J. Witte,  A. Yamada,  Jun Yang,  K. Yao,  S. Yeganeh,  S. R. Yost,  
 Zhi-Qiang You,  A. Zech,  Igor Ying Zhang,  Xing Zhang,  Yan Zhao,  
 Ying Zhu,  B. R. Brooks,  G. K. L. Chan,  C. J. Cramer,  M. S. Gordon,  
 W. J. Hehre,  A. Klamt,  M. W. Schmidt,  C. D. Sherrill,  D. G. Truhlar,  
 A. Aspuru-Guzik,  R. Baer,  A. T. Bell,  N. A. Besley,  Jeng-Da Chai,  
 A. E. DePrince, III,  R. A. DiStasio Jr.,  A. Dreuw,  B. D. Dunietz,  
 T. R. Furlani,  Chao-Ping Hsu,  Yousung Jung,  Jing Kong,  D. S. Lambrecht,  
 WanZhen Liang,  C. Ochsenfeld,  V. A. Rassolov,  L. V. Slipchenko,  
 J. E. Subotnik,  T. Van Voorhis,  J. M. Herbert,  A. I. Krylov,  
 P. M. W. Gill,  M. Head-Gordon

 Contributors to earlier versions of Q-Chem not listed above: 
 R. D. Adamson,  B. Austin,  J. Baker,  G. J. O. Beran,  K. Brandhorst,  
 S. T. Brown,  E. F. C. Byrd,  A. K. Chakraborty,  C.-L. Cheng,  
 Siu Hung Chien,  D. M. Chipman,  D. L. Crittenden,  H. Dachsel,  
 R. J. Doerksen,  A. D. Dutoi,  L. Fusti-Molnar,  W. A. Goddard III,  
 A. Golubeva-Zadorozhnaya,  S. R. Gwaltney,  G. Hawkins,  A. Heyden,  
 S. Hirata,  G. Kedziora,  F. J. Keil,  C. Kelley,  Jihan Kim,  R. A. King,  
 R. Z. Khaliullin,  P. P. Korambath,  W. Kurlancheek,  A. M. Lee,  M. S. Lee,  
 S. V. Levchenko,  Ching Yeh Lin,  D. Liotard,  R. C. Lochan,  I. Lotan,  
 P. E. Maslen,  N. Nair,  D. P. O'Neill,  D. Neuhauser,  E. Neuscamman,  
 C. M. Oana,  R. Olson,  B. Peters,  R. Peverati,  P. A. Pieniazek,  
 Y. M. Rhee,  J. Ritchie,  M. A. Rohrdanz,  E. Rosta,  N. J. Russ,  
 H. F. Schaefer III,  N. E. Schultz,  N. Shenvi,  A. C. Simmonett,  A. Sodt,  
 D. Stuck,  K. S. Thanthiriwatte,  V. Vanovschi,  Tao Wang,  A. Warshel,  
 C. F. Williams,  Q. Wu,  X. Xu,  W. Zhang

 Please cite Q-Chem as follows:
 Y. Shao et al., Mol. Phys. 113, 184-215 (2015)
 DOI: 10.1080/00268976.2014.952696

 Q-Chem 5.2.0 for Intel X86 EM64T Linux

 Parts of Q-Chem use Armadillo 8.300.2 (Tropical Shenanigans).
 http://arma.sourceforge.net/

 Q-Chem begins on Sun Sep 26 03:15:10 2021  

Host: cori01
0

     Scratch files written to /tmp/qchem33500//Frg2//
 May1019 |scratch|qcdevops|jenkins|workspace|build_RNUM -1
Processing $rem in /global/common/cori/software/qchem/5.2/config/preferences:
	 MEM_TOTAL  96000 
NAlpha2: 32
NElect   32
Mult     1
Symmetry turned off for PCM/SM12/SMD calculation

Checking the input file for inconsistencies... 	...done.

--------------------------------------------------------------
User input:
--------------------------------------------------------------
$molecule
0 1
 6	0.7484697674	-2.0883869632	0.7423341619
 6	-0.7285302326	-2.1293869632	0.4123341619
 8	-1.2255302326	-1.3063869632	-0.3606658381
 7	-1.4525302326	-3.0583869632	1.0233341619
 1	0.8394697674	-2.2133869632	1.8223341619
 1	1.1304697674	-1.1003869632	0.5053341619
 1	-2.4445302326	-3.1003869632	0.8363341619
 1	-1.0205302326	-3.7053869632	1.6683341619
 1	1.3430197674	-2.8577669632	0.2279711619
$end
$rem
EDA2		1
METHOD		WB97X-V
BASIS		DEF2-TZVPD
XC_GRID		000099000590
NL_GRID		1
UNRESTRICTED		FALSE
MAX_SCF_CYCLES		200
SYMMETRY		FALSE
SYM_IGNORE		TRUE
BASIS_LIN_DEP_THRESH		6
THRESH		14
SCF_CONVERGENCE		8
SCF_PRINT_FRGM		TRUE
SOLVENT_METHOD		SMD
!required keywords
JOBTYPE		SP
SYM_IGNORE		TRUE
SUBSYSTEM		TRUE
GEN_SCFMAN		TRUE
CHILD_INSTRUCTION		2
SYM_IGNORE		TRUE
SCFMI		0
RI_K 0		
PARI_K 0		
MIN_PARI_K 0		
IARI_K 0		
OCC_RI_K 0		
PURECART		1111
MEM_STATIC		2000
MEM_TOTAL		96000
GUI		0
CHILD_MP		1
CHILD_MP_ORDERS		232
FRZ_RELAX		0
FRZ_RELAX_METHOD		0
EDA_CLS_ELEC		1
EDA_CLS_DISP		0
FRZ_ORTHO_DECOMP		1
EDA2		FALSE
FRGM_METHOD		FALSE
CIS_N_ROOTS  0
LOCAL_CIS    0
CIS_RLX_DNS  1
$end
$smx
SOLVENT			WATER
$end
--------------------------------------------------------------
 ----------------------------------------------------------------
             Standard Nuclear Orientation (Angstroms)
    I     Atom           X                Y                Z
 ----------------------------------------------------------------
    1      C       0.7484697674    -2.0883869632     0.7423341619
    2      C      -0.7285302326    -2.1293869632     0.4123341619
    3      O      -1.2255302326    -1.3063869632    -0.3606658381
    4      N      -1.4525302326    -3.0583869632     1.0233341619
    5      H       0.8394697674    -2.2133869632     1.8223341619
    6      H       1.1304697674    -1.1003869632     0.5053341619
    7      H      -2.4445302326    -3.1003869632     0.8363341619
    8      H      -1.0205302326    -3.7053869632     1.6683341619
    9      H       1.3430197674    -2.8577669632     0.2279711619
 ----------------------------------------------------------------
 Nuclear Repulsion Energy =         122.20186814 hartrees
 There are       16 alpha and       16 beta electrons
 Requested basis set is def2-TZVPD
 There are 78 shells and 196 basis functions

 Total QAlloc Memory Limit  96000 MB
 Mega-Array Size      1956 MB
 MEM_STATIC part      2000 MB
 
 Citation of the SMD model:
 Marenich, A.V.; Cramer, C.J.; Truhlar, D.G.
 J. Phys. Chem. B 2009, 113, 6378-6396.
 iSolventCode=           1
 Solvent: water                                                           
 
 vradii
            1           2           3           4           5           6
    1   1.8500000   1.8500000   1.5200000   1.8900000   1.2000000   1.2000000
            7           8           9
    1   1.2000000   1.2000000   1.2000000
 Changing PCM_VDW_RADII to SMD_RADIUS
 Discretize the solute cavity surface with Lebedev spheres
	Using 110 Lebedev grid points for each H atom
	Using 194 Lebedev grid points for other atoms
	Atomic van der Waals radii will be scaled by 1.20
 Remove points where switching function is < 1.0e-08
 Keep 726 surface tesserae and discard 600 interior tesserae
 Molecular Surface Area = 90.040 Angst**2

                       Distance Matrix (Angstroms)
             C (  1)   C (  2)   O (  3)   N (  4)   H (  5)   H (  6)
   C (  2)  1.513972
   O (  3)  2.392657  1.233640
   N (  4)  2.421624  1.326853  2.244212
   H (  5)  1.091011  2.110398  3.138847  2.570154
   H (  6)  1.085466  2.126822  2.518557  3.282374  1.748696
   H (  7)  3.350855  2.016748  2.477338  1.010345  3.541697  4.109767
   H (  8)  2.569343  2.036314  3.148661  1.010573  2.389431  3.572869
   H (  9)  1.100002  2.203599  3.057895  2.913409  1.791865  1.791785
             H (  7)   H (  8)
   H (  8)  1.756709
   H (  9)  3.843762  2.894732
 
 A cutoff of  1.0D-14 yielded   3053 shell pairs
 There are     19543 function pairs (     24701 Cartesian)
 Smallest overlap matrix eigenvalue = 1.05E-05

 Scale SEOQF with 1.000000e-01/1.000000e-01/1.000000e-01

 Standard Electronic Orientation quadrupole field applied
 Nucleus-field energy     =     0.0000000116 hartrees
 Guess from superposition of atomic densities
 Warning:  Energy on first SCF cycle will be non-variational
 SAD guess density has 31.604610 electrons

 -----------------------------------------------------------------------
  General SCF calculation program by
  Eric Jon Sundstrom, Paul Horn, Yuezhi Mao, Dmitri Zuev, Alec White,
  David Stuck, Shaama M.S., Shane Yost, Joonho Lee, David Small,
  Daniel Levine, Susi Lehtola, Hugh Burton, Evgeny Epifanovsky
 -----------------------------------------------------------------------
 Exchange:     0.1670 Hartree-Fock + 1.0000 wB97X-V + LR-HF
 Correlation:  1.0000 wB97X-V
 Using Euler-Maclaurin-Lebedev (99,590) quadrature formula
 Nonlocal Correlation:  VV10 with C = 0.0100 and b = 6.00 and scale = 1.00000
 Grid used for NLC:  SG-1 standard quadrature
Energy prior to optimization (guess energy) = -208.702920484470
Begin Timing: Total SCF Calculation
begin iterations for algorithm: DIIS         
the SCF tolerance is set to 1.00e-08
    1    -208.7029204845      1.26e-02     00000 
    2    -208.3136769910      1.55e-02     00000 
    3    -209.2356507343      2.39e-03     00000 
    4    -209.2547349701      7.81e-04     00000 
    5    -209.2578991400      2.03e-04     00000 
    6    -209.2581825173      6.81e-05     00000 
    7    -209.2582252725      2.10e-05     00000 
    8    -209.2582306974      6.14e-06     00000 
    9    -209.2582315129      2.09e-06     00000 
   10    -209.2582315659      3.62e-07     00000 
   11    -209.2582315673      1.52e-07     00000 
   12    -209.2582315674      2.09e-08     00000 
   13    -209.2582315675      4.88e-09     00000 Convergence criterion met
Timing for Total SCF: 362.00s (wall), 716.05s (cpu)
(3)  G-ENP(liq) elect-nuc-pol free energy of system     -209.258231567 a.u.
(4)  G-CDS(liq) cavity-dispersion-solvent structure 
     free energy                                                3.5184 kcal/mol
(6)  G-S(liq) free energy of system                     -209.252624709 a.u.
E_pcm = -0.0300026348
E_cds = 0.0056068582
Multipole orders to be included
        2
        3
computing dipole RHS
computing quadrupole RHS
total number of RHS in solve_reponses: 8
RHS batch sizes
        8
Beginning Block Conjugate Gradient Iterations. Batch Number: 0
computing hessian-vector products by finite difference
              1      6.21e-01     00000 Conjugate Gradient Iteration
computing hessian-vector products by finite difference
              2      1.91e-01     00000 Conjugate Gradient Iteration
computing hessian-vector products by finite difference
              3      5.22e-02     00000 Conjugate Gradient Iteration
computing hessian-vector products by finite difference
              4      1.32e-02     00000 Conjugate Gradient Iteration
computing hessian-vector products by finite difference
              5      1.81e-03     00000 Conjugate Gradient Iteration
computing hessian-vector products by finite difference
              6      4.12e-04     00000 Conjugate Gradient Iteration
computing hessian-vector products by finite difference
              7      5.54e-05     00000 Conjugate Gradient Iteration
computing hessian-vector products by finite difference
              8      6.31e-06     00000 Conjugate Gradient Iteration
computing hessian-vector products by finite difference
              9      9.90e-07     00000 Conjugate Gradient Iteration
computing hessian-vector products by finite difference
             10      2.66e-07     00000 Conjugate Gradient Iteration
computing hessian-vector products by finite difference
             11      3.64e-08     00000 Conjugate Gradient Iteration
computing hessian-vector products by finite difference
             12      4.07e-09     00000 CG Converged
batch 0 complete
Done Calculating Responses
TESTING ORTHOGONALIZATION OF MULTIPOLE BASIS
Multipole virts passed orthogonality test
Virts Per Order
        48
        80
 
 --------------------------------------------------------------
 
                    Orbital Energies (a.u.)
 --------------------------------------------------------------
 
 Alpha MOs
 -- Occupied --
-19.1839 -14.4272 -10.3784 -10.2617  -1.1744  -1.0414  -0.8631  -0.7079
 -0.6514  -0.5911  -0.5645  -0.5194  -0.4971  -0.4786  -0.3836  -0.3751
 -- Virtual --
  0.0643   0.0955   0.0965   0.1034   0.1286   0.1342   0.1404   0.1493
  0.1731   0.1898   0.2028   0.2173   0.2326   0.2453   0.2474   0.2602
  0.2627   0.2810   0.3089   0.3168   0.3323   0.3391   0.3477   0.3535
  0.3600   0.3702   0.3764   0.3830   0.3973   0.4065   0.4147   0.4243
  0.4331   0.4534   0.4594   0.4825   0.4857   0.4879   0.4916   0.5034
  0.5283   0.5360   0.5413   0.5743   0.5836   0.5912   0.6228   0.6363
  0.6472   0.6545   0.6683   0.6809   0.7081   0.7215   0.7265   0.7530
  0.7802   0.7910   0.7997   0.8140   0.8201   0.8480   0.8527   0.8746
  0.9206   0.9471   0.9836   0.9932   1.0075   1.0457   1.0568   1.1040
  1.1192   1.1852   1.2228   1.2514   1.2866   1.3218   1.3330   1.3911
  1.4823   1.4881   1.5070   1.6197   1.6764   1.7373   1.7482   1.8114
  1.8450   1.8709   1.8901   1.9194   1.9351   1.9474   1.9916   2.0299
  2.0592   2.0912   2.1532   2.1945   2.2311   2.2544   2.3044   2.3359
  2.3730   2.3992   2.4435   2.4918   2.5398   2.5767   2.6053   2.6288
  2.6949   2.7330   2.7640   2.8108   2.8491   2.9127   2.9485   2.9822
  3.0420   3.0853   3.1417   3.1808   3.2042   3.2315   3.2700   3.2832
  3.3111   3.3413   3.3478   3.4240   3.4679   3.5315   3.5553   3.5868
  3.6232   3.6353   3.7262   3.7622   3.8786   3.9402   4.0199   4.0585
  4.0871   4.1792   4.2914   4.3937   4.5486   4.5653   4.6336   4.6583
  4.7943   4.8912   4.9011   4.9387   5.1530   5.1787   5.2603   5.3506
  5.3876   5.3907   5.4123   5.4819   5.5289   5.7598   5.9023   6.1451
  6.2457   6.5118   6.6305   6.7269   6.8100   6.9699   7.2189   7.3111
 22.6005  23.5604  32.4143  44.2974
 --------------------------------------------------------------
 
          Ground-State Mulliken Net Atomic Charges

     Atom                 Charge (a.u.)
  ----------------------------------------
      1 C                    -0.653333
      2 C                     0.461423
      3 O                    -0.697086
      4 N                    -0.307807
      5 H                     0.235879
      6 H                     0.227049
      7 H                     0.253892
      8 H                     0.238549
      9 H                     0.241434
  ----------------------------------------
  Sum of atomic charges =     0.000000

 -----------------------------------------------------------------
                    Cartesian Multipole Moments
 -----------------------------------------------------------------
    Charge (ESU x 10^10)
                 0.0000
    Dipole Moment (Debye)
         X       1.2633      Y      -4.3690      Z       3.9298
       Tot       6.0106
    Quadrupole Moments (Debye-Ang)
        XX     -22.7011     XY       3.4821     YY      -5.6133
        XZ      -3.9224     YZ     -10.2624     ZZ     -22.0510
    Octopole Moments (Debye-Ang^2)
       XXX      33.6614    XXY      37.6586    XYY      -5.7819
       YYY      91.6662    XXZ      -5.0983    XYZ      11.2574
       YYZ      20.6121    XZZ      13.5293    YZZ      41.3361
       ZZZ     -30.3696
    Hexadecapole Moments (Debye-Ang^3)
      XXXX    -184.0270   XXXY     -57.2025   XXYY    -105.6751
      XYYY     -24.6858   YYYY    -550.9786   XXXZ      -5.1216
      XXYZ      14.2550   XYYZ     -34.1032   YYYZ     -13.1934
      XXZZ     -54.1171   XYZZ     -25.7573   YYZZ    -100.6956
      XZZZ      11.0587   YZZZ      79.8858   ZZZZ    -101.5448
 -----------------------------------------------------------------
Archival summary:
1\1\nid00549\SP\ProcedureUnspecified\BasisUnspecified\1125\meili\SunSep2605:11:112021SunSep2605:11:112021\0\\#,ProcedureUnspecified,BasisUnspecified,\\0,1\C\O,1,1.23364\N,1,1.32685,2,122.399\H,3,1.01034,1,118.661,2,0.957823,0\H,3,1.01057,1,120.591,2,-178.543,0\C,1,1.51397,2,120.767,3,-177.882,0\H,6,1.08547,1,108.686,2,19.7348,0\H,6,1.09101,1,107.1,2,134.919,0\H,6,1.1,1,113.981,2,-103.514,0\\\@

 Total job time:  6962.10s(wall), 13687.15s(cpu) 
 Sun Sep 26 05:11:13 2021

        *************************************************************
        *                                                           *
        *  Thank you very much for using Q-Chem.  Have a nice day.  *
        *                                                           *
        *************************************************************


Done Job For Fragment 1
calling putenv with: QCSCRATCH=/global/cscratch1/sd/meili 
calling putenv with: QCLOCALSCR=/tmp 
calling putenv with: QCTHREADS=32 
Doing General SCFMI
 Exchange:     0.1670 Hartree-Fock + 1.0000 wB97X-V + LR-HF
 Correlation:  1.0000 wB97X-V
 Using Euler-Maclaurin-Lebedev (99,590) quadrature formula
 Nonlocal Correlation:  VV10 with C = 0.0100 and b = 6.00 and scale = 1.00000
 Grid used for NLC:  SG-1 standard quadrature
performing fock build before subrot guess so that all methods have access
Printing subrot_rss_gen Method Specification:
Occupied Subspace Method is 0
Virtual Subspace Method is 0
Energy of the unrelaxed supersystem initial determinant -437.731062822906
performing fock build before subrot guess so that all methods have access
Printing subrot_rss_gen Method Specification:
Occupied Subspace Method is 0
Virtual Subspace Method is 0
Energy of the unrelaxed supersystem initial determinant w/ solvent -437.922916470593
write pseudocanon occs and virts to disk
write pseudocanon orbital energies to disk
Tolerance of ortho_decomp_scf: 1.00e-06
GDM subspace size: 20
Beginning the Orthogonal Decomposition of the Initial Supersystem Wavefunction
    1    -437.7464241046      4.23e-02     ortho_decomp Preconditoned Steepest Descent
    2    -437.7482599431      7.27e-04     ortho_decomp BFGS Step
    3    -437.7482634871      5.11e-05     ortho_decomp BFGS Step
    4    -437.7482634923      1.66e-06     ortho_decomp BFGS Step
    5    -437.7482634923      5.50e-08     ortho_decomp 00000 Convergence criterion met
 Hartree-Fock
 Hartree-Fock
 Hartree-Fock
Doing General SCFMI
 Exchange:     0.1670 Hartree-Fock + 1.0000 wB97X-V + LR-HF
 Correlation:  1.0000 wB97X-V
 Using Euler-Maclaurin-Lebedev (99,590) quadrature formula
 Nonlocal Correlation:  VV10 with C = 0.0100 and b = 6.00 and scale = 1.00000
 Grid used for NLC:  SG-1 standard quadrature
performing fock build at end of subrot_r(subrot) constructor so that all methods have access
<S^2> of initial wavefunction before polarization iterations 0.0000000000
Beginning iterations for the determination of the polarized wavefunction
Energy prior to optimization (guess energy) = -437.922916470593
Begin Timing: Total SCF Calculation
begin iterations for algorithm: DIIS         
the SCF tolerance is set to 1.00e-08
    1    -437.9229164706      3.72e-05     00000 
    2    -437.9229546869      3.09e-05     00000 
    3    -437.9229679088      7.90e-06     00000 
    4    -437.9229699566      3.29e-06     00000 
    5    -437.9229702651      1.06e-06     00000 
    6    -437.9229703226      6.31e-07     00000 
    7    -437.9229703336      1.33e-07     00000 
    8    -437.9229703348      4.92e-08     00000 
    9    -437.9229703349      3.18e-08     00000 
   10    -437.9229703349      7.48e-09     00000 Convergence criterion met
write pseudocanon occs and virts to disk
write pseudocanon orbital energies to disk
Timing for Total SCF: 1425.00s (wall), 2827.82s (cpu)
<S^2> of polarized wavefunction after polarization iterations 0.0000000000
relaxing scfmi constraint to allow all rotations in the entire AO span
Doing General SCFMI
 Exchange:     0.1670 Hartree-Fock + 1.0000 wB97X-V + LR-HF
 Correlation:  1.0000 wB97X-V
 Using Euler-Maclaurin-Lebedev (99,590) quadrature formula
 Nonlocal Correlation:  VV10 with C = 0.0100 and b = 6.00 and scale = 1.00000
 Grid used for NLC:  SG-1 standard quadrature
performing fock build at end of subrot_r(subrot) constructor so that all methods have access
<S^2> of polarized wavefunction before ct-allowed iterations 0.0000000000
Beginning iterations for the determination of the CT-Allowed wavefunction
Energy prior to optimization (guess energy) = -437.922970334891
Begin Timing: Total SCF Calculation
begin iterations for algorithm: DIIS         
the SCF tolerance is set to 1.00e-08
    1    -437.9229703349      6.48e-05     00000 
    2    -437.9232009024      5.63e-06     00000 
    3    -437.9232072332      1.15e-06     00000 
    4    -437.9232074382      9.92e-07     00000 
    5    -437.9232074869      1.38e-07     00000 
    6    -437.9232074896      7.14e-08     00000 
    7    -437.9232074900      2.50e-08     00000 
    8    -437.9232074901      8.47e-09     00000 Convergence criterion met
write pseudocanon occs and virts to disk
write pseudocanon orbital energies to disk
Timing for Total SCF: 1140.00s (wall), 2262.51s (cpu)
<S^2> of ct_allowed wavefunction after ct-allowed iterations 0.0000000000

================================
        Results of EDA2         
================================
Basic EDA Quantities
--------------------
Fragment Energies (Ha):
1 -228.6580491373
2 -209.2526247092
--------------------
  E_prp (kJ/mol) = -0.0000
  E_sol (kJ/mol) = -78.0247
  E_frz (kJ/mol) = 74.9779
  E_pol (kJ/mol) = -0.1414
  E_vct (kJ/mol) = -0.6227
  E_int (kJ/mol) = -3.8108
--------------------


Initial Wavefunction Decomposition
--------------------
  --------------------
  Orthogonal Fragment Subspace Decomposition:
  --------------------
     E_elec   (ELEC)   (kJ/mol) = 60.5016
     E_pauli  (PAULI)  (kJ/mol) = 23.4104
     E_disp   (DISP)   (kJ/mol) = -8.9341
     --------------------
     Terms summing to E_pauli:
     --------------------
        E_kep_pauli       (kJ/mol) = 29.8170
        E_disp_free_pauli (kJ/mol) = -6.4066
  --------------------
  Classical Frozen Decomposition:
  --------------------
     E_cls_elec  (CLS ELEC)  (kJ/mol) = 77.4828
     E_cls_pauli (CLS PAULI) (kJ/mol) = -2.5049
    [E_mod_pauli (MOD PAULI) (kJ/mol) = 6.4292 (CLS PAULI - DISP from orthogonal decomposition) ]
  --------------------
--------------------

Simplified EDA Summary (kJ/mol)
--------------------
 PREPARATION     -0.0000
 SOLVATION       -78.0247
 FROZEN          83.9120      (does not include dispersion)
[PAULI           23.4104]     (if this is negligible, then frozen describes electrostatics)
 DISPERSION      -8.9341
 POLARIZATION    -0.1414
 CHARGE TRANSFER -0.6227
 TOTAL           -3.8108     (PRP + SOL + FRZ + DISP + POL + CT)
--------------------
 
 --------------------------------------------------------------
 
                    Orbital Energies (a.u.)
 --------------------------------------------------------------
 
 Alpha MOs
 -- Occupied --
-19.1813 -19.1515 -19.1494 -14.4254 -10.3763 -10.3532 -10.2598 -10.2492
 -1.1722  -1.1666  -1.0607  -1.0395  -0.8612  -0.8415  -0.7062  -0.6497
 -0.6171  -0.5890  -0.5628  -0.5474  -0.5462  -0.5408  -0.5172  -0.4955
 -0.4810  -0.4767  -0.4642  -0.3822  -0.3749  -0.3626  -0.3580  -0.3399
 -- Virtual --
  0.0629   0.0815   0.0904   0.0933   0.1056   0.1089   0.1186   0.1296
  0.1305   0.1344   0.1443   0.1454   0.1563   0.1645   0.1731   0.1766
  0.1791   0.1990   0.2044   0.2098   0.2154   0.2254   0.2374   0.2406
  0.2445   0.2512   0.2575   0.2627   0.2664   0.2756   0.2890   0.2964
  0.3002   0.3131   0.3177   0.3224   0.3318   0.3381   0.3398   0.3447
  0.3501   0.3533   0.3581   0.3617   0.3690   0.3749   0.3824   0.3868
  0.3925   0.3940   0.3960   0.4027   0.4065   0.4106   0.4193   0.4253
  0.4279   0.4335   0.4460   0.4532   0.4598   0.4627   0.4679   0.4770
  0.4849   0.4901   0.4981   0.5006   0.5038   0.5100   0.5193   0.5226
  0.5261   0.5409   0.5453   0.5507   0.5602   0.5764   0.5849   0.5911
  0.5942   0.6005   0.6051   0.6138   0.6207   0.6353   0.6373   0.6467
  0.6511   0.6634   0.6704   0.6794   0.6829   0.6987   0.7056   0.7125
  0.7240   0.7263   0.7401   0.7462   0.7486   0.7613   0.7764   0.7866
  0.7930   0.8041   0.8088   0.8108   0.8199   0.8217   0.8404   0.8452
  0.8508   0.8590   0.8633   0.8782   0.8876   0.9064   0.9185   0.9513
  0.9574   0.9681   0.9725   0.9921   1.0039   1.0148   1.0206   1.0284
  1.0400   1.0565   1.0663   1.0902   1.1099   1.1268   1.1310   1.1552
  1.1628   1.1963   1.2167   1.2199   1.2435   1.2621   1.3002   1.3053
  1.3170   1.3237   1.3330   1.3435   1.3657   1.3836   1.4088   1.4176
  1.4648   1.5054   1.5238   1.5364   1.5754   1.6189   1.6346   1.7008
  1.7400   1.7703   1.7831   1.8424   1.8599   1.8655   1.8857   1.8903
  1.9065   1.9138   1.9235   1.9424   1.9529   1.9600   1.9712   1.9946
  2.0009   2.0144   2.0167   2.0287   2.0474   2.0716   2.1078   2.1365
  2.1624   2.1774   2.1886   2.2125   2.2275   2.2380   2.2511   2.2772
  2.3164   2.3335   2.3405   2.3675   2.3900   2.4035   2.4222   2.4510
  2.4584   2.4878   2.4992   2.5151   2.5586   2.5848   2.5930   2.6096
  2.6196   2.6314   2.6545   2.6682   2.7078   2.7440   2.7833   2.8017
  2.8238   2.8350   2.8781   2.8967   2.9289   2.9436   2.9580   2.9687
  2.9976   3.0084   3.0564   3.0996   3.1148   3.1524   3.1873   3.1893
  3.2119   3.2191   3.2457   3.2551   3.2823   3.2881   3.3038   3.3128
  3.3231   3.3397   3.3459   3.3660   3.3830   3.4059   3.4226   3.4337
  3.4455   3.4885   3.5425   3.5537   3.5610   3.5927   3.5940   3.6081
  3.6236   3.6331   3.6386   3.6562   3.7029   3.7476   3.7582   3.7730
  3.7771   3.8930   3.8969   3.9274   3.9520   4.0349   4.0491   4.0824
  4.0880   4.1040   4.1698   4.2055   4.3037   4.3444   4.4041   4.5295
  4.5711   4.5806   4.6274   4.6453   4.6582   4.6773   4.7983   4.8086
  4.8369   4.8977   4.9115   4.9570   4.9998   5.1662   5.1908   5.2674
  5.3052   5.3288   5.3409   5.3443   5.3578   5.3947   5.4006   5.4177
  5.4530   5.4909   5.5482   5.6771   5.7635   5.7815   5.7902   5.9108
  6.0340   6.1518   6.1884   6.2549   6.3331   6.3502   6.5279   6.5782
  6.6328   6.6739   6.7319   6.7379   6.7437   6.7621   6.8237   6.9341
  6.9797   6.9988   7.0114   7.2362   7.2381   7.2848   7.3286   7.3908
  7.3951  22.5848  22.6320  23.5684  23.7313  32.4322  44.2744  44.3241
 44.3536
 --------------------------------------------------------------
 
          Ground-State Mulliken Net Atomic Charges

     Atom                 Charge (a.u.)
  ----------------------------------------
      1 C                    -0.685665
      2 C                     0.569732
      3 O                    -0.763264
      4 O                    -0.784926
      5 H                     0.230747
      6 H                     0.220242
      7 H                     0.219278
      8 C                    -0.573459
      9 C                     0.446275
     10 O                    -0.683475
     11 N                    -0.311263
     12 H                     0.240296
     13 H                     0.134314
     14 H                     0.263270
     15 H                     0.229336
     16 H                     0.248562
  ----------------------------------------
  Sum of atomic charges =    -1.000000

 -----------------------------------------------------------------
                    Cartesian Multipole Moments
 -----------------------------------------------------------------
    Charge (ESU x 10^10)
                -4.8032
    Dipole Moment (Debye)
         X       2.4689      Y     -11.3146      Z       4.6913
       Tot      12.4950
    Quadrupole Moments (Debye-Ang)
        XX     -47.0315     XY       6.0405     YY     -40.1778
        XZ      -6.9438     YZ     -10.5516     ZZ     -57.4378
    Octopole Moments (Debye-Ang^2)
       XXX     -19.0279    XXY     -15.8043    XYY     -18.0105
       YYY     -82.0360    XXZ       5.7096    XYZ       5.0673
       YYZ      28.8995    XZZ      -5.2832    YZZ     -31.2370
       ZZZ      14.7397
    Hexadecapole Moments (Debye-Ang^3)
      XXXX    -384.9660   XXXY    -210.8821   XXYY    -274.5013
      XYYY    -165.8630   YYYY   -1358.4013   XXXZ      24.3630
      XXYZ      40.3219   XYYZ     -36.2675   YYYZ      61.9061
      XXZZ    -118.7416   XYZZ     -77.9985   YYZZ    -294.9601
      XZZZ      37.1963   YZZZ     177.5555   ZZZZ    -287.2930
 -----------------------------------------------------------------
Archival summary:
1\1\nid00549\SP\ProcedureUnspecified\BasisUnspecified\3148(1-,1)\meili\SunSep2606:31:572021SunSep2606:31:572021\0\\#,ProcedureUnspecified,BasisUnspecified,\\-1,1\O\C,1,1.23364\N,2,1.32685,1,122.399\H,3,1.01034,2,118.661,1,0.957823,0\H,3,1.01057,2,120.591,1,-178.543,0\C,2,1.51397,1,120.767,3,-177.882,0\H,6,1.08547,2,108.686,1,19.7348,0\H,6,1.09101,2,107.1,1,134.919,0\H,6,1.1,2,113.981,1,-103.514,0\O,7,3.07478,6,141.095,2,42.1127,0\C,10,1.25255,7,94.1327,6,-129.618,0\O,11,1.24871,10,119.948,7,67.6351,0\C,11,1.52497,10,118.859,7,-111.317,0\H,13,1.0916,11,108.896,10,-58.3752,0\H,13,1.09229,11,109.99,10,-176.414,0\H,13,1.1,11,111.327,10,61.8621,0\\\@

 Total job time:  16577.57s(wall), 9628.60s(cpu) 
 Sun Sep 26 06:31:59 2021

        *************************************************************
        *                                                           *
        *  Thank you very much for using Q-Chem.  Have a nice day.  *
        *                                                           *
        *************************************************************


