
Running Job 1 of 1 SSI-042GLU-095PHE-1_SMD_TZVPD.in
qchem SSI-042GLU-095PHE-1_SMD_TZVPD.in_7962.0 /tmp/qchem7962/ 0
/global/common/cori/software/qchem/5.2/exe/qcprog.exe_s SSI-042GLU-095PHE-1_SMD_TZVPD.in_7962.0 /tmp/qchem7962/
                  Welcome to Q-Chem
     A Quantum Leap Into The Future Of Chemistry


 Q-Chem 5.2, Q-Chem, Inc., Pleasanton, CA (2019)

 License issued to: National Energy Research Scientific Computing Center

 Yihan Shao,  Zhengting Gan,  E. Epifanovsky,  A. T. B. Gilbert,  M. Wormit,  
 J. Kussmann,  A. W. Lange,  A. Behn,  Jia Deng,  Xintian Feng,  D. Ghosh,  
 M. Goldey,  P. R. Horn,  L. D. Jacobson,  I. Kaliman,  T. Kus,  A. Landau,  
 Jie Liu,  E. I. Proynov,  R. M. Richard,  R. P. Steele,  E. J. Sundstrom,  
 H. L. Woodcock III,  P. M. Zimmerman,  D. Zuev,  B. Albrecht,  E. Alguire,  
 S. A. Baeppler,  D. Barton,  Z. Benda,  Y. A. Bernard,  E. J. Berquist,  
 K. B. Bravaya,  H. Burton,  D. Casanova,  Chun-Min Chang,  Yunqing Chen,  
 A. Chien,  K. D. Closser,  M. P. Coons,  S. Coriani,  S. Dasgupta,  
 A. L. Dempwolff,  M. Diedenhofen,  Hainam Do,  R. G. Edgar,  Po-Tung Fang,  
 S. Faraji,  S. Fatehi,  Qingguo Feng,  K. D. Fenk,  J. Fosso-Tande,  
 J. Gayvert,  Qinghui Ge,  A. Ghysels,  G. Gidofalvi,  J. Gomes,  
 J. Gonthier,  A. Gunina,  D. Hait,  M. W. D. Hanson-Heine,  
 P. H. P. Harbach,  A. W. Hauser,  M. F. Herbst,  J. E. Herr,  
 E. G. Hohenstein,  Z. C. Holden,  Kerwin Hui,  B. C. Huynh,  T.-C. Jagau,  
 Hyunjun Ji,  B. Kaduk,  K. Khistyaev,  Jaehoon Kim,  P. Klunzinger,  K. Koh,  
 D. Kosenkov,  L. Koulias,  T. Kowalczyk,  C. M. Krauter,  A. Kunitsa,  
 Ka Un Lao,  A. Laurent,  K. V. Lawler,  Joonho Lee,  D. Lefrancois,  
 S. Lehtola,  D. S. Levine,  Yi-Pei Li,  You-Sheng Lin,  Fenglai Liu,  
 E. Livshits,  A. Luenser,  P. Manohar,  E. Mansoor,  S. F. Manzer,  
 Shan-Ping Mao,  Yuezhi Mao,  N. Mardirossian,  A. V. Marenich,  
 T. Markovich,  L. A. Martinez-Martinez,  S. A. Maurer,  N. J. Mayhall,  
 S. C. McKenzie,  J.-M. Mewes,  P. Morgante,  A. F. Morrison,  
 J. W. Mullinax,  K. Nanda,  T. S. Nguyen-Beck,  R. Olivares-Amaya,  
 J. A. Parkhill,  Zheng Pei,  T. M. Perrine,  F. Plasser,  P. Pokhilko,  
 S. Prager,  A. Prociuk,  E. Ramos,  D. R. Rehn,  F. Rob,  M. Scheurer,  
 M. Schneider,  N. Sergueev,  S. M. Sharada,  S. Sharma,  D. W. Small,  
 T. Stauch,  T. Stein,  Yu-Chuan Su,  A. J. W. Thom,  A. Tkatchenko,  
 T. Tsuchimochi,  N. M. Tubman,  L. Vogt,  M. L. Vidal,  O. Vydrov,  
 M. A. Watson,  J. Wenzel,  M. de Wergifosse,  T. A. Wesolowski,  A. White,  
 J. Witte,  A. Yamada,  Jun Yang,  K. Yao,  S. Yeganeh,  S. R. Yost,  
 Zhi-Qiang You,  A. Zech,  Igor Ying Zhang,  Xing Zhang,  Yan Zhao,  
 Ying Zhu,  B. R. Brooks,  G. K. L. Chan,  C. J. Cramer,  M. S. Gordon,  
 W. J. Hehre,  A. Klamt,  M. W. Schmidt,  C. D. Sherrill,  D. G. Truhlar,  
 A. Aspuru-Guzik,  R. Baer,  A. T. Bell,  N. A. Besley,  Jeng-Da Chai,  
 A. E. DePrince, III,  R. A. DiStasio Jr.,  A. Dreuw,  B. D. Dunietz,  
 T. R. Furlani,  Chao-Ping Hsu,  Yousung Jung,  Jing Kong,  D. S. Lambrecht,  
 WanZhen Liang,  C. Ochsenfeld,  V. A. Rassolov,  L. V. Slipchenko,  
 J. E. Subotnik,  T. Van Voorhis,  J. M. Herbert,  A. I. Krylov,  
 P. M. W. Gill,  M. Head-Gordon

 Contributors to earlier versions of Q-Chem not listed above: 
 R. D. Adamson,  B. Austin,  J. Baker,  G. J. O. Beran,  K. Brandhorst,  
 S. T. Brown,  E. F. C. Byrd,  A. K. Chakraborty,  C.-L. Cheng,  
 Siu Hung Chien,  D. M. Chipman,  D. L. Crittenden,  H. Dachsel,  
 R. J. Doerksen,  A. D. Dutoi,  L. Fusti-Molnar,  W. A. Goddard III,  
 A. Golubeva-Zadorozhnaya,  S. R. Gwaltney,  G. Hawkins,  A. Heyden,  
 S. Hirata,  G. Kedziora,  F. J. Keil,  C. Kelley,  Jihan Kim,  R. A. King,  
 R. Z. Khaliullin,  P. P. Korambath,  W. Kurlancheek,  A. M. Lee,  M. S. Lee,  
 S. V. Levchenko,  Ching Yeh Lin,  D. Liotard,  R. C. Lochan,  I. Lotan,  
 P. E. Maslen,  N. Nair,  D. P. O'Neill,  D. Neuhauser,  E. Neuscamman,  
 C. M. Oana,  R. Olson,  B. Peters,  R. Peverati,  P. A. Pieniazek,  
 Y. M. Rhee,  J. Ritchie,  M. A. Rohrdanz,  E. Rosta,  N. J. Russ,  
 H. F. Schaefer III,  N. E. Schultz,  N. Shenvi,  A. C. Simmonett,  A. Sodt,  
 D. Stuck,  K. S. Thanthiriwatte,  V. Vanovschi,  Tao Wang,  A. Warshel,  
 C. F. Williams,  Q. Wu,  X. Xu,  W. Zhang

 Please cite Q-Chem as follows:
 Y. Shao et al., Mol. Phys. 113, 184-215 (2015)
 DOI: 10.1080/00268976.2014.952696

 Q-Chem 5.2.0 for Intel X86 EM64T Linux

 Parts of Q-Chem use Armadillo 8.300.2 (Tropical Shenanigans).
 http://arma.sourceforge.net/

 Q-Chem begins on Sun Sep 26 07:02:08 2021  

Host: cori01
0

     Scratch files written to /tmp/qchem7962//
 May1019 |scratch|qcdevops|jenkins|workspace|build_RNUM -1
Processing $rem in /global/common/cori/software/qchem/5.2/config/preferences:
	 MEM_TOTAL  96000 
NAlpha2: 90
NElect   90
Mult     1
Symmetry turned off for PCM/SM12/SMD calculation

 Q-Chem warning in module libgen/rem_setup.C, line 2803:

 Neither GIA nor STOLL is specified by user. Use STOLL as the default


Checking the input file for inconsistencies... 	...done.

--------------------------------------------------------------
User input:
--------------------------------------------------------------
$comment
SSI-042GLU-095PHE-1.pdb
$end

$molecule
-1 1
--
-1 1
C   -0.904846771375   -0.426241850975   -2.450423618412
C    0.537153228625    0.057758149025   -2.666423618412
C   -1.045846771375   -1.931241850975   -2.209423618412
O   -0.072846771375   -2.592241850975   -1.772423618412
O   -2.159846771375   -2.442241850975   -2.480423618412
H   -1.315846771375    0.103758149025   -1.590423618412
H   -1.505846771375   -0.130241850975   -3.313423618412
H    1.117153228625   -0.168241850975   -1.773423618412
H    0.507153228625    1.141758149025   -2.757423618412
H    1.053883228625   -0.363341850975   -3.541445618412
--
0 1
C   -0.563846771375    3.333758149025    1.885576381588
C   -0.379846771375    0.953758149025    1.103576381588
C    0.131153228625    1.996758149025    1.868576381588
C    0.262153228625   -0.281241850975    1.076576381588
C    1.316153228625    1.799758149025    2.580576381588
C    1.427153228625   -0.472241850975    1.797576381588
C    1.959153228625    0.566758149025    2.546576381588
H   -1.278846771375    1.098758149025    0.523576381588
H   -0.143846771375   -1.093241850975    0.491576381588
H   -1.408846771375    3.328758149025    1.194576381588
H    0.151153228625    4.065758149025    1.510576381588
H    1.746153228625    2.609758149025    3.153576381588
H    1.926153228625   -1.431241850975    1.765576381588
H    2.884153228625    0.429758149025    3.075576381588
H   -0.905336771375    3.659468149025    2.879206381588
$end

$rem
JOBTYPE			EDA
EDA2			1
method			wB97X-V
BASIS			def2-TZVPD
XC_GRID			000099000590
NL_GRID			1
UNRESTRICTED		FALSE
MAX_SCF_CYCLES		200
SYMMETRY		FALSE
SYM_IGNORE		TRUE
MEM_STATIC		2000
BASIS_LIN_DEP_THRESH 	6
THRESH 			14
SCF_CONVERGENCE 	8
SCF_PRINT_FRGM 		TRUE
SOLVENT_METHOD          SMD
$end

$SMX
SOLVENT			WATER
$END
--------------------------------------------------------------
 ----------------------------------------------------------------
             Standard Nuclear Orientation (Angstroms)
    I     Atom           X                Y                Z
 ----------------------------------------------------------------
    1      C      -0.9048467714    -0.4262418510    -2.4504236184
    2      C       0.5371532286     0.0577581490    -2.6664236184
    3      C      -1.0458467714    -1.9312418510    -2.2094236184
    4      O      -0.0728467714    -2.5922418510    -1.7724236184
    5      O      -2.1598467714    -2.4422418510    -2.4804236184
    6      H      -1.3158467714     0.1037581490    -1.5904236184
    7      H      -1.5058467714    -0.1302418510    -3.3134236184
    8      H       1.1171532286    -0.1682418510    -1.7734236184
    9      H       0.5071532286     1.1417581490    -2.7574236184
   10      H       1.0538832286    -0.3633418510    -3.5414456184
   11      C      -0.5638467714     3.3337581490     1.8855763816
   12      C      -0.3798467714     0.9537581490     1.1035763816
   13      C       0.1311532286     1.9967581490     1.8685763816
   14      C       0.2621532286    -0.2812418510     1.0765763816
   15      C       1.3161532286     1.7997581490     2.5805763816
   16      C       1.4271532286    -0.4722418510     1.7975763816
   17      C       1.9591532286     0.5667581490     2.5465763816
   18      H      -1.2788467714     1.0987581490     0.5235763816
   19      H      -0.1438467714    -1.0932418510     0.4915763816
   20      H      -1.4088467714     3.3287581490     1.1945763816
   21      H       0.1511532286     4.0657581490     1.5105763816
   22      H       1.7461532286     2.6097581490     3.1535763816
   23      H       1.9261532286    -1.4312418510     1.7655763816
   24      H       2.8841532286     0.4297581490     3.0755763816
   25      H      -0.9053367714     3.6594681490     2.8792063816
 ----------------------------------------------------------------
 Nuclear Repulsion Energy =         636.95563978 hartrees
 There are       45 alpha and       45 beta electrons
 Requested basis set is def2-TZVPD
 There are 223 shells and 567 basis functions

 Total QAlloc Memory Limit  96000 MB
 Mega-Array Size      1956 MB
 MEM_STATIC part      2000 MB
 
 Citation of the SMD model:
 Marenich, A.V.; Cramer, C.J.; Truhlar, D.G.
 J. Phys. Chem. B 2009, 113, 6378-6396.
 iSolventCode=           1
 Solvent: water                                                           
 
 vradii
            1           2           3           4           5           6
    1   1.8500000   1.8500000   1.8500000   1.5200000   1.5200000   1.2000000
            7           8           9          10          11          12
    1   1.2000000   1.2000000   1.2000000   1.2000000   1.8500000   1.8500000
           13          14          15          16          17          18
    1   1.8500000   1.8500000   1.8500000   1.8500000   1.8500000   1.2000000
           19          20          21          22          23          24
    1   1.2000000   1.2000000   1.2000000   1.2000000   1.2000000   1.2000000
           25
    1   1.2000000
 Changing PCM_VDW_RADII to SMD_RADIUS
 Discretize the solute cavity surface with Lebedev spheres
	Using 110 Lebedev grid points for each H atom
	Using 194 Lebedev grid points for other atoms
	Atomic van der Waals radii will be scaled by 1.20
 Remove points where switching function is < 1.0e-08
 Keep 1924 surface tesserae and discard 1834 interior tesserae
 Molecular Surface Area = 228.942 Angst**2
 A cutoff of  1.0D-14 yielded  21757 shell pairs
 There are    140899 function pairs (    177651 Cartesian)
 Smallest overlap matrix eigenvalue = 4.67E-07
 Linear dependence detected in AO basis
 Tighter screening thresholds may be required for diffuse basis sets
 Use S2THRESH > 14 and THRESH = 14 in case of SCF convergence issues
 Number of orthogonalized atomic orbitals = 565
 Maximum deviation from orthogonality = 1.810E-10

 Scale SEOQF with 1.000000e-01/1.000000e-01/1.000000e-01

 Standard Electronic Orientation quadrupole field applied
 Nucleus-field energy     =    -0.0000000180 hartrees

 -----------------------------------------------------------------------
  General SCF calculation program by
  Eric Jon Sundstrom, Paul Horn, Yuezhi Mao, Dmitri Zuev, Alec White,
  David Stuck, Shaama M.S., Shane Yost, Joonho Lee, David Small,
  Daniel Levine, Susi Lehtola, Hugh Burton, Evgeny Epifanovsky
 -----------------------------------------------------------------------
================================================================
                 ALMO-EDA with the EDA2 driver                  
================================================================
 The second-generation ALMO-EDA (for DFT):                      
 P. R. Horn, Y. Mao and M. Head-Gordon, PCCP, 18, 23067 (2016)  
 Decomposition of the frozen energy:                            
 P. R. Horn, Y. Mao and M. Head-Gordon, JCP, 144, 114107 (2016) 
 FERF model for polarization:                                   
 P. R. Horn and M. Head-Gordon, JCP, 143, 114111 (2015)         
Using eda2 option set 1
Option set summary: Frozen orbital wavefunction, initial wavefunction decomposition, and nDQ polarization.
--------------------------------
Printing EDA Options
--------------------------------
eda_child_super_basis      0
fragmo_guess_mode          0
child_mp                   1
child_mp_orders            232
cls_elec                   1
cls_disp                   0
scfmi_mode                 1
scfmi_occs                 0
scfmi_virts                0
frz_relax                  0
frz_relax_method           0
dc_pen_start               0
dc_pen_conv                0
dc_pen_increment           0
dc_pen_steps               0
dc_pen_thresh_factor       0
dc_pen_pre_newton_thresh   0
frz_ortho_decomp           1
frz_ortho_decomp_conv      6
frgm_method                2
scfmi_freeze_ss            0
separate_rehyb             0
plot_diff_den              0
eda_nocv                   0
eda_vct_relax              1
disp_free_x                0
disp_free_c                0
eda_bsse                   0
eda_pct_a                  0
eda_covp                   0
--------------------------------
Attempting to make child job directory: /tmp/qchem7962//Frg1/
Attempting to make child job directory: /tmp/qchem7962//Frg2/
Creating input file /tmp/qchem7962/Frg1.input
using default PutDataFrgm: nothing
calling putenv with: QCSCRATCH=/tmp/qchem7962/ 
calling putenv with: QCLOCALSCR=/tmp/qchem7962/ 
Spawning Job For Fragment 0
                  Welcome to Q-Chem
     A Quantum Leap Into The Future Of Chemistry


 Q-Chem 5.2, Q-Chem, Inc., Pleasanton, CA (2019)

 License issued to: National Energy Research Scientific Computing Center

 Yihan Shao,  Zhengting Gan,  E. Epifanovsky,  A. T. B. Gilbert,  M. Wormit,  
 J. Kussmann,  A. W. Lange,  A. Behn,  Jia Deng,  Xintian Feng,  D. Ghosh,  
 M. Goldey,  P. R. Horn,  L. D. Jacobson,  I. Kaliman,  T. Kus,  A. Landau,  
 Jie Liu,  E. I. Proynov,  R. M. Richard,  R. P. Steele,  E. J. Sundstrom,  
 H. L. Woodcock III,  P. M. Zimmerman,  D. Zuev,  B. Albrecht,  E. Alguire,  
 S. A. Baeppler,  D. Barton,  Z. Benda,  Y. A. Bernard,  E. J. Berquist,  
 K. B. Bravaya,  H. Burton,  D. Casanova,  Chun-Min Chang,  Yunqing Chen,  
 A. Chien,  K. D. Closser,  M. P. Coons,  S. Coriani,  S. Dasgupta,  
 A. L. Dempwolff,  M. Diedenhofen,  Hainam Do,  R. G. Edgar,  Po-Tung Fang,  
 S. Faraji,  S. Fatehi,  Qingguo Feng,  K. D. Fenk,  J. Fosso-Tande,  
 J. Gayvert,  Qinghui Ge,  A. Ghysels,  G. Gidofalvi,  J. Gomes,  
 J. Gonthier,  A. Gunina,  D. Hait,  M. W. D. Hanson-Heine,  
 P. H. P. Harbach,  A. W. Hauser,  M. F. Herbst,  J. E. Herr,  
 E. G. Hohenstein,  Z. C. Holden,  Kerwin Hui,  B. C. Huynh,  T.-C. Jagau,  
 Hyunjun Ji,  B. Kaduk,  K. Khistyaev,  Jaehoon Kim,  P. Klunzinger,  K. Koh,  
 D. Kosenkov,  L. Koulias,  T. Kowalczyk,  C. M. Krauter,  A. Kunitsa,  
 Ka Un Lao,  A. Laurent,  K. V. Lawler,  Joonho Lee,  D. Lefrancois,  
 S. Lehtola,  D. S. Levine,  Yi-Pei Li,  You-Sheng Lin,  Fenglai Liu,  
 E. Livshits,  A. Luenser,  P. Manohar,  E. Mansoor,  S. F. Manzer,  
 Shan-Ping Mao,  Yuezhi Mao,  N. Mardirossian,  A. V. Marenich,  
 T. Markovich,  L. A. Martinez-Martinez,  S. A. Maurer,  N. J. Mayhall,  
 S. C. McKenzie,  J.-M. Mewes,  P. Morgante,  A. F. Morrison,  
 J. W. Mullinax,  K. Nanda,  T. S. Nguyen-Beck,  R. Olivares-Amaya,  
 J. A. Parkhill,  Zheng Pei,  T. M. Perrine,  F. Plasser,  P. Pokhilko,  
 S. Prager,  A. Prociuk,  E. Ramos,  D. R. Rehn,  F. Rob,  M. Scheurer,  
 M. Schneider,  N. Sergueev,  S. M. Sharada,  S. Sharma,  D. W. Small,  
 T. Stauch,  T. Stein,  Yu-Chuan Su,  A. J. W. Thom,  A. Tkatchenko,  
 T. Tsuchimochi,  N. M. Tubman,  L. Vogt,  M. L. Vidal,  O. Vydrov,  
 M. A. Watson,  J. Wenzel,  M. de Wergifosse,  T. A. Wesolowski,  A. White,  
 J. Witte,  A. Yamada,  Jun Yang,  K. Yao,  S. Yeganeh,  S. R. Yost,  
 Zhi-Qiang You,  A. Zech,  Igor Ying Zhang,  Xing Zhang,  Yan Zhao,  
 Ying Zhu,  B. R. Brooks,  G. K. L. Chan,  C. J. Cramer,  M. S. Gordon,  
 W. J. Hehre,  A. Klamt,  M. W. Schmidt,  C. D. Sherrill,  D. G. Truhlar,  
 A. Aspuru-Guzik,  R. Baer,  A. T. Bell,  N. A. Besley,  Jeng-Da Chai,  
 A. E. DePrince, III,  R. A. DiStasio Jr.,  A. Dreuw,  B. D. Dunietz,  
 T. R. Furlani,  Chao-Ping Hsu,  Yousung Jung,  Jing Kong,  D. S. Lambrecht,  
 WanZhen Liang,  C. Ochsenfeld,  V. A. Rassolov,  L. V. Slipchenko,  
 J. E. Subotnik,  T. Van Voorhis,  J. M. Herbert,  A. I. Krylov,  
 P. M. W. Gill,  M. Head-Gordon

 Contributors to earlier versions of Q-Chem not listed above: 
 R. D. Adamson,  B. Austin,  J. Baker,  G. J. O. Beran,  K. Brandhorst,  
 S. T. Brown,  E. F. C. Byrd,  A. K. Chakraborty,  C.-L. Cheng,  
 Siu Hung Chien,  D. M. Chipman,  D. L. Crittenden,  H. Dachsel,  
 R. J. Doerksen,  A. D. Dutoi,  L. Fusti-Molnar,  W. A. Goddard III,  
 A. Golubeva-Zadorozhnaya,  S. R. Gwaltney,  G. Hawkins,  A. Heyden,  
 S. Hirata,  G. Kedziora,  F. J. Keil,  C. Kelley,  Jihan Kim,  R. A. King,  
 R. Z. Khaliullin,  P. P. Korambath,  W. Kurlancheek,  A. M. Lee,  M. S. Lee,  
 S. V. Levchenko,  Ching Yeh Lin,  D. Liotard,  R. C. Lochan,  I. Lotan,  
 P. E. Maslen,  N. Nair,  D. P. O'Neill,  D. Neuhauser,  E. Neuscamman,  
 C. M. Oana,  R. Olson,  B. Peters,  R. Peverati,  P. A. Pieniazek,  
 Y. M. Rhee,  J. Ritchie,  M. A. Rohrdanz,  E. Rosta,  N. J. Russ,  
 H. F. Schaefer III,  N. E. Schultz,  N. Shenvi,  A. C. Simmonett,  A. Sodt,  
 D. Stuck,  K. S. Thanthiriwatte,  V. Vanovschi,  Tao Wang,  A. Warshel,  
 C. F. Williams,  Q. Wu,  X. Xu,  W. Zhang

 Please cite Q-Chem as follows:
 Y. Shao et al., Mol. Phys. 113, 184-215 (2015)
 DOI: 10.1080/00268976.2014.952696

 Q-Chem 5.2.0 for Intel X86 EM64T Linux

 Parts of Q-Chem use Armadillo 8.300.2 (Tropical Shenanigans).
 http://arma.sourceforge.net/

 Q-Chem begins on Sun Sep 26 07:02:13 2021  

Host: cori01
0

     Scratch files written to /tmp/qchem7962//Frg1//
 May1019 |scratch|qcdevops|jenkins|workspace|build_RNUM -1
Processing $rem in /global/common/cori/software/qchem/5.2/config/preferences:
	 MEM_TOTAL  96000 
NAlpha2: 40
NElect   40
Mult     1
Symmetry turned off for PCM/SM12/SMD calculation

Checking the input file for inconsistencies... 	...done.

--------------------------------------------------------------
User input:
--------------------------------------------------------------
$molecule
-1 1
 6	-0.9048467714	-0.4262418510	-2.4504236184
 6	0.5371532286	0.0577581490	-2.6664236184
 6	-1.0458467714	-1.9312418510	-2.2094236184
 8	-0.0728467714	-2.5922418510	-1.7724236184
 8	-2.1598467714	-2.4422418510	-2.4804236184
 1	-1.3158467714	0.1037581490	-1.5904236184
 1	-1.5058467714	-0.1302418510	-3.3134236184
 1	1.1171532286	-0.1682418510	-1.7734236184
 1	0.5071532286	1.1417581490	-2.7574236184
 1	1.0538832286	-0.3633418510	-3.5414456184
$end
$rem
EDA2		1
METHOD		WB97X-V
BASIS		DEF2-TZVPD
XC_GRID		000099000590
NL_GRID		1
UNRESTRICTED		FALSE
MAX_SCF_CYCLES		200
SYMMETRY		FALSE
SYM_IGNORE		TRUE
BASIS_LIN_DEP_THRESH		6
THRESH		14
SCF_CONVERGENCE		8
SCF_PRINT_FRGM		TRUE
SOLVENT_METHOD		SMD
!required keywords
JOBTYPE		SP
SYM_IGNORE		TRUE
SUBSYSTEM		TRUE
GEN_SCFMAN		TRUE
CHILD_INSTRUCTION		2
SYM_IGNORE		TRUE
SCFMI		0
RI_K 0		
PARI_K 0		
MIN_PARI_K 0		
IARI_K 0		
OCC_RI_K 0		
PURECART		1111
MEM_STATIC		2000
MEM_TOTAL		96000
GUI		0
CHILD_MP		1
CHILD_MP_ORDERS		232
FRZ_RELAX		0
FRZ_RELAX_METHOD		0
EDA_CLS_ELEC		1
EDA_CLS_DISP		0
FRZ_ORTHO_DECOMP		1
EDA2		FALSE
FRGM_METHOD		FALSE
CIS_N_ROOTS  0
LOCAL_CIS    0
CIS_RLX_DNS  1
$end
$smx
SOLVENT			WATER
$end
--------------------------------------------------------------
 ----------------------------------------------------------------
             Standard Nuclear Orientation (Angstroms)
    I     Atom           X                Y                Z
 ----------------------------------------------------------------
    1      C      -0.9048467714    -0.4262418510    -2.4504236184
    2      C       0.5371532286     0.0577581490    -2.6664236184
    3      C      -1.0458467714    -1.9312418510    -2.2094236184
    4      O      -0.0728467714    -2.5922418510    -1.7724236184
    5      O      -2.1598467714    -2.4422418510    -2.4804236184
    6      H      -1.3158467714     0.1037581490    -1.5904236184
    7      H      -1.5058467714    -0.1302418510    -3.3134236184
    8      H       1.1171532286    -0.1682418510    -1.7734236184
    9      H       0.5071532286     1.1417581490    -2.7574236184
   10      H       1.0538832286    -0.3633418510    -3.5414456184
 ----------------------------------------------------------------
 Nuclear Repulsion Energy =         168.33562735 hartrees
 There are       20 alpha and       20 beta electrons
 Requested basis set is def2-TZVPD
 There are 92 shells and 236 basis functions

 Total QAlloc Memory Limit  96000 MB
 Mega-Array Size      1956 MB
 MEM_STATIC part      2000 MB
 
 Citation of the SMD model:
 Marenich, A.V.; Cramer, C.J.; Truhlar, D.G.
 J. Phys. Chem. B 2009, 113, 6378-6396.
 iSolventCode=           1
 Solvent: water                                                           
 
 vradii
            1           2           3           4           5           6
    1   1.8500000   1.8500000   1.8500000   1.5200000   1.5200000   1.2000000
            7           8           9          10
    1   1.2000000   1.2000000   1.2000000   1.2000000
 Changing PCM_VDW_RADII to SMD_RADIUS
 Discretize the solute cavity surface with Lebedev spheres
	Using 110 Lebedev grid points for each H atom
	Using 194 Lebedev grid points for other atoms
	Atomic van der Waals radii will be scaled by 1.20
 Remove points where switching function is < 1.0e-08
 Keep 839 surface tesserae and discard 681 interior tesserae
 Molecular Surface Area = 100.096 Angst**2

                       Distance Matrix (Angstroms)
             C (  1)   C (  2)   C (  3)   O (  4)   O (  5)   H (  6)
   C (  2)  1.536319
   C (  3)  1.530682  2.582801
   O (  4)  2.417326  2.862488  1.254838
   O (  5)  2.374907  3.682174  1.255212  2.208921
   H (  6)  1.090606  2.143245  2.144128  2.974322  2.826049
   H (  7)  1.092514  2.151233  2.161948  3.238767  2.543020  1.749167
   H (  8)  2.147877  1.088543  2.824329  2.700348  4.050883  2.454987
   H (  9)  2.132280  1.088227  3.486466  3.905046  4.476011  2.400555
   H ( 10)  2.242969  1.099999  2.939636  3.060548  3.971858  3.104882
             H (  7)   H (  8)   H (  9)
   H (  8)  3.041903
   H (  9)  2.445258  1.748272
   H ( 10)  2.580416  1.779879  1.782955
 
 A cutoff of  1.0D-14 yielded   4184 shell pairs
 There are     27982 function pairs (     35655 Cartesian)
 Smallest overlap matrix eigenvalue = 9.72E-06

 Scale SEOQF with 1.000000e-01/1.000000e-01/1.000000e-01

 Standard Electronic Orientation quadrupole field applied
 Nucleus-field energy     =    -0.0000000124 hartrees
 Guess from superposition of atomic densities
 Warning:  Energy on first SCF cycle will be non-variational
 SAD guess density has 38.612942 electrons

 -----------------------------------------------------------------------
  General SCF calculation program by
  Eric Jon Sundstrom, Paul Horn, Yuezhi Mao, Dmitri Zuev, Alec White,
  David Stuck, Shaama M.S., Shane Yost, Joonho Lee, David Small,
  Daniel Levine, Susi Lehtola, Hugh Burton, Evgeny Epifanovsky
 -----------------------------------------------------------------------
 Exchange:     0.1670 Hartree-Fock + 1.0000 wB97X-V + LR-HF
 Correlation:  1.0000 wB97X-V
 Using Euler-Maclaurin-Lebedev (99,590) quadrature formula
 Nonlocal Correlation:  VV10 with C = 0.0100 and b = 6.00 and scale = 1.00000
 Grid used for NLC:  SG-1 standard quadrature
Energy prior to optimization (guess energy) = -267.070056944005
Begin Timing: Total SCF Calculation
begin iterations for algorithm: DIIS         
the SCF tolerance is set to 1.00e-08
    1    -267.0700569440      1.28e-02     00000 
    2    -263.3195195175      2.02e-02     00000 
    3    -267.8358899824      4.97e-03     00000 
    4    -267.9553694072      2.17e-03     00000 
    5    -267.9798691297      4.27e-04     00000 
    6    -267.9810237183      2.54e-04     00000 
    7    -267.9813204297      6.71e-05     00000 
    8    -267.9813463792      1.49e-05     00000 
    9    -267.9813483011      5.49e-06     00000 
   10    -267.9813485828      2.01e-06     00000 
   11    -267.9813486395      2.65e-07     00000 
   12    -267.9813486416      6.80e-08     00000 
   13    -267.9813486417      2.90e-08     00000 
   14    -267.9813486417      8.64e-09     00000 Convergence criterion met
Timing for Total SCF: 573.00s (wall), 1135.35s (cpu)
(3)  G-ENP(liq) elect-nuc-pol free energy of system     -267.981348642 a.u.
(4)  G-CDS(liq) cavity-dispersion-solvent structure 
     free energy                                                4.0212 kcal/mol
(6)  G-S(liq) free energy of system                     -267.974940376 a.u.
E_pcm = -0.1311466757
E_cds = 0.0064082657
Multipole orders to be included
        2
        3
computing dipole RHS
computing quadrupole RHS
total number of RHS in solve_reponses: 8
RHS batch sizes
        8
Beginning Block Conjugate Gradient Iterations. Batch Number: 0
computing hessian-vector products by finite difference
              1      7.05e-01     00000 Conjugate Gradient Iteration
computing hessian-vector products by finite difference
              2      2.18e-01     00000 Conjugate Gradient Iteration
computing hessian-vector products by finite difference
              3      5.85e-02     00000 Conjugate Gradient Iteration
computing hessian-vector products by finite difference
              4      1.61e-02     00000 Conjugate Gradient Iteration
computing hessian-vector products by finite difference
              5      2.45e-03     00000 Conjugate Gradient Iteration
computing hessian-vector products by finite difference
              6      5.84e-04     00000 Conjugate Gradient Iteration
computing hessian-vector products by finite difference
              7      8.36e-05     00000 Conjugate Gradient Iteration
computing hessian-vector products by finite difference
              8      1.37e-05     00000 Conjugate Gradient Iteration
computing hessian-vector products by finite difference
              9      2.41e-06     00000 Conjugate Gradient Iteration
computing hessian-vector products by finite difference
             10      3.82e-07     00000 Conjugate Gradient Iteration
computing hessian-vector products by finite difference
             11      4.39e-08     00000 Conjugate Gradient Iteration
computing hessian-vector products by finite difference
             12      7.91e-09     00000 CG Converged
batch 0 complete
Done Calculating Responses
TESTING ORTHOGONALIZATION OF MULTIPOLE BASIS
Multipole virts passed orthogonality test
Virts Per Order
           60
          100
 
 --------------------------------------------------------------
 
                    Orbital Energies (a.u.)
 --------------------------------------------------------------
 
 Alpha MOs
 -- Occupied --
-19.1549 -19.1522 -10.3528 -10.2527 -10.2443  -1.1629  -1.0645  -0.8863
 -0.7518  -0.6163  -0.5629  -0.5599  -0.5316  -0.5003  -0.4752  -0.4513
 -0.4333  -0.3651  -0.3537  -0.3449
 -- Virtual --
  0.0675   0.0884   0.0962   0.1049   0.1224   0.1353   0.1407   0.1463
  0.1545   0.1612   0.1819   0.1982   0.2038   0.2131   0.2297   0.2398
  0.2526   0.2578   0.2680   0.2905   0.2930   0.3091   0.3142   0.3251
  0.3392   0.3468   0.3640   0.3697   0.3776   0.3806   0.3877   0.3891
  0.4057   0.4071   0.4124   0.4169   0.4233   0.4474   0.4560   0.4678
  0.4756   0.4899   0.4942   0.5047   0.5088   0.5122   0.5192   0.5430
  0.5475   0.5581   0.5695   0.5801   0.6024   0.6062   0.6260   0.6381
  0.6522   0.6608   0.6686   0.6915   0.6989   0.7050   0.7248   0.7396
  0.7590   0.7821   0.7908   0.7941   0.7988   0.8006   0.8165   0.8216
  0.8263   0.8471   0.8703   0.8832   0.9024   0.9479   0.9684   1.0107
  1.0182   1.0340   1.0496   1.0766   1.0909   1.1027   1.1559   1.1912
  1.2203   1.2706   1.2993   1.3116   1.3388   1.3606   1.3782   1.3988
  1.4324   1.4676   1.4824   1.5954   1.6687   1.7576   1.8231   1.8726
  1.8811   1.9096   1.9161   1.9261   1.9564   1.9617   1.9692   1.9897
  2.0033   2.0294   2.0671   2.1341   2.1553   2.1886   2.2073   2.2269
  2.2537   2.2966   2.3395   2.3842   2.4466   2.4596   2.4726   2.5049
  2.5689   2.5839   2.6234   2.6633   2.6766   2.7070   2.7325   2.7913
  2.8309   2.8458   2.8799   2.9058   2.9215   3.0035   3.0195   3.0595
  3.1155   3.1470   3.2336   3.2421   3.2636   3.2940   3.3163   3.3436
  3.3654   3.3884   3.4281   3.4594   3.4657   3.4723   3.5311   3.5558
  3.5761   3.6003   3.6388   3.6584   3.6876   3.7026   3.7189   3.7501
  3.7590   3.8003   3.9338   4.0537   4.0877   4.0950   4.1809   4.2227
  4.3179   4.3909   4.5614   4.5804   4.6969   4.7229   4.7718   4.8002
  4.8558   5.0342   5.1005   5.3007   5.3359   5.3391   5.3499   5.4734
  5.6920   5.7296   5.7837   5.9925   6.2106   6.3027   6.3339   6.5907
  6.6079   6.6909   6.7288   6.7474   6.9405   6.9564   7.0297   7.2285
  7.3369   7.3583   7.3864  22.6382  22.7598  23.7172  44.2483  44.3703
 --------------------------------------------------------------
 
          Ground-State Mulliken Net Atomic Charges

     Atom                 Charge (a.u.)
  ----------------------------------------
      1 C                     0.004641
      2 C                    -0.872917
      3 C                     0.326694
      4 O                    -0.774055
      5 O                    -0.790877
      6 H                     0.187228
      7 H                     0.220753
      8 H                     0.208442
      9 H                     0.233487
     10 H                     0.256605
  ----------------------------------------
  Sum of atomic charges =    -1.000000

 -----------------------------------------------------------------
                    Cartesian Multipole Moments
 -----------------------------------------------------------------
    Charge (ESU x 10^10)
                -4.8032
    Dipole Moment (Debye)
         X       5.6233      Y      14.4338      Z       9.9746
       Tot      18.4241
    Quadrupole Moments (Debye-Ang)
        XX     -48.8267     XY     -16.3871     YY     -72.6838
        XZ     -14.9897     YZ     -29.7363     ZZ     -53.2982
    Octopole Moments (Debye-Ang^2)
       XXX     105.1151    XXY      85.7893    XYY      65.3618
       YYY     246.1585    XXZ     117.6347    XYZ      42.1077
       YYZ     158.3807    XZZ      60.8930    YZZ     107.5766
       ZZZ     270.3327
    Hexadecapole Moments (Debye-Ang^3)
      XXXX    -418.2577   XXXY    -244.7711   XXYY    -271.1037
      XYYY    -264.1564   YYYY    -981.8537   XXXZ    -254.5851
      XXYZ    -199.6880   XYYZ    -161.0418   YYYZ    -517.2083
      XXZZ    -346.7736   XYZZ    -157.3286   YYZZ    -475.4562
      XZZZ    -255.5575   YZZZ    -422.8061   ZZZZ   -1213.9544
 -----------------------------------------------------------------
Archival summary:
1\1\nid00533\SP\ProcedureUnspecified\BasisUnspecified\235(1-,1)\meili\SunSep2609:41:032021SunSep2609:41:032021\0\\#,ProcedureUnspecified,BasisUnspecified,\\-1,1\C\O,1,1.25484\O,1,1.25521,2,123.292\C,1,1.53068,2,120.088,3,-179.402,0\H,4,1.09061,1,108.599,2,-97.9689,0\H,4,1.09251,1,109.882,2,145.911,0\C,4,1.53632,1,114.73,2,23.1514,0\H,7,1.08823,4,107.439,1,-176.221,0\H,7,1.08854,4,108.624,1,-60.9592,0\H,7,1.1,4,115.604,1,61.6723,0\\\@

 Total job time:  9530.08s(wall), 18844.28s(cpu) 
 Sun Sep 26 09:41:03 2021

        *************************************************************
        *                                                           *
        *  Thank you very much for using Q-Chem.  Have a nice day.  *
        *                                                           *
        *************************************************************


Done Job For Fragment 0
calling putenv with: QCSCRATCH=/global/cscratch1/sd/meili 
calling putenv with: QCLOCALSCR=/tmp 
calling putenv with: QCTHREADS=32 
Creating input file /tmp/qchem7962/Frg2.input
using default PutDataFrgm: nothing
calling putenv with: QCSCRATCH=/tmp/qchem7962/ 
calling putenv with: QCLOCALSCR=/tmp/qchem7962/ 
Spawning Job For Fragment 1
                  Welcome to Q-Chem
     A Quantum Leap Into The Future Of Chemistry


 Q-Chem 5.2, Q-Chem, Inc., Pleasanton, CA (2019)

 License issued to: National Energy Research Scientific Computing Center

 Yihan Shao,  Zhengting Gan,  E. Epifanovsky,  A. T. B. Gilbert,  M. Wormit,  
 J. Kussmann,  A. W. Lange,  A. Behn,  Jia Deng,  Xintian Feng,  D. Ghosh,  
 M. Goldey,  P. R. Horn,  L. D. Jacobson,  I. Kaliman,  T. Kus,  A. Landau,  
 Jie Liu,  E. I. Proynov,  R. M. Richard,  R. P. Steele,  E. J. Sundstrom,  
 H. L. Woodcock III,  P. M. Zimmerman,  D. Zuev,  B. Albrecht,  E. Alguire,  
 S. A. Baeppler,  D. Barton,  Z. Benda,  Y. A. Bernard,  E. J. Berquist,  
 K. B. Bravaya,  H. Burton,  D. Casanova,  Chun-Min Chang,  Yunqing Chen,  
 A. Chien,  K. D. Closser,  M. P. Coons,  S. Coriani,  S. Dasgupta,  
 A. L. Dempwolff,  M. Diedenhofen,  Hainam Do,  R. G. Edgar,  Po-Tung Fang,  
 S. Faraji,  S. Fatehi,  Qingguo Feng,  K. D. Fenk,  J. Fosso-Tande,  
 J. Gayvert,  Qinghui Ge,  A. Ghysels,  G. Gidofalvi,  J. Gomes,  
 J. Gonthier,  A. Gunina,  D. Hait,  M. W. D. Hanson-Heine,  
 P. H. P. Harbach,  A. W. Hauser,  M. F. Herbst,  J. E. Herr,  
 E. G. Hohenstein,  Z. C. Holden,  Kerwin Hui,  B. C. Huynh,  T.-C. Jagau,  
 Hyunjun Ji,  B. Kaduk,  K. Khistyaev,  Jaehoon Kim,  P. Klunzinger,  K. Koh,  
 D. Kosenkov,  L. Koulias,  T. Kowalczyk,  C. M. Krauter,  A. Kunitsa,  
 Ka Un Lao,  A. Laurent,  K. V. Lawler,  Joonho Lee,  D. Lefrancois,  
 S. Lehtola,  D. S. Levine,  Yi-Pei Li,  You-Sheng Lin,  Fenglai Liu,  
 E. Livshits,  A. Luenser,  P. Manohar,  E. Mansoor,  S. F. Manzer,  
 Shan-Ping Mao,  Yuezhi Mao,  N. Mardirossian,  A. V. Marenich,  
 T. Markovich,  L. A. Martinez-Martinez,  S. A. Maurer,  N. J. Mayhall,  
 S. C. McKenzie,  J.-M. Mewes,  P. Morgante,  A. F. Morrison,  
 J. W. Mullinax,  K. Nanda,  T. S. Nguyen-Beck,  R. Olivares-Amaya,  
 J. A. Parkhill,  Zheng Pei,  T. M. Perrine,  F. Plasser,  P. Pokhilko,  
 S. Prager,  A. Prociuk,  E. Ramos,  D. R. Rehn,  F. Rob,  M. Scheurer,  
 M. Schneider,  N. Sergueev,  S. M. Sharada,  S. Sharma,  D. W. Small,  
 T. Stauch,  T. Stein,  Yu-Chuan Su,  A. J. W. Thom,  A. Tkatchenko,  
 T. Tsuchimochi,  N. M. Tubman,  L. Vogt,  M. L. Vidal,  O. Vydrov,  
 M. A. Watson,  J. Wenzel,  M. de Wergifosse,  T. A. Wesolowski,  A. White,  
 J. Witte,  A. Yamada,  Jun Yang,  K. Yao,  S. Yeganeh,  S. R. Yost,  
 Zhi-Qiang You,  A. Zech,  Igor Ying Zhang,  Xing Zhang,  Yan Zhao,  
 Ying Zhu,  B. R. Brooks,  G. K. L. Chan,  C. J. Cramer,  M. S. Gordon,  
 W. J. Hehre,  A. Klamt,  M. W. Schmidt,  C. D. Sherrill,  D. G. Truhlar,  
 A. Aspuru-Guzik,  R. Baer,  A. T. Bell,  N. A. Besley,  Jeng-Da Chai,  
 A. E. DePrince, III,  R. A. DiStasio Jr.,  A. Dreuw,  B. D. Dunietz,  
 T. R. Furlani,  Chao-Ping Hsu,  Yousung Jung,  Jing Kong,  D. S. Lambrecht,  
 WanZhen Liang,  C. Ochsenfeld,  V. A. Rassolov,  L. V. Slipchenko,  
 J. E. Subotnik,  T. Van Voorhis,  J. M. Herbert,  A. I. Krylov,  
 P. M. W. Gill,  M. Head-Gordon

 Contributors to earlier versions of Q-Chem not listed above: 
 R. D. Adamson,  B. Austin,  J. Baker,  G. J. O. Beran,  K. Brandhorst,  
 S. T. Brown,  E. F. C. Byrd,  A. K. Chakraborty,  C.-L. Cheng,  
 Siu Hung Chien,  D. M. Chipman,  D. L. Crittenden,  H. Dachsel,  
 R. J. Doerksen,  A. D. Dutoi,  L. Fusti-Molnar,  W. A. Goddard III,  
 A. Golubeva-Zadorozhnaya,  S. R. Gwaltney,  G. Hawkins,  A. Heyden,  
 S. Hirata,  G. Kedziora,  F. J. Keil,  C. Kelley,  Jihan Kim,  R. A. King,  
 R. Z. Khaliullin,  P. P. Korambath,  W. Kurlancheek,  A. M. Lee,  M. S. Lee,  
 S. V. Levchenko,  Ching Yeh Lin,  D. Liotard,  R. C. Lochan,  I. Lotan,  
 P. E. Maslen,  N. Nair,  D. P. O'Neill,  D. Neuhauser,  E. Neuscamman,  
 C. M. Oana,  R. Olson,  B. Peters,  R. Peverati,  P. A. Pieniazek,  
 Y. M. Rhee,  J. Ritchie,  M. A. Rohrdanz,  E. Rosta,  N. J. Russ,  
 H. F. Schaefer III,  N. E. Schultz,  N. Shenvi,  A. C. Simmonett,  A. Sodt,  
 D. Stuck,  K. S. Thanthiriwatte,  V. Vanovschi,  Tao Wang,  A. Warshel,  
 C. F. Williams,  Q. Wu,  X. Xu,  W. Zhang

 Please cite Q-Chem as follows:
 Y. Shao et al., Mol. Phys. 113, 184-215 (2015)
 DOI: 10.1080/00268976.2014.952696

 Q-Chem 5.2.0 for Intel X86 EM64T Linux

 Parts of Q-Chem use Armadillo 8.300.2 (Tropical Shenanigans).
 http://arma.sourceforge.net/

 Q-Chem begins on Sun Sep 26 09:41:04 2021  

Host: cori01
0

     Scratch files written to /tmp/qchem7962//Frg2//
 May1019 |scratch|qcdevops|jenkins|workspace|build_RNUM -1
Processing $rem in /global/common/cori/software/qchem/5.2/config/preferences:
	 MEM_TOTAL  96000 
NAlpha2: 50
NElect   50
Mult     1
Symmetry turned off for PCM/SM12/SMD calculation

Checking the input file for inconsistencies... 	...done.

--------------------------------------------------------------
User input:
--------------------------------------------------------------
$molecule
0 1
 6	-0.5638467714	3.3337581490	1.8855763816
 6	-0.3798467714	0.9537581490	1.1035763816
 6	0.1311532286	1.9967581490	1.8685763816
 6	0.2621532286	-0.2812418510	1.0765763816
 6	1.3161532286	1.7997581490	2.5805763816
 6	1.4271532286	-0.4722418510	1.7975763816
 6	1.9591532286	0.5667581490	2.5465763816
 1	-1.2788467714	1.0987581490	0.5235763816
 1	-0.1438467714	-1.0932418510	0.4915763816
 1	-1.4088467714	3.3287581490	1.1945763816
 1	0.1511532286	4.0657581490	1.5105763816
 1	1.7461532286	2.6097581490	3.1535763816
 1	1.9261532286	-1.4312418510	1.7655763816
 1	2.8841532286	0.4297581490	3.0755763816
 1	-0.9053367714	3.6594681490	2.8792063816
$end
$rem
EDA2		1
METHOD		WB97X-V
BASIS		DEF2-TZVPD
XC_GRID		000099000590
NL_GRID		1
UNRESTRICTED		FALSE
MAX_SCF_CYCLES		200
SYMMETRY		FALSE
SYM_IGNORE		TRUE
BASIS_LIN_DEP_THRESH		6
THRESH		14
SCF_CONVERGENCE		8
SCF_PRINT_FRGM		TRUE
SOLVENT_METHOD		SMD
!required keywords
JOBTYPE		SP
SYM_IGNORE		TRUE
SUBSYSTEM		TRUE
GEN_SCFMAN		TRUE
CHILD_INSTRUCTION		2
SYM_IGNORE		TRUE
SCFMI		0
RI_K 0		
PARI_K 0		
MIN_PARI_K 0		
IARI_K 0		
OCC_RI_K 0		
PURECART		1111
MEM_STATIC		2000
MEM_TOTAL		96000
GUI		0
CHILD_MP		1
CHILD_MP_ORDERS		232
FRZ_RELAX		0
FRZ_RELAX_METHOD		0
EDA_CLS_ELEC		1
EDA_CLS_DISP		0
FRZ_ORTHO_DECOMP		1
EDA2		FALSE
FRGM_METHOD		FALSE
CIS_N_ROOTS  0
LOCAL_CIS    0
CIS_RLX_DNS  1
$end
$smx
SOLVENT			WATER
$end
--------------------------------------------------------------
 ----------------------------------------------------------------
             Standard Nuclear Orientation (Angstroms)
    I     Atom           X                Y                Z
 ----------------------------------------------------------------
    1      C      -0.5638467714     3.3337581490     1.8855763816
    2      C      -0.3798467714     0.9537581490     1.1035763816
    3      C       0.1311532286     1.9967581490     1.8685763816
    4      C       0.2621532286    -0.2812418510     1.0765763816
    5      C       1.3161532286     1.7997581490     2.5805763816
    6      C       1.4271532286    -0.4722418510     1.7975763816
    7      C       1.9591532286     0.5667581490     2.5465763816
    8      H      -1.2788467714     1.0987581490     0.5235763816
    9      H      -0.1438467714    -1.0932418510     0.4915763816
   10      H      -1.4088467714     3.3287581490     1.1945763816
   11      H       0.1511532286     4.0657581490     1.5105763816
   12      H       1.7461532286     2.6097581490     3.1535763816
   13      H       1.9261532286    -1.4312418510     1.7655763816
   14      H       2.8841532286     0.4297581490     3.0755763816
   15      H      -0.9053367714     3.6594681490     2.8792063816
 ----------------------------------------------------------------
 Nuclear Repulsion Energy =         270.16762059 hartrees
 There are       25 alpha and       25 beta electrons
 Requested basis set is def2-TZVPD
 There are 131 shells and 331 basis functions

 Total QAlloc Memory Limit  96000 MB
 Mega-Array Size      1956 MB
 MEM_STATIC part      2000 MB
 
 Citation of the SMD model:
 Marenich, A.V.; Cramer, C.J.; Truhlar, D.G.
 J. Phys. Chem. B 2009, 113, 6378-6396.
 iSolventCode=           1
 Solvent: water                                                           
 
 vradii
            1           2           3           4           5           6
    1   1.8500000   1.8500000   1.8500000   1.8500000   1.8500000   1.8500000
            7           8           9          10          11          12
    1   1.8500000   1.2000000   1.2000000   1.2000000   1.2000000   1.2000000
           13          14          15
    1   1.2000000   1.2000000   1.2000000
 Changing PCM_VDW_RADII to SMD_RADIUS
 Discretize the solute cavity surface with Lebedev spheres
	Using 110 Lebedev grid points for each H atom
	Using 194 Lebedev grid points for other atoms
	Atomic van der Waals radii will be scaled by 1.20
 Remove points where switching function is < 1.0e-08
 Keep 1085 surface tesserae and discard 1153 interior tesserae
 Molecular Surface Area = 132.041 Angst**2

                       Distance Matrix (Angstroms)
             C (  1)   C (  2)   C (  3)   C (  4)   C (  5)   C (  6)
   C (  2)  2.511928
   C (  3)  1.506945  1.390753
   C (  4)  3.795390  1.392163  2.415307
   C (  5)  2.524001  2.402844  1.396416  2.775517
   C (  6)  4.296215  2.404238  2.789376  1.383310  2.405700
   C (  7)  3.802465  2.775417  2.417885  2.399961  1.391005  1.386920
   H (  8)  2.713207  1.079642  2.145584  2.141236  3.384771  3.378395
   H (  9)  4.660254  2.149523  3.394091  1.080002  3.855512  2.135256
   H ( 10)  1.091573  2.589932  2.144784  3.979732  3.418254  4.780597
   H ( 11)  1.089805  3.183104  2.099839  4.370021  2.763491  4.722710
   H ( 12)  2.732782  3.385958  2.152956  3.856691  1.081355  3.382192
   H ( 13)  5.377706  3.382914  3.870894  2.136847  3.387578  1.081529
   H ( 14)  4.662405  3.849293  3.389889  3.372893  2.140222  2.137694
   H ( 15)  1.100001  3.278699  2.204606  4.487951  2.912511  4.866360
             C (  7)   H (  8)   H (  9)   H ( 10)   H ( 11)   H ( 12)
   H (  8)  3.854893
   H (  9)  3.376571  2.468626
   H ( 10)  4.560699  2.332390  4.652797
   H ( 11)  4.072488  3.438337  5.266941  1.754031
   H ( 12)  2.141884  4.283765  4.936654  3.782680  2.713560
   H ( 13)  2.145473  4.267961  2.454021  5.840023  5.782098  4.276520
   H ( 14)  1.074353  4.928573  4.262085  5.511099  4.810302  2.460392
   H ( 15)  4.228570  3.499391  5.372978  1.789097  1.776060  2.864886
             H ( 13)   H ( 14)
   H ( 14)  2.469248
   H ( 15)  5.930669  4.982953
 
 A cutoff of  1.0D-14 yielded   8364 shell pairs
 There are     54500 function pairs (     69454 Cartesian)
 Smallest overlap matrix eigenvalue = 5.48E-07
 Linear dependence detected in AO basis
 Tighter screening thresholds may be required for diffuse basis sets
 Use S2THRESH > 14 and THRESH = 14 in case of SCF convergence issues
 Number of orthogonalized atomic orbitals = 330
 Maximum deviation from orthogonality = 1.531E-10

 Scale SEOQF with 1.000000e-01/1.000000e-01/1.000000e-01

 Standard Electronic Orientation quadrupole field applied
 Nucleus-field energy     =    -0.0000000056 hartrees
 Guess from superposition of atomic densities
 Warning:  Energy on first SCF cycle will be non-variational
 SAD guess density has 49.913408 electrons

 -----------------------------------------------------------------------
  General SCF calculation program by
  Eric Jon Sundstrom, Paul Horn, Yuezhi Mao, Dmitri Zuev, Alec White,
  David Stuck, Shaama M.S., Shane Yost, Joonho Lee, David Small,
  Daniel Levine, Susi Lehtola, Hugh Burton, Evgeny Epifanovsky
 -----------------------------------------------------------------------
 Exchange:     0.1670 Hartree-Fock + 1.0000 wB97X-V + LR-HF
 Correlation:  1.0000 wB97X-V
 Using Euler-Maclaurin-Lebedev (99,590) quadrature formula
 Nonlocal Correlation:  VV10 with C = 0.0100 and b = 6.00 and scale = 1.00000
 Grid used for NLC:  SG-1 standard quadrature
Energy prior to optimization (guess energy) = -271.519233850953
Begin Timing: Total SCF Calculation
begin iterations for algorithm: DIIS         
the SCF tolerance is set to 1.00e-08
    1    -271.5192338510      1.98e-03     00000 
    2    -271.5604573279      1.29e-03     00000 
    3    -271.5847074929      1.56e-04     00000 
    4    -271.5854015597      4.72e-05     00000 
    5    -271.5854531152      2.19e-05     00000 
    6    -271.5854611640      5.38e-06     00000 
    7    -271.5854618893      1.66e-06     00000 
    8    -271.5854619393      4.35e-07     00000 
    9    -271.5854619453      1.14e-07     00000 
   10    -271.5854619459      4.51e-08     00000 
   11    -271.5854619460      2.33e-08     00000 
   12    -271.5854619460      7.40e-09     00000 Convergence criterion met
Timing for Total SCF: 1355.00s (wall), 2694.40s (cpu)
(3)  G-ENP(liq) elect-nuc-pol free energy of system     -271.585461946 a.u.
(4)  G-CDS(liq) cavity-dispersion-solvent structure 
     free energy                                                3.1561 kcal/mol
(6)  G-S(liq) free energy of system                     -271.580432390 a.u.
E_pcm = -0.0073936207
E_cds = 0.0050295563
Multipole orders to be included
        2
        3
computing dipole RHS
computing quadrupole RHS
total number of RHS in solve_reponses: 8
RHS batch sizes
        8
Beginning Block Conjugate Gradient Iterations. Batch Number: 0
computing hessian-vector products by finite difference
              1      6.16e-01     00000 Conjugate Gradient Iteration
computing hessian-vector products by finite difference
              2      1.85e-01     00000 Conjugate Gradient Iteration
computing hessian-vector products by finite difference
              3      4.47e-02     00000 Conjugate Gradient Iteration
computing hessian-vector products by finite difference
              4      1.13e-02     00000 Conjugate Gradient Iteration
computing hessian-vector products by finite difference
              5      1.94e-03     00000 Conjugate Gradient Iteration
computing hessian-vector products by finite difference
              6      5.48e-04     00000 Conjugate Gradient Iteration
computing hessian-vector products by finite difference
              7      1.37e-04     00000 Conjugate Gradient Iteration
computing hessian-vector products by finite difference
              8      2.15e-05     00000 Conjugate Gradient Iteration
computing hessian-vector products by finite difference
              9      3.16e-06     00000 Conjugate Gradient Iteration
computing hessian-vector products by finite difference
             10      5.39e-07     00000 Conjugate Gradient Iteration
computing hessian-vector products by finite difference
             11      9.92e-08     00000 Conjugate Gradient Iteration
computing hessian-vector products by finite difference
             12      1.43e-08     00000 Conjugate Gradient Iteration
computing hessian-vector products by finite difference
             13      2.57e-09     00000 CG Converged
batch 0 complete
Done Calculating Responses
TESTING ORTHOGONALIZATION OF MULTIPOLE BASIS
Multipole virts passed orthogonality test
Virts Per Order
           75
          124
 
 --------------------------------------------------------------
 
                    Orbital Energies (a.u.)
 --------------------------------------------------------------
 
 Alpha MOs
 -- Occupied --
-10.2775 -10.2665 -10.2662 -10.2643 -10.2633 -10.2630 -10.2538  -0.9941
 -0.9021  -0.8748  -0.8071  -0.7256  -0.7002  -0.6246  -0.5688  -0.5603
 -0.5283  -0.5243  -0.5079  -0.4807  -0.4699  -0.4359  -0.4339  -0.3464
 -0.3347
 -- Virtual --
  0.0666   0.0683   0.0741   0.0843   0.0898   0.1095   0.1156   0.1180
  0.1409   0.1600   0.1704   0.1801   0.1860   0.1960   0.1997   0.2051
  0.2276   0.2351   0.2389   0.2466   0.2517   0.2620   0.2654   0.2776
  0.2847   0.2876   0.2939   0.2974   0.2995   0.3047   0.3073   0.3174
  0.3270   0.3298   0.3346   0.3474   0.3553   0.3578   0.3721   0.3779
  0.3782   0.3862   0.3922   0.3973   0.3992   0.4037   0.4044   0.4088
  0.4205   0.4317   0.4366   0.4429   0.4455   0.4535   0.4573   0.4638
  0.4728   0.4774   0.4822   0.4922   0.5041   0.5060   0.5134   0.5166
  0.5204   0.5258   0.5350   0.5500   0.5518   0.5578   0.5645   0.5694
  0.5753   0.5775   0.5912   0.5994   0.6063   0.6300   0.6400   0.6495
  0.6678   0.6800   0.6874   0.6915   0.6961   0.7090   0.7265   0.7283
  0.7322   0.7414   0.7480   0.7645   0.7681   0.7718   0.7777   0.7848
  0.7918   0.7982   0.8027   0.8072   0.8183   0.8275   0.8301   0.8331
  0.8420   0.8438   0.8559   0.8590   0.8681   0.8709   0.8841   0.9016
  0.9208   0.9335   0.9458   0.9512   0.9547   1.0105   1.0399   1.0443
  1.0558   1.0640   1.0679   1.0795   1.0943   1.1050   1.1077   1.1460
  1.1674   1.1719   1.2724   1.2775   1.3047   1.3353   1.3611   1.3684
  1.3761   1.4468   1.4547   1.4673   1.4693   1.4778   1.5368   1.5447
  1.6132   1.6190   1.6284   1.6326   1.6540   1.6855   1.7442   1.7736
  1.7852   1.8015   1.8145   1.8192   1.8396   1.8531   1.8904   1.9188
  1.9194   1.9294   1.9339   1.9783   1.9938   1.9961   2.0196   2.0331
  2.0428   2.0491   2.0733   2.0930   2.1133   2.1287   2.1786   2.2016
  2.2113   2.2351   2.2522   2.2823   2.2954   2.3197   2.3792   2.4062
  2.4137   2.4313   2.4647   2.5186   2.5500   2.5670   2.5708   2.6080
  2.6219   2.6542   2.6682   2.6818   2.7098   2.7257   2.7747   2.7818
  2.7913   2.8095   2.8237   2.8525   2.8686   2.9015   2.9165   2.9228
  2.9324   2.9503   2.9887   2.9909   2.9998   3.0173   3.0291   3.0555
  3.0656   3.0976   3.1076   3.1296   3.1693   3.1919   3.2060   3.2196
  3.2332   3.2685   3.2775   3.2929   3.3470   3.3619   3.3678   3.3865
  3.4201   3.4343   3.4481   3.4561   3.4630   3.4874   3.4936   3.4987
  3.5132   3.5436   3.5464   3.5513   3.5607   3.5723   3.5815   3.6157
  3.6271   3.6467   3.6652   3.7062   3.7329   3.7585   3.7663   3.8140
  3.8622   3.9088   3.9436   3.9560   3.9666   3.9895   4.0440   4.0650
  4.1364   4.2157   4.2805   4.2852   4.2978   4.3201   4.3355   4.3519
  4.3712   4.3815   4.4009   4.4088   4.4256   4.4643   4.5168   4.5469
  4.5987   4.6194   4.7805   4.7987   4.8274   4.8460   4.9176   4.9533
  5.0376   5.0505   5.1789   5.2756   5.3847   5.4059   5.5015   5.5390
  5.6821   5.8554  22.5894  22.6903  22.9090  22.9160  23.0218  23.0960
 23.4340
 --------------------------------------------------------------
 
          Ground-State Mulliken Net Atomic Charges

     Atom                 Charge (a.u.)
  ----------------------------------------
      1 C                    -1.074625
      2 C                    -0.451067
      3 C                     0.812208
      4 C                    -0.575077
      5 C                    -0.361972
      6 C                    -0.543458
      7 C                    -0.527718
      8 H                     0.361366
      9 H                     0.371071
     10 H                     0.294065
     11 H                     0.242146
     12 H                     0.407372
     13 H                     0.397181
     14 H                     0.382134
     15 H                     0.266372
  ----------------------------------------
  Sum of atomic charges =     0.000000

 -----------------------------------------------------------------
                    Cartesian Multipole Moments
 -----------------------------------------------------------------
    Charge (ESU x 10^10)
                -0.0000
    Dipole Moment (Debye)
         X      -0.1553      Y       0.5348      Z      -0.0648
       Tot       0.5607
    Quadrupole Moments (Debye-Ang)
        XX     -40.2215     XY      -1.3723     YY     -36.8889
        XZ       3.4075     YZ       3.0870     ZZ     -43.3679
    Octopole Moments (Debye-Ang^2)
       XXX     -66.5685    XXY     -50.1278    XYY     -22.0141
       YYY    -138.0037    XXZ     -67.9983    XYZ       1.4126
       YYZ     -64.8017    XZZ     -12.7864    YZZ     -40.1019
       ZZZ    -237.8546
    Hexadecapole Moments (Debye-Ang^3)
      XXXX    -370.2904   XXXY      -3.8230   XXYY    -205.2877
      XYYY       5.0614   YYYY    -852.7237   XXXZ    -151.3615
      XXYZ     -98.2975   XYYZ     -51.4508   YYYZ    -271.9154
      XXZZ    -197.4163   XYZZ      10.9181   YYZZ    -281.7137
      XZZZ    -154.7188   YZZZ    -276.9249   ZZZZ   -1031.7988
 -----------------------------------------------------------------
Archival summary:
1\1\nid00533\SP\ProcedureUnspecified\BasisUnspecified\78\meili\SunSep2617:18:292021SunSep2617:18:292021\0\\#,ProcedureUnspecified,BasisUnspecified,\\0,1\C\C,1,1.39075\H,2,1.07964,1,120.048\C,2,1.39216,1,120.432,3,179.869,0\H,4,1.08,2,120.273,1,179.218,0\C,4,1.38331,2,120.05,1,-0.963596,0\H,6,1.08153,4,119.708,2,-179.453,0\C,6,1.38692,4,120.072,2,-0.122353,0\H,8,1.07435,6,120.043,4,-177.617,0\C,8,1.391,6,119.996,4,0.439057,0\H,10,1.08136,8,119.545,6,-178.979,0\C,1,1.50694,2,120.141,3,-0.288061,0\H,12,1.0898,1,106.826,2,-119.703,0\H,12,1.09157,1,110.231,2,-3.73739,0\H,12,1.1,1,114.587,2,120.232,0\\\@

 Total job time:  27447.55s(wall), 54505.94s(cpu) 
 Sun Sep 26 17:18:32 2021

        *************************************************************
        *                                                           *
        *  Thank you very much for using Q-Chem.  Have a nice day.  *
        *                                                           *
        *************************************************************


Done Job For Fragment 1
calling putenv with: QCSCRATCH=/global/cscratch1/sd/meili 
calling putenv with: QCLOCALSCR=/tmp 
calling putenv with: QCTHREADS=32 
Doing General SCFMI
 Exchange:     0.1670 Hartree-Fock + 1.0000 wB97X-V + LR-HF
 Correlation:  1.0000 wB97X-V
 Using Euler-Maclaurin-Lebedev (99,590) quadrature formula
 Nonlocal Correlation:  VV10 with C = 0.0100 and b = 6.00 and scale = 1.00000
 Grid used for NLC:  SG-1 standard quadrature
performing fock build before subrot guess so that all methods have access
Printing subrot_rss_gen Method Specification:
Occupied Subspace Method is 0
Virtual Subspace Method is 0
Energy of the unrelaxed supersystem initial determinant -539.432188162299
performing fock build before subrot guess so that all methods have access
Printing subrot_rss_gen Method Specification:
Occupied Subspace Method is 0
Virtual Subspace Method is 0
Energy of the unrelaxed supersystem initial determinant w/ solvent -539.568760673197
write pseudocanon occs and virts to disk
write pseudocanon orbital energies to disk
Tolerance of ortho_decomp_scf: 1.00e-06
GDM subspace size: 20
Beginning the Orthogonal Decomposition of the Initial Supersystem Wavefunction
    1    -539.4111045929      2.38e-02     ortho_decomp Preconditoned Steepest Descent
    2    -539.4131986442      7.06e-04     ortho_decomp BFGS Step
    3    -539.4132070464      4.75e-05     ortho_decomp BFGS Step
    4    -539.4132070568      1.91e-06     ortho_decomp BFGS Step
    5    -539.4132070569      6.75e-08     ortho_decomp 00000 Convergence criterion met
 Hartree-Fock
 Hartree-Fock
 Hartree-Fock
Doing General SCFMI
 Exchange:     0.1670 Hartree-Fock + 1.0000 wB97X-V + LR-HF
 Correlation:  1.0000 wB97X-V
 Using Euler-Maclaurin-Lebedev (99,590) quadrature formula
 Nonlocal Correlation:  VV10 with C = 0.0100 and b = 6.00 and scale = 1.00000
 Grid used for NLC:  SG-1 standard quadrature
performing fock build at end of subrot_r(subrot) constructor so that all methods have access
<S^2> of initial wavefunction before polarization iterations 0.0000000000
Beginning iterations for the determination of the polarized wavefunction
Energy prior to optimization (guess energy) = -539.568760673197
Begin Timing: Total SCF Calculation
begin iterations for algorithm: DIIS         
the SCF tolerance is set to 1.00e-08
    1    -539.5687606732      4.32e-05     00000 
    2    -539.5689025266      2.17e-05     00000 
    3    -539.5689213779      1.23e-05     00000 
    4    -539.5689282526      4.66e-06     00000 
    5    -539.5689292619      1.95e-06     00000 
    6    -539.5689295623      7.82e-07     00000 
    7    -539.5689296009      3.21e-07     00000 
    8    -539.5689296070      1.33e-07     00000 
    9    -539.5689296077      6.11e-08     00000 
   10    -539.5689296078      1.78e-08     00000 
   11    -539.5689296078      7.57e-09     00000 Convergence criterion met
write pseudocanon occs and virts to disk
write pseudocanon orbital energies to disk
Timing for Total SCF: 5486.00s (wall), 10858.46s (cpu)
<S^2> of polarized wavefunction after polarization iterations 0.0000000000
relaxing scfmi constraint to allow all rotations in the entire AO span
Doing General SCFMI
 Exchange:     0.1670 Hartree-Fock + 1.0000 wB97X-V + LR-HF
 Correlation:  1.0000 wB97X-V
 Using Euler-Maclaurin-Lebedev (99,590) quadrature formula
 Nonlocal Correlation:  VV10 with C = 0.0100 and b = 6.00 and scale = 1.00000
 Grid used for NLC:  SG-1 standard quadrature
performing fock build at end of subrot_r(subrot) constructor so that all methods have access
<S^2> of polarized wavefunction before ct-allowed iterations 0.0000000000
Beginning iterations for the determination of the CT-Allowed wavefunction
Energy prior to optimization (guess energy) = -539.568929607827
Begin Timing: Total SCF Calculation
begin iterations for algorithm: DIIS         
the SCF tolerance is set to 1.00e-08
    1    -539.5689296078      7.09e-05     00000 
    2    -539.5697157146      7.38e-06     00000 
    3    -539.5697382633      1.47e-06     00000 
    4    -539.5697388879      1.41e-06     00000 
    5    -539.5697391109      1.89e-07     00000 
    6    -539.5697391228      1.19e-07     00000 
    7    -539.5697391252      2.82e-08     00000 
    8    -539.5697391254      1.20e-08     00000 
    9    -539.5697391254      2.34e-09     00000 Convergence criterion met
write pseudocanon occs and virts to disk
write pseudocanon orbital energies to disk
Timing for Total SCF: 4325.00s (wall), 8601.91s (cpu)
<S^2> of ct_allowed wavefunction after ct-allowed iterations 0.0000000000

================================
        Results of EDA2         
================================
Basic EDA Quantities
--------------------
Fragment Energies (Ha):
1 -267.9749403760
2 -271.5804323898
--------------------
  E_prp (kJ/mol) = 0.0000
  E_sol (kJ/mol) = 2.7521
  E_frz (kJ/mol) = -10.2865
  E_pol (kJ/mol) = -0.4435
  E_vct (kJ/mol) = -2.1254
  E_int (kJ/mol) = -10.1033
--------------------


Initial Wavefunction Decomposition
--------------------
  --------------------
  Orthogonal Fragment Subspace Decomposition:
  --------------------
     E_elec   (ELEC)   (kJ/mol) = -24.5883
     E_pauli  (PAULI)  (kJ/mol) = 30.4241
     E_disp   (DISP)   (kJ/mol) = -16.1224
     --------------------
     Terms summing to E_pauli:
     --------------------
        E_kep_pauli       (kJ/mol) = 39.5490
        E_disp_free_pauli (kJ/mol) = -9.1249
  --------------------
  Classical Frozen Decomposition:
  --------------------
     E_cls_elec  (CLS ELEC)  (kJ/mol) = -10.5562
     E_cls_pauli (CLS PAULI) (kJ/mol) = 0.2697
    [E_mod_pauli (MOD PAULI) (kJ/mol) = 16.3921 (CLS PAULI - DISP from orthogonal decomposition) ]
  --------------------
--------------------

Simplified EDA Summary (kJ/mol)
--------------------
 PREPARATION     0.0000
 SOLVATION       2.7521
 FROZEN          5.8359      (does not include dispersion)
[PAULI           30.4241]     (if this is negligible, then frozen describes electrostatics)
 DISPERSION      -16.1224
 POLARIZATION    -0.4435
 CHARGE TRANSFER -2.1254
 TOTAL           -10.1033     (PRP + SOL + FRZ + DISP + POL + CT)
--------------------
 
 --------------------------------------------------------------
 
                    Orbital Energies (a.u.)
 --------------------------------------------------------------
 
 Alpha MOs
 -- Occupied --
-19.1549 -19.1522 -10.3528 -10.2762 -10.2652 -10.2638 -10.2629 -10.2615
-10.2614 -10.2529 -10.2523 -10.2440  -1.1629  -1.0645  -0.9926  -0.9008
 -0.8864  -0.8730  -0.8059  -0.7517  -0.7241  -0.6989  -0.6239  -0.6159
 -0.5680  -0.5644  -0.5620  -0.5562  -0.5319  -0.5273  -0.5209  -0.5065
 -0.5007  -0.4796  -0.4750  -0.4683  -0.4512  -0.4365  -0.4325  -0.4305
 -0.3647  -0.3539  -0.3452  -0.3439  -0.3332
 -- Virtual --
  0.0635   0.0676   0.0730   0.0754   0.0804   0.0905   0.0972   0.0995
  0.1098   0.1191   0.1221   0.1283   0.1318   0.1364   0.1442   0.1542
  0.1557   0.1658   0.1689   0.1707   0.1761   0.1813   0.1872   0.2017
  0.2089   0.2118   0.2139   0.2195   0.2298   0.2318   0.2335   0.2415
  0.2436   0.2485   0.2538   0.2613   0.2657   0.2685   0.2773   0.2784
  0.2820   0.2855   0.2893   0.2940   0.2987   0.3017   0.3053   0.3082
  0.3190   0.3241   0.3270   0.3315   0.3345   0.3392   0.3455   0.3482
  0.3523   0.3551   0.3572   0.3601   0.3636   0.3649   0.3722   0.3761
  0.3800   0.3845   0.3863   0.3917   0.3935   0.3956   0.3975   0.4025
  0.4119   0.4149   0.4173   0.4205   0.4223   0.4263   0.4338   0.4382
  0.4446   0.4463   0.4528   0.4553   0.4608   0.4690   0.4725   0.4742
  0.4756   0.4775   0.4843   0.4898   0.4918   0.4943   0.5027   0.5048
  0.5079   0.5124   0.5124   0.5160   0.5195   0.5295   0.5315   0.5351
  0.5401   0.5423   0.5454   0.5541   0.5558   0.5586   0.5695   0.5754
  0.5794   0.5847   0.5861   0.5916   0.5948   0.5956   0.6073   0.6112
  0.6192   0.6224   0.6260   0.6314   0.6353   0.6408   0.6506   0.6598
  0.6683   0.6729   0.6768   0.6807   0.6912   0.6926   0.7004   0.7065
  0.7132   0.7177   0.7215   0.7270   0.7311   0.7338   0.7415   0.7493
  0.7518   0.7584   0.7614   0.7640   0.7664   0.7695   0.7775   0.7836
  0.7886   0.7925   0.7945   0.8005   0.8015   0.8053   0.8093   0.8112
  0.8188   0.8216   0.8265   0.8335   0.8368   0.8400   0.8463   0.8504
  0.8565   0.8610   0.8638   0.8702   0.8712   0.8791   0.8833   0.8900
  0.9003   0.9068   0.9148   0.9168   0.9227   0.9327   0.9352   0.9500
  0.9504   0.9614   0.9703   0.9768   0.9777   0.9864   0.9997   1.0045
  1.0214   1.0254   1.0375   1.0485   1.0583   1.0634   1.0756   1.0786
  1.0915   1.0985   1.1034   1.1174   1.1274   1.1340   1.1435   1.1641
  1.1669   1.1746   1.1811   1.1851   1.2035   1.2120   1.2258   1.2474
  1.2530   1.2990   1.3084   1.3166   1.3233   1.3344   1.3561   1.3697
  1.3812   1.3830   1.3924   1.4010   1.4143   1.4155   1.4228   1.4594
  1.4704   1.4826   1.4896   1.4911   1.4990   1.5131   1.5233   1.5298
  1.5545   1.5728   1.6104   1.6273   1.6398   1.6491   1.6616   1.6870
  1.7011   1.7035   1.7577   1.7910   1.7992   1.8042   1.8251   1.8290
  1.8449   1.8871   1.8916   1.9027   1.9085   1.9139   1.9323   1.9411
  1.9479   1.9583   1.9640   1.9738   1.9801   1.9834   1.9938   2.0053
  2.0078   2.0141   2.0163   2.0306   2.0371   2.0524   2.0642   2.0734
  2.0829   2.0871   2.1040   2.1171   2.1296   2.1500   2.1627   2.1707
  2.1930   2.1967   2.2121   2.2221   2.2423   2.2486   2.2533   2.2763
  2.2843   2.2962   2.3005   2.3172   2.3276   2.3385   2.3551   2.3749
  2.4104   2.4168   2.4291   2.4405   2.4471   2.4695   2.4850   2.4885
  2.5072   2.5328   2.5604   2.5719   2.5830   2.5916   2.6113   2.6169
  2.6310   2.6493   2.6652   2.6783   2.6878   2.6898   2.7097   2.7258
  2.7337   2.7555   2.7664   2.7768   2.7852   2.8066   2.8157   2.8248
  2.8308   2.8398   2.8641   2.8711   2.8829   2.8837   2.8993   2.9233
  2.9331   2.9405   2.9519   2.9545   2.9791   2.9847   3.0006   3.0128
  3.0202   3.0318   3.0472   3.0580   3.0798   3.0821   3.0941   3.1140
  3.1289   3.1353   3.1517   3.1604   3.1977   3.2071   3.2185   3.2348
  3.2483   3.2573   3.2626   3.2857   3.2908   3.2967   3.3049   3.3321
  3.3371   3.3554   3.3593   3.3706   3.3830   3.3998   3.4121   3.4134
  3.4222   3.4389   3.4483   3.4555   3.4597   3.4658   3.4835   3.4871
  3.4946   3.4969   3.5052   3.5233   3.5289   3.5417   3.5503   3.5613
  3.5647   3.5726   3.5796   3.5863   3.5884   3.6162   3.6279   3.6295
  3.6435   3.6478   3.6618   3.6728   3.6949   3.7082   3.7163   3.7197
  3.7293   3.7442   3.7599   3.7639   3.7719   3.7845   3.8147   3.8223
  3.8322   3.8686   3.9216   3.9438   3.9570   3.9708   3.9819   4.0004
  4.0543   4.0898   4.0978   4.1116   4.1380   4.1545   4.1997   4.2354
  4.2572   4.2978   4.3072   4.3128   4.3296   4.3434   4.3496   4.3647
  4.3817   4.3948   4.4117   4.4160   4.4207   4.4469   4.4799   4.5274
  4.5565   4.5848   4.6092   4.6211   4.6328   4.7147   4.7588   4.7831
  4.7882   4.8048   4.8231   4.8342   4.8525   4.8713   4.9375   4.9734
  5.0523   5.0587   5.0725   5.1295   5.1942   5.2893   5.3055   5.3439
  5.3474   5.3658   5.3923   5.4060   5.4780   5.5070   5.5422   5.6950
  5.7017   5.7345   5.7863   5.8370   5.9954   6.2249   6.3094   6.3462
  6.5973   6.6265   6.7102   6.7571   6.7763   6.9556   6.9983   7.0443
  7.2400   7.3464   7.3701   7.3990  22.6395  22.6911  22.6999  22.8463
 22.9407  22.9506  23.0489  23.1283  23.4483  23.7501  44.3242  44.4333
 --------------------------------------------------------------
 
          Ground-State Mulliken Net Atomic Charges

     Atom                 Charge (a.u.)
  ----------------------------------------
      1 C                     0.212486
      2 C                    -0.850536
      3 C                     0.368549
      4 O                    -0.777065
      5 O                    -0.821528
      6 H                    -0.022848
      7 H                     0.228469
      8 H                     0.182164
      9 H                     0.226002
     10 H                     0.270918
     11 C                    -1.146652
     12 C                    -0.470854
     13 C                     0.560192
     14 C                    -0.441985
     15 C                    -0.415394
     16 C                    -0.538807
     17 C                    -0.434531
     18 H                     0.422054
     19 H                     0.370372
     20 H                     0.302745
     21 H                     0.252583
     22 H                     0.434995
     23 H                     0.411904
     24 H                     0.393271
     25 H                     0.283495
  ----------------------------------------
  Sum of atomic charges =    -1.000000

 -----------------------------------------------------------------
                    Cartesian Multipole Moments
 -----------------------------------------------------------------
    Charge (ESU x 10^10)
                -4.8032
    Dipole Moment (Debye)
         X       5.4499      Y      14.9085      Z       9.8530
       Tot      18.6828
    Quadrupole Moments (Debye-Ang)
        XX     -89.1619     XY     -17.7991     YY    -109.6958
        XZ     -11.6520     YZ     -26.7387     ZZ     -96.9272
    Octopole Moments (Debye-Ang^2)
       XXX      38.4235    XXY      35.6040    XYY      43.3064
       YYY     107.7792    XXZ      49.4776    XYZ      43.4589
       YYZ      93.3576    XZZ      47.9320    YZZ      67.2812
       ZZZ      32.2286
    Hexadecapole Moments (Debye-Ang^3)
      XXXX    -789.4516   XXXY    -248.8508   XXYY    -476.7995
      XYYY    -259.2732   YYYY   -1836.3734   XXXZ    -406.4287
      XXYZ    -298.2764   XYYZ    -212.6899   YYYZ    -790.1114
      XXZZ    -545.0022   XYZZ    -146.6886   YYZZ    -758.2589
      XZZZ    -410.9809   YZZZ    -700.6726   ZZZZ   -2249.1998
 -----------------------------------------------------------------
Archival summary:
1\1\nid00533\SP\ProcedureUnspecified\BasisUnspecified\21013(1-,1)\meili\SunSep2622:22:122021SunSep2622:22:122021\0\\#,ProcedureUnspecified,BasisUnspecified,\\-1,1\O\C,1,1.25484\O,2,1.25521,1,123.292\C,2,1.53068,1,120.088,3,-179.402,0\H,4,1.09061,2,108.599,1,-97.9689,0\H,4,1.09251,2,109.882,1,145.911,0\C,4,1.53632,2,114.73,1,23.1514,0\H,7,1.08823,4,107.439,2,-176.221,0\H,7,1.08854,4,108.624,2,-60.9592,0\H,7,1.1,4,115.604,2,61.6723,0\H,5,2.33675,4,156.113,2,87.9177,0\C,11,1.07964,5,116.232,4,-8.12076,0\C,12,1.39075,11,120.048,5,140.77,0\C,12,1.39216,11,119.519,5,-39.0997,0\H,14,1.08,12,120.273,11,-0.912398,0\C,14,1.38331,12,120.05,11,178.906,0\H,16,1.08153,14,119.708,12,-179.453,0\C,16,1.38692,14,120.072,12,-0.122353,0\H,18,1.07435,16,120.043,14,-177.617,0\C,18,1.391,16,119.996,14,0.439057,0\H,20,1.08136,18,119.545,16,-178.979,0\C,13,1.50694,12,120.141,11,-0.288061,0\H,22,1.0898,13,106.826,12,-119.703,0\H,22,1.09157,13,110.231,12,-3.73739,0\H,22,1.1,13,114.587,12,120.232,0\\\@

 Total job time:  55206.68s(wall), 36220.39s(cpu) 
 Sun Sep 26 22:22:14 2021

        *************************************************************
        *                                                           *
        *  Thank you very much for using Q-Chem.  Have a nice day.  *
        *                                                           *
        *************************************************************


