
Running Job 1 of 1 SSI-013GLU-056GLN-1_SMD_TZVPD.in
qchem SSI-013GLU-056GLN-1_SMD_TZVPD.in_913.0 /tmp/qchem913/ 0
/global/common/cori/software/qchem/5.2/exe/qcprog.exe_s SSI-013GLU-056GLN-1_SMD_TZVPD.in_913.0 /tmp/qchem913/
                  Welcome to Q-Chem
     A Quantum Leap Into The Future Of Chemistry


 Q-Chem 5.2, Q-Chem, Inc., Pleasanton, CA (2019)

 License issued to: National Energy Research Scientific Computing Center

 Yihan Shao,  Zhengting Gan,  E. Epifanovsky,  A. T. B. Gilbert,  M. Wormit,  
 J. Kussmann,  A. W. Lange,  A. Behn,  Jia Deng,  Xintian Feng,  D. Ghosh,  
 M. Goldey,  P. R. Horn,  L. D. Jacobson,  I. Kaliman,  T. Kus,  A. Landau,  
 Jie Liu,  E. I. Proynov,  R. M. Richard,  R. P. Steele,  E. J. Sundstrom,  
 H. L. Woodcock III,  P. M. Zimmerman,  D. Zuev,  B. Albrecht,  E. Alguire,  
 S. A. Baeppler,  D. Barton,  Z. Benda,  Y. A. Bernard,  E. J. Berquist,  
 K. B. Bravaya,  H. Burton,  D. Casanova,  Chun-Min Chang,  Yunqing Chen,  
 A. Chien,  K. D. Closser,  M. P. Coons,  S. Coriani,  S. Dasgupta,  
 A. L. Dempwolff,  M. Diedenhofen,  Hainam Do,  R. G. Edgar,  Po-Tung Fang,  
 S. Faraji,  S. Fatehi,  Qingguo Feng,  K. D. Fenk,  J. Fosso-Tande,  
 J. Gayvert,  Qinghui Ge,  A. Ghysels,  G. Gidofalvi,  J. Gomes,  
 J. Gonthier,  A. Gunina,  D. Hait,  M. W. D. Hanson-Heine,  
 P. H. P. Harbach,  A. W. Hauser,  M. F. Herbst,  J. E. Herr,  
 E. G. Hohenstein,  Z. C. Holden,  Kerwin Hui,  B. C. Huynh,  T.-C. Jagau,  
 Hyunjun Ji,  B. Kaduk,  K. Khistyaev,  Jaehoon Kim,  P. Klunzinger,  K. Koh,  
 D. Kosenkov,  L. Koulias,  T. Kowalczyk,  C. M. Krauter,  A. Kunitsa,  
 Ka Un Lao,  A. Laurent,  K. V. Lawler,  Joonho Lee,  D. Lefrancois,  
 S. Lehtola,  D. S. Levine,  Yi-Pei Li,  You-Sheng Lin,  Fenglai Liu,  
 E. Livshits,  A. Luenser,  P. Manohar,  E. Mansoor,  S. F. Manzer,  
 Shan-Ping Mao,  Yuezhi Mao,  N. Mardirossian,  A. V. Marenich,  
 T. Markovich,  L. A. Martinez-Martinez,  S. A. Maurer,  N. J. Mayhall,  
 S. C. McKenzie,  J.-M. Mewes,  P. Morgante,  A. F. Morrison,  
 J. W. Mullinax,  K. Nanda,  T. S. Nguyen-Beck,  R. Olivares-Amaya,  
 J. A. Parkhill,  Zheng Pei,  T. M. Perrine,  F. Plasser,  P. Pokhilko,  
 S. Prager,  A. Prociuk,  E. Ramos,  D. R. Rehn,  F. Rob,  M. Scheurer,  
 M. Schneider,  N. Sergueev,  S. M. Sharada,  S. Sharma,  D. W. Small,  
 T. Stauch,  T. Stein,  Yu-Chuan Su,  A. J. W. Thom,  A. Tkatchenko,  
 T. Tsuchimochi,  N. M. Tubman,  L. Vogt,  M. L. Vidal,  O. Vydrov,  
 M. A. Watson,  J. Wenzel,  M. de Wergifosse,  T. A. Wesolowski,  A. White,  
 J. Witte,  A. Yamada,  Jun Yang,  K. Yao,  S. Yeganeh,  S. R. Yost,  
 Zhi-Qiang You,  A. Zech,  Igor Ying Zhang,  Xing Zhang,  Yan Zhao,  
 Ying Zhu,  B. R. Brooks,  G. K. L. Chan,  C. J. Cramer,  M. S. Gordon,  
 W. J. Hehre,  A. Klamt,  M. W. Schmidt,  C. D. Sherrill,  D. G. Truhlar,  
 A. Aspuru-Guzik,  R. Baer,  A. T. Bell,  N. A. Besley,  Jeng-Da Chai,  
 A. E. DePrince, III,  R. A. DiStasio Jr.,  A. Dreuw,  B. D. Dunietz,  
 T. R. Furlani,  Chao-Ping Hsu,  Yousung Jung,  Jing Kong,  D. S. Lambrecht,  
 WanZhen Liang,  C. Ochsenfeld,  V. A. Rassolov,  L. V. Slipchenko,  
 J. E. Subotnik,  T. Van Voorhis,  J. M. Herbert,  A. I. Krylov,  
 P. M. W. Gill,  M. Head-Gordon

 Contributors to earlier versions of Q-Chem not listed above: 
 R. D. Adamson,  B. Austin,  J. Baker,  G. J. O. Beran,  K. Brandhorst,  
 S. T. Brown,  E. F. C. Byrd,  A. K. Chakraborty,  C.-L. Cheng,  
 Siu Hung Chien,  D. M. Chipman,  D. L. Crittenden,  H. Dachsel,  
 R. J. Doerksen,  A. D. Dutoi,  L. Fusti-Molnar,  W. A. Goddard III,  
 A. Golubeva-Zadorozhnaya,  S. R. Gwaltney,  G. Hawkins,  A. Heyden,  
 S. Hirata,  G. Kedziora,  F. J. Keil,  C. Kelley,  Jihan Kim,  R. A. King,  
 R. Z. Khaliullin,  P. P. Korambath,  W. Kurlancheek,  A. M. Lee,  M. S. Lee,  
 S. V. Levchenko,  Ching Yeh Lin,  D. Liotard,  R. C. Lochan,  I. Lotan,  
 P. E. Maslen,  N. Nair,  D. P. O'Neill,  D. Neuhauser,  E. Neuscamman,  
 C. M. Oana,  R. Olson,  B. Peters,  R. Peverati,  P. A. Pieniazek,  
 Y. M. Rhee,  J. Ritchie,  M. A. Rohrdanz,  E. Rosta,  N. J. Russ,  
 H. F. Schaefer III,  N. E. Schultz,  N. Shenvi,  A. C. Simmonett,  A. Sodt,  
 D. Stuck,  K. S. Thanthiriwatte,  V. Vanovschi,  Tao Wang,  A. Warshel,  
 C. F. Williams,  Q. Wu,  X. Xu,  W. Zhang

 Please cite Q-Chem as follows:
 Y. Shao et al., Mol. Phys. 113, 184-215 (2015)
 DOI: 10.1080/00268976.2014.952696

 Q-Chem 5.2.0 for Intel X86 EM64T Linux

 Parts of Q-Chem use Armadillo 8.300.2 (Tropical Shenanigans).
 http://arma.sourceforge.net/

 Q-Chem begins on Sun Sep 26 03:04:06 2021  

Host: cori01
0

     Scratch files written to /tmp/qchem913//
 May1019 |scratch|qcdevops|jenkins|workspace|build_RNUM -1
Processing $rem in /global/common/cori/software/qchem/5.2/config/preferences:
	 MEM_TOTAL  96000 
NAlpha2: 72
NElect   72
Mult     1
Symmetry turned off for PCM/SM12/SMD calculation

 Q-Chem warning in module libgen/rem_setup.C, line 2803:

 Neither GIA nor STOLL is specified by user. Use STOLL as the default


Checking the input file for inconsistencies... 	...done.

--------------------------------------------------------------
User input:
--------------------------------------------------------------
$comment
SSI-013GLU-056GLN-1.pdb
$end

$molecule
-1 1
--
-1 1
C    1.962045889924   -2.149787360644   -1.971142477804
C    2.187045889924   -1.099787360644   -0.893142477804
O    1.220045889924   -0.841787360644   -0.138142477804
O    3.330045889924   -0.631787360644   -0.716142477804
H    1.022045889924   -1.936787360644   -2.483142477804
H    1.847045889924   -3.126787360644   -1.507142477804
H    2.748389789924   -2.168613360644   -2.740112477804
--
0 1
C   -1.319954110076    0.340212639356    1.529857522196
C   -2.285954110076    0.662212639356    2.653857522196
C   -1.671954110076    1.067212639356    0.246857522196
O   -2.774954110076    1.588212639356    0.081857522196
N   -0.738954110076    1.095212639356   -0.685142477804
H   -0.313954110076    0.621212639356    1.839857522196
H   -1.320954110076   -0.727787360644    1.323857522196
H   -3.311954110076    0.610212639356    2.291857522196
H   -2.095954110076    1.688212639356    2.974857522196
H   -0.924954110076    1.545212639356   -1.566142477804
H    0.090045889924    0.513212639356   -0.529142477804
H   -2.205115110076   -0.005437360644    3.524327522196
$end

$rem
JOBTYPE			EDA
EDA2			1
method			wB97X-V
BASIS			def2-TZVPD
XC_GRID			000099000590
NL_GRID			1
UNRESTRICTED		FALSE
MAX_SCF_CYCLES		200
SYMMETRY		FALSE
SYM_IGNORE		TRUE
MEM_STATIC		2000
BASIS_LIN_DEP_THRESH 	6
THRESH 			14
SCF_CONVERGENCE 	8
SCF_PRINT_FRGM 		TRUE
SOLVENT_METHOD          SMD
$end

$SMX
SOLVENT			WATER
$END
--------------------------------------------------------------
 ----------------------------------------------------------------
             Standard Nuclear Orientation (Angstroms)
    I     Atom           X                Y                Z
 ----------------------------------------------------------------
    1      C       1.9620458899    -2.1497873606    -1.9711424778
    2      C       2.1870458899    -1.0997873606    -0.8931424778
    3      O       1.2200458899    -0.8417873606    -0.1381424778
    4      O       3.3300458899    -0.6317873606    -0.7161424778
    5      H       1.0220458899    -1.9367873606    -2.4831424778
    6      H       1.8470458899    -3.1267873606    -1.5071424778
    7      H       2.7483897899    -2.1686133606    -2.7401124778
    8      C      -1.3199541101     0.3402126394     1.5298575222
    9      C      -2.2859541101     0.6622126394     2.6538575222
   10      C      -1.6719541101     1.0672126394     0.2468575222
   11      O      -2.7749541101     1.5882126394     0.0818575222
   12      N      -0.7389541101     1.0952126394    -0.6851424778
   13      H      -0.3139541101     0.6212126394     1.8398575222
   14      H      -1.3209541101    -0.7277873606     1.3238575222
   15      H      -3.3119541101     0.6102126394     2.2918575222
   16      H      -2.0959541101     1.6882126394     2.9748575222
   17      H      -0.9249541101     1.5452126394    -1.5661424778
   18      H       0.0900458899     0.5132126394    -0.5291424778
   19      H      -2.2051151101    -0.0054373606     3.5243275222
 ----------------------------------------------------------------
 Nuclear Repulsion Energy =         432.03861287 hartrees
 There are       36 alpha and       36 beta electrons
 Requested basis set is def2-TZVPD
 There are 170 shells and 432 basis functions

 Total QAlloc Memory Limit  96000 MB
 Mega-Array Size      1956 MB
 MEM_STATIC part      2000 MB
 
 Citation of the SMD model:
 Marenich, A.V.; Cramer, C.J.; Truhlar, D.G.
 J. Phys. Chem. B 2009, 113, 6378-6396.
 iSolventCode=           1
 Solvent: water                                                           
 
 vradii
            1           2           3           4           5           6
    1   1.8500000   1.8500000   1.5200000   1.5200000   1.2000000   1.2000000
            7           8           9          10          11          12
    1   1.2000000   1.8500000   1.8500000   1.8500000   1.5200000   1.8900000
           13          14          15          16          17          18
    1   1.2000000   1.2000000   1.2000000   1.2000000   1.2000000   1.2000000
           19
    1   1.2000000
 Changing PCM_VDW_RADII to SMD_RADIUS
 Discretize the solute cavity surface with Lebedev spheres
	Using 110 Lebedev grid points for each H atom
	Using 194 Lebedev grid points for other atoms
	Atomic van der Waals radii will be scaled by 1.20
 Remove points where switching function is < 1.0e-08
 Keep 1523 surface tesserae and discard 1323 interior tesserae
 Molecular Surface Area = 180.705 Angst**2
 A cutoff of  1.0D-14 yielded  12802 shell pairs
 There are     82870 function pairs (    104206 Cartesian)
 Smallest overlap matrix eigenvalue = 4.54E-06

 Scale SEOQF with 1.000000e-01/1.000000e-01/1.000000e-01

 Standard Electronic Orientation quadrupole field applied
 Nucleus-field energy     =     0.0000000035 hartrees

 -----------------------------------------------------------------------
  General SCF calculation program by
  Eric Jon Sundstrom, Paul Horn, Yuezhi Mao, Dmitri Zuev, Alec White,
  David Stuck, Shaama M.S., Shane Yost, Joonho Lee, David Small,
  Daniel Levine, Susi Lehtola, Hugh Burton, Evgeny Epifanovsky
 -----------------------------------------------------------------------
================================================================
                 ALMO-EDA with the EDA2 driver                  
================================================================
 The second-generation ALMO-EDA (for DFT):                      
 P. R. Horn, Y. Mao and M. Head-Gordon, PCCP, 18, 23067 (2016)  
 Decomposition of the frozen energy:                            
 P. R. Horn, Y. Mao and M. Head-Gordon, JCP, 144, 114107 (2016) 
 FERF model for polarization:                                   
 P. R. Horn and M. Head-Gordon, JCP, 143, 114111 (2015)         
Using eda2 option set 1
Option set summary: Frozen orbital wavefunction, initial wavefunction decomposition, and nDQ polarization.
--------------------------------
Printing EDA Options
--------------------------------
eda_child_super_basis      0
fragmo_guess_mode          0
child_mp                   1
child_mp_orders            232
cls_elec                   1
cls_disp                   0
scfmi_mode                 1
scfmi_occs                 0
scfmi_virts                0
frz_relax                  0
frz_relax_method           0
dc_pen_start               0
dc_pen_conv                0
dc_pen_increment           0
dc_pen_steps               0
dc_pen_thresh_factor       0
dc_pen_pre_newton_thresh   0
frz_ortho_decomp           1
frz_ortho_decomp_conv      6
frgm_method                2
scfmi_freeze_ss            0
separate_rehyb             0
plot_diff_den              0
eda_nocv                   0
eda_vct_relax              1
disp_free_x                0
disp_free_c                0
eda_bsse                   0
eda_pct_a                  0
eda_covp                   0
--------------------------------
Attempting to make child job directory: /tmp/qchem913//Frg1/
Attempting to make child job directory: /tmp/qchem913//Frg2/
Creating input file /tmp/qchem913/Frg1.input
using default PutDataFrgm: nothing
calling putenv with: QCSCRATCH=/tmp/qchem913/ 
calling putenv with: QCLOCALSCR=/tmp/qchem913/ 
Spawning Job For Fragment 0
                  Welcome to Q-Chem
     A Quantum Leap Into The Future Of Chemistry


 Q-Chem 5.2, Q-Chem, Inc., Pleasanton, CA (2019)

 License issued to: National Energy Research Scientific Computing Center

 Yihan Shao,  Zhengting Gan,  E. Epifanovsky,  A. T. B. Gilbert,  M. Wormit,  
 J. Kussmann,  A. W. Lange,  A. Behn,  Jia Deng,  Xintian Feng,  D. Ghosh,  
 M. Goldey,  P. R. Horn,  L. D. Jacobson,  I. Kaliman,  T. Kus,  A. Landau,  
 Jie Liu,  E. I. Proynov,  R. M. Richard,  R. P. Steele,  E. J. Sundstrom,  
 H. L. Woodcock III,  P. M. Zimmerman,  D. Zuev,  B. Albrecht,  E. Alguire,  
 S. A. Baeppler,  D. Barton,  Z. Benda,  Y. A. Bernard,  E. J. Berquist,  
 K. B. Bravaya,  H. Burton,  D. Casanova,  Chun-Min Chang,  Yunqing Chen,  
 A. Chien,  K. D. Closser,  M. P. Coons,  S. Coriani,  S. Dasgupta,  
 A. L. Dempwolff,  M. Diedenhofen,  Hainam Do,  R. G. Edgar,  Po-Tung Fang,  
 S. Faraji,  S. Fatehi,  Qingguo Feng,  K. D. Fenk,  J. Fosso-Tande,  
 J. Gayvert,  Qinghui Ge,  A. Ghysels,  G. Gidofalvi,  J. Gomes,  
 J. Gonthier,  A. Gunina,  D. Hait,  M. W. D. Hanson-Heine,  
 P. H. P. Harbach,  A. W. Hauser,  M. F. Herbst,  J. E. Herr,  
 E. G. Hohenstein,  Z. C. Holden,  Kerwin Hui,  B. C. Huynh,  T.-C. Jagau,  
 Hyunjun Ji,  B. Kaduk,  K. Khistyaev,  Jaehoon Kim,  P. Klunzinger,  K. Koh,  
 D. Kosenkov,  L. Koulias,  T. Kowalczyk,  C. M. Krauter,  A. Kunitsa,  
 Ka Un Lao,  A. Laurent,  K. V. Lawler,  Joonho Lee,  D. Lefrancois,  
 S. Lehtola,  D. S. Levine,  Yi-Pei Li,  You-Sheng Lin,  Fenglai Liu,  
 E. Livshits,  A. Luenser,  P. Manohar,  E. Mansoor,  S. F. Manzer,  
 Shan-Ping Mao,  Yuezhi Mao,  N. Mardirossian,  A. V. Marenich,  
 T. Markovich,  L. A. Martinez-Martinez,  S. A. Maurer,  N. J. Mayhall,  
 S. C. McKenzie,  J.-M. Mewes,  P. Morgante,  A. F. Morrison,  
 J. W. Mullinax,  K. Nanda,  T. S. Nguyen-Beck,  R. Olivares-Amaya,  
 J. A. Parkhill,  Zheng Pei,  T. M. Perrine,  F. Plasser,  P. Pokhilko,  
 S. Prager,  A. Prociuk,  E. Ramos,  D. R. Rehn,  F. Rob,  M. Scheurer,  
 M. Schneider,  N. Sergueev,  S. M. Sharada,  S. Sharma,  D. W. Small,  
 T. Stauch,  T. Stein,  Yu-Chuan Su,  A. J. W. Thom,  A. Tkatchenko,  
 T. Tsuchimochi,  N. M. Tubman,  L. Vogt,  M. L. Vidal,  O. Vydrov,  
 M. A. Watson,  J. Wenzel,  M. de Wergifosse,  T. A. Wesolowski,  A. White,  
 J. Witte,  A. Yamada,  Jun Yang,  K. Yao,  S. Yeganeh,  S. R. Yost,  
 Zhi-Qiang You,  A. Zech,  Igor Ying Zhang,  Xing Zhang,  Yan Zhao,  
 Ying Zhu,  B. R. Brooks,  G. K. L. Chan,  C. J. Cramer,  M. S. Gordon,  
 W. J. Hehre,  A. Klamt,  M. W. Schmidt,  C. D. Sherrill,  D. G. Truhlar,  
 A. Aspuru-Guzik,  R. Baer,  A. T. Bell,  N. A. Besley,  Jeng-Da Chai,  
 A. E. DePrince, III,  R. A. DiStasio Jr.,  A. Dreuw,  B. D. Dunietz,  
 T. R. Furlani,  Chao-Ping Hsu,  Yousung Jung,  Jing Kong,  D. S. Lambrecht,  
 WanZhen Liang,  C. Ochsenfeld,  V. A. Rassolov,  L. V. Slipchenko,  
 J. E. Subotnik,  T. Van Voorhis,  J. M. Herbert,  A. I. Krylov,  
 P. M. W. Gill,  M. Head-Gordon

 Contributors to earlier versions of Q-Chem not listed above: 
 R. D. Adamson,  B. Austin,  J. Baker,  G. J. O. Beran,  K. Brandhorst,  
 S. T. Brown,  E. F. C. Byrd,  A. K. Chakraborty,  C.-L. Cheng,  
 Siu Hung Chien,  D. M. Chipman,  D. L. Crittenden,  H. Dachsel,  
 R. J. Doerksen,  A. D. Dutoi,  L. Fusti-Molnar,  W. A. Goddard III,  
 A. Golubeva-Zadorozhnaya,  S. R. Gwaltney,  G. Hawkins,  A. Heyden,  
 S. Hirata,  G. Kedziora,  F. J. Keil,  C. Kelley,  Jihan Kim,  R. A. King,  
 R. Z. Khaliullin,  P. P. Korambath,  W. Kurlancheek,  A. M. Lee,  M. S. Lee,  
 S. V. Levchenko,  Ching Yeh Lin,  D. Liotard,  R. C. Lochan,  I. Lotan,  
 P. E. Maslen,  N. Nair,  D. P. O'Neill,  D. Neuhauser,  E. Neuscamman,  
 C. M. Oana,  R. Olson,  B. Peters,  R. Peverati,  P. A. Pieniazek,  
 Y. M. Rhee,  J. Ritchie,  M. A. Rohrdanz,  E. Rosta,  N. J. Russ,  
 H. F. Schaefer III,  N. E. Schultz,  N. Shenvi,  A. C. Simmonett,  A. Sodt,  
 D. Stuck,  K. S. Thanthiriwatte,  V. Vanovschi,  Tao Wang,  A. Warshel,  
 C. F. Williams,  Q. Wu,  X. Xu,  W. Zhang

 Please cite Q-Chem as follows:
 Y. Shao et al., Mol. Phys. 113, 184-215 (2015)
 DOI: 10.1080/00268976.2014.952696

 Q-Chem 5.2.0 for Intel X86 EM64T Linux

 Parts of Q-Chem use Armadillo 8.300.2 (Tropical Shenanigans).
 http://arma.sourceforge.net/

 Q-Chem begins on Sun Sep 26 03:04:10 2021  

Host: cori01
0

     Scratch files written to /tmp/qchem913//Frg1//
 May1019 |scratch|qcdevops|jenkins|workspace|build_RNUM -1
Processing $rem in /global/common/cori/software/qchem/5.2/config/preferences:
	 MEM_TOTAL  96000 
NAlpha2: 32
NElect   32
Mult     1
Symmetry turned off for PCM/SM12/SMD calculation

Checking the input file for inconsistencies... 	...done.

--------------------------------------------------------------
User input:
--------------------------------------------------------------
$molecule
-1 1
 6	1.9620458899	-2.1497873606	-1.9711424778
 6	2.1870458899	-1.0997873606	-0.8931424778
 8	1.2200458899	-0.8417873606	-0.1381424778
 8	3.3300458899	-0.6317873606	-0.7161424778
 1	1.0220458899	-1.9367873606	-2.4831424778
 1	1.8470458899	-3.1267873606	-1.5071424778
 1	2.7483897899	-2.1686133606	-2.7401124778
$end
$rem
EDA2		1
METHOD		WB97X-V
BASIS		DEF2-TZVPD
XC_GRID		000099000590
NL_GRID		1
UNRESTRICTED		FALSE
MAX_SCF_CYCLES		200
SYMMETRY		FALSE
SYM_IGNORE		TRUE
BASIS_LIN_DEP_THRESH		6
THRESH		14
SCF_CONVERGENCE		8
SCF_PRINT_FRGM		TRUE
SOLVENT_METHOD		SMD
!required keywords
JOBTYPE		SP
SYM_IGNORE		TRUE
SUBSYSTEM		TRUE
GEN_SCFMAN		TRUE
CHILD_INSTRUCTION		2
SYM_IGNORE		TRUE
SCFMI		0
RI_K 0		
PARI_K 0		
MIN_PARI_K 0		
IARI_K 0		
OCC_RI_K 0		
PURECART		1111
MEM_STATIC		2000
MEM_TOTAL		96000
GUI		0
CHILD_MP		1
CHILD_MP_ORDERS		232
FRZ_RELAX		0
FRZ_RELAX_METHOD		0
EDA_CLS_ELEC		1
EDA_CLS_DISP		0
FRZ_ORTHO_DECOMP		1
EDA2		FALSE
FRGM_METHOD		FALSE
CIS_N_ROOTS  0
LOCAL_CIS    0
CIS_RLX_DNS  1
$end
$smx
SOLVENT			WATER
$end
--------------------------------------------------------------
 ----------------------------------------------------------------
             Standard Nuclear Orientation (Angstroms)
    I     Atom           X                Y                Z
 ----------------------------------------------------------------
    1      C       1.9620458899    -2.1497873606    -1.9711424778
    2      C       2.1870458899    -1.0997873606    -0.8931424778
    3      O       1.2200458899    -0.8417873606    -0.1381424778
    4      O       3.3300458899    -0.6317873606    -0.7161424778
    5      H       1.0220458899    -1.9367873606    -2.4831424778
    6      H       1.8470458899    -3.1267873606    -1.5071424778
    7      H       2.7483897899    -2.1686133606    -2.7401124778
 ----------------------------------------------------------------
 Nuclear Repulsion Energy =         112.68928111 hartrees
 There are       16 alpha and       16 beta electrons
 Requested basis set is def2-TZVPD
 There are 69 shells and 181 basis functions

 Total QAlloc Memory Limit  96000 MB
 Mega-Array Size      1956 MB
 MEM_STATIC part      2000 MB
 
 Citation of the SMD model:
 Marenich, A.V.; Cramer, C.J.; Truhlar, D.G.
 J. Phys. Chem. B 2009, 113, 6378-6396.
 iSolventCode=           1
 Solvent: water                                                           
 
 vradii
            1           2           3           4           5           6
    1   1.8500000   1.8500000   1.5200000   1.5200000   1.2000000   1.2000000
            7
    1   1.2000000
 Changing PCM_VDW_RADII to SMD_RADIUS
 Discretize the solute cavity surface with Lebedev spheres
	Using 110 Lebedev grid points for each H atom
	Using 194 Lebedev grid points for other atoms
	Atomic van der Waals radii will be scaled by 1.20
 Remove points where switching function is < 1.0e-08
 Keep 648 surface tesserae and discard 458 interior tesserae
 Molecular Surface Area = 80.132 Angst**2

                       Distance Matrix (Angstroms)
             C (  1)   C (  2)   O (  3)   O (  4)   H (  5)   H (  6)
   C (  2)  1.521581
   O (  3)  2.370932  1.253666
   O (  4)  2.398077  1.247719  2.197791
   H (  5)  1.091381  2.141470  2.595622  3.186248
   H (  6)  1.087681  2.145070  2.736515  3.008321  1.746225
   H (  7)  1.100003  2.206534  3.296445  2.607031  1.760693  1.802979

 
 A cutoff of  1.0D-14 yielded   2391 shell pairs
 There are     16695 function pairs (     21491 Cartesian)
 Smallest overlap matrix eigenvalue = 1.69E-05

 Scale SEOQF with 1.000000e-01/1.000000e-01/1.000000e-01

 Standard Electronic Orientation quadrupole field applied
 Nucleus-field energy     =     0.0000000051 hartrees
 Guess from superposition of atomic densities
 Warning:  Energy on first SCF cycle will be non-variational
 SAD guess density has 30.625312 electrons

 -----------------------------------------------------------------------
  General SCF calculation program by
  Eric Jon Sundstrom, Paul Horn, Yuezhi Mao, Dmitri Zuev, Alec White,
  David Stuck, Shaama M.S., Shane Yost, Joonho Lee, David Small,
  Daniel Levine, Susi Lehtola, Hugh Burton, Evgeny Epifanovsky
 -----------------------------------------------------------------------
 Exchange:     0.1670 Hartree-Fock + 1.0000 wB97X-V + LR-HF
 Correlation:  1.0000 wB97X-V
 Using Euler-Maclaurin-Lebedev (99,590) quadrature formula
 Nonlocal Correlation:  VV10 with C = 0.0100 and b = 6.00 and scale = 1.00000
 Grid used for NLC:  SG-1 standard quadrature
Energy prior to optimization (guess energy) = -227.762777573319
Begin Timing: Total SCF Calculation
begin iterations for algorithm: DIIS         
the SCF tolerance is set to 1.00e-08
    1    -227.7627775733      1.66e-02     00000 
    2    -225.6340577340      2.49e-02     00000 
    3    -228.6061653663      4.06e-03     00000 
    4    -228.6588773120      1.36e-03     00000 
    5    -228.6647519256      2.04e-04     00000 
    6    -228.6650101955      6.44e-05     00000 
    7    -228.6650281868      2.63e-05     00000 
    8    -228.6650308278      1.46e-05     00000 
    9    -228.6650316876      3.97e-06     00000 
   10    -228.6650317940      1.20e-06     00000 
   11    -228.6650318047      2.17e-07     00000 
   12    -228.6650318051      4.89e-08     00000 
   13    -228.6650318051      1.21e-08     00000 
   14    -228.6650318051      3.05e-09     00000 Convergence criterion met
Timing for Total SCF: 323.00s (wall), 583.79s (cpu)
(3)  G-ENP(liq) elect-nuc-pol free energy of system     -228.665031805 a.u.
(4)  G-CDS(liq) cavity-dispersion-solvent structure 
     free energy                                                3.8993 kcal/mol
(6)  G-S(liq) free energy of system                     -228.658817872 a.u.
E_pcm = -0.1309035610
E_cds = 0.0062139332
Multipole orders to be included
        2
        3
computing dipole RHS
computing quadrupole RHS
total number of RHS in solve_reponses: 8
RHS batch sizes
        8
Beginning Block Conjugate Gradient Iterations. Batch Number: 0
computing hessian-vector products by finite difference
              1      7.64e-01     00000 Conjugate Gradient Iteration
computing hessian-vector products by finite difference
              2      2.39e-01     00000 Conjugate Gradient Iteration
computing hessian-vector products by finite difference
              3      6.62e-02     00000 Conjugate Gradient Iteration
computing hessian-vector products by finite difference
              4      1.78e-02     00000 Conjugate Gradient Iteration
computing hessian-vector products by finite difference
              5      2.62e-03     00000 Conjugate Gradient Iteration
computing hessian-vector products by finite difference
              6      6.93e-04     00000 Conjugate Gradient Iteration
computing hessian-vector products by finite difference
              7      9.88e-05     00000 Conjugate Gradient Iteration
computing hessian-vector products by finite difference
              8      1.21e-05     00000 Conjugate Gradient Iteration
computing hessian-vector products by finite difference
              9      1.88e-06     00000 Conjugate Gradient Iteration
computing hessian-vector products by finite difference
             10      1.84e-07     00000 Conjugate Gradient Iteration
computing hessian-vector products by finite difference
             11      3.30e-08     00000 Conjugate Gradient Iteration
computing hessian-vector products by finite difference
             12      5.67e-09     00000 CG Converged
batch 0 complete
Done Calculating Responses
TESTING ORTHOGONALIZATION OF MULTIPOLE BASIS
Multipole virts passed orthogonality test
Virts Per Order
        48
        80
 
 --------------------------------------------------------------
 
                    Orbital Energies (a.u.)
 --------------------------------------------------------------
 
 Alpha MOs
 -- Occupied --
-19.1544 -19.1518 -10.3543 -10.2462  -1.1661  -1.0659  -0.8402  -0.6184
 -0.5480  -0.5473  -0.5412  -0.4815  -0.4624  -0.3658  -0.3578  -0.3452
 -- Virtual --
  0.0669   0.0999   0.1007   0.1073   0.1353   0.1419   0.1458   0.1505
  0.1583   0.1903   0.2038   0.2242   0.2337   0.2401   0.2597   0.2647
  0.2979   0.3139   0.3336   0.3458   0.3533   0.3629   0.3709   0.3827
  0.3871   0.4003   0.4159   0.4239   0.4295   0.4554   0.4656   0.4722
  0.4822   0.4917   0.5029   0.5109   0.5496   0.5607   0.5819   0.5959
  0.6140   0.6220   0.6325   0.6454   0.6516   0.6693   0.6847   0.6958
  0.7059   0.7257   0.7724   0.7924   0.8043   0.8117   0.8323   0.8433
  0.8632   0.9564   0.9705   0.9852   0.9915   1.0287   1.0408   1.1003
  1.1387   1.1921   1.2405   1.2618   1.2657   1.2998   1.3373   1.3691
  1.4313   1.5429   1.5787   1.7405   1.8045   1.8474   1.8576   1.8964
  1.9087   1.9352   1.9518   1.9555   2.0125   2.0943   2.1152   2.1593
  2.1836   2.2159   2.2884   2.3208   2.4001   2.4136   2.4577   2.4821
  2.5702   2.5854   2.5983   2.6759   2.7767   2.8089   2.8602   2.9000
  2.9436   2.9990   3.0151   3.1423   3.1983   3.2389   3.2564   3.2981
  3.3261   3.3377   3.3676   3.3959   3.4093   3.5051   3.5467   3.5597
  3.5878   3.6577   3.6909   3.7103   3.7513   3.8665   3.9367   4.0327
  4.0776   4.1816   4.3355   4.5530   4.6235   4.6488   4.7761   4.7913
  4.9694   5.2966   5.3247   5.3315   5.3428   5.4716   5.6799   5.7373
  5.7877   5.9925   6.2144   6.3097   6.3269   6.5925   6.5973   6.6867
  6.7123   6.7273   6.9165   6.9462   7.0141   7.2143   7.3243   7.3528
  7.3834  22.5932  23.7126  44.1899  44.3222
 --------------------------------------------------------------
 
          Ground-State Mulliken Net Atomic Charges

     Atom                 Charge (a.u.)
  ----------------------------------------
      1 C                    -0.598884
      2 C                     0.502426
      3 O                    -0.778260
      4 O                    -0.763343
      5 H                     0.211938
      6 H                     0.200451
      7 H                     0.225672
  ----------------------------------------
  Sum of atomic charges =    -1.000000

 -----------------------------------------------------------------
                    Cartesian Multipole Moments
 -----------------------------------------------------------------
    Charge (ESU x 10^10)
                -4.8032
    Dipole Moment (Debye)
         X     -11.2596      Y       2.0324      Z       0.3252
       Tot      11.4462
    Quadrupole Moments (Debye-Ang)
        XX     -61.5875     XY       4.0989     YY     -24.9834
        XZ       3.8444     YZ       1.0708     ZZ     -24.6772
    Octopole Moments (Debye-Ang^2)
       XXX    -293.0073    XXY      47.2779    XYY     -53.3641
       YYY      89.4780    XXZ      44.7193    XYZ       0.3318
       YYZ      22.6291    XZZ     -56.1908    YZZ      29.3269
       ZZZ      72.5365
    Hexadecapole Moments (Debye-Ang^3)
      XXXX   -1299.6986   XXXY     258.8433   XXYY    -197.9991
      XYYY     182.0052   YYYY    -314.0785   XXXZ     249.9362
      XXYZ     -48.4564   XYYZ      51.9146   YYYZ    -122.9959
      XXZZ    -194.2882   XYZZ      60.4993   YYZZ     -97.5577
      XZZZ     163.1470   YZZZ    -122.4601   ZZZZ    -258.4575
 -----------------------------------------------------------------
Archival summary:
1\1\nid00523\SP\ProcedureUnspecified\BasisUnspecified\223(1-,1)\meili\SunSep2604:25:402021SunSep2604:25:402021\0\\#,ProcedureUnspecified,BasisUnspecified,\\-1,1\C\O,1,1.24772\O,1,1.25367,2,122.955\C,1,1.52158,2,119.657,3,-173.022,0\H,4,1.08768,1,109.466,2,104.733,0\H,4,1.09138,1,108.969,2,-139.137,0\H,4,1.1,1,113.664,2,-20.014,0\\\@

 Total job time:  4890.59s(wall), 9463.77s(cpu) 
 Sun Sep 26 04:25:40 2021

        *************************************************************
        *                                                           *
        *  Thank you very much for using Q-Chem.  Have a nice day.  *
        *                                                           *
        *************************************************************


Done Job For Fragment 0
calling putenv with: QCSCRATCH=/global/cscratch1/sd/meili 
calling putenv with: QCLOCALSCR=/tmp 
calling putenv with: QCTHREADS=32 
Creating input file /tmp/qchem913/Frg2.input
using default PutDataFrgm: nothing
calling putenv with: QCSCRATCH=/tmp/qchem913/ 
calling putenv with: QCLOCALSCR=/tmp/qchem913/ 
Spawning Job For Fragment 1
                  Welcome to Q-Chem
     A Quantum Leap Into The Future Of Chemistry


 Q-Chem 5.2, Q-Chem, Inc., Pleasanton, CA (2019)

 License issued to: National Energy Research Scientific Computing Center

 Yihan Shao,  Zhengting Gan,  E. Epifanovsky,  A. T. B. Gilbert,  M. Wormit,  
 J. Kussmann,  A. W. Lange,  A. Behn,  Jia Deng,  Xintian Feng,  D. Ghosh,  
 M. Goldey,  P. R. Horn,  L. D. Jacobson,  I. Kaliman,  T. Kus,  A. Landau,  
 Jie Liu,  E. I. Proynov,  R. M. Richard,  R. P. Steele,  E. J. Sundstrom,  
 H. L. Woodcock III,  P. M. Zimmerman,  D. Zuev,  B. Albrecht,  E. Alguire,  
 S. A. Baeppler,  D. Barton,  Z. Benda,  Y. A. Bernard,  E. J. Berquist,  
 K. B. Bravaya,  H. Burton,  D. Casanova,  Chun-Min Chang,  Yunqing Chen,  
 A. Chien,  K. D. Closser,  M. P. Coons,  S. Coriani,  S. Dasgupta,  
 A. L. Dempwolff,  M. Diedenhofen,  Hainam Do,  R. G. Edgar,  Po-Tung Fang,  
 S. Faraji,  S. Fatehi,  Qingguo Feng,  K. D. Fenk,  J. Fosso-Tande,  
 J. Gayvert,  Qinghui Ge,  A. Ghysels,  G. Gidofalvi,  J. Gomes,  
 J. Gonthier,  A. Gunina,  D. Hait,  M. W. D. Hanson-Heine,  
 P. H. P. Harbach,  A. W. Hauser,  M. F. Herbst,  J. E. Herr,  
 E. G. Hohenstein,  Z. C. Holden,  Kerwin Hui,  B. C. Huynh,  T.-C. Jagau,  
 Hyunjun Ji,  B. Kaduk,  K. Khistyaev,  Jaehoon Kim,  P. Klunzinger,  K. Koh,  
 D. Kosenkov,  L. Koulias,  T. Kowalczyk,  C. M. Krauter,  A. Kunitsa,  
 Ka Un Lao,  A. Laurent,  K. V. Lawler,  Joonho Lee,  D. Lefrancois,  
 S. Lehtola,  D. S. Levine,  Yi-Pei Li,  You-Sheng Lin,  Fenglai Liu,  
 E. Livshits,  A. Luenser,  P. Manohar,  E. Mansoor,  S. F. Manzer,  
 Shan-Ping Mao,  Yuezhi Mao,  N. Mardirossian,  A. V. Marenich,  
 T. Markovich,  L. A. Martinez-Martinez,  S. A. Maurer,  N. J. Mayhall,  
 S. C. McKenzie,  J.-M. Mewes,  P. Morgante,  A. F. Morrison,  
 J. W. Mullinax,  K. Nanda,  T. S. Nguyen-Beck,  R. Olivares-Amaya,  
 J. A. Parkhill,  Zheng Pei,  T. M. Perrine,  F. Plasser,  P. Pokhilko,  
 S. Prager,  A. Prociuk,  E. Ramos,  D. R. Rehn,  F. Rob,  M. Scheurer,  
 M. Schneider,  N. Sergueev,  S. M. Sharada,  S. Sharma,  D. W. Small,  
 T. Stauch,  T. Stein,  Yu-Chuan Su,  A. J. W. Thom,  A. Tkatchenko,  
 T. Tsuchimochi,  N. M. Tubman,  L. Vogt,  M. L. Vidal,  O. Vydrov,  
 M. A. Watson,  J. Wenzel,  M. de Wergifosse,  T. A. Wesolowski,  A. White,  
 J. Witte,  A. Yamada,  Jun Yang,  K. Yao,  S. Yeganeh,  S. R. Yost,  
 Zhi-Qiang You,  A. Zech,  Igor Ying Zhang,  Xing Zhang,  Yan Zhao,  
 Ying Zhu,  B. R. Brooks,  G. K. L. Chan,  C. J. Cramer,  M. S. Gordon,  
 W. J. Hehre,  A. Klamt,  M. W. Schmidt,  C. D. Sherrill,  D. G. Truhlar,  
 A. Aspuru-Guzik,  R. Baer,  A. T. Bell,  N. A. Besley,  Jeng-Da Chai,  
 A. E. DePrince, III,  R. A. DiStasio Jr.,  A. Dreuw,  B. D. Dunietz,  
 T. R. Furlani,  Chao-Ping Hsu,  Yousung Jung,  Jing Kong,  D. S. Lambrecht,  
 WanZhen Liang,  C. Ochsenfeld,  V. A. Rassolov,  L. V. Slipchenko,  
 J. E. Subotnik,  T. Van Voorhis,  J. M. Herbert,  A. I. Krylov,  
 P. M. W. Gill,  M. Head-Gordon

 Contributors to earlier versions of Q-Chem not listed above: 
 R. D. Adamson,  B. Austin,  J. Baker,  G. J. O. Beran,  K. Brandhorst,  
 S. T. Brown,  E. F. C. Byrd,  A. K. Chakraborty,  C.-L. Cheng,  
 Siu Hung Chien,  D. M. Chipman,  D. L. Crittenden,  H. Dachsel,  
 R. J. Doerksen,  A. D. Dutoi,  L. Fusti-Molnar,  W. A. Goddard III,  
 A. Golubeva-Zadorozhnaya,  S. R. Gwaltney,  G. Hawkins,  A. Heyden,  
 S. Hirata,  G. Kedziora,  F. J. Keil,  C. Kelley,  Jihan Kim,  R. A. King,  
 R. Z. Khaliullin,  P. P. Korambath,  W. Kurlancheek,  A. M. Lee,  M. S. Lee,  
 S. V. Levchenko,  Ching Yeh Lin,  D. Liotard,  R. C. Lochan,  I. Lotan,  
 P. E. Maslen,  N. Nair,  D. P. O'Neill,  D. Neuhauser,  E. Neuscamman,  
 C. M. Oana,  R. Olson,  B. Peters,  R. Peverati,  P. A. Pieniazek,  
 Y. M. Rhee,  J. Ritchie,  M. A. Rohrdanz,  E. Rosta,  N. J. Russ,  
 H. F. Schaefer III,  N. E. Schultz,  N. Shenvi,  A. C. Simmonett,  A. Sodt,  
 D. Stuck,  K. S. Thanthiriwatte,  V. Vanovschi,  Tao Wang,  A. Warshel,  
 C. F. Williams,  Q. Wu,  X. Xu,  W. Zhang

 Please cite Q-Chem as follows:
 Y. Shao et al., Mol. Phys. 113, 184-215 (2015)
 DOI: 10.1080/00268976.2014.952696

 Q-Chem 5.2.0 for Intel X86 EM64T Linux

 Parts of Q-Chem use Armadillo 8.300.2 (Tropical Shenanigans).
 http://arma.sourceforge.net/

 Q-Chem begins on Sun Sep 26 04:25:42 2021  

Host: cori01
0

     Scratch files written to /tmp/qchem913//Frg2//
 May1019 |scratch|qcdevops|jenkins|workspace|build_RNUM -1
Processing $rem in /global/common/cori/software/qchem/5.2/config/preferences:
	 MEM_TOTAL  96000 
NAlpha2: 40
NElect   40
Mult     1
Symmetry turned off for PCM/SM12/SMD calculation

Checking the input file for inconsistencies... 	...done.

--------------------------------------------------------------
User input:
--------------------------------------------------------------
$molecule
0 1
 6	-1.3199541101	0.3402126394	1.5298575222
 6	-2.2859541101	0.6622126394	2.6538575222
 6	-1.6719541101	1.0672126394	0.2468575222
 8	-2.7749541101	1.5882126394	0.0818575222
 7	-0.7389541101	1.0952126394	-0.6851424778
 1	-0.3139541101	0.6212126394	1.8398575222
 1	-1.3209541101	-0.7277873606	1.3238575222
 1	-3.3119541101	0.6102126394	2.2918575222
 1	-2.0959541101	1.6882126394	2.9748575222
 1	-0.9249541101	1.5452126394	-1.5661424778
 1	0.0900458899	0.5132126394	-0.5291424778
 1	-2.2051151101	-0.0054373606	3.5243275222
$end
$rem
EDA2		1
METHOD		WB97X-V
BASIS		DEF2-TZVPD
XC_GRID		000099000590
NL_GRID		1
UNRESTRICTED		FALSE
MAX_SCF_CYCLES		200
SYMMETRY		FALSE
SYM_IGNORE		TRUE
BASIS_LIN_DEP_THRESH		6
THRESH		14
SCF_CONVERGENCE		8
SCF_PRINT_FRGM		TRUE
SOLVENT_METHOD		SMD
!required keywords
JOBTYPE		SP
SYM_IGNORE		TRUE
SUBSYSTEM		TRUE
GEN_SCFMAN		TRUE
CHILD_INSTRUCTION		2
SYM_IGNORE		TRUE
SCFMI		0
RI_K 0		
PARI_K 0		
MIN_PARI_K 0		
IARI_K 0		
OCC_RI_K 0		
PURECART		1111
MEM_STATIC		2000
MEM_TOTAL		96000
GUI		0
CHILD_MP		1
CHILD_MP_ORDERS		232
FRZ_RELAX		0
FRZ_RELAX_METHOD		0
EDA_CLS_ELEC		1
EDA_CLS_DISP		0
FRZ_ORTHO_DECOMP		1
EDA2		FALSE
FRGM_METHOD		FALSE
CIS_N_ROOTS  0
LOCAL_CIS    0
CIS_RLX_DNS  1
$end
$smx
SOLVENT			WATER
$end
--------------------------------------------------------------
 ----------------------------------------------------------------
             Standard Nuclear Orientation (Angstroms)
    I     Atom           X                Y                Z
 ----------------------------------------------------------------
    1      C      -1.3199541101     0.3402126394     1.5298575222
    2      C      -2.2859541101     0.6622126394     2.6538575222
    3      C      -1.6719541101     1.0672126394     0.2468575222
    4      O      -2.7749541101     1.5882126394     0.0818575222
    5      N      -0.7389541101     1.0952126394    -0.6851424778
    6      H      -0.3139541101     0.6212126394     1.8398575222
    7      H      -1.3209541101    -0.7277873606     1.3238575222
    8      H      -3.3119541101     0.6102126394     2.2918575222
    9      H      -2.0959541101     1.6882126394     2.9748575222
   10      H      -0.9249541101     1.5452126394    -1.5661424778
   11      H       0.0900458899     0.5132126394    -0.5291424778
   12      H      -2.2051151101    -0.0054373606     3.5243275222
 ----------------------------------------------------------------
 Nuclear Repulsion Energy =         180.25205643 hartrees
 There are       20 alpha and       20 beta electrons
 Requested basis set is def2-TZVPD
 There are 101 shells and 251 basis functions

 Total QAlloc Memory Limit  96000 MB
 Mega-Array Size      1956 MB
 MEM_STATIC part      2000 MB
 
 Citation of the SMD model:
 Marenich, A.V.; Cramer, C.J.; Truhlar, D.G.
 J. Phys. Chem. B 2009, 113, 6378-6396.
 iSolventCode=           1
 Solvent: water                                                           
 
 vradii
            1           2           3           4           5           6
    1   1.8500000   1.8500000   1.8500000   1.5200000   1.8900000   1.2000000
            7           8           9          10          11          12
    1   1.2000000   1.2000000   1.2000000   1.2000000   1.2000000   1.2000000
 Changing PCM_VDW_RADII to SMD_RADIUS
 Discretize the solute cavity surface with Lebedev spheres
	Using 110 Lebedev grid points for each H atom
	Using 194 Lebedev grid points for other atoms
	Atomic van der Waals radii will be scaled by 1.20
 Remove points where switching function is < 1.0e-08
 Keep 913 surface tesserae and discard 827 interior tesserae
 Molecular Surface Area = 109.198 Angst**2

                       Distance Matrix (Angstroms)
             C (  1)   C (  2)   C (  3)   O (  4)   N (  5)   H (  6)
   C (  2)  1.516646
   C (  3)  1.516088  2.516877
   O (  4)  2.402339  2.777009  1.230965
   N (  5)  2.411185  3.705350  1.319052  2.230837
   H (  6)  1.089540  2.133790  2.140264  3.175244  2.604021
   H (  7)  1.087686  2.152260  2.122535  3.003421  2.774551  1.760712
   H (  8)  2.149793  1.089231  2.660916  2.475672  3.964604  3.031902
   H (  9)  2.123041  1.091704  2.829735  2.973296  3.948253  2.366905
   H ( 10)  3.345634  4.521107  2.018282  2.477953  1.006607  3.581610
   H ( 11)  2.501502  3.974804  2.003431  3.120444  1.024842  2.405627
   H ( 12)  2.209275  1.100004  3.489505  3.836018  4.591372  2.608950
             H (  7)   H (  8)   H (  9)   H ( 10)   H ( 11)
   H (  8)  2.586764
   H (  9)  3.027124  1.762733
   H ( 10)  3.698033  4.632079  4.691734
   H ( 11)  2.639055  4.420526  4.293860  1.780623
   H ( 12)  2.479032  1.767229  1.783896  5.473227  4.686937
 
 A cutoff of  1.0D-14 yielded   5037 shell pairs
 There are     31639 function pairs (     39781 Cartesian)
 Smallest overlap matrix eigenvalue = 5.37E-06

 Scale SEOQF with 1.000000e-01/1.000000e-01/1.000000e-01

 Standard Electronic Orientation quadrupole field applied
 Nucleus-field energy     =    -0.0000000016 hartrees
 Guess from superposition of atomic densities
 Warning:  Energy on first SCF cycle will be non-variational
 SAD guess density has 39.592240 electrons

 -----------------------------------------------------------------------
  General SCF calculation program by
  Eric Jon Sundstrom, Paul Horn, Yuezhi Mao, Dmitri Zuev, Alec White,
  David Stuck, Shaama M.S., Shane Yost, Joonho Lee, David Small,
  Daniel Levine, Susi Lehtola, Hugh Burton, Evgeny Epifanovsky
 -----------------------------------------------------------------------
 Exchange:     0.1670 Hartree-Fock + 1.0000 wB97X-V + LR-HF
 Correlation:  1.0000 wB97X-V
 Using Euler-Maclaurin-Lebedev (99,590) quadrature formula
 Nonlocal Correlation:  VV10 with C = 0.0100 and b = 6.00 and scale = 1.00000
 Grid used for NLC:  SG-1 standard quadrature
Energy prior to optimization (guess energy) = -248.011517362665
Begin Timing: Total SCF Calculation
begin iterations for algorithm: DIIS         
the SCF tolerance is set to 1.00e-08
    1    -248.0115173627      9.85e-03     00000 
    2    -247.6060978175      1.21e-02     00000 
    3    -248.5487367802      1.93e-03     00000 
    4    -248.5694217858      6.25e-04     00000 
    5    -248.5727643270      1.61e-04     00000 
    6    -248.5730554968      5.71e-05     00000 
    7    -248.5731013538      1.73e-05     00000 
    8    -248.5731069557      4.77e-06     00000 
    9    -248.5731077425      1.70e-06     00000 
   10    -248.5731078041      4.59e-07     00000 
   11    -248.5731078072      1.36e-07     00000 
   12    -248.5731078076      1.94e-08     00000 
   13    -248.5731078076      4.65e-09     00000 Convergence criterion met
Timing for Total SCF: 758.00s (wall), 1503.99s (cpu)
(3)  G-ENP(liq) elect-nuc-pol free energy of system     -248.573107808 a.u.
(4)  G-CDS(liq) cavity-dispersion-solvent structure 
     free energy                                                3.6110 kcal/mol
(6)  G-S(liq) free energy of system                     -248.567353262 a.u.
E_pcm = -0.0290264011
E_cds = 0.0057545459
Multipole orders to be included
        2
        3
computing dipole RHS
computing quadrupole RHS
total number of RHS in solve_reponses: 8
RHS batch sizes
        8
Beginning Block Conjugate Gradient Iterations. Batch Number: 0
computing hessian-vector products by finite difference
              1      6.50e-01     00000 Conjugate Gradient Iteration
computing hessian-vector products by finite difference
              2      2.10e-01     00000 Conjugate Gradient Iteration
computing hessian-vector products by finite difference
              3      5.46e-02     00000 Conjugate Gradient Iteration
computing hessian-vector products by finite difference
              4      1.42e-02     00000 Conjugate Gradient Iteration
computing hessian-vector products by finite difference
              5      2.05e-03     00000 Conjugate Gradient Iteration
computing hessian-vector products by finite difference
              6      4.28e-04     00000 Conjugate Gradient Iteration
computing hessian-vector products by finite difference
              7      6.60e-05     00000 Conjugate Gradient Iteration
computing hessian-vector products by finite difference
              8      8.66e-06     00000 Conjugate Gradient Iteration
computing hessian-vector products by finite difference
              9      1.18e-06     00000 Conjugate Gradient Iteration
computing hessian-vector products by finite difference
             10      1.26e-07     00000 Conjugate Gradient Iteration
computing hessian-vector products by finite difference
             11      1.67e-08     00000 Conjugate Gradient Iteration
computing hessian-vector products by finite difference
             12      3.74e-09     00000 CG Converged
batch 0 complete
Done Calculating Responses
TESTING ORTHOGONALIZATION OF MULTIPOLE BASIS
Multipole virts passed orthogonality test
Virts Per Order
           60
          100
 
 --------------------------------------------------------------
 
                    Orbital Energies (a.u.)
 --------------------------------------------------------------
 
 Alpha MOs
 -- Occupied --
-19.1824 -14.4259 -10.3729 -10.2661 -10.2492  -1.1756  -1.0416  -0.9048
 -0.7757  -0.6897  -0.6466  -0.6013  -0.5819  -0.5363  -0.5099  -0.4762
 -0.4560  -0.4428  -0.3823  -0.3740
 -- Virtual --
  0.0641   0.0878   0.0923   0.0977   0.1214   0.1275   0.1325   0.1384
  0.1576   0.1755   0.1896   0.1975   0.2043   0.2174   0.2201   0.2345
  0.2396   0.2459   0.2634   0.2749   0.2803   0.2954   0.2985   0.3106
  0.3207   0.3301   0.3339   0.3471   0.3505   0.3557   0.3656   0.3688
  0.3786   0.3880   0.3917   0.4030   0.4053   0.4104   0.4234   0.4314
  0.4391   0.4401   0.4568   0.4634   0.4764   0.4824   0.4890   0.5014
  0.5099   0.5187   0.5240   0.5341   0.5399   0.5490   0.5549   0.5652
  0.5894   0.6007   0.6107   0.6354   0.6403   0.6463   0.6653   0.6713
  0.6787   0.7095   0.7148   0.7303   0.7377   0.7632   0.7647   0.7702
  0.7822   0.7920   0.7939   0.8125   0.8180   0.8319   0.8468   0.8535
  0.8745   0.8836   0.8883   0.9082   0.9421   0.9570   0.9844   1.0090
  1.0263   1.0403   1.0575   1.0814   1.1212   1.1256   1.1373   1.1765
  1.2032   1.2732   1.2974   1.3093   1.3511   1.3567   1.3848   1.3913
  1.4522   1.4766   1.5056   1.5497   1.5693   1.6376   1.7040   1.7769
  1.8062   1.8359   1.8677   1.9011   1.9102   1.9214   1.9443   1.9645
  1.9809   1.9971   2.0027   2.0208   2.0253   2.0549   2.0957   2.1433
  2.1666   2.2068   2.2444   2.2596   2.3144   2.3265   2.3458   2.3784
  2.4115   2.4645   2.4811   2.5202   2.5348   2.5690   2.5974   2.6272
  2.6668   2.6889   2.7339   2.7515   2.7850   2.8047   2.8217   2.8557
  2.8866   2.9195   2.9439   2.9707   3.0102   3.0386   3.1009   3.1155
  3.1733   3.2152   3.2462   3.2798   3.2976   3.3047   3.3333   3.3356
  3.3580   3.4009   3.4067   3.4585   3.4730   3.4910   3.5121   3.5597
  3.5986   3.6101   3.6299   3.6618   3.7190   3.7324   3.7607   3.7754
  3.9161   3.9784   3.9966   4.0644   4.0823   4.1042   4.1613   4.2368
  4.3248   4.3732   4.4759   4.5565   4.5933   4.6268   4.6663   4.7415
  4.7728   4.8765   4.9019   4.9144   4.9894   5.0691   5.1919   5.2028
  5.2562   5.3563   5.3969   5.4130   5.4562   5.5210   5.5889   5.7738
  5.9370   6.1354   6.2665   6.5266   6.6513   6.7587   6.8510   6.9864
  7.2536   7.3302  22.6493  22.8005  23.6447  32.4471  44.3321
 --------------------------------------------------------------
 
          Ground-State Mulliken Net Atomic Charges

     Atom                 Charge (a.u.)
  ----------------------------------------
      1 C                     0.020909
      2 C                    -1.010324
      3 C                     0.234945
      4 O                    -0.701967
      5 N                    -0.302416
      6 H                     0.249130
      7 H                     0.246177
      8 H                     0.236711
      9 H                     0.245940
     10 H                     0.270045
     11 H                     0.253043
     12 H                     0.257806
  ----------------------------------------
  Sum of atomic charges =     0.000000

 -----------------------------------------------------------------
                    Cartesian Multipole Moments
 -----------------------------------------------------------------
    Charge (ESU x 10^10)
                -0.0000
    Dipole Moment (Debye)
         X       5.3628      Y      -2.4253      Z      -0.3885
       Tot       5.8986
    Quadrupole Moments (Debye-Ang)
        XX     -50.4489     XY      10.6094     YY     -36.3196
        XZ      -0.1449     YZ      -2.1889     ZZ     -26.9233
    Octopole Moments (Debye-Ang^2)
       XXX     228.0925    XXY     -64.5300    XYY      73.2512
       YYY     -96.7268    XXZ     -28.0850    XYZ       3.1406
       YYZ     -30.1118    XZZ      52.0805    YZZ     -23.9497
       ZZZ     -84.1900
    Hexadecapole Moments (Debye-Ang^3)
      XXXX    -927.8283   XXXY     275.6082   XXYY    -225.1052
      XYYY     197.5834   YYYY    -260.5930   XXXZ     185.0745
      XXYZ     -19.1726   XYYZ      63.9117   YYYZ     -44.0918
      XXZZ    -206.7849   XYZZ      54.3515   YYZZ    -111.9862
      XZZZ     182.8583   YZZZ     -53.6503   ZZZZ    -477.0554
 -----------------------------------------------------------------
Archival summary:
1\1\nid00523\SP\ProcedureUnspecified\BasisUnspecified\1137\meili\SunSep2608:00:452021SunSep2608:00:452021\0\\#,ProcedureUnspecified,BasisUnspecified,\\0,1\C\O,1,1.23097\N,1,1.31905,2,122.012\H,3,1.00661,1,119.814,2,-0.621372,0\H,3,1.02484,1,116.908,2,-170.46,0\C,1,1.51609,2,121.63,3,-179.139,0\H,6,1.08769,1,108.081,2,106.259,0\H,6,1.08954,1,109.359,2,-136.477,0\C,6,1.51665,1,112.178,2,-15.6579,0\H,9,1.08923,6,110.091,1,45.7609,0\H,9,1.0917,6,107.854,1,-71.6727,0\H,9,1.1,6,114.255,1,167.023,0\\\@

 Total job time:  12903.69s(wall), 25546.63s(cpu) 
 Sun Sep 26 08:00:46 2021

        *************************************************************
        *                                                           *
        *  Thank you very much for using Q-Chem.  Have a nice day.  *
        *                                                           *
        *************************************************************


Done Job For Fragment 1
calling putenv with: QCSCRATCH=/global/cscratch1/sd/meili 
calling putenv with: QCLOCALSCR=/tmp 
calling putenv with: QCTHREADS=32 
Doing General SCFMI
 Exchange:     0.1670 Hartree-Fock + 1.0000 wB97X-V + LR-HF
 Correlation:  1.0000 wB97X-V
 Using Euler-Maclaurin-Lebedev (99,590) quadrature formula
 Nonlocal Correlation:  VV10 with C = 0.0100 and b = 6.00 and scale = 1.00000
 Grid used for NLC:  SG-1 standard quadrature
performing fock build before subrot guess so that all methods have access
Printing subrot_rss_gen Method Specification:
Occupied Subspace Method is 0
Virtual Subspace Method is 0
Energy of the unrelaxed supersystem initial determinant -477.109548165205
performing fock build before subrot guess so that all methods have access
Printing subrot_rss_gen Method Specification:
Occupied Subspace Method is 0
Virtual Subspace Method is 0
Energy of the unrelaxed supersystem initial determinant w/ solvent -477.234939103569
write pseudocanon occs and virts to disk
write pseudocanon orbital energies to disk
Tolerance of ortho_decomp_scf: 1.00e-06
GDM subspace size: 20
Beginning the Orthogonal Decomposition of the Initial Supersystem Wavefunction
    1    -477.0134371770      8.98e-02     ortho_decomp Preconditoned Steepest Descent
    2    -477.0250628665      2.24e-03     ortho_decomp BFGS Step
    3    -477.0251067470      2.13e-04     ortho_decomp BFGS Step
    4    -477.0251068629      9.61e-06     ortho_decomp BFGS Step
    5    -477.0251068634      3.45e-07     ortho_decomp 00000 Convergence criterion met
 Hartree-Fock
 Hartree-Fock
 Hartree-Fock
Doing General SCFMI
 Exchange:     0.1670 Hartree-Fock + 1.0000 wB97X-V + LR-HF
 Correlation:  1.0000 wB97X-V
 Using Euler-Maclaurin-Lebedev (99,590) quadrature formula
 Nonlocal Correlation:  VV10 with C = 0.0100 and b = 6.00 and scale = 1.00000
 Grid used for NLC:  SG-1 standard quadrature
performing fock build at end of subrot_r(subrot) constructor so that all methods have access
<S^2> of initial wavefunction before polarization iterations 0.0000000000
Beginning iterations for the determination of the polarized wavefunction
Energy prior to optimization (guess energy) = -477.234939103569
Begin Timing: Total SCF Calculation
begin iterations for algorithm: DIIS         
the SCF tolerance is set to 1.00e-08
    1    -477.2349391036      1.77e-04     00000 
    2    -477.2364298375      8.63e-05     00000 
    3    -477.2366174241      5.65e-05     00000 
    4    -477.2367040715      1.65e-05     00000 
    5    -477.2367158222      7.48e-06     00000 
    6    -477.2367195121      3.44e-06     00000 
    7    -477.2367202113      1.50e-06     00000 
    8    -477.2367203265      5.52e-07     00000 
    9    -477.2367203407      2.66e-07     00000 
   10    -477.2367203431      9.05e-08     00000 
   11    -477.2367203434      5.30e-08     00000 
   12    -477.2367203435      1.85e-08     00000 
   13    -477.2367203435      7.17e-09     00000 Convergence criterion met
write pseudocanon occs and virts to disk
write pseudocanon orbital energies to disk
Timing for Total SCF: 2839.00s (wall), 5644.66s (cpu)
<S^2> of polarized wavefunction after polarization iterations 0.0000000000
relaxing scfmi constraint to allow all rotations in the entire AO span
Doing General SCFMI
 Exchange:     0.1670 Hartree-Fock + 1.0000 wB97X-V + LR-HF
 Correlation:  1.0000 wB97X-V
 Using Euler-Maclaurin-Lebedev (99,590) quadrature formula
 Nonlocal Correlation:  VV10 with C = 0.0100 and b = 6.00 and scale = 1.00000
 Grid used for NLC:  SG-1 standard quadrature
performing fock build at end of subrot_r(subrot) constructor so that all methods have access
<S^2> of polarized wavefunction before ct-allowed iterations 0.0000000000
Beginning iterations for the determination of the CT-Allowed wavefunction
Energy prior to optimization (guess energy) = -477.236720343491
Begin Timing: Total SCF Calculation
begin iterations for algorithm: DIIS         
the SCF tolerance is set to 1.00e-08
    1    -477.2367203435      2.13e-04     00000 
    2    -477.2417994414      3.44e-05     00000 
    3    -477.2420101484      1.63e-05     00000 
    4    -477.2420267055      7.77e-06     00000 
    5    -477.2420318810      1.80e-06     00000 
    6    -477.2420321708      6.43e-07     00000 
    7    -477.2420322361      2.70e-07     00000 
    8    -477.2420322458      7.11e-08     00000 
    9    -477.2420322471      3.12e-08     00000 
   10    -477.2420322473      1.26e-08     00000 
   11    -477.2420322473      3.57e-09     00000 Convergence criterion met
write pseudocanon occs and virts to disk
write pseudocanon orbital energies to disk
Timing for Total SCF: 2507.00s (wall), 4984.39s (cpu)
<S^2> of ct_allowed wavefunction after ct-allowed iterations 0.0000000000

================================
        Results of EDA2         
================================
Basic EDA Quantities
--------------------
Fragment Energies (Ha):
1 -228.6588178719
2 -248.5673532617
--------------------
  E_prp (kJ/mol) = 0.0000
  E_sol (kJ/mol) = 86.5895
  E_frz (kJ/mol) = -82.2802
  E_pol (kJ/mol) = -4.6767
  E_vct (kJ/mol) = -13.9466
  E_int (kJ/mol) = -14.3140
--------------------


Initial Wavefunction Decomposition
--------------------
  --------------------
  Orthogonal Fragment Subspace Decomposition:
  --------------------
     E_elec   (ELEC)   (kJ/mol) = -179.1722
     E_pauli  (PAULI)  (kJ/mol) = 114.7284
     E_disp   (DISP)   (kJ/mol) = -17.8365
     --------------------
     Terms summing to E_pauli:
     --------------------
        E_kep_pauli       (kJ/mol) = 139.4230
        E_disp_free_pauli (kJ/mol) = -24.6946
  --------------------
  Classical Frozen Decomposition:
  --------------------
     E_cls_elec  (CLS ELEC)  (kJ/mol) = -133.5783
     E_cls_pauli (CLS PAULI) (kJ/mol) = 51.2980
    [E_mod_pauli (MOD PAULI) (kJ/mol) = 69.1345 (CLS PAULI - DISP from orthogonal decomposition) ]
  --------------------
--------------------

Simplified EDA Summary (kJ/mol)
--------------------
 PREPARATION     0.0000
 SOLVATION       86.5895
 FROZEN          -64.4437      (does not include dispersion)
[PAULI           114.7284]     (if this is negligible, then frozen describes electrostatics)
 DISPERSION      -17.8365
 POLARIZATION    -4.6767
 CHARGE TRANSFER -13.9466
 TOTAL           -14.3140     (PRP + SOL + FRZ + DISP + POL + CT)
--------------------
 
 --------------------------------------------------------------
 
                    Orbital Energies (a.u.)
 --------------------------------------------------------------
 
 Alpha MOs
 -- Occupied --
-19.1764 -19.1577 -19.1568 -14.4094 -10.3658 -10.3585 -10.2617 -10.2478
-10.2468  -1.1714  -1.1691  -1.0719  -1.0306  -0.9009  -0.8422  -0.7710
 -0.6840  -0.6452  -0.6175  -0.5960  -0.5777  -0.5527  -0.5508  -0.5458
 -0.5266  -0.5049  -0.4833  -0.4729  -0.4640  -0.4511  -0.4397  -0.3774
 -0.3722  -0.3644  -0.3607  -0.3485
 -- Virtual --
  0.0606   0.0743   0.0878   0.0908   0.1011   0.1068   0.1090   0.1237
  0.1289   0.1338   0.1361   0.1378   0.1435   0.1498   0.1694   0.1707
  0.1762   0.1819   0.1954   0.2003   0.2078   0.2162   0.2243   0.2279
  0.2297   0.2365   0.2442   0.2523   0.2608   0.2638   0.2655   0.2788
  0.2806   0.2811   0.2930   0.2941   0.3029   0.3137   0.3190   0.3256
  0.3334   0.3347   0.3394   0.3423   0.3524   0.3558   0.3600   0.3632
  0.3687   0.3763   0.3796   0.3823   0.3851   0.3921   0.3975   0.4003
  0.4037   0.4132   0.4178   0.4208   0.4250   0.4275   0.4355   0.4373
  0.4417   0.4494   0.4559   0.4595   0.4638   0.4711   0.4794   0.4876
  0.4925   0.4932   0.5026   0.5047   0.5107   0.5155   0.5187   0.5310
  0.5337   0.5437   0.5503   0.5559   0.5569   0.5614   0.5714   0.5776
  0.5809   0.5895   0.5948   0.6065   0.6117   0.6163   0.6282   0.6344
  0.6416   0.6493   0.6535   0.6607   0.6635   0.6746   0.6793   0.6919
  0.6953   0.7043   0.7086   0.7138   0.7218   0.7255   0.7358   0.7449
  0.7508   0.7638   0.7656   0.7715   0.7800   0.7861   0.7915   0.7992
  0.8056   0.8144   0.8176   0.8227   0.8278   0.8366   0.8382   0.8446
  0.8519   0.8591   0.8613   0.8728   0.8907   0.8969   0.9170   0.9230
  0.9287   0.9388   0.9580   0.9703   0.9924   0.9949   1.0033   1.0221
  1.0308   1.0483   1.0593   1.0631   1.0680   1.1019   1.1039   1.1254
  1.1360   1.1431   1.1552   1.1631   1.1700   1.1876   1.1931   1.2043
  1.2253   1.2467   1.2709   1.2985   1.3011   1.3131   1.3294   1.3445
  1.3549   1.3616   1.3718   1.3886   1.4078   1.4230   1.4318   1.4681
  1.4825   1.4876   1.5294   1.5332   1.5825   1.6016   1.6213   1.6491
  1.6812   1.7547   1.7849   1.8051   1.8287   1.8642   1.8739   1.8906
  1.8970   1.9115   1.9271   1.9394   1.9438   1.9450   1.9632   1.9714
  1.9779   1.9834   1.9952   2.0049   2.0148   2.0221   2.0419   2.0492
  2.0594   2.0730   2.1110   2.1185   2.1312   2.1784   2.1849   2.1996
  2.2162   2.2225   2.2535   2.2560   2.2758   2.2878   2.3133   2.3426
  2.3548   2.4001   2.4093   2.4273   2.4569   2.4668   2.4738   2.5020
  2.5161   2.5340   2.5681   2.5799   2.5888   2.5991   2.6095   2.6317
  2.6381   2.6599   2.6864   2.6964   2.7227   2.7354   2.7563   2.7717
  2.8119   2.8250   2.8377   2.8491   2.8594   2.8821   2.9013   2.9215
  2.9305   2.9437   2.9695   2.9733   2.9868   3.0327   3.0533   3.0878
  3.1152   3.1287   3.1588   3.1715   3.2038   3.2297   3.2439   3.2627
  3.2764   3.2972   3.3096   3.3244   3.3329   3.3410   3.3493   3.3537
  3.3576   3.3794   3.3871   3.4038   3.4150   3.4298   3.4407   3.4586
  3.4865   3.4986   3.5166   3.5314   3.5499   3.5758   3.5820   3.6188
  3.6259   3.6472   3.6634   3.6777   3.6797   3.7064   3.7229   3.7380
  3.7424   3.7601   3.7747   3.7854   3.8159   3.8975   3.9325   3.9435
  3.9986   4.0290   4.0527   4.0828   4.0886   4.1111   4.1215   4.1809
  4.1924   4.2694   4.3490   4.3617   4.4015   4.5001   4.5597   4.5952
  4.6070   4.6389   4.6505   4.6690   4.6789   4.7656   4.7854   4.8026
  4.8900   4.8976   4.9393   4.9545   4.9898   5.0214   5.0908   5.2079
  5.2355   5.2723   5.3059   5.3276   5.3441   5.3525   5.3956   5.4249
  5.4575   5.4748   5.5087   5.5729   5.6184   5.6936   5.7448   5.7831
  5.8020   5.9607   6.0103   6.1709   6.2483   6.2762   6.3404   6.3861
  6.5390   6.6317   6.6561   6.6625   6.7258   6.7355   6.7721   6.7851
  6.8611   6.9324   6.9956   7.0050   7.0815   7.2406   7.2734   7.3370
  7.3466   7.3689   7.4387  22.6122  22.6645  22.8806  23.6791  23.7632
 32.5627  44.3184  44.3829  44.4139
 --------------------------------------------------------------
 
          Ground-State Mulliken Net Atomic Charges

     Atom                 Charge (a.u.)
  ----------------------------------------
      1 C                    -0.630722
      2 C                     0.515106
      3 O                    -0.797897
      4 O                    -0.772246
      5 H                     0.215794
      6 H                     0.208298
      7 H                     0.243237
      8 C                     0.148349
      9 C                    -1.186892
     10 C                     0.200705
     11 O                    -0.728323
     12 N                    -0.163564
     13 H                     0.243515
     14 H                     0.240560
     15 H                     0.263411
     16 H                     0.275083
     17 H                     0.260066
     18 H                     0.202945
     19 H                     0.262574
  ----------------------------------------
  Sum of atomic charges =    -1.000000

 -----------------------------------------------------------------
                    Cartesian Multipole Moments
 -----------------------------------------------------------------
    Charge (ESU x 10^10)
                -4.8032
    Dipole Moment (Debye)
         X      -5.2031      Y      -0.8388      Z      -0.1605
       Tot       5.2727
    Quadrupole Moments (Debye-Ang)
        XX    -112.1825     XY      14.9649     YY     -61.5354
        XZ       3.6007     YZ      -0.8618     ZZ     -51.8298
    Octopole Moments (Debye-Ang^2)
       XXX     -58.3912    XXY     -19.5876    XYY      21.7652
       YYY      -9.5029    XXZ      15.3736    XYZ       3.7823
       YYZ      -7.7525    XZZ      -2.4167    YZZ       4.3497
       ZZZ     -12.9900
    Hexadecapole Moments (Debye-Ang^3)
      XXXX   -2226.4545   XXXY     536.0819   XXYY    -424.1584
      XYYY     380.2542   YYYY    -575.2779   XXXZ     434.3904
      XXYZ     -66.9554   XYYZ     114.9962   YYYZ    -165.4587
      XXZZ    -402.0255   XYZZ     114.8649   YYZZ    -209.5416
      XZZZ     346.7717   YZZZ    -175.0694   ZZZZ    -738.1679
 -----------------------------------------------------------------
Archival summary:
1\1\nid00523\SP\ProcedureUnspecified\BasisUnspecified\31510(1-,1)\meili\SunSep2610:29:572021SunSep2610:29:572021\0\\#,ProcedureUnspecified,BasisUnspecified,\\-1,1\O\C,1,1.25367\O,2,1.24772,1,122.955\C,2,1.52158,1,117.041,3,173.192,0\H,4,1.08768,2,109.466,1,-68.6952,0\H,4,1.09138,2,108.969,1,47.4354,0\H,4,1.1,2,113.664,1,166.558,0\H,1,1.80715,2,120.419,3,93.7117,0\N,8,1.02484,1,164.696,2,134.942,0\H,9,1.00661,8,122.45,1,-123.386,0\C,9,1.31905,8,116.908,1,46.1633,0\O,11,1.23097,9,122.012,8,-170.46,0\C,11,1.51609,9,116.353,8,8.72208,0\H,13,1.08769,11,108.081,9,-72.9269,0\H,13,1.08954,11,109.359,9,44.3373,0\C,13,1.51665,11,112.178,9,165.156,0\H,16,1.08923,13,110.091,11,45.7609,0\H,16,1.0917,13,107.854,11,-71.6727,0\H,16,1.1,13,114.255,11,167.023,0\\\@

 Total job time:  26752.64s(wall), 17815.14s(cpu) 
 Sun Sep 26 10:29:58 2021

        *************************************************************
        *                                                           *
        *  Thank you very much for using Q-Chem.  Have a nice day.  *
        *                                                           *
        *************************************************************


