
Running Job 1 of 1 SSI-013GLU-039ARG-1_SMD_TZVPD.in
qchem SSI-013GLU-039ARG-1_SMD_TZVPD.in_58296.0 /tmp/qchem58296/ 0
/global/common/cori/software/qchem/5.2/exe/qcprog.exe_s SSI-013GLU-039ARG-1_SMD_TZVPD.in_58296.0 /tmp/qchem58296/
                  Welcome to Q-Chem
     A Quantum Leap Into The Future Of Chemistry


 Q-Chem 5.2, Q-Chem, Inc., Pleasanton, CA (2019)

 License issued to: National Energy Research Scientific Computing Center

 Yihan Shao,  Zhengting Gan,  E. Epifanovsky,  A. T. B. Gilbert,  M. Wormit,  
 J. Kussmann,  A. W. Lange,  A. Behn,  Jia Deng,  Xintian Feng,  D. Ghosh,  
 M. Goldey,  P. R. Horn,  L. D. Jacobson,  I. Kaliman,  T. Kus,  A. Landau,  
 Jie Liu,  E. I. Proynov,  R. M. Richard,  R. P. Steele,  E. J. Sundstrom,  
 H. L. Woodcock III,  P. M. Zimmerman,  D. Zuev,  B. Albrecht,  E. Alguire,  
 S. A. Baeppler,  D. Barton,  Z. Benda,  Y. A. Bernard,  E. J. Berquist,  
 K. B. Bravaya,  H. Burton,  D. Casanova,  Chun-Min Chang,  Yunqing Chen,  
 A. Chien,  K. D. Closser,  M. P. Coons,  S. Coriani,  S. Dasgupta,  
 A. L. Dempwolff,  M. Diedenhofen,  Hainam Do,  R. G. Edgar,  Po-Tung Fang,  
 S. Faraji,  S. Fatehi,  Qingguo Feng,  K. D. Fenk,  J. Fosso-Tande,  
 J. Gayvert,  Qinghui Ge,  A. Ghysels,  G. Gidofalvi,  J. Gomes,  
 J. Gonthier,  A. Gunina,  D. Hait,  M. W. D. Hanson-Heine,  
 P. H. P. Harbach,  A. W. Hauser,  M. F. Herbst,  J. E. Herr,  
 E. G. Hohenstein,  Z. C. Holden,  Kerwin Hui,  B. C. Huynh,  T.-C. Jagau,  
 Hyunjun Ji,  B. Kaduk,  K. Khistyaev,  Jaehoon Kim,  P. Klunzinger,  K. Koh,  
 D. Kosenkov,  L. Koulias,  T. Kowalczyk,  C. M. Krauter,  A. Kunitsa,  
 Ka Un Lao,  A. Laurent,  K. V. Lawler,  Joonho Lee,  D. Lefrancois,  
 S. Lehtola,  D. S. Levine,  Yi-Pei Li,  You-Sheng Lin,  Fenglai Liu,  
 E. Livshits,  A. Luenser,  P. Manohar,  E. Mansoor,  S. F. Manzer,  
 Shan-Ping Mao,  Yuezhi Mao,  N. Mardirossian,  A. V. Marenich,  
 T. Markovich,  L. A. Martinez-Martinez,  S. A. Maurer,  N. J. Mayhall,  
 S. C. McKenzie,  J.-M. Mewes,  P. Morgante,  A. F. Morrison,  
 J. W. Mullinax,  K. Nanda,  T. S. Nguyen-Beck,  R. Olivares-Amaya,  
 J. A. Parkhill,  Zheng Pei,  T. M. Perrine,  F. Plasser,  P. Pokhilko,  
 S. Prager,  A. Prociuk,  E. Ramos,  D. R. Rehn,  F. Rob,  M. Scheurer,  
 M. Schneider,  N. Sergueev,  S. M. Sharada,  S. Sharma,  D. W. Small,  
 T. Stauch,  T. Stein,  Yu-Chuan Su,  A. J. W. Thom,  A. Tkatchenko,  
 T. Tsuchimochi,  N. M. Tubman,  L. Vogt,  M. L. Vidal,  O. Vydrov,  
 M. A. Watson,  J. Wenzel,  M. de Wergifosse,  T. A. Wesolowski,  A. White,  
 J. Witte,  A. Yamada,  Jun Yang,  K. Yao,  S. Yeganeh,  S. R. Yost,  
 Zhi-Qiang You,  A. Zech,  Igor Ying Zhang,  Xing Zhang,  Yan Zhao,  
 Ying Zhu,  B. R. Brooks,  G. K. L. Chan,  C. J. Cramer,  M. S. Gordon,  
 W. J. Hehre,  A. Klamt,  M. W. Schmidt,  C. D. Sherrill,  D. G. Truhlar,  
 A. Aspuru-Guzik,  R. Baer,  A. T. Bell,  N. A. Besley,  Jeng-Da Chai,  
 A. E. DePrince, III,  R. A. DiStasio Jr.,  A. Dreuw,  B. D. Dunietz,  
 T. R. Furlani,  Chao-Ping Hsu,  Yousung Jung,  Jing Kong,  D. S. Lambrecht,  
 WanZhen Liang,  C. Ochsenfeld,  V. A. Rassolov,  L. V. Slipchenko,  
 J. E. Subotnik,  T. Van Voorhis,  J. M. Herbert,  A. I. Krylov,  
 P. M. W. Gill,  M. Head-Gordon

 Contributors to earlier versions of Q-Chem not listed above: 
 R. D. Adamson,  B. Austin,  J. Baker,  G. J. O. Beran,  K. Brandhorst,  
 S. T. Brown,  E. F. C. Byrd,  A. K. Chakraborty,  C.-L. Cheng,  
 Siu Hung Chien,  D. M. Chipman,  D. L. Crittenden,  H. Dachsel,  
 R. J. Doerksen,  A. D. Dutoi,  L. Fusti-Molnar,  W. A. Goddard III,  
 A. Golubeva-Zadorozhnaya,  S. R. Gwaltney,  G. Hawkins,  A. Heyden,  
 S. Hirata,  G. Kedziora,  F. J. Keil,  C. Kelley,  Jihan Kim,  R. A. King,  
 R. Z. Khaliullin,  P. P. Korambath,  W. Kurlancheek,  A. M. Lee,  M. S. Lee,  
 S. V. Levchenko,  Ching Yeh Lin,  D. Liotard,  R. C. Lochan,  I. Lotan,  
 P. E. Maslen,  N. Nair,  D. P. O'Neill,  D. Neuhauser,  E. Neuscamman,  
 C. M. Oana,  R. Olson,  B. Peters,  R. Peverati,  P. A. Pieniazek,  
 Y. M. Rhee,  J. Ritchie,  M. A. Rohrdanz,  E. Rosta,  N. J. Russ,  
 H. F. Schaefer III,  N. E. Schultz,  N. Shenvi,  A. C. Simmonett,  A. Sodt,  
 D. Stuck,  K. S. Thanthiriwatte,  V. Vanovschi,  Tao Wang,  A. Warshel,  
 C. F. Williams,  Q. Wu,  X. Xu,  W. Zhang

 Please cite Q-Chem as follows:
 Y. Shao et al., Mol. Phys. 113, 184-215 (2015)
 DOI: 10.1080/00268976.2014.952696

 Q-Chem 5.2.0 for Intel X86 EM64T Linux

 Parts of Q-Chem use Armadillo 8.300.2 (Tropical Shenanigans).
 http://arma.sourceforge.net/

 Q-Chem begins on Sun Sep 26 03:02:33 2021  

Host: cori01
0

     Scratch files written to /tmp/qchem58296//
 May1019 |scratch|qcdevops|jenkins|workspace|build_RNUM -1
Processing $rem in /global/common/cori/software/qchem/5.2/config/preferences:
	 MEM_TOTAL  96000 
NAlpha2: 72
NElect   72
Mult     1
Symmetry turned off for PCM/SM12/SMD calculation

 Q-Chem warning in module libgen/rem_setup.C, line 2803:

 Neither GIA nor STOLL is specified by user. Use STOLL as the default


Checking the input file for inconsistencies... 	...done.

--------------------------------------------------------------
User input:
--------------------------------------------------------------
$comment
SSI-013GLU-039ARG-1.pdb
$end

$molecule
0 1
--
-1 1
C    1.854611274441    0.069479735961    2.500573636128
C    2.215611274441   -0.927520264039    1.398573636128
O    1.620611274441   -0.837520264039    0.299573636128
O    3.092611274441   -1.792520264039    1.615573636128
H    0.785611274441    0.296479735961    2.472573636128
H    2.395611274441    1.000479735961    2.314573636128
H    2.120641274441   -0.285940264039    3.507004636128
--
1 1
C   -2.686388725559    2.373479735961   -0.625426363872
C   -1.532388725559    0.276479735961   -1.291426363872
N   -0.867388725559    0.227479735961   -0.151426363872
N   -2.389388725559    1.260479735961   -1.538426363872
N   -1.338388725559   -0.664520264039   -2.192426363872
H   -0.969388725559    0.967479735961    0.514573636128
H   -0.053388725559   -0.385520264039   -0.068426363872
H   -2.785388725559    1.308479735961   -2.479426363872
H   -1.807388725559   -0.600520264039   -3.083426363872
H   -0.650388725559   -1.381520264039   -2.028426363872
H   -3.135388725559    3.184479735961   -1.193426363872
H   -1.755388725559    2.781479735961   -0.226426363872
H   -3.331738725559    2.078049735961    0.214959636128
$end

$rem
JOBTYPE			EDA
EDA2			1
method			wB97X-V
BASIS			def2-TZVPD
XC_GRID			000099000590
NL_GRID			1
UNRESTRICTED		FALSE
MAX_SCF_CYCLES		200
SYMMETRY		FALSE
SYM_IGNORE		TRUE
MEM_STATIC		2000
BASIS_LIN_DEP_THRESH 	6
THRESH 			14
SCF_CONVERGENCE 	8
SCF_PRINT_FRGM 		TRUE
SOLVENT_METHOD          SMD
$end

$SMX
SOLVENT			WATER
$END
--------------------------------------------------------------
 ----------------------------------------------------------------
             Standard Nuclear Orientation (Angstroms)
    I     Atom           X                Y                Z
 ----------------------------------------------------------------
    1      C       1.8546112744     0.0694797360     2.5005736361
    2      C       2.2156112744    -0.9275202640     1.3985736361
    3      O       1.6206112744    -0.8375202640     0.2995736361
    4      O       3.0926112744    -1.7925202640     1.6155736361
    5      H       0.7856112744     0.2964797360     2.4725736361
    6      H       2.3956112744     1.0004797360     2.3145736361
    7      H       2.1206412744    -0.2859402640     3.5070046361
    8      C      -2.6863887256     2.3734797360    -0.6254263639
    9      C      -1.5323887256     0.2764797360    -1.2914263639
   10      N      -0.8673887256     0.2274797360    -0.1514263639
   11      N      -2.3893887256     1.2604797360    -1.5384263639
   12      N      -1.3383887256    -0.6645202640    -2.1924263639
   13      H      -0.9693887256     0.9674797360     0.5145736361
   14      H      -0.0533887256    -0.3855202640    -0.0684263639
   15      H      -2.7853887256     1.3084797360    -2.4794263639
   16      H      -1.8073887256    -0.6005202640    -3.0834263639
   17      H      -0.6503887256    -1.3815202640    -2.0284263639
   18      H      -3.1353887256     3.1844797360    -1.1934263639
   19      H      -1.7553887256     2.7814797360    -0.2264263639
   20      H      -3.3317387256     2.0780497360     0.2149596361
 ----------------------------------------------------------------
 Nuclear Repulsion Energy =         444.39647946 hartrees
 There are       36 alpha and       36 beta electrons
 Requested basis set is def2-TZVPD
 There are 174 shells and 438 basis functions

 Total QAlloc Memory Limit  96000 MB
 Mega-Array Size      1956 MB
 MEM_STATIC part      2000 MB
 
 Citation of the SMD model:
 Marenich, A.V.; Cramer, C.J.; Truhlar, D.G.
 J. Phys. Chem. B 2009, 113, 6378-6396.
 iSolventCode=           1
 Solvent: water                                                           
 
 vradii
            1           2           3           4           5           6
    1   1.8500000   1.8500000   1.5200000   1.5200000   1.2000000   1.2000000
            7           8           9          10          11          12
    1   1.2000000   1.8500000   1.8500000   1.8900000   1.8900000   1.8900000
           13          14          15          16          17          18
    1   1.2000000   1.2000000   1.2000000   1.2000000   1.2000000   1.2000000
           19          20
    1   1.2000000   1.2000000
 Changing PCM_VDW_RADII to SMD_RADIUS
 Discretize the solute cavity surface with Lebedev spheres
	Using 110 Lebedev grid points for each H atom
	Using 194 Lebedev grid points for other atoms
	Atomic van der Waals radii will be scaled by 1.20
 Remove points where switching function is < 1.0e-08
 Keep 1513 surface tesserae and discard 1443 interior tesserae
 Molecular Surface Area = 185.244 Angst**2
 A cutoff of  1.0D-14 yielded  13298 shell pairs
 There are     84164 function pairs (    105398 Cartesian)
 Smallest overlap matrix eigenvalue = 1.16E-05

 Scale SEOQF with 1.000000e-01/1.000000e-01/1.000000e-01

 Standard Electronic Orientation quadrupole field applied

 -----------------------------------------------------------------------
  General SCF calculation program by
  Eric Jon Sundstrom, Paul Horn, Yuezhi Mao, Dmitri Zuev, Alec White,
  David Stuck, Shaama M.S., Shane Yost, Joonho Lee, David Small,
  Daniel Levine, Susi Lehtola, Hugh Burton, Evgeny Epifanovsky
 -----------------------------------------------------------------------
================================================================
                 ALMO-EDA with the EDA2 driver                  
================================================================
 The second-generation ALMO-EDA (for DFT):                      
 P. R. Horn, Y. Mao and M. Head-Gordon, PCCP, 18, 23067 (2016)  
 Decomposition of the frozen energy:                            
 P. R. Horn, Y. Mao and M. Head-Gordon, JCP, 144, 114107 (2016) 
 FERF model for polarization:                                   
 P. R. Horn and M. Head-Gordon, JCP, 143, 114111 (2015)         
Using eda2 option set 1
Option set summary: Frozen orbital wavefunction, initial wavefunction decomposition, and nDQ polarization.
--------------------------------
Printing EDA Options
--------------------------------
eda_child_super_basis      0
fragmo_guess_mode          0
child_mp                   1
child_mp_orders            232
cls_elec                   1
cls_disp                   0
scfmi_mode                 1
scfmi_occs                 0
scfmi_virts                0
frz_relax                  0
frz_relax_method           0
dc_pen_start               0
dc_pen_conv                0
dc_pen_increment           0
dc_pen_steps               0
dc_pen_thresh_factor       0
dc_pen_pre_newton_thresh   0
frz_ortho_decomp           1
frz_ortho_decomp_conv      6
frgm_method                2
scfmi_freeze_ss            0
separate_rehyb             0
plot_diff_den              0
eda_nocv                   0
eda_vct_relax              1
disp_free_x                0
disp_free_c                0
eda_bsse                   0
eda_pct_a                  0
eda_covp                   0
--------------------------------
Attempting to make child job directory: /tmp/qchem58296//Frg1/
Attempting to make child job directory: /tmp/qchem58296//Frg2/
Creating input file /tmp/qchem58296/Frg1.input
using default PutDataFrgm: nothing
calling putenv with: QCSCRATCH=/tmp/qchem58296/ 
calling putenv with: QCLOCALSCR=/tmp/qchem58296/ 
Spawning Job For Fragment 0
                  Welcome to Q-Chem
     A Quantum Leap Into The Future Of Chemistry


 Q-Chem 5.2, Q-Chem, Inc., Pleasanton, CA (2019)

 License issued to: National Energy Research Scientific Computing Center

 Yihan Shao,  Zhengting Gan,  E. Epifanovsky,  A. T. B. Gilbert,  M. Wormit,  
 J. Kussmann,  A. W. Lange,  A. Behn,  Jia Deng,  Xintian Feng,  D. Ghosh,  
 M. Goldey,  P. R. Horn,  L. D. Jacobson,  I. Kaliman,  T. Kus,  A. Landau,  
 Jie Liu,  E. I. Proynov,  R. M. Richard,  R. P. Steele,  E. J. Sundstrom,  
 H. L. Woodcock III,  P. M. Zimmerman,  D. Zuev,  B. Albrecht,  E. Alguire,  
 S. A. Baeppler,  D. Barton,  Z. Benda,  Y. A. Bernard,  E. J. Berquist,  
 K. B. Bravaya,  H. Burton,  D. Casanova,  Chun-Min Chang,  Yunqing Chen,  
 A. Chien,  K. D. Closser,  M. P. Coons,  S. Coriani,  S. Dasgupta,  
 A. L. Dempwolff,  M. Diedenhofen,  Hainam Do,  R. G. Edgar,  Po-Tung Fang,  
 S. Faraji,  S. Fatehi,  Qingguo Feng,  K. D. Fenk,  J. Fosso-Tande,  
 J. Gayvert,  Qinghui Ge,  A. Ghysels,  G. Gidofalvi,  J. Gomes,  
 J. Gonthier,  A. Gunina,  D. Hait,  M. W. D. Hanson-Heine,  
 P. H. P. Harbach,  A. W. Hauser,  M. F. Herbst,  J. E. Herr,  
 E. G. Hohenstein,  Z. C. Holden,  Kerwin Hui,  B. C. Huynh,  T.-C. Jagau,  
 Hyunjun Ji,  B. Kaduk,  K. Khistyaev,  Jaehoon Kim,  P. Klunzinger,  K. Koh,  
 D. Kosenkov,  L. Koulias,  T. Kowalczyk,  C. M. Krauter,  A. Kunitsa,  
 Ka Un Lao,  A. Laurent,  K. V. Lawler,  Joonho Lee,  D. Lefrancois,  
 S. Lehtola,  D. S. Levine,  Yi-Pei Li,  You-Sheng Lin,  Fenglai Liu,  
 E. Livshits,  A. Luenser,  P. Manohar,  E. Mansoor,  S. F. Manzer,  
 Shan-Ping Mao,  Yuezhi Mao,  N. Mardirossian,  A. V. Marenich,  
 T. Markovich,  L. A. Martinez-Martinez,  S. A. Maurer,  N. J. Mayhall,  
 S. C. McKenzie,  J.-M. Mewes,  P. Morgante,  A. F. Morrison,  
 J. W. Mullinax,  K. Nanda,  T. S. Nguyen-Beck,  R. Olivares-Amaya,  
 J. A. Parkhill,  Zheng Pei,  T. M. Perrine,  F. Plasser,  P. Pokhilko,  
 S. Prager,  A. Prociuk,  E. Ramos,  D. R. Rehn,  F. Rob,  M. Scheurer,  
 M. Schneider,  N. Sergueev,  S. M. Sharada,  S. Sharma,  D. W. Small,  
 T. Stauch,  T. Stein,  Yu-Chuan Su,  A. J. W. Thom,  A. Tkatchenko,  
 T. Tsuchimochi,  N. M. Tubman,  L. Vogt,  M. L. Vidal,  O. Vydrov,  
 M. A. Watson,  J. Wenzel,  M. de Wergifosse,  T. A. Wesolowski,  A. White,  
 J. Witte,  A. Yamada,  Jun Yang,  K. Yao,  S. Yeganeh,  S. R. Yost,  
 Zhi-Qiang You,  A. Zech,  Igor Ying Zhang,  Xing Zhang,  Yan Zhao,  
 Ying Zhu,  B. R. Brooks,  G. K. L. Chan,  C. J. Cramer,  M. S. Gordon,  
 W. J. Hehre,  A. Klamt,  M. W. Schmidt,  C. D. Sherrill,  D. G. Truhlar,  
 A. Aspuru-Guzik,  R. Baer,  A. T. Bell,  N. A. Besley,  Jeng-Da Chai,  
 A. E. DePrince, III,  R. A. DiStasio Jr.,  A. Dreuw,  B. D. Dunietz,  
 T. R. Furlani,  Chao-Ping Hsu,  Yousung Jung,  Jing Kong,  D. S. Lambrecht,  
 WanZhen Liang,  C. Ochsenfeld,  V. A. Rassolov,  L. V. Slipchenko,  
 J. E. Subotnik,  T. Van Voorhis,  J. M. Herbert,  A. I. Krylov,  
 P. M. W. Gill,  M. Head-Gordon

 Contributors to earlier versions of Q-Chem not listed above: 
 R. D. Adamson,  B. Austin,  J. Baker,  G. J. O. Beran,  K. Brandhorst,  
 S. T. Brown,  E. F. C. Byrd,  A. K. Chakraborty,  C.-L. Cheng,  
 Siu Hung Chien,  D. M. Chipman,  D. L. Crittenden,  H. Dachsel,  
 R. J. Doerksen,  A. D. Dutoi,  L. Fusti-Molnar,  W. A. Goddard III,  
 A. Golubeva-Zadorozhnaya,  S. R. Gwaltney,  G. Hawkins,  A. Heyden,  
 S. Hirata,  G. Kedziora,  F. J. Keil,  C. Kelley,  Jihan Kim,  R. A. King,  
 R. Z. Khaliullin,  P. P. Korambath,  W. Kurlancheek,  A. M. Lee,  M. S. Lee,  
 S. V. Levchenko,  Ching Yeh Lin,  D. Liotard,  R. C. Lochan,  I. Lotan,  
 P. E. Maslen,  N. Nair,  D. P. O'Neill,  D. Neuhauser,  E. Neuscamman,  
 C. M. Oana,  R. Olson,  B. Peters,  R. Peverati,  P. A. Pieniazek,  
 Y. M. Rhee,  J. Ritchie,  M. A. Rohrdanz,  E. Rosta,  N. J. Russ,  
 H. F. Schaefer III,  N. E. Schultz,  N. Shenvi,  A. C. Simmonett,  A. Sodt,  
 D. Stuck,  K. S. Thanthiriwatte,  V. Vanovschi,  Tao Wang,  A. Warshel,  
 C. F. Williams,  Q. Wu,  X. Xu,  W. Zhang

 Please cite Q-Chem as follows:
 Y. Shao et al., Mol. Phys. 113, 184-215 (2015)
 DOI: 10.1080/00268976.2014.952696

 Q-Chem 5.2.0 for Intel X86 EM64T Linux

 Parts of Q-Chem use Armadillo 8.300.2 (Tropical Shenanigans).
 http://arma.sourceforge.net/

 Q-Chem begins on Sun Sep 26 03:02:36 2021  

Host: cori01
0

     Scratch files written to /tmp/qchem58296//Frg1//
 May1019 |scratch|qcdevops|jenkins|workspace|build_RNUM -1
Processing $rem in /global/common/cori/software/qchem/5.2/config/preferences:
	 MEM_TOTAL  96000 
NAlpha2: 32
NElect   32
Mult     1
Symmetry turned off for PCM/SM12/SMD calculation

Checking the input file for inconsistencies... 	...done.

--------------------------------------------------------------
User input:
--------------------------------------------------------------
$molecule
-1 1
 6	1.8546112744	0.0694797360	2.5005736361
 6	2.2156112744	-0.9275202640	1.3985736361
 8	1.6206112744	-0.8375202640	0.2995736361
 8	3.0926112744	-1.7925202640	1.6155736361
 1	0.7856112744	0.2964797360	2.4725736361
 1	2.3956112744	1.0004797360	2.3145736361
 1	2.1206412744	-0.2859402640	3.5070046361
$end
$rem
EDA2		1
METHOD		WB97X-V
BASIS		DEF2-TZVPD
XC_GRID		000099000590
NL_GRID		1
UNRESTRICTED		FALSE
MAX_SCF_CYCLES		200
SYMMETRY		FALSE
SYM_IGNORE		TRUE
BASIS_LIN_DEP_THRESH		6
THRESH		14
SCF_CONVERGENCE		8
SCF_PRINT_FRGM		TRUE
SOLVENT_METHOD		SMD
!required keywords
JOBTYPE		SP
SYM_IGNORE		TRUE
SUBSYSTEM		TRUE
GEN_SCFMAN		TRUE
CHILD_INSTRUCTION		2
SYM_IGNORE		TRUE
SCFMI		0
RI_K 0		
PARI_K 0		
MIN_PARI_K 0		
IARI_K 0		
OCC_RI_K 0		
PURECART		1111
MEM_STATIC		2000
MEM_TOTAL		96000
GUI		0
CHILD_MP		1
CHILD_MP_ORDERS		232
FRZ_RELAX		0
FRZ_RELAX_METHOD		0
EDA_CLS_ELEC		1
EDA_CLS_DISP		0
FRZ_ORTHO_DECOMP		1
EDA2		FALSE
FRGM_METHOD		FALSE
CIS_N_ROOTS  0
LOCAL_CIS    0
CIS_RLX_DNS  1
$end
$smx
SOLVENT			WATER
$end
--------------------------------------------------------------
 ----------------------------------------------------------------
             Standard Nuclear Orientation (Angstroms)
    I     Atom           X                Y                Z
 ----------------------------------------------------------------
    1      C       1.8546112744     0.0694797360     2.5005736361
    2      C       2.2156112744    -0.9275202640     1.3985736361
    3      O       1.6206112744    -0.8375202640     0.2995736361
    4      O       3.0926112744    -1.7925202640     1.6155736361
    5      H       0.7856112744     0.2964797360     2.4725736361
    6      H       2.3956112744     1.0004797360     2.3145736361
    7      H       2.1206412744    -0.2859402640     3.5070046361
 ----------------------------------------------------------------
 Nuclear Repulsion Energy =         112.41542543 hartrees
 There are       16 alpha and       16 beta electrons
 Requested basis set is def2-TZVPD
 There are 69 shells and 181 basis functions

 Total QAlloc Memory Limit  96000 MB
 Mega-Array Size      1956 MB
 MEM_STATIC part      2000 MB
 
 Citation of the SMD model:
 Marenich, A.V.; Cramer, C.J.; Truhlar, D.G.
 J. Phys. Chem. B 2009, 113, 6378-6396.
 iSolventCode=           1
 Solvent: water                                                           
 
 vradii
            1           2           3           4           5           6
    1   1.8500000   1.8500000   1.5200000   1.5200000   1.2000000   1.2000000
            7
    1   1.2000000
 Changing PCM_VDW_RADII to SMD_RADIUS
 Discretize the solute cavity surface with Lebedev spheres
	Using 110 Lebedev grid points for each H atom
	Using 194 Lebedev grid points for other atoms
	Atomic van der Waals radii will be scaled by 1.20
 Remove points where switching function is < 1.0e-08
 Keep 644 surface tesserae and discard 462 interior tesserae
 Molecular Surface Area = 80.025 Angst**2

                       Distance Matrix (Angstroms)
             C (  1)   C (  2)   O (  3)   O (  4)   H (  5)   H (  6)
   C (  2)  1.529292
   O (  3)  2.392030  1.252967
   O (  4)  2.404769  1.250777  2.193323
   H (  5)  1.093194  2.167153  2.589423  3.228098
   H (  6)  1.092720  2.142111  2.835330  2.962306  1.764279
   H (  7)  1.099999  2.205930  3.292702  2.606150  1.786495  1.775493

 
 A cutoff of  1.0D-14 yielded   2391 shell pairs
 There are     16695 function pairs (     21491 Cartesian)
 Smallest overlap matrix eigenvalue = 1.73E-05

 Scale SEOQF with 1.000000e-01/1.000000e-01/1.000000e-01

 Standard Electronic Orientation quadrupole field applied
 Nucleus-field energy     =    -0.0000000018 hartrees
 Guess from superposition of atomic densities
 Warning:  Energy on first SCF cycle will be non-variational
 SAD guess density has 30.625312 electrons

 -----------------------------------------------------------------------
  General SCF calculation program by
  Eric Jon Sundstrom, Paul Horn, Yuezhi Mao, Dmitri Zuev, Alec White,
  David Stuck, Shaama M.S., Shane Yost, Joonho Lee, David Small,
  Daniel Levine, Susi Lehtola, Hugh Burton, Evgeny Epifanovsky
 -----------------------------------------------------------------------
 Exchange:     0.1670 Hartree-Fock + 1.0000 wB97X-V + LR-HF
 Correlation:  1.0000 wB97X-V
 Using Euler-Maclaurin-Lebedev (99,590) quadrature formula
 Nonlocal Correlation:  VV10 with C = 0.0100 and b = 6.00 and scale = 1.00000
 Grid used for NLC:  SG-1 standard quadrature
Energy prior to optimization (guess energy) = -227.760932438036
Begin Timing: Total SCF Calculation
begin iterations for algorithm: DIIS         
the SCF tolerance is set to 1.00e-08
    1    -227.7609324380      1.66e-02     00000 
    2    -225.6235668054      2.50e-02     00000 
    3    -228.6070176651      4.06e-03     00000 
    4    -228.6596411514      1.36e-03     00000 
    5    -228.6655338605      2.12e-04     00000 
    6    -228.6657928929      8.74e-05     00000 
    7    -228.6658137427      5.35e-05     00000 
    8    -228.6658224633      1.40e-05     00000 
    9    -228.6658235947      4.00e-06     00000 
   10    -228.6658237098      1.13e-06     00000 
   11    -228.6658237208      2.13e-07     00000 
   12    -228.6658237211      4.54e-08     00000 
   13    -228.6658237211      1.08e-08     00000 
   14    -228.6658237211      2.71e-09     00000 Convergence criterion met
Timing for Total SCF: 294.00s (wall), 577.33s (cpu)
(3)  G-ENP(liq) elect-nuc-pol free energy of system     -228.665823721 a.u.
(4)  G-CDS(liq) cavity-dispersion-solvent structure 
     free energy                                                3.9135 kcal/mol
(6)  G-S(liq) free energy of system                     -228.659587136 a.u.
E_pcm = -0.1312603038
E_cds = 0.0062365852
Multipole orders to be included
        2
        3
computing dipole RHS
computing quadrupole RHS
total number of RHS in solve_reponses: 8
RHS batch sizes
        8
Beginning Block Conjugate Gradient Iterations. Batch Number: 0
computing hessian-vector products by finite difference
              1      6.27e-01     00000 Conjugate Gradient Iteration
computing hessian-vector products by finite difference
              2      2.04e-01     00000 Conjugate Gradient Iteration
computing hessian-vector products by finite difference
              3      5.34e-02     00000 Conjugate Gradient Iteration
computing hessian-vector products by finite difference
              4      1.35e-02     00000 Conjugate Gradient Iteration
computing hessian-vector products by finite difference
              5      1.98e-03     00000 Conjugate Gradient Iteration
computing hessian-vector products by finite difference
              6      4.86e-04     00000 Conjugate Gradient Iteration
computing hessian-vector products by finite difference
              7      7.07e-05     00000 Conjugate Gradient Iteration
computing hessian-vector products by finite difference
              8      8.81e-06     00000 Conjugate Gradient Iteration
computing hessian-vector products by finite difference
              9      1.35e-06     00000 Conjugate Gradient Iteration
computing hessian-vector products by finite difference
             10      1.40e-07     00000 Conjugate Gradient Iteration
computing hessian-vector products by finite difference
             11      1.72e-08     00000 Conjugate Gradient Iteration
computing hessian-vector products by finite difference
             12      2.96e-09     00000 CG Converged
batch 0 complete
Done Calculating Responses
TESTING ORTHOGONALIZATION OF MULTIPOLE BASIS
Multipole virts passed orthogonality test
Virts Per Order
        48
        80
 
 --------------------------------------------------------------
 
                    Orbital Energies (a.u.)
 --------------------------------------------------------------
 
 Alpha MOs
 -- Occupied --
-19.1535 -19.1526 -10.3553 -10.2482  -1.1656  -1.0647  -0.8393  -0.6181
 -0.5469  -0.5460  -0.5410  -0.4821  -0.4629  -0.3653  -0.3585  -0.3445
 -- Virtual --
  0.0670   0.1001   0.1004   0.1075   0.1352   0.1439   0.1457   0.1510
  0.1556   0.1898   0.2047   0.2210   0.2356   0.2389   0.2586   0.2661
  0.2986   0.3126   0.3329   0.3470   0.3551   0.3637   0.3704   0.3786
  0.3819   0.4020   0.4178   0.4220   0.4298   0.4530   0.4666   0.4746
  0.4821   0.4876   0.5033   0.5108   0.5457   0.5635   0.5760   0.5990
  0.6207   0.6276   0.6309   0.6418   0.6504   0.6646   0.6822   0.6916
  0.7067   0.7202   0.7793   0.7928   0.8062   0.8101   0.8349   0.8428
  0.8581   0.9580   0.9771   0.9879   0.9902   1.0210   1.0478   1.0853
  1.1294   1.2115   1.2374   1.2560   1.2648   1.2994   1.3360   1.3659
  1.4227   1.5328   1.5784   1.7376   1.8023   1.8507   1.8595   1.8970
  1.9113   1.9352   1.9459   1.9559   2.0100   2.0833   2.1090   2.1665
  2.1904   2.2005   2.2920   2.3153   2.4073   2.4297   2.4564   2.4678
  2.5526   2.5697   2.6264   2.6475   2.7634   2.8071   2.8446   2.9014
  2.9309   3.0039   3.0507   3.1343   3.2007   3.2257   3.2570   3.2774
  3.3332   3.3388   3.3673   3.3890   3.4048   3.5072   3.5600   3.5748
  3.5864   3.6510   3.6847   3.7187   3.7227   3.8145   3.9530   4.0265
  4.0691   4.1928   4.3145   4.5682   4.5871   4.6433   4.7783   4.7904
  4.9732   5.2961   5.3229   5.3314   5.3401   5.4624   5.6757   5.7436
  5.7871   5.9936   6.2029   6.3061   6.3262   6.5842   6.5971   6.6904
  6.7137   6.7269   6.9149   6.9483   7.0105   7.2127   7.3085   7.3528
  7.3807  22.5727  23.6935  44.1896  44.3323
 --------------------------------------------------------------
 
          Ground-State Mulliken Net Atomic Charges

     Atom                 Charge (a.u.)
  ----------------------------------------
      1 C                    -0.602170
      2 C                     0.508762
      3 O                    -0.775123
      4 O                    -0.768753
      5 H                     0.219659
      6 H                     0.192292
      7 H                     0.225334
  ----------------------------------------
  Sum of atomic charges =    -1.000000

 -----------------------------------------------------------------
                    Cartesian Multipole Moments
 -----------------------------------------------------------------
    Charge (ESU x 10^10)
                -4.8032
    Dipole Moment (Debye)
         X     -11.8360      Y       7.8637      Z      -2.9079
       Tot      14.5046
    Quadrupole Moments (Debye-Ang)
        XX     -59.0517     XY      22.3111     YY     -38.8995
        XZ     -11.9445     YZ       8.7159     ZZ     -29.6826
    Octopole Moments (Debye-Ang^2)
       XXX    -270.3579    XXY      88.4938    XYY     -95.4110
       YYY      87.4489    XXZ     -82.6353    XYZ      29.8125
       YYZ     -56.2643    XZZ     -75.2425    YZZ      34.9664
       ZZZ    -122.1309
    Hexadecapole Moments (Debye-Ang^3)
      XXXX   -1145.1312   XXXY     372.6050   XXYY    -293.9221
      XYYY     238.4252   YYYY    -261.5642   XXXZ    -415.8104
      XXYZ     124.4096   XYYZ    -144.0718   YYYZ     108.8160
      XXZZ    -293.8279   XYZZ     103.7640   YYZZ    -149.2753
      XZZZ    -291.3284   YZZZ      95.8315   ZZZZ    -499.7094
 -----------------------------------------------------------------
Archival summary:
1\1\nid00536\SP\ProcedureUnspecified\BasisUnspecified\223(1-,1)\meili\SunSep2604:24:442021SunSep2604:24:442021\0\\#,ProcedureUnspecified,BasisUnspecified,\\-1,1\C\O,1,1.25078\O,1,1.25297,2,122.331\C,1,1.52929,2,119.43,3,-179.484,0\H,4,1.09272,1,108.416,2,98.096,0\H,4,1.09319,1,110.35,2,-144.261,0\H,4,1.1,1,113.052,2,-21.789,0\\\@

 Total job time:  4928.67s(wall), 9640.30s(cpu) 
 Sun Sep 26 04:24:45 2021

        *************************************************************
        *                                                           *
        *  Thank you very much for using Q-Chem.  Have a nice day.  *
        *                                                           *
        *************************************************************


Done Job For Fragment 0
calling putenv with: QCSCRATCH=/global/cscratch1/sd/meili 
calling putenv with: QCLOCALSCR=/tmp 
calling putenv with: QCTHREADS=32 
Creating input file /tmp/qchem58296/Frg2.input
using default PutDataFrgm: nothing
calling putenv with: QCSCRATCH=/tmp/qchem58296/ 
calling putenv with: QCLOCALSCR=/tmp/qchem58296/ 
Spawning Job For Fragment 1
                  Welcome to Q-Chem
     A Quantum Leap Into The Future Of Chemistry


 Q-Chem 5.2, Q-Chem, Inc., Pleasanton, CA (2019)

 License issued to: National Energy Research Scientific Computing Center

 Yihan Shao,  Zhengting Gan,  E. Epifanovsky,  A. T. B. Gilbert,  M. Wormit,  
 J. Kussmann,  A. W. Lange,  A. Behn,  Jia Deng,  Xintian Feng,  D. Ghosh,  
 M. Goldey,  P. R. Horn,  L. D. Jacobson,  I. Kaliman,  T. Kus,  A. Landau,  
 Jie Liu,  E. I. Proynov,  R. M. Richard,  R. P. Steele,  E. J. Sundstrom,  
 H. L. Woodcock III,  P. M. Zimmerman,  D. Zuev,  B. Albrecht,  E. Alguire,  
 S. A. Baeppler,  D. Barton,  Z. Benda,  Y. A. Bernard,  E. J. Berquist,  
 K. B. Bravaya,  H. Burton,  D. Casanova,  Chun-Min Chang,  Yunqing Chen,  
 A. Chien,  K. D. Closser,  M. P. Coons,  S. Coriani,  S. Dasgupta,  
 A. L. Dempwolff,  M. Diedenhofen,  Hainam Do,  R. G. Edgar,  Po-Tung Fang,  
 S. Faraji,  S. Fatehi,  Qingguo Feng,  K. D. Fenk,  J. Fosso-Tande,  
 J. Gayvert,  Qinghui Ge,  A. Ghysels,  G. Gidofalvi,  J. Gomes,  
 J. Gonthier,  A. Gunina,  D. Hait,  M. W. D. Hanson-Heine,  
 P. H. P. Harbach,  A. W. Hauser,  M. F. Herbst,  J. E. Herr,  
 E. G. Hohenstein,  Z. C. Holden,  Kerwin Hui,  B. C. Huynh,  T.-C. Jagau,  
 Hyunjun Ji,  B. Kaduk,  K. Khistyaev,  Jaehoon Kim,  P. Klunzinger,  K. Koh,  
 D. Kosenkov,  L. Koulias,  T. Kowalczyk,  C. M. Krauter,  A. Kunitsa,  
 Ka Un Lao,  A. Laurent,  K. V. Lawler,  Joonho Lee,  D. Lefrancois,  
 S. Lehtola,  D. S. Levine,  Yi-Pei Li,  You-Sheng Lin,  Fenglai Liu,  
 E. Livshits,  A. Luenser,  P. Manohar,  E. Mansoor,  S. F. Manzer,  
 Shan-Ping Mao,  Yuezhi Mao,  N. Mardirossian,  A. V. Marenich,  
 T. Markovich,  L. A. Martinez-Martinez,  S. A. Maurer,  N. J. Mayhall,  
 S. C. McKenzie,  J.-M. Mewes,  P. Morgante,  A. F. Morrison,  
 J. W. Mullinax,  K. Nanda,  T. S. Nguyen-Beck,  R. Olivares-Amaya,  
 J. A. Parkhill,  Zheng Pei,  T. M. Perrine,  F. Plasser,  P. Pokhilko,  
 S. Prager,  A. Prociuk,  E. Ramos,  D. R. Rehn,  F. Rob,  M. Scheurer,  
 M. Schneider,  N. Sergueev,  S. M. Sharada,  S. Sharma,  D. W. Small,  
 T. Stauch,  T. Stein,  Yu-Chuan Su,  A. J. W. Thom,  A. Tkatchenko,  
 T. Tsuchimochi,  N. M. Tubman,  L. Vogt,  M. L. Vidal,  O. Vydrov,  
 M. A. Watson,  J. Wenzel,  M. de Wergifosse,  T. A. Wesolowski,  A. White,  
 J. Witte,  A. Yamada,  Jun Yang,  K. Yao,  S. Yeganeh,  S. R. Yost,  
 Zhi-Qiang You,  A. Zech,  Igor Ying Zhang,  Xing Zhang,  Yan Zhao,  
 Ying Zhu,  B. R. Brooks,  G. K. L. Chan,  C. J. Cramer,  M. S. Gordon,  
 W. J. Hehre,  A. Klamt,  M. W. Schmidt,  C. D. Sherrill,  D. G. Truhlar,  
 A. Aspuru-Guzik,  R. Baer,  A. T. Bell,  N. A. Besley,  Jeng-Da Chai,  
 A. E. DePrince, III,  R. A. DiStasio Jr.,  A. Dreuw,  B. D. Dunietz,  
 T. R. Furlani,  Chao-Ping Hsu,  Yousung Jung,  Jing Kong,  D. S. Lambrecht,  
 WanZhen Liang,  C. Ochsenfeld,  V. A. Rassolov,  L. V. Slipchenko,  
 J. E. Subotnik,  T. Van Voorhis,  J. M. Herbert,  A. I. Krylov,  
 P. M. W. Gill,  M. Head-Gordon

 Contributors to earlier versions of Q-Chem not listed above: 
 R. D. Adamson,  B. Austin,  J. Baker,  G. J. O. Beran,  K. Brandhorst,  
 S. T. Brown,  E. F. C. Byrd,  A. K. Chakraborty,  C.-L. Cheng,  
 Siu Hung Chien,  D. M. Chipman,  D. L. Crittenden,  H. Dachsel,  
 R. J. Doerksen,  A. D. Dutoi,  L. Fusti-Molnar,  W. A. Goddard III,  
 A. Golubeva-Zadorozhnaya,  S. R. Gwaltney,  G. Hawkins,  A. Heyden,  
 S. Hirata,  G. Kedziora,  F. J. Keil,  C. Kelley,  Jihan Kim,  R. A. King,  
 R. Z. Khaliullin,  P. P. Korambath,  W. Kurlancheek,  A. M. Lee,  M. S. Lee,  
 S. V. Levchenko,  Ching Yeh Lin,  D. Liotard,  R. C. Lochan,  I. Lotan,  
 P. E. Maslen,  N. Nair,  D. P. O'Neill,  D. Neuhauser,  E. Neuscamman,  
 C. M. Oana,  R. Olson,  B. Peters,  R. Peverati,  P. A. Pieniazek,  
 Y. M. Rhee,  J. Ritchie,  M. A. Rohrdanz,  E. Rosta,  N. J. Russ,  
 H. F. Schaefer III,  N. E. Schultz,  N. Shenvi,  A. C. Simmonett,  A. Sodt,  
 D. Stuck,  K. S. Thanthiriwatte,  V. Vanovschi,  Tao Wang,  A. Warshel,  
 C. F. Williams,  Q. Wu,  X. Xu,  W. Zhang

 Please cite Q-Chem as follows:
 Y. Shao et al., Mol. Phys. 113, 184-215 (2015)
 DOI: 10.1080/00268976.2014.952696

 Q-Chem 5.2.0 for Intel X86 EM64T Linux

 Parts of Q-Chem use Armadillo 8.300.2 (Tropical Shenanigans).
 http://arma.sourceforge.net/

 Q-Chem begins on Sun Sep 26 04:24:46 2021  

Host: cori01
0

     Scratch files written to /tmp/qchem58296//Frg2//
 May1019 |scratch|qcdevops|jenkins|workspace|build_RNUM -1
Processing $rem in /global/common/cori/software/qchem/5.2/config/preferences:
	 MEM_TOTAL  96000 
NAlpha2: 40
NElect   40
Mult     1
Symmetry turned off for PCM/SM12/SMD calculation

Checking the input file for inconsistencies... 	...done.

--------------------------------------------------------------
User input:
--------------------------------------------------------------
$molecule
1 1
 6	-2.6863887256	2.3734797360	-0.6254263639
 6	-1.5323887256	0.2764797360	-1.2914263639
 7	-0.8673887256	0.2274797360	-0.1514263639
 7	-2.3893887256	1.2604797360	-1.5384263639
 7	-1.3383887256	-0.6645202640	-2.1924263639
 1	-0.9693887256	0.9674797360	0.5145736361
 1	-0.0533887256	-0.3855202640	-0.0684263639
 1	-2.7853887256	1.3084797360	-2.4794263639
 1	-1.8073887256	-0.6005202640	-3.0834263639
 1	-0.6503887256	-1.3815202640	-2.0284263639
 1	-3.1353887256	3.1844797360	-1.1934263639
 1	-1.7553887256	2.7814797360	-0.2264263639
 1	-3.3317387256	2.0780497360	0.2149596361
$end
$rem
EDA2		1
METHOD		WB97X-V
BASIS		DEF2-TZVPD
XC_GRID		000099000590
NL_GRID		1
UNRESTRICTED		FALSE
MAX_SCF_CYCLES		200
SYMMETRY		FALSE
SYM_IGNORE		TRUE
BASIS_LIN_DEP_THRESH		6
THRESH		14
SCF_CONVERGENCE		8
SCF_PRINT_FRGM		TRUE
SOLVENT_METHOD		SMD
!required keywords
JOBTYPE		SP
SYM_IGNORE		TRUE
SUBSYSTEM		TRUE
GEN_SCFMAN		TRUE
CHILD_INSTRUCTION		2
SYM_IGNORE		TRUE
SCFMI		0
RI_K 0		
PARI_K 0		
MIN_PARI_K 0		
IARI_K 0		
OCC_RI_K 0		
PURECART		1111
MEM_STATIC		2000
MEM_TOTAL		96000
GUI		0
CHILD_MP		1
CHILD_MP_ORDERS		232
FRZ_RELAX		0
FRZ_RELAX_METHOD		0
EDA_CLS_ELEC		1
EDA_CLS_DISP		0
FRZ_ORTHO_DECOMP		1
EDA2		FALSE
FRGM_METHOD		FALSE
CIS_N_ROOTS  0
LOCAL_CIS    0
CIS_RLX_DNS  1
$end
$smx
SOLVENT			WATER
$end
--------------------------------------------------------------
 ----------------------------------------------------------------
             Standard Nuclear Orientation (Angstroms)
    I     Atom           X                Y                Z
 ----------------------------------------------------------------
    1      C      -2.6863887256     2.3734797360    -0.6254263639
    2      C      -1.5323887256     0.2764797360    -1.2914263639
    3      N      -0.8673887256     0.2274797360    -0.1514263639
    4      N      -2.3893887256     1.2604797360    -1.5384263639
    5      N      -1.3383887256    -0.6645202640    -2.1924263639
    6      H      -0.9693887256     0.9674797360     0.5145736361
    7      H      -0.0533887256    -0.3855202640    -0.0684263639
    8      H      -2.7853887256     1.3084797360    -2.4794263639
    9      H      -1.8073887256    -0.6005202640    -3.0834263639
   10      H      -0.6503887256    -1.3815202640    -2.0284263639
   11      H      -3.1353887256     3.1844797360    -1.1934263639
   12      H      -1.7553887256     2.7814797360    -0.2264263639
   13      H      -3.3317387256     2.0780497360     0.2149596361
 ----------------------------------------------------------------
 Nuclear Repulsion Energy =         193.98078965 hartrees
 There are       20 alpha and       20 beta electrons
 Requested basis set is def2-TZVPD
 There are 105 shells and 257 basis functions

 Total QAlloc Memory Limit  96000 MB
 Mega-Array Size      1956 MB
 MEM_STATIC part      2000 MB
 
 Citation of the SMD model:
 Marenich, A.V.; Cramer, C.J.; Truhlar, D.G.
 J. Phys. Chem. B 2009, 113, 6378-6396.
 iSolventCode=           1
 Solvent: water                                                           
 
 vradii
            1           2           3           4           5           6
    1   1.8500000   1.8500000   1.8900000   1.8900000   1.8900000   1.2000000
            7           8           9          10          11          12
    1   1.2000000   1.2000000   1.2000000   1.2000000   1.2000000   1.2000000
           13
    1   1.2000000
 Changing PCM_VDW_RADII to SMD_RADIUS
 Discretize the solute cavity surface with Lebedev spheres
	Using 110 Lebedev grid points for each H atom
	Using 194 Lebedev grid points for other atoms
	Atomic van der Waals radii will be scaled by 1.20
 Remove points where switching function is < 1.0e-08
 Keep 912 surface tesserae and discard 938 interior tesserae
 Molecular Surface Area = 114.076 Angst**2

                       Distance Matrix (Angstroms)
             C (  1)   C (  2)   N (  3)   N (  4)   N (  5)   H (  6)
   C (  2)  2.484488
   N (  3)  2.852850  1.320691
   N (  4)  1.469880  1.328049  2.303767
   N (  5)  3.674512  1.317163  2.276661  2.288655
   H (  6)  2.494900  2.013973  1.000780  2.513376  3.182363
   H (  7)  3.854221  2.030127  1.022377  3.213582  2.498088  1.734807
   H (  8)  2.140407  2.011561  3.204196  1.022057  2.463515  3.518263
   H (  9)  3.957156  2.013956  3.188386  2.487784  1.008929  4.013287
   H ( 10)  4.495968  2.017438  2.481753  3.200685  1.007139  3.476552
   H ( 11)  1.087173  3.321999  3.869553  2.092204  4.363715  3.538914
   H ( 12)  1.091983  2.731113  2.705011  2.106357  3.989231  2.111273
   H ( 13)  1.100002  2.958465  3.103525  2.151931  4.158202  2.627514
             H (  7)   H (  8)   H (  9)   H ( 10)   H ( 11)   H ( 12)
   H (  8)  4.018256
   H (  9)  3.494705  2.228358
   H ( 10)  2.278163  3.463773  1.749753
   H ( 11)  4.848634  2.301233  4.434175  5.265055
   H ( 12)  3.598841  2.882124  4.427536  4.668918  1.732599
   H ( 13)  4.110604  2.854900  4.514170  4.918439  1.801747  1.781717

 
 A cutoff of  1.0D-14 yielded   5441 shell pairs
 There are     33177 function pairs (     41513 Cartesian)
 Smallest overlap matrix eigenvalue = 1.72E-05

 Scale SEOQF with 1.000000e-01/1.000000e-01/1.000000e-01

 Standard Electronic Orientation quadrupole field applied
 Nucleus-field energy     =     0.0000000018 hartrees
 Guess from superposition of atomic densities
 Warning:  Energy on first SCF cycle will be non-variational
 SAD guess density has 40.388232 electrons

 -----------------------------------------------------------------------
  General SCF calculation program by
  Eric Jon Sundstrom, Paul Horn, Yuezhi Mao, Dmitri Zuev, Alec White,
  David Stuck, Shaama M.S., Shane Yost, Joonho Lee, David Small,
  Daniel Levine, Susi Lehtola, Hugh Burton, Evgeny Epifanovsky
 -----------------------------------------------------------------------
 Exchange:     0.1670 Hartree-Fock + 1.0000 wB97X-V + LR-HF
 Correlation:  1.0000 wB97X-V
 Using Euler-Maclaurin-Lebedev (99,590) quadrature formula
 Nonlocal Correlation:  VV10 with C = 0.0100 and b = 6.00 and scale = 1.00000
 Grid used for NLC:  SG-1 standard quadrature
Energy prior to optimization (guess energy) = -244.725531817568
Begin Timing: Total SCF Calculation
begin iterations for algorithm: DIIS         
the SCF tolerance is set to 1.00e-08
    1    -244.7255318176      7.92e-03     00000 
    2    -244.9634260458      6.25e-03     00000 
    3    -245.2048140901      3.38e-04     00000 
    4    -245.2058143292      1.76e-04     00000 
    5    -245.2060594560      4.85e-05     00000 
    6    -245.2060799512      1.99e-05     00000 
    7    -245.2060833101      3.68e-06     00000 
    8    -245.2060835313      1.01e-06     00000 
    9    -245.2060835489      4.24e-07     00000 
   10    -245.2060835517      1.31e-07     00000 
   11    -245.2060835521      4.97e-08     00000 
   12    -245.2060835521      1.99e-08     00000 
   13    -245.2060835521      2.40e-09     00000 Convergence criterion met
Timing for Total SCF: 796.00s (wall), 1579.50s (cpu)
(3)  G-ENP(liq) elect-nuc-pol free energy of system     -245.206083552 a.u.
(4)  G-CDS(liq) cavity-dispersion-solvent structure 
     free energy                                                2.6856 kcal/mol
(6)  G-S(liq) free energy of system                     -245.201803770 a.u.
E_pcm = -0.1086970761
E_cds = 0.0042797823
Multipole orders to be included
        2
        3
computing dipole RHS
computing quadrupole RHS
total number of RHS in solve_reponses: 8
RHS batch sizes
        8
Beginning Block Conjugate Gradient Iterations. Batch Number: 0
computing hessian-vector products by finite difference
              1      4.82e-01     00000 Conjugate Gradient Iteration
computing hessian-vector products by finite difference
              2      1.80e-01     00000 Conjugate Gradient Iteration
computing hessian-vector products by finite difference
              3      4.93e-02     00000 Conjugate Gradient Iteration
computing hessian-vector products by finite difference
              4      1.35e-02     00000 Conjugate Gradient Iteration
computing hessian-vector products by finite difference
              5      1.86e-03     00000 Conjugate Gradient Iteration
computing hessian-vector products by finite difference
              6      3.33e-04     00000 Conjugate Gradient Iteration
computing hessian-vector products by finite difference
              7      4.48e-05     00000 Conjugate Gradient Iteration
computing hessian-vector products by finite difference
              8      6.46e-06     00000 Conjugate Gradient Iteration
computing hessian-vector products by finite difference
              9      9.90e-07     00000 Conjugate Gradient Iteration
computing hessian-vector products by finite difference
             10      1.12e-07     00000 Conjugate Gradient Iteration
computing hessian-vector products by finite difference
             11      1.44e-08     00000 Conjugate Gradient Iteration
computing hessian-vector products by finite difference
             12      2.50e-09     00000 CG Converged
batch 0 complete
Done Calculating Responses
TESTING ORTHOGONALIZATION OF MULTIPOLE BASIS
Multipole virts passed orthogonality test
Virts Per Order
           60
          100
 
 --------------------------------------------------------------
 
                    Orbital Energies (a.u.)
 --------------------------------------------------------------
 
 Alpha MOs
 -- Occupied --
-14.4561 -14.4480 -14.4457 -10.4223 -10.3051  -1.1728  -1.0536  -1.0427
 -0.8523  -0.7641  -0.7202  -0.6881  -0.6154  -0.6096  -0.5955  -0.5690
 -0.5261  -0.5043  -0.4006  -0.3771
 -- Virtual --
  0.0590   0.0846   0.0980   0.1008   0.1238   0.1257   0.1375   0.1499
  0.1738   0.1783   0.1914   0.1982   0.2045   0.2142   0.2211   0.2405
  0.2423   0.2471   0.2480   0.2696   0.2796   0.2867   0.2924   0.3052
  0.3148   0.3184   0.3218   0.3275   0.3400   0.3421   0.3533   0.3595
  0.3673   0.3779   0.3813   0.3955   0.4076   0.4123   0.4166   0.4329
  0.4386   0.4481   0.4601   0.4633   0.4707   0.4789   0.4859   0.5004
  0.5046   0.5070   0.5169   0.5207   0.5292   0.5329   0.5476   0.5525
  0.5610   0.5743   0.5813   0.5955   0.6100   0.6248   0.6492   0.6564
  0.6629   0.6741   0.6835   0.6979   0.7231   0.7317   0.7587   0.7615
  0.7926   0.8028   0.8194   0.8307   0.8382   0.8504   0.8652   0.8705
  0.8741   0.8921   0.9071   0.9213   0.9368   0.9728   0.9859   1.0055
  1.0350   1.0566   1.0686   1.0870   1.0957   1.1023   1.1135   1.1364
  1.1632   1.1967   1.2243   1.2576   1.2664   1.3347   1.3675   1.4085
  1.4314   1.4631   1.4837   1.4847   1.5605   1.5778   1.6552   1.6825
  1.6890   1.7169   1.7455   1.7930   1.8445   1.8480   1.8728   1.8869
  1.9003   1.9167   1.9306   1.9583   1.9971   2.0171   2.0464   2.0753
  2.1176   2.1298   2.1497   2.1746   2.2069   2.2236   2.2903   2.3298
  2.3400   2.3535   2.3719   2.4128   2.4255   2.4811   2.5064   2.5233
  2.5480   2.5847   2.6234   2.6327   2.6604   2.6854   2.7142   2.7351
  2.7909   2.8188   2.8434   2.8897   2.9005   2.9072   2.9477   2.9602
  3.0366   3.1234   3.1385   3.1564   3.1790   3.1906   3.2140   3.2580
  3.2652   3.2995   3.3208   3.3255   3.3619   3.3815   3.4177   3.4319
  3.4551   3.4959   3.5452   3.5645   3.6163   3.6488   3.6927   3.7374
  3.8055   3.8353   3.9424   3.9635   4.0590   4.0909   4.1518   4.1834
  4.2665   4.3372   4.3740   4.4014   4.4451   4.4860   4.5951   4.6177
  4.6769   4.8375   4.8553   4.8789   4.9398   4.9985   5.0222   5.0502
  5.1182   5.1249   5.1375   5.1566   5.1876   5.2120   5.2798   5.3400
  5.3775   5.4043   5.4468   5.4622   5.5103   5.5249   5.5901   5.6503
  5.7015   5.7572   5.8168   5.9033   6.1528   6.1838   6.3648   6.4712
 22.6723  23.6545  32.3375  32.4539  32.8127
 --------------------------------------------------------------
 
          Ground-State Mulliken Net Atomic Charges

     Atom                 Charge (a.u.)
  ----------------------------------------
      1 C                    -0.822916
      2 C                     0.417694
      3 N                    -0.309907
      4 N                    -0.112470
      5 N                    -0.306593
      6 H                     0.228254
      7 H                     0.267297
      8 H                     0.308054
      9 H                     0.249824
     10 H                     0.245135
     11 H                     0.283204
     12 H                     0.289221
     13 H                     0.263201
  ----------------------------------------
  Sum of atomic charges =     1.000000

 -----------------------------------------------------------------
                    Cartesian Multipole Moments
 -----------------------------------------------------------------
    Charge (ESU x 10^10)
                 4.8032
    Dipole Moment (Debye)
         X      -6.8963      Y       2.4385      Z      -6.6029
       Tot       9.8541
    Quadrupole Moments (Debye-Ang)
        XX     -14.0753     XY     -10.9770     YY     -18.6854
        XZ      14.1680     YZ       0.6271     ZZ     -10.3295
    Octopole Moments (Debye-Ang^2)
       XXX     120.8240    XXY       7.8132    XYY      29.3251
       YYY     -49.9216    XXZ       0.4803    XYZ      10.3754
       YYZ      21.3053    XZZ      10.6647    YZZ     -23.0315
       ZZZ      45.3300
    Hexadecapole Moments (Debye-Ang^3)
      XXXX    -604.8593   XXXY      99.7339   XXYY    -112.5957
      XYYY     124.1268   YYYY    -308.0857   XXXZ    -103.7031
      XXYZ     -25.6297   XYYZ     -32.0890   YYYZ      26.2711
      XXZZ     -78.7489   XYZZ      39.7107   YYZZ     -96.6003
      XZZZ     -56.7695   YZZZ      45.3771   ZZZZ    -206.4580
 -----------------------------------------------------------------
Archival summary:
1\1\nid00536\SP\ProcedureUnspecified\BasisUnspecified\328(1+,1)\meili\SunSep2608:08:232021SunSep2608:08:232021\0\\#,ProcedureUnspecified,BasisUnspecified,\\1,1\C\N,1,1.31716\H,2,1.00714,1,119.857\H,2,1.00893,1,119.361,3,-173.23,0\N,1,1.32069,2,119.327,3,-3.42668,0\H,5,1.00078,1,119.715,2,176.404,0\H,5,1.02238,1,119.552,2,15.2655,0\N,1,1.32805,2,119.812,3,176.5,0\H,8,1.02206,1,117.133,2,-7.30183,0\C,8,1.46988,1,125.163,2,-179.422,0\H,10,1.08717,8,108.892,1,160.682,0\H,10,1.09198,8,109.731,1,45.8786,0\H,10,1.1,8,112.937,1,-75.6231,0\\\@

 Total job time:  13418.61s(wall), 26570.63s(cpu) 
 Sun Sep 26 08:08:25 2021

        *************************************************************
        *                                                           *
        *  Thank you very much for using Q-Chem.  Have a nice day.  *
        *                                                           *
        *************************************************************


Done Job For Fragment 1
calling putenv with: QCSCRATCH=/global/cscratch1/sd/meili 
calling putenv with: QCLOCALSCR=/tmp 
calling putenv with: QCTHREADS=32 
Doing General SCFMI
 Exchange:     0.1670 Hartree-Fock + 1.0000 wB97X-V + LR-HF
 Correlation:  1.0000 wB97X-V
 Using Euler-Maclaurin-Lebedev (99,590) quadrature formula
 Nonlocal Correlation:  VV10 with C = 0.0100 and b = 6.00 and scale = 1.00000
 Grid used for NLC:  SG-1 standard quadrature
performing fock build before subrot guess so that all methods have access
Printing subrot_rss_gen Method Specification:
Occupied Subspace Method is 0
Virtual Subspace Method is 0
Energy of the unrelaxed supersystem initial determinant -473.756114861595
performing fock build before subrot guess so that all methods have access
Printing subrot_rss_gen Method Specification:
Occupied Subspace Method is 0
Virtual Subspace Method is 0
Energy of the unrelaxed supersystem initial determinant w/ solvent -473.869916020421
write pseudocanon occs and virts to disk
write pseudocanon orbital energies to disk
Tolerance of ortho_decomp_scf: 1.00e-06
GDM subspace size: 20
Beginning the Orthogonal Decomposition of the Initial Supersystem Wavefunction
    1    -473.5644117209      9.40e-02     ortho_decomp Preconditoned Steepest Descent
    2    -473.5771415632      2.42e-03     ortho_decomp BFGS Step
    3    -473.5771902086      2.29e-04     ortho_decomp BFGS Step
    4    -473.5771903439      1.06e-05     ortho_decomp BFGS Step
    5    -473.5771903444      3.61e-07     ortho_decomp 00000 Convergence criterion met
 Hartree-Fock
 Hartree-Fock
 Hartree-Fock
Doing General SCFMI
 Exchange:     0.1670 Hartree-Fock + 1.0000 wB97X-V + LR-HF
 Correlation:  1.0000 wB97X-V
 Using Euler-Maclaurin-Lebedev (99,590) quadrature formula
 Nonlocal Correlation:  VV10 with C = 0.0100 and b = 6.00 and scale = 1.00000
 Grid used for NLC:  SG-1 standard quadrature
performing fock build at end of subrot_r(subrot) constructor so that all methods have access
<S^2> of initial wavefunction before polarization iterations 0.0000000000
Beginning iterations for the determination of the polarized wavefunction
Energy prior to optimization (guess energy) = -473.869916020422
Begin Timing: Total SCF Calculation
begin iterations for algorithm: DIIS         
the SCF tolerance is set to 1.00e-08
    1    -473.8699160204      1.95e-04     00000 
    2    -473.8718025674      8.74e-05     00000 
    3    -473.8720226736      5.63e-05     00000 
    4    -473.8721141868      1.68e-05     00000 
    5    -473.8721258484      8.38e-06     00000 
    6    -473.8721298230      3.54e-06     00000 
    7    -473.8721305941      1.49e-06     00000 
    8    -473.8721307209      5.04e-07     00000 
    9    -473.8721307327      2.44e-07     00000 
   10    -473.8721307344      6.88e-08     00000 
   11    -473.8721307346      3.26e-08     00000 
   12    -473.8721307347      1.48e-08     00000 
   13    -473.8721307347      4.86e-09     00000 Convergence criterion met
write pseudocanon occs and virts to disk
write pseudocanon orbital energies to disk
Timing for Total SCF: 3034.00s (wall), 6032.20s (cpu)
<S^2> of polarized wavefunction after polarization iterations 0.0000000000
relaxing scfmi constraint to allow all rotations in the entire AO span
Doing General SCFMI
 Exchange:     0.1670 Hartree-Fock + 1.0000 wB97X-V + LR-HF
 Correlation:  1.0000 wB97X-V
 Using Euler-Maclaurin-Lebedev (99,590) quadrature formula
 Nonlocal Correlation:  VV10 with C = 0.0100 and b = 6.00 and scale = 1.00000
 Grid used for NLC:  SG-1 standard quadrature
performing fock build at end of subrot_r(subrot) constructor so that all methods have access
<S^2> of polarized wavefunction before ct-allowed iterations 0.0000000000
Beginning iterations for the determination of the CT-Allowed wavefunction
Energy prior to optimization (guess energy) = -473.872130734661
Begin Timing: Total SCF Calculation
begin iterations for algorithm: DIIS         
the SCF tolerance is set to 1.00e-08
    1    -473.8721307347      2.25e-04     00000 
    2    -473.8779722940      3.79e-05     00000 
    3    -473.8782261201      1.94e-05     00000 
    4    -473.8782509394      8.32e-06     00000 
    5    -473.8782574627      2.12e-06     00000 
    6    -473.8782578756      7.37e-07     00000 
    7    -473.8782579611      2.97e-07     00000 
    8    -473.8782579728      7.11e-08     00000 
    9    -473.8782579743      3.23e-08     00000 
   10    -473.8782579746      1.20e-08     00000 
   11    -473.8782579746      3.25e-09     00000 Convergence criterion met
write pseudocanon occs and virts to disk
write pseudocanon orbital energies to disk
Timing for Total SCF: 2535.00s (wall), 5035.80s (cpu)
<S^2> of ct_allowed wavefunction after ct-allowed iterations 0.0000000000

================================
        Results of EDA2         
================================
Basic EDA Quantities
--------------------
Fragment Energies (Ha):
1 -228.6595871359
2 -245.2018037698
--------------------
  E_prp (kJ/mol) = -0.0000
  E_sol (kJ/mol) = 327.5551
  E_frz (kJ/mol) = -325.9990
  E_pol (kJ/mol) = -5.8148
  E_vct (kJ/mol) = -16.0873
  E_int (kJ/mol) = -20.3460
--------------------


Initial Wavefunction Decomposition
--------------------
  --------------------
  Orthogonal Fragment Subspace Decomposition:
  --------------------
     E_elec   (ELEC)   (kJ/mol) = -430.0035
     E_pauli  (PAULI)  (kJ/mol) = 119.8651
     E_disp   (DISP)   (kJ/mol) = -15.8606
     --------------------
     Terms summing to E_pauli:
     --------------------
        E_kep_pauli       (kJ/mol) = 143.7729
        E_disp_free_pauli (kJ/mol) = -23.9078
  --------------------
  Classical Frozen Decomposition:
  --------------------
     E_cls_elec  (CLS ELEC)  (kJ/mol) = -388.7815
     E_cls_pauli (CLS PAULI) (kJ/mol) = 62.7825
    [E_mod_pauli (MOD PAULI) (kJ/mol) = 78.6431 (CLS PAULI - DISP from orthogonal decomposition) ]
  --------------------
--------------------

Simplified EDA Summary (kJ/mol)
--------------------
 PREPARATION     -0.0000
 SOLVATION       327.5551
 FROZEN          -310.1384      (does not include dispersion)
[PAULI           119.8651]     (if this is negligible, then frozen describes electrostatics)
 DISPERSION      -15.8606
 POLARIZATION    -5.8148
 CHARGE TRANSFER -16.0873
 TOTAL           -20.3460     (PRP + SOL + FRZ + DISP + POL + CT)
--------------------
 
 --------------------------------------------------------------
 
                    Orbital Energies (a.u.)
 --------------------------------------------------------------
 
 Alpha MOs
 -- Occupied --
-19.1599 -19.1581 -14.4506 -14.4407 -14.4289 -10.4138 -10.3615 -10.3026
-10.2513  -1.1724  -1.1650  -1.0725  -1.0479  -1.0323  -0.8484  -0.8427
 -0.7566  -0.7138  -0.6828  -0.6329  -0.6068  -0.6005  -0.5900  -0.5651
 -0.5505  -0.5482  -0.5424  -0.5218  -0.5014  -0.4845  -0.4668  -0.3918
 -0.3735  -0.3709  -0.3638  -0.3495
 -- Virtual --
  0.0574   0.0738   0.0832   0.0953   0.0992   0.1068   0.1116   0.1201
  0.1269   0.1359   0.1392   0.1415   0.1428   0.1573   0.1634   0.1702
  0.1812   0.1899   0.1927   0.1966   0.2059   0.2138   0.2190   0.2272
  0.2340   0.2363   0.2372   0.2438   0.2518   0.2569   0.2665   0.2680
  0.2817   0.2828   0.2888   0.2951   0.3000   0.3085   0.3131   0.3170
  0.3212   0.3272   0.3299   0.3371   0.3414   0.3462   0.3540   0.3546
  0.3607   0.3661   0.3758   0.3790   0.3827   0.3879   0.3996   0.4043
  0.4058   0.4088   0.4130   0.4146   0.4217   0.4273   0.4302   0.4401
  0.4430   0.4460   0.4522   0.4615   0.4715   0.4756   0.4773   0.4826
  0.4860   0.4925   0.4943   0.4958   0.5069   0.5125   0.5198   0.5215
  0.5292   0.5323   0.5407   0.5450   0.5525   0.5551   0.5592   0.5612
  0.5749   0.5819   0.5905   0.5981   0.6023   0.6112   0.6189   0.6226
  0.6276   0.6358   0.6424   0.6495   0.6528   0.6600   0.6668   0.6758
  0.6857   0.6899   0.6966   0.7009   0.7128   0.7197   0.7215   0.7313
  0.7351   0.7414   0.7455   0.7602   0.7723   0.7885   0.7955   0.7978
  0.8022   0.8131   0.8218   0.8275   0.8313   0.8457   0.8468   0.8640
  0.8718   0.8762   0.8822   0.8865   0.9013   0.9072   0.9197   0.9287
  0.9393   0.9467   0.9619   0.9824   0.9874   0.9963   1.0089   1.0248
  1.0324   1.0481   1.0572   1.0697   1.0784   1.0822   1.0900   1.0989
  1.1133   1.1138   1.1310   1.1403   1.1455   1.1562   1.1695   1.2018
  1.2058   1.2247   1.2388   1.2602   1.2713   1.2876   1.2896   1.3045
  1.3294   1.3387   1.3541   1.3724   1.3773   1.3987   1.4186   1.4554
  1.4633   1.4678   1.4953   1.5147   1.5398   1.5772   1.6008   1.6071
  1.6415   1.6901   1.7133   1.7340   1.7588   1.7734   1.7978   1.8250
  1.8520   1.8649   1.8742   1.8753   1.8901   1.9004   1.9144   1.9155
  1.9396   1.9518   1.9585   1.9637   1.9721   1.9869   1.9973   2.0082
  2.0189   2.0482   2.0599   2.0811   2.1015   2.1248   2.1405   2.1580
  2.1651   2.1760   2.2071   2.2080   2.2141   2.2403   2.2492   2.2748
  2.3175   2.3290   2.3536   2.3743   2.3891   2.3990   2.4143   2.4337
  2.4523   2.4754   2.4929   2.5022   2.5182   2.5324   2.5500   2.5590
  2.5767   2.6035   2.6111   2.6212   2.6478   2.6601   2.6728   2.6829
  2.7060   2.7195   2.7496   2.7844   2.8100   2.8255   2.8361   2.8528
  2.8614   2.8718   2.9187   2.9272   2.9352   2.9438   2.9508   2.9689
  3.0083   3.0641   3.0878   3.0971   3.1476   3.1498   3.1581   3.1816
  3.2082   3.2208   3.2280   3.2427   3.2615   3.2798   3.2892   3.2964
  3.3115   3.3272   3.3492   3.3532   3.3633   3.3722   3.3862   3.3986
  3.4118   3.4193   3.4456   3.4525   3.4601   3.4681   3.5188   3.5316
  3.5610   3.5784   3.6119   3.6217   3.6394   3.6467   3.6584   3.6854
  3.7107   3.7238   3.7290   3.7458   3.7540   3.8270   3.8403   3.8680
  3.9608   3.9782   3.9989   4.0488   4.0732   4.0940   4.1088   4.1701
  4.1974   4.2088   4.2760   4.3263   4.3467   4.3845   4.4151   4.4741
  4.4979   4.5721   4.6059   4.6160   4.6313   4.6630   4.6863   4.7965
  4.8357   4.8711   4.8766   4.9389   4.9556   4.9933   5.0276   5.0522
  5.0688   5.1454   5.1589   5.1609   5.1807   5.2094   5.2361   5.2956
  5.3059   5.3201   5.3380   5.3442   5.3802   5.3989   5.4348   5.4634
  5.4721   5.4817   5.5347   5.5486   5.6181   5.6719   5.7016   5.7363
  5.7476   5.7837   5.8119   5.8437   5.9248   6.0090   6.1678   6.2006
  6.2190   6.3218   6.3496   6.4004   6.4912   6.5975   6.6295   6.7214
  6.7370   6.7553   6.9309   7.0073   7.0388   7.2278   7.3275   7.3790
  7.4284  22.5937  22.6866  23.6954  23.7216  32.4061  32.5257  32.8637
 44.2993  44.3887
 --------------------------------------------------------------
 
          Ground-State Mulliken Net Atomic Charges

     Atom                 Charge (a.u.)
  ----------------------------------------
      1 C                    -0.575083
      2 C                     0.503712
      3 O                    -0.812731
      4 O                    -0.769883
      5 H                     0.169853
      6 H                     0.205337
      7 H                     0.227837
      8 C                    -0.818165
      9 C                     0.438687
     10 N                    -0.160009
     11 N                    -0.123151
     12 N                    -0.291248
     13 H                     0.220510
     14 H                     0.156745
     15 H                     0.303037
     16 H                     0.248541
     17 H                     0.232198
     18 H                     0.290852
     19 H                     0.292655
     20 H                     0.260308
  ----------------------------------------
  Sum of atomic charges =     0.000000

 -----------------------------------------------------------------
                    Cartesian Multipole Moments
 -----------------------------------------------------------------
    Charge (ESU x 10^10)
                 0.0000
    Dipole Moment (Debye)
         X     -17.9532      Y      10.0249      Z      -9.0921
       Tot      22.4829
    Quadrupole Moments (Debye-Ang)
        XX     -73.0387     XY      11.3077     YY     -57.6888
        XZ       2.2910     YZ       9.2192     ZZ     -40.0856
    Octopole Moments (Debye-Ang^2)
       XXX    -143.2719    XXY      93.9120    XYY     -63.9424
       YYY      35.8246    XXZ     -79.4320    XYZ      39.3681
       YYZ     -33.9405    XZZ     -61.9029    YZZ      11.3798
       ZZZ     -73.5143
    Hexadecapole Moments (Debye-Ang^3)
      XXXX   -1746.3062   XXXY     470.9806   XXYY    -406.3428
      XYYY     362.8272   YYYY    -570.9361   XXXZ    -517.5453
      XXYZ      97.7976   XYYZ    -175.7173   YYYZ     134.5706
      XXZZ    -371.7664   XYZZ     142.9541   YYZZ    -245.9025
      XZZZ    -347.3801   YZZZ     140.5226   ZZZZ    -705.8725
 -----------------------------------------------------------------
Archival summary:
1\1\nid00536\SP\ProcedureUnspecified\BasisUnspecified\23411\meili\SunSep2610:43:532021SunSep2610:43:532021\0\\#,ProcedureUnspecified,BasisUnspecified,\\0,1\O\C,1,1.25297\O,2,1.25078,1,122.331\C,2,1.52929,1,118.237,3,179.49,0\H,4,1.09272,2,108.416,1,-81.4091,0\H,4,1.09319,2,110.35,1,36.2337,0\H,4,1.1,2,113.052,1,158.706,0\H,1,1.77257,2,130.457,3,145.133,0\N,8,1.02238,1,157.169,2,69.025,0\H,9,1.00078,8,118.065,1,-33.0564,0\C,9,1.32069,8,119.552,1,128.39,0\N,11,1.31716,9,119.327,8,15.2655,0\H,12,1.00714,11,119.857,9,-3.42668,0\H,12,1.00893,11,119.361,9,-176.657,0\N,11,1.32805,9,120.861,8,-164.66,0\H,15,1.02206,11,117.133,9,172.624,0\C,15,1.46988,11,125.163,9,0.50366,0\H,17,1.08717,15,108.892,11,160.682,0\H,17,1.09198,15,109.731,11,45.8786,0\H,17,1.1,15,112.937,11,-75.6231,0\\\@

 Total job time:  27683.29s(wall), 18561.12s(cpu) 
 Sun Sep 26 10:43:56 2021

        *************************************************************
        *                                                           *
        *  Thank you very much for using Q-Chem.  Have a nice day.  *
        *                                                           *
        *************************************************************


