
Running Job 1 of 1 SSI-037ASN-067GLU-1_PCM_TZVPD.in
qchem SSI-037ASN-067GLU-1_PCM_TZVPD.in_50630.0 /tmp/qchem50630/ 0
/global/common/cori/software/qchem/5.2/exe/qcprog.exe_s SSI-037ASN-067GLU-1_PCM_TZVPD.in_50630.0 /tmp/qchem50630/
                  Welcome to Q-Chem
     A Quantum Leap Into The Future Of Chemistry


 Q-Chem 5.2, Q-Chem, Inc., Pleasanton, CA (2019)

 License issued to: National Energy Research Scientific Computing Center

 Yihan Shao,  Zhengting Gan,  E. Epifanovsky,  A. T. B. Gilbert,  M. Wormit,  
 J. Kussmann,  A. W. Lange,  A. Behn,  Jia Deng,  Xintian Feng,  D. Ghosh,  
 M. Goldey,  P. R. Horn,  L. D. Jacobson,  I. Kaliman,  T. Kus,  A. Landau,  
 Jie Liu,  E. I. Proynov,  R. M. Richard,  R. P. Steele,  E. J. Sundstrom,  
 H. L. Woodcock III,  P. M. Zimmerman,  D. Zuev,  B. Albrecht,  E. Alguire,  
 S. A. Baeppler,  D. Barton,  Z. Benda,  Y. A. Bernard,  E. J. Berquist,  
 K. B. Bravaya,  H. Burton,  D. Casanova,  Chun-Min Chang,  Yunqing Chen,  
 A. Chien,  K. D. Closser,  M. P. Coons,  S. Coriani,  S. Dasgupta,  
 A. L. Dempwolff,  M. Diedenhofen,  Hainam Do,  R. G. Edgar,  Po-Tung Fang,  
 S. Faraji,  S. Fatehi,  Qingguo Feng,  K. D. Fenk,  J. Fosso-Tande,  
 J. Gayvert,  Qinghui Ge,  A. Ghysels,  G. Gidofalvi,  J. Gomes,  
 J. Gonthier,  A. Gunina,  D. Hait,  M. W. D. Hanson-Heine,  
 P. H. P. Harbach,  A. W. Hauser,  M. F. Herbst,  J. E. Herr,  
 E. G. Hohenstein,  Z. C. Holden,  Kerwin Hui,  B. C. Huynh,  T.-C. Jagau,  
 Hyunjun Ji,  B. Kaduk,  K. Khistyaev,  Jaehoon Kim,  P. Klunzinger,  K. Koh,  
 D. Kosenkov,  L. Koulias,  T. Kowalczyk,  C. M. Krauter,  A. Kunitsa,  
 Ka Un Lao,  A. Laurent,  K. V. Lawler,  Joonho Lee,  D. Lefrancois,  
 S. Lehtola,  D. S. Levine,  Yi-Pei Li,  You-Sheng Lin,  Fenglai Liu,  
 E. Livshits,  A. Luenser,  P. Manohar,  E. Mansoor,  S. F. Manzer,  
 Shan-Ping Mao,  Yuezhi Mao,  N. Mardirossian,  A. V. Marenich,  
 T. Markovich,  L. A. Martinez-Martinez,  S. A. Maurer,  N. J. Mayhall,  
 S. C. McKenzie,  J.-M. Mewes,  P. Morgante,  A. F. Morrison,  
 J. W. Mullinax,  K. Nanda,  T. S. Nguyen-Beck,  R. Olivares-Amaya,  
 J. A. Parkhill,  Zheng Pei,  T. M. Perrine,  F. Plasser,  P. Pokhilko,  
 S. Prager,  A. Prociuk,  E. Ramos,  D. R. Rehn,  F. Rob,  M. Scheurer,  
 M. Schneider,  N. Sergueev,  S. M. Sharada,  S. Sharma,  D. W. Small,  
 T. Stauch,  T. Stein,  Yu-Chuan Su,  A. J. W. Thom,  A. Tkatchenko,  
 T. Tsuchimochi,  N. M. Tubman,  L. Vogt,  M. L. Vidal,  O. Vydrov,  
 M. A. Watson,  J. Wenzel,  M. de Wergifosse,  T. A. Wesolowski,  A. White,  
 J. Witte,  A. Yamada,  Jun Yang,  K. Yao,  S. Yeganeh,  S. R. Yost,  
 Zhi-Qiang You,  A. Zech,  Igor Ying Zhang,  Xing Zhang,  Yan Zhao,  
 Ying Zhu,  B. R. Brooks,  G. K. L. Chan,  C. J. Cramer,  M. S. Gordon,  
 W. J. Hehre,  A. Klamt,  M. W. Schmidt,  C. D. Sherrill,  D. G. Truhlar,  
 A. Aspuru-Guzik,  R. Baer,  A. T. Bell,  N. A. Besley,  Jeng-Da Chai,  
 A. E. DePrince, III,  R. A. DiStasio Jr.,  A. Dreuw,  B. D. Dunietz,  
 T. R. Furlani,  Chao-Ping Hsu,  Yousung Jung,  Jing Kong,  D. S. Lambrecht,  
 WanZhen Liang,  C. Ochsenfeld,  V. A. Rassolov,  L. V. Slipchenko,  
 J. E. Subotnik,  T. Van Voorhis,  J. M. Herbert,  A. I. Krylov,  
 P. M. W. Gill,  M. Head-Gordon

 Contributors to earlier versions of Q-Chem not listed above: 
 R. D. Adamson,  B. Austin,  J. Baker,  G. J. O. Beran,  K. Brandhorst,  
 S. T. Brown,  E. F. C. Byrd,  A. K. Chakraborty,  C.-L. Cheng,  
 Siu Hung Chien,  D. M. Chipman,  D. L. Crittenden,  H. Dachsel,  
 R. J. Doerksen,  A. D. Dutoi,  L. Fusti-Molnar,  W. A. Goddard III,  
 A. Golubeva-Zadorozhnaya,  S. R. Gwaltney,  G. Hawkins,  A. Heyden,  
 S. Hirata,  G. Kedziora,  F. J. Keil,  C. Kelley,  Jihan Kim,  R. A. King,  
 R. Z. Khaliullin,  P. P. Korambath,  W. Kurlancheek,  A. M. Lee,  M. S. Lee,  
 S. V. Levchenko,  Ching Yeh Lin,  D. Liotard,  R. C. Lochan,  I. Lotan,  
 P. E. Maslen,  N. Nair,  D. P. O'Neill,  D. Neuhauser,  E. Neuscamman,  
 C. M. Oana,  R. Olson,  B. Peters,  R. Peverati,  P. A. Pieniazek,  
 Y. M. Rhee,  J. Ritchie,  M. A. Rohrdanz,  E. Rosta,  N. J. Russ,  
 H. F. Schaefer III,  N. E. Schultz,  N. Shenvi,  A. C. Simmonett,  A. Sodt,  
 D. Stuck,  K. S. Thanthiriwatte,  V. Vanovschi,  Tao Wang,  A. Warshel,  
 C. F. Williams,  Q. Wu,  X. Xu,  W. Zhang

 Please cite Q-Chem as follows:
 Y. Shao et al., Mol. Phys. 113, 184-215 (2015)
 DOI: 10.1080/00268976.2014.952696

 Q-Chem 5.2.0 for Intel X86 EM64T Linux

 Parts of Q-Chem use Armadillo 8.300.2 (Tropical Shenanigans).
 http://arma.sourceforge.net/

 Q-Chem begins on Sun Sep 26 05:52:07 2021  

Host: cori01
0

     Scratch files written to /tmp/qchem50630//
 May1019 |scratch|qcdevops|jenkins|workspace|build_RNUM -1
Processing $rem in /global/common/cori/software/qchem/5.2/config/preferences:
	 MEM_TOTAL  96000 
NAlpha2: 64
NElect   64
Mult     1
Symmetry turned off for PCM/SM12/SMD calculation

 Q-Chem warning in module libgen/rem_setup.C, line 2803:

 Neither GIA nor STOLL is specified by user. Use STOLL as the default


Checking the input file for inconsistencies... 	...done.

--------------------------------------------------------------
User input:
--------------------------------------------------------------
$comment
SSI-037ASN-067GLU-1.pdb
$end

$molecule
-1 1
--
0 1
C    1.451543587070    1.516861201005    0.817532502796
C    0.278543587070    1.253861201005    1.712532502796
O   -0.760456412930    1.883861201005    1.565532502796
N    0.416543587070    0.299861201005    2.640532502796
H    1.471543587070    0.761861201005    0.034532502796
H    2.368543587070    1.405861201005    1.396532502796
H   -0.366456412930    0.095861201005    3.240532502796
H    1.271543587070   -0.231138798995    2.701532502796
H    1.443633587070    2.521081201005    0.368652502796
--
-1 1
C   -1.080456412930   -2.281138798995   -2.377467497204
C   -0.302456412930   -1.161138798995   -1.670467497204
O   -0.591456412930   -0.933138798995   -0.474467497204
O    0.584543587070   -0.510138798995   -2.273467497204
H   -2.141456412930   -2.125138798995   -2.181467497204
H   -0.812456412930   -3.245138798995   -1.939467497204
H   -0.977536412930   -2.345913798995   -3.470727497204
$end

$rem
JOBTYPE			EDA
EDA2			1
method			wB97X-V
BASIS			def2-TZVPD
XC_GRID			000099000590
NL_GRID			1
UNRESTRICTED		FALSE
MAX_SCF_CYCLES		200
SYMMETRY		FALSE
SYM_IGNORE		TRUE
MEM_STATIC		2000
BASIS_LIN_DEP_THRESH 	6
THRESH 			14
SCF_CONVERGENCE 	8
SCF_PRINT_FRGM 		TRUE
SOLVENT_METHOD          PCM
$end

$PCM
THEORY                  CPCM
METHOD                  SWIG
SOLVER                  INVERSION
RADII                   UFF
HPOINTS                 302
HEAVYPOINTS             302
PRINTLEVEL              0
$END

$SOLVENT
DIELECTRIC              78.390000 ! water
$END
--------------------------------------------------------------
 ----------------------------------------------------------------
             Standard Nuclear Orientation (Angstroms)
    I     Atom           X                Y                Z
 ----------------------------------------------------------------
    1      C       1.4515435871     1.5168612010     0.8175325028
    2      C       0.2785435871     1.2538612010     1.7125325028
    3      O      -0.7604564129     1.8838612010     1.5655325028
    4      N       0.4165435871     0.2998612010     2.6405325028
    5      H       1.4715435871     0.7618612010     0.0345325028
    6      H       2.3685435871     1.4058612010     1.3965325028
    7      H      -0.3664564129     0.0958612010     3.2405325028
    8      H       1.2715435871    -0.2311387990     2.7015325028
    9      H       1.4436335871     2.5210812010     0.3686525028
   10      C      -1.0804564129    -2.2811387990    -2.3774674972
   11      C      -0.3024564129    -1.1611387990    -1.6704674972
   12      O      -0.5914564129    -0.9331387990    -0.4744674972
   13      O       0.5845435871    -0.5101387990    -2.2734674972
   14      H      -2.1414564129    -2.1251387990    -2.1814674972
   15      H      -0.8124564129    -3.2451387990    -1.9394674972
   16      H      -0.9775364129    -2.3459137990    -3.4707274972
 ----------------------------------------------------------------
 Nuclear Repulsion Energy =         354.25355487 hartrees
 There are       32 alpha and       32 beta electrons
 Requested basis set is def2-TZVPD
 There are 147 shells and 377 basis functions

 Total QAlloc Memory Limit  96000 MB
 Mega-Array Size      1956 MB
 MEM_STATIC part      2000 MB
 Discretize the solute cavity surface with Lebedev spheres
	Using 302 Lebedev grid points for each H atom
	Using 302 Lebedev grid points for other atoms
	Atomic van der Waals radii will be scaled by 1.20
 Remove points where switching function is < 1.0e-08
 Keep 2030 surface tesserae and discard 2802 interior tesserae
 Molecular Surface Area = 219.827 Angst**2
 A cutoff of  1.0D-14 yielded   9744 shell pairs
 There are     64690 function pairs (     81876 Cartesian)
 Smallest overlap matrix eigenvalue = 6.58E-06

 Scale SEOQF with 1.000000e-01/1.000000e-01/1.000000e-01

 Standard Electronic Orientation quadrupole field applied
 Nucleus-field energy     =    -0.0000000130 hartrees

 -----------------------------------------------------------------------
  General SCF calculation program by
  Eric Jon Sundstrom, Paul Horn, Yuezhi Mao, Dmitri Zuev, Alec White,
  David Stuck, Shaama M.S., Shane Yost, Joonho Lee, David Small,
  Daniel Levine, Susi Lehtola, Hugh Burton, Evgeny Epifanovsky
 -----------------------------------------------------------------------
================================================================
                 ALMO-EDA with the EDA2 driver                  
================================================================
 The second-generation ALMO-EDA (for DFT):                      
 P. R. Horn, Y. Mao and M. Head-Gordon, PCCP, 18, 23067 (2016)  
 Decomposition of the frozen energy:                            
 P. R. Horn, Y. Mao and M. Head-Gordon, JCP, 144, 114107 (2016) 
 FERF model for polarization:                                   
 P. R. Horn and M. Head-Gordon, JCP, 143, 114111 (2015)         
Using eda2 option set 1
Option set summary: Frozen orbital wavefunction, initial wavefunction decomposition, and nDQ polarization.
--------------------------------
Printing EDA Options
--------------------------------
eda_child_super_basis      0
fragmo_guess_mode          0
child_mp                   1
child_mp_orders            232
cls_elec                   1
cls_disp                   0
scfmi_mode                 1
scfmi_occs                 0
scfmi_virts                0
frz_relax                  0
frz_relax_method           0
dc_pen_start               0
dc_pen_conv                0
dc_pen_increment           0
dc_pen_steps               0
dc_pen_thresh_factor       0
dc_pen_pre_newton_thresh   0
frz_ortho_decomp           1
frz_ortho_decomp_conv      6
frgm_method                2
scfmi_freeze_ss            0
separate_rehyb             0
plot_diff_den              0
eda_nocv                   0
eda_vct_relax              1
disp_free_x                0
disp_free_c                0
eda_bsse                   0
eda_pct_a                  0
eda_covp                   0
--------------------------------
Attempting to make child job directory: /tmp/qchem50630//Frg1/
Attempting to make child job directory: /tmp/qchem50630//Frg2/
Creating input file /tmp/qchem50630/Frg1.input
using default PutDataFrgm: nothing
calling putenv with: QCSCRATCH=/tmp/qchem50630/ 
calling putenv with: QCLOCALSCR=/tmp/qchem50630/ 
Spawning Job For Fragment 0
                  Welcome to Q-Chem
     A Quantum Leap Into The Future Of Chemistry


 Q-Chem 5.2, Q-Chem, Inc., Pleasanton, CA (2019)

 License issued to: National Energy Research Scientific Computing Center

 Yihan Shao,  Zhengting Gan,  E. Epifanovsky,  A. T. B. Gilbert,  M. Wormit,  
 J. Kussmann,  A. W. Lange,  A. Behn,  Jia Deng,  Xintian Feng,  D. Ghosh,  
 M. Goldey,  P. R. Horn,  L. D. Jacobson,  I. Kaliman,  T. Kus,  A. Landau,  
 Jie Liu,  E. I. Proynov,  R. M. Richard,  R. P. Steele,  E. J. Sundstrom,  
 H. L. Woodcock III,  P. M. Zimmerman,  D. Zuev,  B. Albrecht,  E. Alguire,  
 S. A. Baeppler,  D. Barton,  Z. Benda,  Y. A. Bernard,  E. J. Berquist,  
 K. B. Bravaya,  H. Burton,  D. Casanova,  Chun-Min Chang,  Yunqing Chen,  
 A. Chien,  K. D. Closser,  M. P. Coons,  S. Coriani,  S. Dasgupta,  
 A. L. Dempwolff,  M. Diedenhofen,  Hainam Do,  R. G. Edgar,  Po-Tung Fang,  
 S. Faraji,  S. Fatehi,  Qingguo Feng,  K. D. Fenk,  J. Fosso-Tande,  
 J. Gayvert,  Qinghui Ge,  A. Ghysels,  G. Gidofalvi,  J. Gomes,  
 J. Gonthier,  A. Gunina,  D. Hait,  M. W. D. Hanson-Heine,  
 P. H. P. Harbach,  A. W. Hauser,  M. F. Herbst,  J. E. Herr,  
 E. G. Hohenstein,  Z. C. Holden,  Kerwin Hui,  B. C. Huynh,  T.-C. Jagau,  
 Hyunjun Ji,  B. Kaduk,  K. Khistyaev,  Jaehoon Kim,  P. Klunzinger,  K. Koh,  
 D. Kosenkov,  L. Koulias,  T. Kowalczyk,  C. M. Krauter,  A. Kunitsa,  
 Ka Un Lao,  A. Laurent,  K. V. Lawler,  Joonho Lee,  D. Lefrancois,  
 S. Lehtola,  D. S. Levine,  Yi-Pei Li,  You-Sheng Lin,  Fenglai Liu,  
 E. Livshits,  A. Luenser,  P. Manohar,  E. Mansoor,  S. F. Manzer,  
 Shan-Ping Mao,  Yuezhi Mao,  N. Mardirossian,  A. V. Marenich,  
 T. Markovich,  L. A. Martinez-Martinez,  S. A. Maurer,  N. J. Mayhall,  
 S. C. McKenzie,  J.-M. Mewes,  P. Morgante,  A. F. Morrison,  
 J. W. Mullinax,  K. Nanda,  T. S. Nguyen-Beck,  R. Olivares-Amaya,  
 J. A. Parkhill,  Zheng Pei,  T. M. Perrine,  F. Plasser,  P. Pokhilko,  
 S. Prager,  A. Prociuk,  E. Ramos,  D. R. Rehn,  F. Rob,  M. Scheurer,  
 M. Schneider,  N. Sergueev,  S. M. Sharada,  S. Sharma,  D. W. Small,  
 T. Stauch,  T. Stein,  Yu-Chuan Su,  A. J. W. Thom,  A. Tkatchenko,  
 T. Tsuchimochi,  N. M. Tubman,  L. Vogt,  M. L. Vidal,  O. Vydrov,  
 M. A. Watson,  J. Wenzel,  M. de Wergifosse,  T. A. Wesolowski,  A. White,  
 J. Witte,  A. Yamada,  Jun Yang,  K. Yao,  S. Yeganeh,  S. R. Yost,  
 Zhi-Qiang You,  A. Zech,  Igor Ying Zhang,  Xing Zhang,  Yan Zhao,  
 Ying Zhu,  B. R. Brooks,  G. K. L. Chan,  C. J. Cramer,  M. S. Gordon,  
 W. J. Hehre,  A. Klamt,  M. W. Schmidt,  C. D. Sherrill,  D. G. Truhlar,  
 A. Aspuru-Guzik,  R. Baer,  A. T. Bell,  N. A. Besley,  Jeng-Da Chai,  
 A. E. DePrince, III,  R. A. DiStasio Jr.,  A. Dreuw,  B. D. Dunietz,  
 T. R. Furlani,  Chao-Ping Hsu,  Yousung Jung,  Jing Kong,  D. S. Lambrecht,  
 WanZhen Liang,  C. Ochsenfeld,  V. A. Rassolov,  L. V. Slipchenko,  
 J. E. Subotnik,  T. Van Voorhis,  J. M. Herbert,  A. I. Krylov,  
 P. M. W. Gill,  M. Head-Gordon

 Contributors to earlier versions of Q-Chem not listed above: 
 R. D. Adamson,  B. Austin,  J. Baker,  G. J. O. Beran,  K. Brandhorst,  
 S. T. Brown,  E. F. C. Byrd,  A. K. Chakraborty,  C.-L. Cheng,  
 Siu Hung Chien,  D. M. Chipman,  D. L. Crittenden,  H. Dachsel,  
 R. J. Doerksen,  A. D. Dutoi,  L. Fusti-Molnar,  W. A. Goddard III,  
 A. Golubeva-Zadorozhnaya,  S. R. Gwaltney,  G. Hawkins,  A. Heyden,  
 S. Hirata,  G. Kedziora,  F. J. Keil,  C. Kelley,  Jihan Kim,  R. A. King,  
 R. Z. Khaliullin,  P. P. Korambath,  W. Kurlancheek,  A. M. Lee,  M. S. Lee,  
 S. V. Levchenko,  Ching Yeh Lin,  D. Liotard,  R. C. Lochan,  I. Lotan,  
 P. E. Maslen,  N. Nair,  D. P. O'Neill,  D. Neuhauser,  E. Neuscamman,  
 C. M. Oana,  R. Olson,  B. Peters,  R. Peverati,  P. A. Pieniazek,  
 Y. M. Rhee,  J. Ritchie,  M. A. Rohrdanz,  E. Rosta,  N. J. Russ,  
 H. F. Schaefer III,  N. E. Schultz,  N. Shenvi,  A. C. Simmonett,  A. Sodt,  
 D. Stuck,  K. S. Thanthiriwatte,  V. Vanovschi,  Tao Wang,  A. Warshel,  
 C. F. Williams,  Q. Wu,  X. Xu,  W. Zhang

 Please cite Q-Chem as follows:
 Y. Shao et al., Mol. Phys. 113, 184-215 (2015)
 DOI: 10.1080/00268976.2014.952696

 Q-Chem 5.2.0 for Intel X86 EM64T Linux

 Parts of Q-Chem use Armadillo 8.300.2 (Tropical Shenanigans).
 http://arma.sourceforge.net/

 Q-Chem begins on Sun Sep 26 05:52:10 2021  

Host: cori01
0

     Scratch files written to /tmp/qchem50630//Frg1//
 May1019 |scratch|qcdevops|jenkins|workspace|build_RNUM -1
Processing $rem in /global/common/cori/software/qchem/5.2/config/preferences:
	 MEM_TOTAL  96000 
NAlpha2: 32
NElect   32
Mult     1
Symmetry turned off for PCM/SM12/SMD calculation

Checking the input file for inconsistencies... 	...done.

--------------------------------------------------------------
User input:
--------------------------------------------------------------
$molecule
0 1
 6	1.4515435871	1.5168612010	0.8175325028
 6	0.2785435871	1.2538612010	1.7125325028
 8	-0.7604564129	1.8838612010	1.5655325028
 7	0.4165435871	0.2998612010	2.6405325028
 1	1.4715435871	0.7618612010	0.0345325028
 1	2.3685435871	1.4058612010	1.3965325028
 1	-0.3664564129	0.0958612010	3.2405325028
 1	1.2715435871	-0.2311387990	2.7015325028
 1	1.4436335871	2.5210812010	0.3686525028
$end
$rem
EDA2		1
METHOD		WB97X-V
BASIS		DEF2-TZVPD
XC_GRID		000099000590
NL_GRID		1
UNRESTRICTED		FALSE
MAX_SCF_CYCLES		200
SYMMETRY		FALSE
SYM_IGNORE		TRUE
BASIS_LIN_DEP_THRESH		6
THRESH		14
SCF_CONVERGENCE		8
SCF_PRINT_FRGM		TRUE
SOLVENT_METHOD		PCM
!required keywords
JOBTYPE		SP
SYM_IGNORE		TRUE
SUBSYSTEM		TRUE
GEN_SCFMAN		TRUE
CHILD_INSTRUCTION		2
SYM_IGNORE		TRUE
SCFMI		0
RI_K 0		
PARI_K 0		
MIN_PARI_K 0		
IARI_K 0		
OCC_RI_K 0		
PURECART		1111
MEM_STATIC		2000
MEM_TOTAL		96000
GUI		0
CHILD_MP		1
CHILD_MP_ORDERS		232
FRZ_RELAX		0
FRZ_RELAX_METHOD		0
EDA_CLS_ELEC		1
EDA_CLS_DISP		0
FRZ_ORTHO_DECOMP		1
EDA2		FALSE
FRGM_METHOD		FALSE
CIS_N_ROOTS  0
LOCAL_CIS    0
CIS_RLX_DNS  1
$end
$pcm
THEORY                  CPCM
METHOD                  SWIG
SOLVER                  INVERSION
RADII                   UFF
HPOINTS                 302
HEAVYPOINTS             302
PRINTLEVEL              0
$end
$solvent
DIELECTRIC              78.390000 ! water
$end
--------------------------------------------------------------
 ----------------------------------------------------------------
             Standard Nuclear Orientation (Angstroms)
    I     Atom           X                Y                Z
 ----------------------------------------------------------------
    1      C       1.4515435871     1.5168612010     0.8175325028
    2      C       0.2785435871     1.2538612010     1.7125325028
    3      O      -0.7604564129     1.8838612010     1.5655325028
    4      N       0.4165435871     0.2998612010     2.6405325028
    5      H       1.4715435871     0.7618612010     0.0345325028
    6      H       2.3685435871     1.4058612010     1.3965325028
    7      H      -0.3664564129     0.0958612010     3.2405325028
    8      H       1.2715435871    -0.2311387990     2.7015325028
    9      H       1.4436335871     2.5210812010     0.3686525028
 ----------------------------------------------------------------
 Nuclear Repulsion Energy =         122.49413064 hartrees
 There are       16 alpha and       16 beta electrons
 Requested basis set is def2-TZVPD
 There are 78 shells and 196 basis functions

 Total QAlloc Memory Limit  96000 MB
 Mega-Array Size      1956 MB
 MEM_STATIC part      2000 MB
 Discretize the solute cavity surface with Lebedev spheres
	Using 302 Lebedev grid points for each H atom
	Using 302 Lebedev grid points for other atoms
	Atomic van der Waals radii will be scaled by 1.20
 Remove points where switching function is < 1.0e-08
 Keep 1202 surface tesserae and discard 1516 interior tesserae
 Molecular Surface Area = 128.263 Angst**2

                       Distance Matrix (Angstroms)
             C (  1)   C (  2)   O (  3)   N (  4)   H (  5)   H (  6)
   C (  2)  1.498707
   O (  3)  2.363713  1.223940
   N (  4)  2.423973  1.338037  2.247223
   H (  5)  1.087894  2.116837  2.929961  2.849159
   H (  6)  1.090161  2.119212  3.169809  2.565361  1.753394
   H (  7)  3.345937  2.022813  2.481492  1.007326  3.755028  3.549178
   H (  8)  2.576307  2.041910  3.145273  1.008319  2.852882  2.363515
   H (  9)  1.100006  2.183871  2.587776  3.339187  1.790885  1.776432
             H (  7)   H (  8)
   H (  8)  1.755134
   H (  9)  4.172027  3.612016
 
 A cutoff of  1.0D-14 yielded   3054 shell pairs
 There are     19544 function pairs (     24702 Cartesian)
 Smallest overlap matrix eigenvalue = 1.05E-05

 Scale SEOQF with 1.000000e-01/1.000000e-01/1.000000e-01

 Standard Electronic Orientation quadrupole field applied
 Nucleus-field energy     =    -0.0000000063 hartrees
 Guess from superposition of atomic densities
 Warning:  Energy on first SCF cycle will be non-variational
 SAD guess density has 31.604610 electrons

 -----------------------------------------------------------------------
  General SCF calculation program by
  Eric Jon Sundstrom, Paul Horn, Yuezhi Mao, Dmitri Zuev, Alec White,
  David Stuck, Shaama M.S., Shane Yost, Joonho Lee, David Small,
  Daniel Levine, Susi Lehtola, Hugh Burton, Evgeny Epifanovsky
 -----------------------------------------------------------------------
 Exchange:     0.1670 Hartree-Fock + 1.0000 wB97X-V + LR-HF
 Correlation:  1.0000 wB97X-V
 Using Euler-Maclaurin-Lebedev (99,590) quadrature formula
 Nonlocal Correlation:  VV10 with C = 0.0100 and b = 6.00 and scale = 1.00000
 Grid used for NLC:  SG-1 standard quadrature
Energy prior to optimization (guess energy) = -208.704702673927
Begin Timing: Total SCF Calculation
begin iterations for algorithm: DIIS         
the SCF tolerance is set to 1.00e-08
    1    -208.7047026739      1.26e-02     00000 
    2    -208.3330267861      1.54e-02     00000 
    3    -209.2239160069      2.45e-03     00000 
    4    -209.2431209441      8.22e-04     00000 
    5    -209.2457922733      1.24e-04     00000 
    6    -209.2458888050      4.90e-05     00000 
    7    -209.2459056992      1.10e-05     00000 
    8    -209.2459068076      2.03e-06     00000 
    9    -209.2459068908      7.53e-07     00000 
   10    -209.2459068959      3.08e-07     00000 
   11    -209.2459068968      6.75e-08     00000 
   12    -209.2459068969      1.58e-08     00000 
   13    -209.2459068969      4.17e-09     00000 Convergence criterion met
Timing for Total SCF: 360.00s (wall), 714.06s (cpu)

************** Final PCM Free Energy Summary **************
 G_electrostatic  =      -0.01184115 hartree =      -7.43043555 kcal/mol
 G_cavitation     =       0.00000000 hartree =       0.00000000 kcal/mol
 G_dispersion     =       0.00000000 hartree =       0.00000000 kcal/mol
 G_repulsion      =       0.00000000 hartree =       0.00000000 kcal/mol
 --------------------------------------------------
 Non-electrostatic Free Energy =       0.00000000 hartree =       0.00000000 kcal/mol
 Total                         =      -0.01184115 hartree =      -7.43043555 kcal/mol
 --------------------------------------------------
 SCF Energy (H0 + V/2)                       =    -209.24590690 
 Solute Internal Energy (H0)                 =    -209.23406574 
 Total Free Energy (H0 + V/2 + non-elec)     =    -209.24590690 hartree
                                             = -131303.78834578 kcal/mol
***********************************************************

E_pcm = -0.0118411528
Multipole orders to be included
        2
        3
computing dipole RHS
computing quadrupole RHS
total number of RHS in solve_reponses: 8
RHS batch sizes
        8
Beginning Block Conjugate Gradient Iterations. Batch Number: 0
computing hessian-vector products by finite difference
              1      5.79e-01     00000 Conjugate Gradient Iteration
computing hessian-vector products by finite difference
              2      1.94e-01     00000 Conjugate Gradient Iteration
computing hessian-vector products by finite difference
              3      4.71e-02     00000 Conjugate Gradient Iteration
computing hessian-vector products by finite difference
              4      1.15e-02     00000 Conjugate Gradient Iteration
computing hessian-vector products by finite difference
              5      1.86e-03     00000 Conjugate Gradient Iteration
computing hessian-vector products by finite difference
              6      3.77e-04     00000 Conjugate Gradient Iteration
computing hessian-vector products by finite difference
              7      5.96e-05     00000 Conjugate Gradient Iteration
computing hessian-vector products by finite difference
              8      7.44e-06     00000 Conjugate Gradient Iteration
computing hessian-vector products by finite difference
              9      1.20e-06     00000 Conjugate Gradient Iteration
computing hessian-vector products by finite difference
             10      2.93e-07     00000 Conjugate Gradient Iteration
computing hessian-vector products by finite difference
             11      3.92e-08     00000 Conjugate Gradient Iteration
computing hessian-vector products by finite difference
             12      6.97e-09     00000 CG Converged
batch 0 complete
Done Calculating Responses
TESTING ORTHOGONALIZATION OF MULTIPOLE BASIS
Multipole virts passed orthogonality test
Virts Per Order
        48
        80
 
 --------------------------------------------------------------
 
                    Orbital Energies (a.u.)
 --------------------------------------------------------------
 
 Alpha MOs
 -- Occupied --
-19.1787 -14.4333 -10.3770 -10.2709  -1.1735  -1.0448  -0.8737  -0.7123
 -0.6606  -0.5915  -0.5705  -0.5212  -0.5079  -0.4809  -0.3834  -0.3675
 -- Virtual --
  0.0590   0.0910   0.0936   0.0970   0.1260   0.1285   0.1365   0.1405
  0.1685   0.1827   0.1935   0.2106   0.2254   0.2407   0.2449   0.2555
  0.2575   0.2720   0.2959   0.3064   0.3291   0.3331   0.3425   0.3436
  0.3555   0.3639   0.3695   0.3783   0.3900   0.4007   0.4148   0.4201
  0.4296   0.4499   0.4536   0.4779   0.4792   0.4848   0.4886   0.5029
  0.5251   0.5303   0.5311   0.5703   0.5856   0.5954   0.6263   0.6338
  0.6465   0.6590   0.6720   0.6924   0.7004   0.7136   0.7294   0.7673
  0.7718   0.7814   0.7928   0.8046   0.8161   0.8371   0.8476   0.8657
  0.9152   0.9446   0.9805   0.9897   1.0040   1.0375   1.0519   1.0994
  1.1051   1.1830   1.2263   1.2510   1.2804   1.3166   1.3455   1.3806
  1.4758   1.4846   1.5006   1.6159   1.6700   1.7310   1.7340   1.8128
  1.8434   1.8636   1.8913   1.9218   1.9283   1.9502   1.9931   2.0189
  2.0541   2.0838   2.1459   2.1804   2.2122   2.2585   2.3067   2.3449
  2.3741   2.4046   2.4437   2.4813   2.5483   2.5642   2.6026   2.6308
  2.6774   2.7192   2.7496   2.8216   2.8278   2.8937   2.9601   2.9911
  3.0379   3.0946   3.1457   3.1767   3.1992   3.2349   3.2653   3.2730
  3.3143   3.3271   3.3469   3.4008   3.4464   3.5388   3.5407   3.5810
  3.6333   3.6461   3.6911   3.7748   3.8719   3.9451   4.0182   4.0655
  4.0932   4.2006   4.3009   4.4084   4.5258   4.5939   4.6164   4.6577
  4.7787   4.8783   4.8891   4.9285   5.1386   5.1711   5.2595   5.3483
  5.3776   5.3934   5.4179   5.4789   5.5222   5.7812   5.9161   6.1494
  6.2706   6.5365   6.6433   6.7477   6.8339   6.9817   7.2350   7.3264
 22.6032  23.5705  32.4055  44.3199
 --------------------------------------------------------------
 
          Ground-State Mulliken Net Atomic Charges

     Atom                 Charge (a.u.)
  ----------------------------------------
      1 C                    -0.628931
      2 C                     0.420699
      3 O                    -0.570605
      4 N                    -0.267820
      5 H                     0.205954
      6 H                     0.237624
      7 H                     0.209715
      8 H                     0.191061
      9 H                     0.202304
  ----------------------------------------
  Sum of atomic charges =     0.000000

 -----------------------------------------------------------------
                    Cartesian Multipole Moments
 -----------------------------------------------------------------
    Charge (ESU x 10^10)
                -0.0000
    Dipole Moment (Debye)
         X       3.8049      Y      -3.1773      Z       1.2338
       Tot       5.1083
    Quadrupole Moments (Debye-Ang)
        XX     -23.4593     XY       5.3525     YY     -31.2193
        XZ       5.2359     YZ      -6.3655     ZZ     -17.7291
    Octopole Moments (Debye-Ang^2)
       XXX     -25.5244    XXY     -33.0805    XYY       1.0940
       YYY    -103.6094    XXZ     -37.0159    XYZ       6.1781
       YYZ     -52.6948    XZZ      -3.9350    YZZ     -43.8539
       ZZZ     -95.5664
    Hexadecapole Moments (Debye-Ang^3)
      XXXX    -162.1515   XXXY     -27.1486   XXYY     -83.6599
      XYYY      -7.8433   YYYY    -336.9645   XXXZ     -17.9301
      XXYZ     -47.7920   XYYZ       4.2075   YYYZ    -147.7946
      XXZZ    -102.0880   XYZZ      -4.7297   YYZZ    -158.4661
      XZZZ     -30.4913   YZZZ    -155.3193   ZZZZ    -422.2931
 -----------------------------------------------------------------
Archival summary:
1\1\nid00546\SP\ProcedureUnspecified\BasisUnspecified\1125\meili\SunSep2607:41:452021SunSep2607:41:452021\0\\#,ProcedureUnspecified,BasisUnspecified,\\0,1\C\O,1,1.22394\N,1,1.33804,2,122.537\H,3,1.00733,1,118.511,2,-0.0954556,0\H,3,1.00832,1,120.324,2,176.847,0\C,1,1.49871,2,120.156,3,178.726,0\H,6,1.08789,1,108.809,2,-98.7434,0\H,6,1.09016,1,108.864,2,144.707,0\H,6,1.10001,1,113.47,2,23.9035,0\\\@

 Total job time:  6574.45s(wall), 12953.77s(cpu) 
 Sun Sep 26 07:41:45 2021

        *************************************************************
        *                                                           *
        *  Thank you very much for using Q-Chem.  Have a nice day.  *
        *                                                           *
        *************************************************************


Done Job For Fragment 0
calling putenv with: QCSCRATCH=/global/cscratch1/sd/meili 
calling putenv with: QCLOCALSCR=/tmp 
calling putenv with: QCTHREADS=32 
Creating input file /tmp/qchem50630/Frg2.input
using default PutDataFrgm: nothing
calling putenv with: QCSCRATCH=/tmp/qchem50630/ 
calling putenv with: QCLOCALSCR=/tmp/qchem50630/ 
Spawning Job For Fragment 1
                  Welcome to Q-Chem
     A Quantum Leap Into The Future Of Chemistry


 Q-Chem 5.2, Q-Chem, Inc., Pleasanton, CA (2019)

 License issued to: National Energy Research Scientific Computing Center

 Yihan Shao,  Zhengting Gan,  E. Epifanovsky,  A. T. B. Gilbert,  M. Wormit,  
 J. Kussmann,  A. W. Lange,  A. Behn,  Jia Deng,  Xintian Feng,  D. Ghosh,  
 M. Goldey,  P. R. Horn,  L. D. Jacobson,  I. Kaliman,  T. Kus,  A. Landau,  
 Jie Liu,  E. I. Proynov,  R. M. Richard,  R. P. Steele,  E. J. Sundstrom,  
 H. L. Woodcock III,  P. M. Zimmerman,  D. Zuev,  B. Albrecht,  E. Alguire,  
 S. A. Baeppler,  D. Barton,  Z. Benda,  Y. A. Bernard,  E. J. Berquist,  
 K. B. Bravaya,  H. Burton,  D. Casanova,  Chun-Min Chang,  Yunqing Chen,  
 A. Chien,  K. D. Closser,  M. P. Coons,  S. Coriani,  S. Dasgupta,  
 A. L. Dempwolff,  M. Diedenhofen,  Hainam Do,  R. G. Edgar,  Po-Tung Fang,  
 S. Faraji,  S. Fatehi,  Qingguo Feng,  K. D. Fenk,  J. Fosso-Tande,  
 J. Gayvert,  Qinghui Ge,  A. Ghysels,  G. Gidofalvi,  J. Gomes,  
 J. Gonthier,  A. Gunina,  D. Hait,  M. W. D. Hanson-Heine,  
 P. H. P. Harbach,  A. W. Hauser,  M. F. Herbst,  J. E. Herr,  
 E. G. Hohenstein,  Z. C. Holden,  Kerwin Hui,  B. C. Huynh,  T.-C. Jagau,  
 Hyunjun Ji,  B. Kaduk,  K. Khistyaev,  Jaehoon Kim,  P. Klunzinger,  K. Koh,  
 D. Kosenkov,  L. Koulias,  T. Kowalczyk,  C. M. Krauter,  A. Kunitsa,  
 Ka Un Lao,  A. Laurent,  K. V. Lawler,  Joonho Lee,  D. Lefrancois,  
 S. Lehtola,  D. S. Levine,  Yi-Pei Li,  You-Sheng Lin,  Fenglai Liu,  
 E. Livshits,  A. Luenser,  P. Manohar,  E. Mansoor,  S. F. Manzer,  
 Shan-Ping Mao,  Yuezhi Mao,  N. Mardirossian,  A. V. Marenich,  
 T. Markovich,  L. A. Martinez-Martinez,  S. A. Maurer,  N. J. Mayhall,  
 S. C. McKenzie,  J.-M. Mewes,  P. Morgante,  A. F. Morrison,  
 J. W. Mullinax,  K. Nanda,  T. S. Nguyen-Beck,  R. Olivares-Amaya,  
 J. A. Parkhill,  Zheng Pei,  T. M. Perrine,  F. Plasser,  P. Pokhilko,  
 S. Prager,  A. Prociuk,  E. Ramos,  D. R. Rehn,  F. Rob,  M. Scheurer,  
 M. Schneider,  N. Sergueev,  S. M. Sharada,  S. Sharma,  D. W. Small,  
 T. Stauch,  T. Stein,  Yu-Chuan Su,  A. J. W. Thom,  A. Tkatchenko,  
 T. Tsuchimochi,  N. M. Tubman,  L. Vogt,  M. L. Vidal,  O. Vydrov,  
 M. A. Watson,  J. Wenzel,  M. de Wergifosse,  T. A. Wesolowski,  A. White,  
 J. Witte,  A. Yamada,  Jun Yang,  K. Yao,  S. Yeganeh,  S. R. Yost,  
 Zhi-Qiang You,  A. Zech,  Igor Ying Zhang,  Xing Zhang,  Yan Zhao,  
 Ying Zhu,  B. R. Brooks,  G. K. L. Chan,  C. J. Cramer,  M. S. Gordon,  
 W. J. Hehre,  A. Klamt,  M. W. Schmidt,  C. D. Sherrill,  D. G. Truhlar,  
 A. Aspuru-Guzik,  R. Baer,  A. T. Bell,  N. A. Besley,  Jeng-Da Chai,  
 A. E. DePrince, III,  R. A. DiStasio Jr.,  A. Dreuw,  B. D. Dunietz,  
 T. R. Furlani,  Chao-Ping Hsu,  Yousung Jung,  Jing Kong,  D. S. Lambrecht,  
 WanZhen Liang,  C. Ochsenfeld,  V. A. Rassolov,  L. V. Slipchenko,  
 J. E. Subotnik,  T. Van Voorhis,  J. M. Herbert,  A. I. Krylov,  
 P. M. W. Gill,  M. Head-Gordon

 Contributors to earlier versions of Q-Chem not listed above: 
 R. D. Adamson,  B. Austin,  J. Baker,  G. J. O. Beran,  K. Brandhorst,  
 S. T. Brown,  E. F. C. Byrd,  A. K. Chakraborty,  C.-L. Cheng,  
 Siu Hung Chien,  D. M. Chipman,  D. L. Crittenden,  H. Dachsel,  
 R. J. Doerksen,  A. D. Dutoi,  L. Fusti-Molnar,  W. A. Goddard III,  
 A. Golubeva-Zadorozhnaya,  S. R. Gwaltney,  G. Hawkins,  A. Heyden,  
 S. Hirata,  G. Kedziora,  F. J. Keil,  C. Kelley,  Jihan Kim,  R. A. King,  
 R. Z. Khaliullin,  P. P. Korambath,  W. Kurlancheek,  A. M. Lee,  M. S. Lee,  
 S. V. Levchenko,  Ching Yeh Lin,  D. Liotard,  R. C. Lochan,  I. Lotan,  
 P. E. Maslen,  N. Nair,  D. P. O'Neill,  D. Neuhauser,  E. Neuscamman,  
 C. M. Oana,  R. Olson,  B. Peters,  R. Peverati,  P. A. Pieniazek,  
 Y. M. Rhee,  J. Ritchie,  M. A. Rohrdanz,  E. Rosta,  N. J. Russ,  
 H. F. Schaefer III,  N. E. Schultz,  N. Shenvi,  A. C. Simmonett,  A. Sodt,  
 D. Stuck,  K. S. Thanthiriwatte,  V. Vanovschi,  Tao Wang,  A. Warshel,  
 C. F. Williams,  Q. Wu,  X. Xu,  W. Zhang

 Please cite Q-Chem as follows:
 Y. Shao et al., Mol. Phys. 113, 184-215 (2015)
 DOI: 10.1080/00268976.2014.952696

 Q-Chem 5.2.0 for Intel X86 EM64T Linux

 Parts of Q-Chem use Armadillo 8.300.2 (Tropical Shenanigans).
 http://arma.sourceforge.net/

 Q-Chem begins on Sun Sep 26 07:41:46 2021  

Host: cori01
0

     Scratch files written to /tmp/qchem50630//Frg2//
 May1019 |scratch|qcdevops|jenkins|workspace|build_RNUM -1
Processing $rem in /global/common/cori/software/qchem/5.2/config/preferences:
	 MEM_TOTAL  96000 
NAlpha2: 32
NElect   32
Mult     1
Symmetry turned off for PCM/SM12/SMD calculation

Checking the input file for inconsistencies... 	...done.

--------------------------------------------------------------
User input:
--------------------------------------------------------------
$molecule
-1 1
 6	-1.0804564129	-2.2811387990	-2.3774674972
 6	-0.3024564129	-1.1611387990	-1.6704674972
 8	-0.5914564129	-0.9331387990	-0.4744674972
 8	0.5845435871	-0.5101387990	-2.2734674972
 1	-2.1414564129	-2.1251387990	-2.1814674972
 1	-0.8124564129	-3.2451387990	-1.9394674972
 1	-0.9775364129	-2.3459137990	-3.4707274972
$end
$rem
EDA2		1
METHOD		WB97X-V
BASIS		DEF2-TZVPD
XC_GRID		000099000590
NL_GRID		1
UNRESTRICTED		FALSE
MAX_SCF_CYCLES		200
SYMMETRY		FALSE
SYM_IGNORE		TRUE
BASIS_LIN_DEP_THRESH		6
THRESH		14
SCF_CONVERGENCE		8
SCF_PRINT_FRGM		TRUE
SOLVENT_METHOD		PCM
!required keywords
JOBTYPE		SP
SYM_IGNORE		TRUE
SUBSYSTEM		TRUE
GEN_SCFMAN		TRUE
CHILD_INSTRUCTION		2
SYM_IGNORE		TRUE
SCFMI		0
RI_K 0		
PARI_K 0		
MIN_PARI_K 0		
IARI_K 0		
OCC_RI_K 0		
PURECART		1111
MEM_STATIC		2000
MEM_TOTAL		96000
GUI		0
CHILD_MP		1
CHILD_MP_ORDERS		232
FRZ_RELAX		0
FRZ_RELAX_METHOD		0
EDA_CLS_ELEC		1
EDA_CLS_DISP		0
FRZ_ORTHO_DECOMP		1
EDA2		FALSE
FRGM_METHOD		FALSE
CIS_N_ROOTS  0
LOCAL_CIS    0
CIS_RLX_DNS  1
$end
$pcm
THEORY                  CPCM
METHOD                  SWIG
SOLVER                  INVERSION
RADII                   UFF
HPOINTS                 302
HEAVYPOINTS             302
PRINTLEVEL              0
$end
$solvent
DIELECTRIC              78.390000 ! water
$end
--------------------------------------------------------------
 ----------------------------------------------------------------
             Standard Nuclear Orientation (Angstroms)
    I     Atom           X                Y                Z
 ----------------------------------------------------------------
    1      C      -1.0804564129    -2.2811387990    -2.3774674972
    2      C      -0.3024564129    -1.1611387990    -1.6704674972
    3      O      -0.5914564129    -0.9331387990    -0.4744674972
    4      O       0.5845435871    -0.5101387990    -2.2734674972
    5      H      -2.1414564129    -2.1251387990    -2.1814674972
    6      H      -0.8124564129    -3.2451387990    -1.9394674972
    7      H      -0.9775364129    -2.3459137990    -3.4707274972
 ----------------------------------------------------------------
 Nuclear Repulsion Energy =         112.19242383 hartrees
 There are       16 alpha and       16 beta electrons
 Requested basis set is def2-TZVPD
 There are 69 shells and 181 basis functions

 Total QAlloc Memory Limit  96000 MB
 Mega-Array Size      1956 MB
 MEM_STATIC part      2000 MB
 Discretize the solute cavity surface with Lebedev spheres
	Using 302 Lebedev grid points for each H atom
	Using 302 Lebedev grid points for other atoms
	Atomic van der Waals radii will be scaled by 1.20
 Remove points where switching function is < 1.0e-08
 Keep 1006 surface tesserae and discard 1108 interior tesserae
 Molecular Surface Area = 120.659 Angst**2

                       Distance Matrix (Angstroms)
             C (  1)   C (  2)   O (  3)   O (  4)   H (  5)   H (  6)
   C (  2)  1.536077
   O (  3)  2.382779  1.251368
   O (  4)  2.432999  1.254663  2.190504
   H (  5)  1.090171  2.138303  2.595614  3.169821
   H (  6)  1.092229  2.162294  2.745981  3.089238  1.754766
   H (  7)  1.100003  2.258398  3.335051  2.691393  1.750898  1.783428

 
 A cutoff of  1.0D-14 yielded   2390 shell pairs
 There are     16694 function pairs (     21490 Cartesian)
 Smallest overlap matrix eigenvalue = 1.75E-05

 Scale SEOQF with 1.000000e-01/1.000000e-01/1.000000e-01

 Standard Electronic Orientation quadrupole field applied
 Nucleus-field energy     =    -0.0000000066 hartrees
 Guess from superposition of atomic densities
 Warning:  Energy on first SCF cycle will be non-variational
 SAD guess density has 30.625312 electrons

 -----------------------------------------------------------------------
  General SCF calculation program by
  Eric Jon Sundstrom, Paul Horn, Yuezhi Mao, Dmitri Zuev, Alec White,
  David Stuck, Shaama M.S., Shane Yost, Joonho Lee, David Small,
  Daniel Levine, Susi Lehtola, Hugh Burton, Evgeny Epifanovsky
 -----------------------------------------------------------------------
 Exchange:     0.1670 Hartree-Fock + 1.0000 wB97X-V + LR-HF
 Correlation:  1.0000 wB97X-V
 Using Euler-Maclaurin-Lebedev (99,590) quadrature formula
 Nonlocal Correlation:  VV10 with C = 0.0100 and b = 6.00 and scale = 1.00000
 Grid used for NLC:  SG-1 standard quadrature
Energy prior to optimization (guess energy) = -227.758129332886
Begin Timing: Total SCF Calculation
begin iterations for algorithm: DIIS         
the SCF tolerance is set to 1.00e-08
    1    -227.7581293329      1.66e-02     00000 
    2    -225.5732451724      2.55e-02     00000 
    3    -228.5753728574      4.16e-03     00000 
    4    -228.6344850481      1.44e-03     00000 
    5    -228.6409392329      3.60e-04     00000 
    6    -228.6412625661      2.56e-04     00000 
    7    -228.6414487504      4.66e-05     00000 
    8    -228.6414593023      1.43e-05     00000 
    9    -228.6414606633      3.00e-06     00000 
   10    -228.6414607686      5.41e-07     00000 
   11    -228.6414607720      2.44e-07     00000 
   12    -228.6414607726      6.54e-08     00000 
   13    -228.6414607726      1.62e-08     00000 
   14    -228.6414607726      2.84e-09     00000 Convergence criterion met
Timing for Total SCF: 296.00s (wall), 581.04s (cpu)

************** Final PCM Free Energy Summary **************
 G_electrostatic  =      -0.10215500 hartree =     -64.10322794 kcal/mol
 G_cavitation     =       0.00000000 hartree =       0.00000000 kcal/mol
 G_dispersion     =       0.00000000 hartree =       0.00000000 kcal/mol
 G_repulsion      =       0.00000000 hartree =       0.00000000 kcal/mol
 --------------------------------------------------
 Non-electrostatic Free Energy =       0.00000000 hartree =       0.00000000 kcal/mol
 Total                         =      -0.10215500 hartree =     -64.10322794 kcal/mol
 --------------------------------------------------
 SCF Energy (H0 + V/2)                       =    -228.64146077 
 Solute Internal Energy (H0)                 =    -228.53930578 
 Total Free Energy (H0 + V/2 + non-elec)     =    -228.64146077 hartree
                                             = -143474.68209811 kcal/mol
***********************************************************

E_pcm = -0.1021549967
Multipole orders to be included
        2
        3
computing dipole RHS
computing quadrupole RHS
total number of RHS in solve_reponses: 8
RHS batch sizes
        8
Beginning Block Conjugate Gradient Iterations. Batch Number: 0
computing hessian-vector products by finite difference
              1      6.79e-01     00000 Conjugate Gradient Iteration
computing hessian-vector products by finite difference
              2      2.45e-01     00000 Conjugate Gradient Iteration
computing hessian-vector products by finite difference
              3      6.48e-02     00000 Conjugate Gradient Iteration
computing hessian-vector products by finite difference
              4      1.72e-02     00000 Conjugate Gradient Iteration
computing hessian-vector products by finite difference
              5      3.04e-03     00000 Conjugate Gradient Iteration
computing hessian-vector products by finite difference
              6      7.17e-04     00000 Conjugate Gradient Iteration
computing hessian-vector products by finite difference
              7      1.19e-04     00000 Conjugate Gradient Iteration
computing hessian-vector products by finite difference
              8      1.46e-05     00000 Conjugate Gradient Iteration
computing hessian-vector products by finite difference
              9      2.23e-06     00000 Conjugate Gradient Iteration
computing hessian-vector products by finite difference
             10      2.51e-07     00000 Conjugate Gradient Iteration
computing hessian-vector products by finite difference
             11      3.63e-08     00000 Conjugate Gradient Iteration
computing hessian-vector products by finite difference
             12      8.32e-09     00000 CG Converged
batch 0 complete
Done Calculating Responses
TESTING ORTHOGONALIZATION OF MULTIPOLE BASIS
Multipole virts passed orthogonality test
Virts Per Order
        48
        80
 
 --------------------------------------------------------------
 
                    Orbital Energies (a.u.)
 --------------------------------------------------------------
 
 Alpha MOs
 -- Occupied --
-19.1228 -19.1213 -10.3277 -10.2421  -1.1319  -1.0296  -0.8279  -0.5947
 -0.5279  -0.5189  -0.5123  -0.4619  -0.4437  -0.3285  -0.3279  -0.3078
 -- Virtual --
  0.0632   0.0949   0.0955   0.1055   0.1301   0.1403   0.1429   0.1453
  0.1687   0.1897   0.1982   0.2246   0.2306   0.2349   0.2644   0.2653
  0.2971   0.3122   0.3342   0.3465   0.3525   0.3618   0.3702   0.3827
  0.3905   0.4006   0.4237   0.4264   0.4318   0.4610   0.4746   0.4798
  0.4877   0.4958   0.5053   0.5235   0.5585   0.5781   0.6000   0.6174
  0.6264   0.6374   0.6421   0.6640   0.6719   0.6782   0.6935   0.7096
  0.7197   0.7412   0.7767   0.7946   0.8116   0.8212   0.8428   0.8583
  0.8711   0.9830   0.9867   0.9999   1.0066   1.0507   1.0601   1.1236
  1.1644   1.2022   1.2604   1.2884   1.2912   1.3144   1.3469   1.3591
  1.4549   1.5585   1.6121   1.7453   1.8237   1.8580   1.8776   1.9226
  1.9257   1.9544   1.9663   1.9719   2.0310   2.1037   2.1321   2.1720
  2.2170   2.2257   2.3193   2.3335   2.4113   2.4314   2.4886   2.5138
  2.5722   2.6081   2.6200   2.6848   2.7652   2.8171   2.8574   2.9375
  2.9595   3.0046   3.0386   3.1753   3.2090   3.2403   3.2867   3.3091
  3.3465   3.3533   3.3799   3.4134   3.4221   3.5415   3.5695   3.5847
  3.6068   3.6599   3.7054   3.7392   3.7683   3.8604   3.9491   4.0250
  4.0761   4.1971   4.3731   4.5515   4.6020   4.6501   4.8066   4.8226
  4.9834   5.3344   5.3585   5.3692   5.3755   5.4928   5.7069   5.7821
  5.8195   6.0296   6.2257   6.3426   6.3529   6.6103   6.6297   6.7298
  6.7437   6.7587   6.9414   6.9829   7.0383   7.2500   7.3364   7.3899
  7.4129  22.5853  23.7146  44.2203  44.3431
 --------------------------------------------------------------
 
          Ground-State Mulliken Net Atomic Charges

     Atom                 Charge (a.u.)
  ----------------------------------------
      1 C                    -0.418039
      2 C                     0.301061
      3 O                    -0.674845
      4 O                    -0.675492
      5 H                     0.147343
      6 H                     0.139981
      7 H                     0.179991
  ----------------------------------------
  Sum of atomic charges =    -1.000000

 -----------------------------------------------------------------
                    Cartesian Multipole Moments
 -----------------------------------------------------------------
    Charge (ESU x 10^10)
                -4.8032
    Dipole Moment (Debye)
         X      -0.8541      Y       2.2447      Z       5.8399
       Tot       6.3145
    Quadrupole Moments (Debye-Ang)
        XX     -28.6354     XY      -0.5190     YY     -26.7423
        XZ       5.8723     YZ      -0.9830     ZZ     -39.8493
    Octopole Moments (Debye-Ang^2)
       XXX      30.2703    XXY      35.9865    XYY      12.1330
       YYY      99.3465    XXZ      48.4205    XYZ      -3.0773
       YYZ      43.8303    XZZ      -4.4105    YZZ      37.1722
       ZZZ     172.0097
    Hexadecapole Moments (Debye-Ang^3)
      XXXX    -126.2366   XXXY     -73.2474   XXYY     -89.0359
      XYYY     -78.0091   YYYY    -372.0909   XXXZ     -46.2161
      XXYZ     -67.3266   XYYZ     -16.2965   YYYZ    -190.7946
      XXZZ    -130.3110   XYZZ     -15.7637   YYZZ    -165.0607
      XZZZ     -14.8886   YZZZ    -204.6216   ZZZZ    -698.9801
 -----------------------------------------------------------------
Archival summary:
1\1\nid00546\SP\ProcedureUnspecified\BasisUnspecified\223(1-,1)\meili\SunSep2609:04:322021SunSep2609:04:322021\0\\#,ProcedureUnspecified,BasisUnspecified,\\-1,1\C\O,1,1.25137\O,1,1.25466,2,121.876\C,1,1.53608,2,117.115,3,179.866,0\H,4,1.09017,1,107.809,2,48.4514,0\H,4,1.09223,1,109.553,2,-67.6956,0\H,4,1.1,1,116.936,2,167.855,0\\\@

 Total job time:  4967.66s(wall), 9522.41s(cpu) 
 Sun Sep 26 09:04:33 2021

        *************************************************************
        *                                                           *
        *  Thank you very much for using Q-Chem.  Have a nice day.  *
        *                                                           *
        *************************************************************


Done Job For Fragment 1
calling putenv with: QCSCRATCH=/global/cscratch1/sd/meili 
calling putenv with: QCLOCALSCR=/tmp 
calling putenv with: QCTHREADS=32 
Doing General SCFMI
 Exchange:     0.1670 Hartree-Fock + 1.0000 wB97X-V + LR-HF
 Correlation:  1.0000 wB97X-V
 Using Euler-Maclaurin-Lebedev (99,590) quadrature formula
 Nonlocal Correlation:  VV10 with C = 0.0100 and b = 6.00 and scale = 1.00000
 Grid used for NLC:  SG-1 standard quadrature
performing fock build before subrot guess so that all methods have access
Printing subrot_rss_gen Method Specification:
Occupied Subspace Method is 0
Virtual Subspace Method is 0
Energy of the unrelaxed supersystem initial determinant -437.777001926426
performing fock build before subrot guess so that all methods have access
Printing subrot_rss_gen Method Specification:
Occupied Subspace Method is 0
Virtual Subspace Method is 0
Energy of the unrelaxed supersystem initial determinant w/ solvent -437.885731186718
write pseudocanon occs and virts to disk
write pseudocanon orbital energies to disk
Tolerance of ortho_decomp_scf: 1.00e-06
GDM subspace size: 20
Beginning the Orthogonal Decomposition of the Initial Supersystem Wavefunction
    1    -437.7476922726      5.20e-02     ortho_decomp Preconditoned Steepest Descent
    2    -437.7533137149      1.90e-03     ortho_decomp BFGS Step
    3    -437.7533431281      1.06e-04     ortho_decomp BFGS Step
    4    -437.7533431507      4.41e-06     ortho_decomp BFGS Step
    5    -437.7533431508      1.76e-07     ortho_decomp 00000 Convergence criterion met
 Hartree-Fock
 Hartree-Fock
 Hartree-Fock
Doing General SCFMI
 Exchange:     0.1670 Hartree-Fock + 1.0000 wB97X-V + LR-HF
 Correlation:  1.0000 wB97X-V
 Using Euler-Maclaurin-Lebedev (99,590) quadrature formula
 Nonlocal Correlation:  VV10 with C = 0.0100 and b = 6.00 and scale = 1.00000
 Grid used for NLC:  SG-1 standard quadrature
performing fock build at end of subrot_r(subrot) constructor so that all methods have access
<S^2> of initial wavefunction before polarization iterations 0.0000000000
Beginning iterations for the determination of the polarized wavefunction
Energy prior to optimization (guess energy) = -437.885731186718
Begin Timing: Total SCF Calculation
begin iterations for algorithm: DIIS         
the SCF tolerance is set to 1.00e-08
    1    -437.8857311867      1.79e-04     00000 
    2    -437.8867652774      1.09e-04     00000 
    3    -437.8869527491      4.65e-05     00000 
    4    -437.8869931778      1.72e-05     00000 
    5    -437.8870022841      6.92e-06     00000 
    6    -437.8870039488      3.34e-06     00000 
    7    -437.8870043310      1.18e-06     00000 
    8    -437.8870043930      3.73e-07     00000 
    9    -437.8870044039      2.13e-07     00000 
   10    -437.8870044056      7.40e-08     00000 
   11    -437.8870044060      3.70e-08     00000 
   12    -437.8870044060      9.64e-09     00000 Convergence criterion met
write pseudocanon occs and virts to disk
write pseudocanon orbital energies to disk
Timing for Total SCF: 1630.00s (wall), 3236.29s (cpu)
<S^2> of polarized wavefunction after polarization iterations 0.0000000000
relaxing scfmi constraint to allow all rotations in the entire AO span
Doing General SCFMI
 Exchange:     0.1670 Hartree-Fock + 1.0000 wB97X-V + LR-HF
 Correlation:  1.0000 wB97X-V
 Using Euler-Maclaurin-Lebedev (99,590) quadrature formula
 Nonlocal Correlation:  VV10 with C = 0.0100 and b = 6.00 and scale = 1.00000
 Grid used for NLC:  SG-1 standard quadrature
performing fock build at end of subrot_r(subrot) constructor so that all methods have access
<S^2> of polarized wavefunction before ct-allowed iterations 0.0000000000
Beginning iterations for the determination of the CT-Allowed wavefunction
Energy prior to optimization (guess energy) = -437.887004406001
Begin Timing: Total SCF Calculation
begin iterations for algorithm: DIIS         
the SCF tolerance is set to 1.00e-08
    1    -437.8870044060      9.75e-05     00000 
    2    -437.8877980251      1.21e-05     00000 
    3    -437.8878293336      3.22e-06     00000 
    4    -437.8878305270      2.85e-06     00000 
    5    -437.8878309718      3.72e-07     00000 
    6    -437.8878309908      2.06e-07     00000 
    7    -437.8878309949      7.71e-08     00000 
    8    -437.8878309953      2.72e-08     00000 
    9    -437.8878309954      7.03e-09     00000 Convergence criterion met
write pseudocanon occs and virts to disk
write pseudocanon orbital energies to disk
Timing for Total SCF: 1180.00s (wall), 2343.91s (cpu)
<S^2> of ct_allowed wavefunction after ct-allowed iterations 0.0000000000

================================
        Results of EDA2         
================================
Basic EDA Quantities
--------------------
Fragment Energies (Ha):
1 -209.2459068969
2 -228.6414607726
--------------------
  E_prp (kJ/mol) = -0.0000
  E_sol (kJ/mol) = 13.8284
  E_frz (kJ/mol) = -9.5317
  E_pol (kJ/mol) = -3.3429
  E_vct (kJ/mol) = -2.1702
  E_int (kJ/mol) = -1.2165
--------------------


Initial Wavefunction Decomposition
--------------------
  --------------------
  Orthogonal Fragment Subspace Decomposition:
  --------------------
     E_elec   (ELEC)   (kJ/mol) = -36.5847
     E_pauli  (PAULI)  (kJ/mol) = 41.0219
     E_disp   (DISP)   (kJ/mol) = -13.9689
     --------------------
     Terms summing to E_pauli:
     --------------------
        E_kep_pauli       (kJ/mol) = 52.5851
        E_disp_free_pauli (kJ/mol) = -11.5633
  --------------------
  Classical Frozen Decomposition:
  --------------------
     E_cls_elec  (CLS ELEC)  (kJ/mol) = -14.7090
     E_cls_pauli (CLS PAULI) (kJ/mol) = 5.1773
    [E_mod_pauli (MOD PAULI) (kJ/mol) = 19.1462 (CLS PAULI - DISP from orthogonal decomposition) ]
  --------------------
--------------------

Simplified EDA Summary (kJ/mol)
--------------------
 PREPARATION     -0.0000
 SOLVATION       13.8284
 FROZEN          4.4372      (does not include dispersion)
[PAULI           41.0219]     (if this is negligible, then frozen describes electrostatics)
 DISPERSION      -13.9689
 POLARIZATION    -3.3429
 CHARGE TRANSFER -2.1702
 TOTAL           -1.2165     (PRP + SOL + FRZ + DISP + POL + CT)
--------------------
 
 --------------------------------------------------------------
 
                    Orbital Energies (a.u.)
 --------------------------------------------------------------
 
 Alpha MOs
 -- Occupied --
-19.1677 -19.1201 -19.1164 -14.4230 -10.3655 -10.3245 -10.2548 -10.2405
 -1.1618  -1.1285  -1.0341  -1.0262  -0.8592  -0.8263  -0.7015  -0.6507
 -0.5932  -0.5796  -0.5540  -0.5261  -0.5164  -0.5106  -0.5087  -0.4962
 -0.4665  -0.4577  -0.4413  -0.3729  -0.3568  -0.3248  -0.3228  -0.3045
 -- Virtual --
  0.0585   0.0754   0.0865   0.0900   0.1000   0.1120   0.1155   0.1215
  0.1274   0.1331   0.1384   0.1506   0.1548   0.1568   0.1664   0.1757
  0.1820   0.1920   0.2023   0.2115   0.2132   0.2265   0.2287   0.2441
  0.2447   0.2512   0.2609   0.2703   0.2738   0.2799   0.2891   0.2973
  0.3112   0.3169   0.3262   0.3318   0.3343   0.3399   0.3408   0.3455
  0.3506   0.3576   0.3625   0.3636   0.3661   0.3739   0.3801   0.3863
  0.3890   0.3975   0.3999   0.4117   0.4162   0.4246   0.4299   0.4439
  0.4447   0.4493   0.4569   0.4623   0.4656   0.4739   0.4825   0.4873
  0.4951   0.4977   0.5008   0.5040   0.5125   0.5212   0.5252   0.5297
  0.5321   0.5426   0.5556   0.5586   0.5820   0.5956   0.5994   0.6066
  0.6129   0.6207   0.6279   0.6346   0.6467   0.6490   0.6671   0.6682
  0.6737   0.6763   0.6975   0.6998   0.7139   0.7166   0.7206   0.7324
  0.7368   0.7417   0.7583   0.7680   0.7766   0.7841   0.7936   0.8048
  0.8086   0.8192   0.8270   0.8294   0.8415   0.8480   0.8618   0.8672
  0.8683   0.8786   0.8879   0.8941   0.9102   0.9345   0.9492   0.9623
  0.9795   0.9970   1.0043   1.0094   1.0148   1.0349   1.0432   1.0625
  1.0737   1.0769   1.0864   1.1111   1.1264   1.1421   1.1528   1.1800
  1.2039   1.2218   1.2464   1.2617   1.2765   1.2982   1.3217   1.3315
  1.3428   1.3467   1.3638   1.3943   1.4005   1.4061   1.4322   1.4487
  1.4848   1.5051   1.5138   1.5406   1.6066   1.6752   1.7027   1.7088
  1.7494   1.7608   1.8283   1.8643   1.8826   1.8863   1.8930   1.9083
  1.9318   1.9402   1.9533   1.9595   1.9694   1.9827   1.9929   2.0052
  2.0179   2.0309   2.0534   2.0817   2.0867   2.0969   2.1241   2.1433
  2.1612   2.1930   2.2083   2.2274   2.2390   2.2622   2.2773   2.3045
  2.3292   2.3351   2.3748   2.3863   2.4176   2.4378   2.4618   2.4716
  2.4927   2.5265   2.5308   2.5790   2.5875   2.5944   2.6256   2.6379
  2.6522   2.6694   2.6992   2.7094   2.7415   2.7529   2.8107   2.8166
  2.8503   2.8612   2.8708   2.8901   2.9245   2.9660   2.9872   3.0031
  3.0187   3.0428   3.0620   3.1202   3.1241   3.1695   3.1987   3.2226
  3.2316   3.2615   3.2678   3.2793   3.2915   3.3046   3.3308   3.3456
  3.3584   3.3644   3.3826   3.3841   3.3972   3.4222   3.4346   3.4391
  3.4590   3.4935   3.5545   3.5611   3.5801   3.6072   3.6172   3.6504
  3.6645   3.6688   3.6831   3.6957   3.7210   3.7498   3.7701   3.7864
  3.7975   3.8883   3.9024   3.9652   3.9751   4.0404   4.0801   4.0882
  4.0986   4.1266   4.2135   4.2231   4.3248   4.3968   4.4307   4.5501
  4.5605   4.6195   4.6372   4.6404   4.6625   4.6750   4.8015   4.8492
  4.8801   4.8980   4.9178   4.9638   5.0174   5.1679   5.1928   5.2786
  5.3415   5.3655   5.3758   5.3775   5.3939   5.3966   5.4119   5.4335
  5.4980   5.5064   5.5482   5.7195   5.7897   5.7977   5.8295   5.9315
  6.0551   6.1663   6.2461   6.2924   6.3564   6.3922   6.5529   6.6417
  6.6600   6.6784   6.7587   6.7651   6.7767   6.8278   6.8550   6.9835
  6.9974   7.0152   7.0453   7.2527   7.2701   7.3453   7.3565   7.4399
  7.4708  22.6055  22.6489  23.6039  23.7495  32.4691  44.2748  44.3781
 44.4159
 --------------------------------------------------------------
 
          Ground-State Mulliken Net Atomic Charges

     Atom                 Charge (a.u.)
  ----------------------------------------
      1 C                    -0.678688
      2 C                     0.605111
      3 O                    -0.608530
      4 N                    -0.297198
      5 H                     0.160741
      6 H                     0.245667
      7 H                     0.205950
      8 H                     0.192231
      9 H                     0.186842
     10 C                    -0.594570
     11 C                     0.397726
     12 O                    -0.646557
     13 O                    -0.675522
     14 H                     0.167266
     15 H                     0.149203
     16 H                     0.190327
  ----------------------------------------
  Sum of atomic charges =    -1.000000

 -----------------------------------------------------------------
                    Cartesian Multipole Moments
 -----------------------------------------------------------------
    Charge (ESU x 10^10)
                -4.8032
    Dipole Moment (Debye)
         X       2.8783      Y      -1.1423      Z       6.8048
       Tot       7.4762
    Quadrupole Moments (Debye-Ang)
        XX     -52.8748     XY       4.3761     YY     -59.3462
        XZ      10.6888     YZ      -8.2527     ZZ     -59.2763
    Octopole Moments (Debye-Ang^2)
       XXX       3.5508    XXY       1.7409    XYY      12.6435
       YYY      -6.5413    XXZ      10.3008    XYZ       2.9017
       YYZ      -9.9100    XZZ      -8.8843    YZZ      -7.5063
       ZZZ      73.2919
    Hexadecapole Moments (Debye-Ang^3)
      XXXX    -294.4216   XXXY    -103.3667   XXYY    -176.7537
      XYYY     -88.9280   YYYY    -721.6157   XXXZ     -66.6400
      XXYZ    -117.6175   XYYZ     -13.3322   YYYZ    -344.5570
      XXZZ    -236.1784   XYZZ     -21.6324   YYZZ    -329.1958
      XZZZ     -47.8340   YZZZ    -366.3884   ZZZZ   -1142.1423
 -----------------------------------------------------------------
Archival summary:
1\1\nid00546\SP\ProcedureUnspecified\BasisUnspecified\3148(1-,1)\meili\SunSep2610:26:582021SunSep2610:26:582021\0\\#,ProcedureUnspecified,BasisUnspecified,\\-1,1\O\C,1,1.25137\O,2,1.25466,1,121.876\C,2,1.53608,1,117.115,3,179.866,0\H,4,1.09017,2,107.809,1,48.4514,0\H,4,1.09223,2,109.553,1,-67.6956,0\H,4,1.1,2,116.936,1,167.855,0\H,1,2.7181,2,96.737,3,-9.36787,0\C,8,1.08789,1,123.615,2,155.681,0\H,9,1.09016,8,107.226,1,129.921,0\H,9,1.10001,8,109.877,1,-112.46,0\C,9,1.49871,8,108.809,1,12.3274,0\O,12,1.22394,9,120.156,8,-98.7434,0\N,12,1.33804,9,117.295,8,80.0477,0\H,14,1.00733,12,118.511,9,-178.856,0\H,14,1.00832,12,120.324,9,-1.91295,0\\\@

 Total job time:  16492.67s(wall), 9836.71s(cpu) 
 Sun Sep 26 10:27:00 2021

        *************************************************************
        *                                                           *
        *  Thank you very much for using Q-Chem.  Have a nice day.  *
        *                                                           *
        *************************************************************


