
Running Job 1 of 1 SSI-042PHE-054PHE-1_PCM_TZVPD.in
qchem SSI-042PHE-054PHE-1_PCM_TZVPD.in_25638.0 /tmp/qchem25638/ 0
/global/common/cori/software/qchem/5.2/exe/qcprog.exe_s SSI-042PHE-054PHE-1_PCM_TZVPD.in_25638.0 /tmp/qchem25638/
                  Welcome to Q-Chem
     A Quantum Leap Into The Future Of Chemistry


 Q-Chem 5.2, Q-Chem, Inc., Pleasanton, CA (2019)

 License issued to: National Energy Research Scientific Computing Center

 Yihan Shao,  Zhengting Gan,  E. Epifanovsky,  A. T. B. Gilbert,  M. Wormit,  
 J. Kussmann,  A. W. Lange,  A. Behn,  Jia Deng,  Xintian Feng,  D. Ghosh,  
 M. Goldey,  P. R. Horn,  L. D. Jacobson,  I. Kaliman,  T. Kus,  A. Landau,  
 Jie Liu,  E. I. Proynov,  R. M. Richard,  R. P. Steele,  E. J. Sundstrom,  
 H. L. Woodcock III,  P. M. Zimmerman,  D. Zuev,  B. Albrecht,  E. Alguire,  
 S. A. Baeppler,  D. Barton,  Z. Benda,  Y. A. Bernard,  E. J. Berquist,  
 K. B. Bravaya,  H. Burton,  D. Casanova,  Chun-Min Chang,  Yunqing Chen,  
 A. Chien,  K. D. Closser,  M. P. Coons,  S. Coriani,  S. Dasgupta,  
 A. L. Dempwolff,  M. Diedenhofen,  Hainam Do,  R. G. Edgar,  Po-Tung Fang,  
 S. Faraji,  S. Fatehi,  Qingguo Feng,  K. D. Fenk,  J. Fosso-Tande,  
 J. Gayvert,  Qinghui Ge,  A. Ghysels,  G. Gidofalvi,  J. Gomes,  
 J. Gonthier,  A. Gunina,  D. Hait,  M. W. D. Hanson-Heine,  
 P. H. P. Harbach,  A. W. Hauser,  M. F. Herbst,  J. E. Herr,  
 E. G. Hohenstein,  Z. C. Holden,  Kerwin Hui,  B. C. Huynh,  T.-C. Jagau,  
 Hyunjun Ji,  B. Kaduk,  K. Khistyaev,  Jaehoon Kim,  P. Klunzinger,  K. Koh,  
 D. Kosenkov,  L. Koulias,  T. Kowalczyk,  C. M. Krauter,  A. Kunitsa,  
 Ka Un Lao,  A. Laurent,  K. V. Lawler,  Joonho Lee,  D. Lefrancois,  
 S. Lehtola,  D. S. Levine,  Yi-Pei Li,  You-Sheng Lin,  Fenglai Liu,  
 E. Livshits,  A. Luenser,  P. Manohar,  E. Mansoor,  S. F. Manzer,  
 Shan-Ping Mao,  Yuezhi Mao,  N. Mardirossian,  A. V. Marenich,  
 T. Markovich,  L. A. Martinez-Martinez,  S. A. Maurer,  N. J. Mayhall,  
 S. C. McKenzie,  J.-M. Mewes,  P. Morgante,  A. F. Morrison,  
 J. W. Mullinax,  K. Nanda,  T. S. Nguyen-Beck,  R. Olivares-Amaya,  
 J. A. Parkhill,  Zheng Pei,  T. M. Perrine,  F. Plasser,  P. Pokhilko,  
 S. Prager,  A. Prociuk,  E. Ramos,  D. R. Rehn,  F. Rob,  M. Scheurer,  
 M. Schneider,  N. Sergueev,  S. M. Sharada,  S. Sharma,  D. W. Small,  
 T. Stauch,  T. Stein,  Yu-Chuan Su,  A. J. W. Thom,  A. Tkatchenko,  
 T. Tsuchimochi,  N. M. Tubman,  L. Vogt,  M. L. Vidal,  O. Vydrov,  
 M. A. Watson,  J. Wenzel,  M. de Wergifosse,  T. A. Wesolowski,  A. White,  
 J. Witte,  A. Yamada,  Jun Yang,  K. Yao,  S. Yeganeh,  S. R. Yost,  
 Zhi-Qiang You,  A. Zech,  Igor Ying Zhang,  Xing Zhang,  Yan Zhao,  
 Ying Zhu,  B. R. Brooks,  G. K. L. Chan,  C. J. Cramer,  M. S. Gordon,  
 W. J. Hehre,  A. Klamt,  M. W. Schmidt,  C. D. Sherrill,  D. G. Truhlar,  
 A. Aspuru-Guzik,  R. Baer,  A. T. Bell,  N. A. Besley,  Jeng-Da Chai,  
 A. E. DePrince, III,  R. A. DiStasio Jr.,  A. Dreuw,  B. D. Dunietz,  
 T. R. Furlani,  Chao-Ping Hsu,  Yousung Jung,  Jing Kong,  D. S. Lambrecht,  
 WanZhen Liang,  C. Ochsenfeld,  V. A. Rassolov,  L. V. Slipchenko,  
 J. E. Subotnik,  T. Van Voorhis,  J. M. Herbert,  A. I. Krylov,  
 P. M. W. Gill,  M. Head-Gordon

 Contributors to earlier versions of Q-Chem not listed above: 
 R. D. Adamson,  B. Austin,  J. Baker,  G. J. O. Beran,  K. Brandhorst,  
 S. T. Brown,  E. F. C. Byrd,  A. K. Chakraborty,  C.-L. Cheng,  
 Siu Hung Chien,  D. M. Chipman,  D. L. Crittenden,  H. Dachsel,  
 R. J. Doerksen,  A. D. Dutoi,  L. Fusti-Molnar,  W. A. Goddard III,  
 A. Golubeva-Zadorozhnaya,  S. R. Gwaltney,  G. Hawkins,  A. Heyden,  
 S. Hirata,  G. Kedziora,  F. J. Keil,  C. Kelley,  Jihan Kim,  R. A. King,  
 R. Z. Khaliullin,  P. P. Korambath,  W. Kurlancheek,  A. M. Lee,  M. S. Lee,  
 S. V. Levchenko,  Ching Yeh Lin,  D. Liotard,  R. C. Lochan,  I. Lotan,  
 P. E. Maslen,  N. Nair,  D. P. O'Neill,  D. Neuhauser,  E. Neuscamman,  
 C. M. Oana,  R. Olson,  B. Peters,  R. Peverati,  P. A. Pieniazek,  
 Y. M. Rhee,  J. Ritchie,  M. A. Rohrdanz,  E. Rosta,  N. J. Russ,  
 H. F. Schaefer III,  N. E. Schultz,  N. Shenvi,  A. C. Simmonett,  A. Sodt,  
 D. Stuck,  K. S. Thanthiriwatte,  V. Vanovschi,  Tao Wang,  A. Warshel,  
 C. F. Williams,  Q. Wu,  X. Xu,  W. Zhang

 Please cite Q-Chem as follows:
 Y. Shao et al., Mol. Phys. 113, 184-215 (2015)
 DOI: 10.1080/00268976.2014.952696

 Q-Chem 5.2.0 for Intel X86 EM64T Linux

 Parts of Q-Chem use Armadillo 8.300.2 (Tropical Shenanigans).
 http://arma.sourceforge.net/

 Q-Chem begins on Sun Sep 26 07:08:52 2021  

Host: cori01
0

     Scratch files written to /tmp/qchem25638//
 May1019 |scratch|qcdevops|jenkins|workspace|build_RNUM -1
Processing $rem in /global/common/cori/software/qchem/5.2/config/preferences:
	 MEM_TOTAL  96000 
NAlpha2: 100
NElect   100
Mult     1
Symmetry turned off for PCM/SM12/SMD calculation

 Q-Chem warning in module libgen/rem_setup.C, line 2803:

 Neither GIA nor STOLL is specified by user. Use STOLL as the default


Checking the input file for inconsistencies... 	...done.

--------------------------------------------------------------
User input:
--------------------------------------------------------------
$comment
SSI-042PHE-054PHE-1.pdb
$end

$molecule
0 1
--
0 1
C   -0.429364967931    0.391826588789    4.269882374084
C    1.878635032069    0.571826588789    1.244882374084
C    1.021635032069    0.945826588789    2.285882374084
C    2.146635032069   -0.764173411211    1.022882374084
C    0.443635032069   -0.023173411211    3.111882374084
C    1.588635032069   -1.730173411211    1.835882374084
C    0.737635032069   -1.369173411211    2.873882374084
H    2.324635032069    1.328826588789    0.615882374084
H    0.823635032069    1.990826588789    2.461882374084
H    2.809635032069   -1.047173411211    0.217882374084
H    1.850635032069   -2.762173411211    1.681882374084
H    0.071635032069    1.202826588789    4.798882374084
H   -0.525364967931   -0.441173411211    4.965882374084
H    0.320635032069   -2.134173411211    3.513882374084
H   -1.430943967931    0.732850488789    3.968979374084
--
0 1
C    0.001635032069   -1.903173411211   -2.016117625916
C   -0.521364967931    0.461826588789   -1.343117625916
C   -0.604364967931   -0.561173411211   -2.278117625916
C   -1.102364967931    1.706826588789   -1.557117625916
C   -1.356364967931   -0.343173411211   -3.410117625916
C   -1.805364967931    1.924826588789   -2.721117625916
C   -1.940364967931    0.889826588789   -3.623117625916
H   -0.002364967931    0.285826588789   -0.417117625916
H   -1.008364967931    2.487826588789   -0.816117625916
H   -0.745364967931   -2.642173411211   -2.204117625916
H    0.310635032069   -1.971173411211   -0.972117625916
H   -1.516364967931   -1.134173411211   -4.126117625916
H   -2.286364967931    2.874826588789   -2.906117625916
H   -2.550364967931    1.010826588789   -4.499117625916
H    0.852855032069   -2.146788411211   -2.668862625916
$end

$rem
JOBTYPE			EDA
EDA2			1
method			wB97X-V
BASIS			def2-TZVPD
XC_GRID			000099000590
NL_GRID			1
UNRESTRICTED		FALSE
MAX_SCF_CYCLES		200
SYMMETRY		FALSE
SYM_IGNORE		TRUE
MEM_STATIC		2000
BASIS_LIN_DEP_THRESH 	6
THRESH 			14
SCF_CONVERGENCE 	8
SCF_PRINT_FRGM 		TRUE
SOLVENT_METHOD          PCM
$end

$PCM
THEORY                  CPCM
METHOD                  SWIG
SOLVER                  INVERSION
RADII                   UFF
HPOINTS                 302
HEAVYPOINTS             302
PRINTLEVEL              0
$END

$SOLVENT
DIELECTRIC              78.390000 ! water
$END
--------------------------------------------------------------
 ----------------------------------------------------------------
             Standard Nuclear Orientation (Angstroms)
    I     Atom           X                Y                Z
 ----------------------------------------------------------------
    1      C      -0.4293649679     0.3918265888     4.2698823741
    2      C       1.8786350321     0.5718265888     1.2448823741
    3      C       1.0216350321     0.9458265888     2.2858823741
    4      C       2.1466350321    -0.7641734112     1.0228823741
    5      C       0.4436350321    -0.0231734112     3.1118823741
    6      C       1.5886350321    -1.7301734112     1.8358823741
    7      C       0.7376350321    -1.3691734112     2.8738823741
    8      H       2.3246350321     1.3288265888     0.6158823741
    9      H       0.8236350321     1.9908265888     2.4618823741
   10      H       2.8096350321    -1.0471734112     0.2178823741
   11      H       1.8506350321    -2.7621734112     1.6818823741
   12      H       0.0716350321     1.2028265888     4.7988823741
   13      H      -0.5253649679    -0.4411734112     4.9658823741
   14      H       0.3206350321    -2.1341734112     3.5138823741
   15      H      -1.4309439679     0.7328504888     3.9689793741
   16      C       0.0016350321    -1.9031734112    -2.0161176259
   17      C      -0.5213649679     0.4618265888    -1.3431176259
   18      C      -0.6043649679    -0.5611734112    -2.2781176259
   19      C      -1.1023649679     1.7068265888    -1.5571176259
   20      C      -1.3563649679    -0.3431734112    -3.4101176259
   21      C      -1.8053649679     1.9248265888    -2.7211176259
   22      C      -1.9403649679     0.8898265888    -3.6231176259
   23      H      -0.0023649679     0.2858265888    -0.4171176259
   24      H      -1.0083649679     2.4878265888    -0.8161176259
   25      H      -0.7453649679    -2.6421734112    -2.2041176259
   26      H       0.3106350321    -1.9711734112    -0.9721176259
   27      H      -1.5163649679    -1.1341734112    -4.1261176259
   28      H      -2.2863649679     2.8748265888    -2.9061176259
   29      H      -2.5503649679     1.0108265888    -4.4991176259
   30      H       0.8528550321    -2.1467884112    -2.6688626259
 ----------------------------------------------------------------
 Nuclear Repulsion Energy =         783.99019349 hartrees
 There are       50 alpha and       50 beta electrons
 Requested basis set is def2-TZVPD
 There are 262 shells and 662 basis functions

 Total QAlloc Memory Limit  96000 MB
 Mega-Array Size      1956 MB
 MEM_STATIC part      2000 MB
 Discretize the solute cavity surface with Lebedev spheres
	Using 302 Lebedev grid points for each H atom
	Using 302 Lebedev grid points for other atoms
	Atomic van der Waals radii will be scaled by 1.20
 Remove points where switching function is < 1.0e-08
 Keep 3362 surface tesserae and discard 5698 interior tesserae
 Molecular Surface Area = 320.846 Angst**2
 A cutoff of  1.0D-14 yielded  29514 shell pairs
 There are    189284 function pairs (    238750 Cartesian)
 Smallest overlap matrix eigenvalue = 4.30E-07
 Linear dependence detected in AO basis
 Tighter screening thresholds may be required for diffuse basis sets
 Use S2THRESH > 14 and THRESH = 14 in case of SCF convergence issues
 Number of orthogonalized atomic orbitals = 658
 Maximum deviation from orthogonality = 1.794E-10

 Scale SEOQF with 1.000000e-01/1.000000e-01/1.000000e-01

 Standard Electronic Orientation quadrupole field applied
 Nucleus-field energy     =    -0.0000000572 hartrees

 -----------------------------------------------------------------------
  General SCF calculation program by
  Eric Jon Sundstrom, Paul Horn, Yuezhi Mao, Dmitri Zuev, Alec White,
  David Stuck, Shaama M.S., Shane Yost, Joonho Lee, David Small,
  Daniel Levine, Susi Lehtola, Hugh Burton, Evgeny Epifanovsky
 -----------------------------------------------------------------------
================================================================
                 ALMO-EDA with the EDA2 driver                  
================================================================
 The second-generation ALMO-EDA (for DFT):                      
 P. R. Horn, Y. Mao and M. Head-Gordon, PCCP, 18, 23067 (2016)  
 Decomposition of the frozen energy:                            
 P. R. Horn, Y. Mao and M. Head-Gordon, JCP, 144, 114107 (2016) 
 FERF model for polarization:                                   
 P. R. Horn and M. Head-Gordon, JCP, 143, 114111 (2015)         
Using eda2 option set 1
Option set summary: Frozen orbital wavefunction, initial wavefunction decomposition, and nDQ polarization.
--------------------------------
Printing EDA Options
--------------------------------
eda_child_super_basis      0
fragmo_guess_mode          0
child_mp                   1
child_mp_orders            232
cls_elec                   1
cls_disp                   0
scfmi_mode                 1
scfmi_occs                 0
scfmi_virts                0
frz_relax                  0
frz_relax_method           0
dc_pen_start               0
dc_pen_conv                0
dc_pen_increment           0
dc_pen_steps               0
dc_pen_thresh_factor       0
dc_pen_pre_newton_thresh   0
frz_ortho_decomp           1
frz_ortho_decomp_conv      6
frgm_method                2
scfmi_freeze_ss            0
separate_rehyb             0
plot_diff_den              0
eda_nocv                   0
eda_vct_relax              1
disp_free_x                0
disp_free_c                0
eda_bsse                   0
eda_pct_a                  0
eda_covp                   0
--------------------------------
Attempting to make child job directory: /tmp/qchem25638//Frg1/
Attempting to make child job directory: /tmp/qchem25638//Frg2/
Creating input file /tmp/qchem25638/Frg1.input
using default PutDataFrgm: nothing
calling putenv with: QCSCRATCH=/tmp/qchem25638/ 
calling putenv with: QCLOCALSCR=/tmp/qchem25638/ 
Spawning Job For Fragment 0
                  Welcome to Q-Chem
     A Quantum Leap Into The Future Of Chemistry


 Q-Chem 5.2, Q-Chem, Inc., Pleasanton, CA (2019)

 License issued to: National Energy Research Scientific Computing Center

 Yihan Shao,  Zhengting Gan,  E. Epifanovsky,  A. T. B. Gilbert,  M. Wormit,  
 J. Kussmann,  A. W. Lange,  A. Behn,  Jia Deng,  Xintian Feng,  D. Ghosh,  
 M. Goldey,  P. R. Horn,  L. D. Jacobson,  I. Kaliman,  T. Kus,  A. Landau,  
 Jie Liu,  E. I. Proynov,  R. M. Richard,  R. P. Steele,  E. J. Sundstrom,  
 H. L. Woodcock III,  P. M. Zimmerman,  D. Zuev,  B. Albrecht,  E. Alguire,  
 S. A. Baeppler,  D. Barton,  Z. Benda,  Y. A. Bernard,  E. J. Berquist,  
 K. B. Bravaya,  H. Burton,  D. Casanova,  Chun-Min Chang,  Yunqing Chen,  
 A. Chien,  K. D. Closser,  M. P. Coons,  S. Coriani,  S. Dasgupta,  
 A. L. Dempwolff,  M. Diedenhofen,  Hainam Do,  R. G. Edgar,  Po-Tung Fang,  
 S. Faraji,  S. Fatehi,  Qingguo Feng,  K. D. Fenk,  J. Fosso-Tande,  
 J. Gayvert,  Qinghui Ge,  A. Ghysels,  G. Gidofalvi,  J. Gomes,  
 J. Gonthier,  A. Gunina,  D. Hait,  M. W. D. Hanson-Heine,  
 P. H. P. Harbach,  A. W. Hauser,  M. F. Herbst,  J. E. Herr,  
 E. G. Hohenstein,  Z. C. Holden,  Kerwin Hui,  B. C. Huynh,  T.-C. Jagau,  
 Hyunjun Ji,  B. Kaduk,  K. Khistyaev,  Jaehoon Kim,  P. Klunzinger,  K. Koh,  
 D. Kosenkov,  L. Koulias,  T. Kowalczyk,  C. M. Krauter,  A. Kunitsa,  
 Ka Un Lao,  A. Laurent,  K. V. Lawler,  Joonho Lee,  D. Lefrancois,  
 S. Lehtola,  D. S. Levine,  Yi-Pei Li,  You-Sheng Lin,  Fenglai Liu,  
 E. Livshits,  A. Luenser,  P. Manohar,  E. Mansoor,  S. F. Manzer,  
 Shan-Ping Mao,  Yuezhi Mao,  N. Mardirossian,  A. V. Marenich,  
 T. Markovich,  L. A. Martinez-Martinez,  S. A. Maurer,  N. J. Mayhall,  
 S. C. McKenzie,  J.-M. Mewes,  P. Morgante,  A. F. Morrison,  
 J. W. Mullinax,  K. Nanda,  T. S. Nguyen-Beck,  R. Olivares-Amaya,  
 J. A. Parkhill,  Zheng Pei,  T. M. Perrine,  F. Plasser,  P. Pokhilko,  
 S. Prager,  A. Prociuk,  E. Ramos,  D. R. Rehn,  F. Rob,  M. Scheurer,  
 M. Schneider,  N. Sergueev,  S. M. Sharada,  S. Sharma,  D. W. Small,  
 T. Stauch,  T. Stein,  Yu-Chuan Su,  A. J. W. Thom,  A. Tkatchenko,  
 T. Tsuchimochi,  N. M. Tubman,  L. Vogt,  M. L. Vidal,  O. Vydrov,  
 M. A. Watson,  J. Wenzel,  M. de Wergifosse,  T. A. Wesolowski,  A. White,  
 J. Witte,  A. Yamada,  Jun Yang,  K. Yao,  S. Yeganeh,  S. R. Yost,  
 Zhi-Qiang You,  A. Zech,  Igor Ying Zhang,  Xing Zhang,  Yan Zhao,  
 Ying Zhu,  B. R. Brooks,  G. K. L. Chan,  C. J. Cramer,  M. S. Gordon,  
 W. J. Hehre,  A. Klamt,  M. W. Schmidt,  C. D. Sherrill,  D. G. Truhlar,  
 A. Aspuru-Guzik,  R. Baer,  A. T. Bell,  N. A. Besley,  Jeng-Da Chai,  
 A. E. DePrince, III,  R. A. DiStasio Jr.,  A. Dreuw,  B. D. Dunietz,  
 T. R. Furlani,  Chao-Ping Hsu,  Yousung Jung,  Jing Kong,  D. S. Lambrecht,  
 WanZhen Liang,  C. Ochsenfeld,  V. A. Rassolov,  L. V. Slipchenko,  
 J. E. Subotnik,  T. Van Voorhis,  J. M. Herbert,  A. I. Krylov,  
 P. M. W. Gill,  M. Head-Gordon

 Contributors to earlier versions of Q-Chem not listed above: 
 R. D. Adamson,  B. Austin,  J. Baker,  G. J. O. Beran,  K. Brandhorst,  
 S. T. Brown,  E. F. C. Byrd,  A. K. Chakraborty,  C.-L. Cheng,  
 Siu Hung Chien,  D. M. Chipman,  D. L. Crittenden,  H. Dachsel,  
 R. J. Doerksen,  A. D. Dutoi,  L. Fusti-Molnar,  W. A. Goddard III,  
 A. Golubeva-Zadorozhnaya,  S. R. Gwaltney,  G. Hawkins,  A. Heyden,  
 S. Hirata,  G. Kedziora,  F. J. Keil,  C. Kelley,  Jihan Kim,  R. A. King,  
 R. Z. Khaliullin,  P. P. Korambath,  W. Kurlancheek,  A. M. Lee,  M. S. Lee,  
 S. V. Levchenko,  Ching Yeh Lin,  D. Liotard,  R. C. Lochan,  I. Lotan,  
 P. E. Maslen,  N. Nair,  D. P. O'Neill,  D. Neuhauser,  E. Neuscamman,  
 C. M. Oana,  R. Olson,  B. Peters,  R. Peverati,  P. A. Pieniazek,  
 Y. M. Rhee,  J. Ritchie,  M. A. Rohrdanz,  E. Rosta,  N. J. Russ,  
 H. F. Schaefer III,  N. E. Schultz,  N. Shenvi,  A. C. Simmonett,  A. Sodt,  
 D. Stuck,  K. S. Thanthiriwatte,  V. Vanovschi,  Tao Wang,  A. Warshel,  
 C. F. Williams,  Q. Wu,  X. Xu,  W. Zhang

 Please cite Q-Chem as follows:
 Y. Shao et al., Mol. Phys. 113, 184-215 (2015)
 DOI: 10.1080/00268976.2014.952696

 Q-Chem 5.2.0 for Intel X86 EM64T Linux

 Parts of Q-Chem use Armadillo 8.300.2 (Tropical Shenanigans).
 http://arma.sourceforge.net/

 Q-Chem begins on Sun Sep 26 07:18:17 2021  

Host: cori01
0

     Scratch files written to /tmp/qchem25638//Frg1//
 May1019 |scratch|qcdevops|jenkins|workspace|build_RNUM -1
Processing $rem in /global/common/cori/software/qchem/5.2/config/preferences:
	 MEM_TOTAL  96000 
NAlpha2: 50
NElect   50
Mult     1
Symmetry turned off for PCM/SM12/SMD calculation

Checking the input file for inconsistencies... 	...done.

--------------------------------------------------------------
User input:
--------------------------------------------------------------
$molecule
0 1
 6	-0.4293649679	0.3918265888	4.2698823741
 6	1.8786350321	0.5718265888	1.2448823741
 6	1.0216350321	0.9458265888	2.2858823741
 6	2.1466350321	-0.7641734112	1.0228823741
 6	0.4436350321	-0.0231734112	3.1118823741
 6	1.5886350321	-1.7301734112	1.8358823741
 6	0.7376350321	-1.3691734112	2.8738823741
 1	2.3246350321	1.3288265888	0.6158823741
 1	0.8236350321	1.9908265888	2.4618823741
 1	2.8096350321	-1.0471734112	0.2178823741
 1	1.8506350321	-2.7621734112	1.6818823741
 1	0.0716350321	1.2028265888	4.7988823741
 1	-0.5253649679	-0.4411734112	4.9658823741
 1	0.3206350321	-2.1341734112	3.5138823741
 1	-1.4309439679	0.7328504888	3.9689793741
$end
$rem
EDA2		1
METHOD		WB97X-V
BASIS		DEF2-TZVPD
XC_GRID		000099000590
NL_GRID		1
UNRESTRICTED		FALSE
MAX_SCF_CYCLES		200
SYMMETRY		FALSE
SYM_IGNORE		TRUE
BASIS_LIN_DEP_THRESH		6
THRESH		14
SCF_CONVERGENCE		8
SCF_PRINT_FRGM		TRUE
SOLVENT_METHOD		PCM
!required keywords
JOBTYPE		SP
SYM_IGNORE		TRUE
SUBSYSTEM		TRUE
GEN_SCFMAN		TRUE
CHILD_INSTRUCTION		2
SYM_IGNORE		TRUE
SCFMI		0
RI_K 0		
PARI_K 0		
MIN_PARI_K 0		
IARI_K 0		
OCC_RI_K 0		
PURECART		1111
MEM_STATIC		2000
MEM_TOTAL		96000
GUI		0
CHILD_MP		1
CHILD_MP_ORDERS		232
FRZ_RELAX		0
FRZ_RELAX_METHOD		0
EDA_CLS_ELEC		1
EDA_CLS_DISP		0
FRZ_ORTHO_DECOMP		1
EDA2		FALSE
FRGM_METHOD		FALSE
CIS_N_ROOTS  0
LOCAL_CIS    0
CIS_RLX_DNS  1
$end
$pcm
THEORY                  CPCM
METHOD                  SWIG
SOLVER                  INVERSION
RADII                   UFF
HPOINTS                 302
HEAVYPOINTS             302
PRINTLEVEL              0
$end
$solvent
DIELECTRIC              78.390000 ! water
$end
--------------------------------------------------------------
 ----------------------------------------------------------------
             Standard Nuclear Orientation (Angstroms)
    I     Atom           X                Y                Z
 ----------------------------------------------------------------
    1      C      -0.4293649679     0.3918265888     4.2698823741
    2      C       1.8786350321     0.5718265888     1.2448823741
    3      C       1.0216350321     0.9458265888     2.2858823741
    4      C       2.1466350321    -0.7641734112     1.0228823741
    5      C       0.4436350321    -0.0231734112     3.1118823741
    6      C       1.5886350321    -1.7301734112     1.8358823741
    7      C       0.7376350321    -1.3691734112     2.8738823741
    8      H       2.3246350321     1.3288265888     0.6158823741
    9      H       0.8236350321     1.9908265888     2.4618823741
   10      H       2.8096350321    -1.0471734112     0.2178823741
   11      H       1.8506350321    -2.7621734112     1.6818823741
   12      H       0.0716350321     1.2028265888     4.7988823741
   13      H      -0.5253649679    -0.4411734112     4.9658823741
   14      H       0.3206350321    -2.1341734112     3.5138823741
   15      H      -1.4309439679     0.7328504888     3.9689793741
 ----------------------------------------------------------------
 Nuclear Repulsion Energy =         269.94293073 hartrees
 There are       25 alpha and       25 beta electrons
 Requested basis set is def2-TZVPD
 There are 131 shells and 331 basis functions

 Total QAlloc Memory Limit  96000 MB
 Mega-Array Size      1956 MB
 MEM_STATIC part      2000 MB
 Discretize the solute cavity surface with Lebedev spheres
	Using 302 Lebedev grid points for each H atom
	Using 302 Lebedev grid points for other atoms
	Atomic van der Waals radii will be scaled by 1.20
 Remove points where switching function is < 1.0e-08
 Keep 1795 surface tesserae and discard 2735 interior tesserae
 Molecular Surface Area = 178.304 Angst**2

                       Distance Matrix (Angstroms)
             C (  1)   C (  2)   C (  3)   C (  4)   C (  5)   C (  6)
   C (  2)  3.809185
   C (  3)  2.519637  1.399288
   C (  4)  4.302920  1.380581  2.405181
   C (  5)  1.508416  2.428773  1.398328  2.795212
   C (  6)  3.807829  2.394282  2.772177  1.380395  2.419308
   C (  7)  2.532158  2.779029  2.405333  2.403645  1.398140  1.389952
   H (  8)  4.670568  1.080558  2.152533  2.139622  3.405302  3.374548
   H (  9)  2.719499  2.146550  1.078056  3.378028  2.150139  3.850057
   H ( 10)  5.383358  2.131350  3.383137  1.080594  3.875793  2.138984
   H ( 11)  4.673742  3.362634  3.847248  2.124594  3.395095  1.075818
   H ( 12)  1.090212  4.036623  2.698836  4.736337  2.118355  4.436569
   H ( 13)  1.089734  4.544362  3.391073  4.774009  2.133308  3.990917
   H ( 14)  2.741298  3.859814  3.389068  3.378795  2.152453  2.141664
   H ( 15)  1.100000  4.289516  2.982167  4.870281  2.195503  4.442347
             C (  7)   H (  8)   H (  9)   H ( 10)   H ( 11)   H ( 12)
   H (  8)  3.859577
   H (  9)  3.386258  2.469607
   H ( 10)  3.383963  2.457439  4.267221
   H ( 11)  2.144780  4.254094  4.924849  2.450347
   H ( 12)  3.280909  4.752828  2.578375  5.791779  5.348061
   H ( 13)  2.613966  5.493442  3.742251  5.833778  4.670875  1.756996
   H ( 14)  1.081071  4.940323  4.286646  4.270867  2.468098  3.584522
   H ( 15)  3.212550  5.069795  2.989477  5.934789  5.311757  1.779708
             H ( 13)   H ( 14)
   H ( 14)  2.385428
   H ( 15)  1.786679  3.390423
 
 A cutoff of  1.0D-14 yielded   8364 shell pairs
 There are     54516 function pairs (     69470 Cartesian)
 Smallest overlap matrix eigenvalue = 5.51E-07
 Linear dependence detected in AO basis
 Tighter screening thresholds may be required for diffuse basis sets
 Use S2THRESH > 14 and THRESH = 14 in case of SCF convergence issues
 Number of orthogonalized atomic orbitals = 330
 Maximum deviation from orthogonality = 1.844E-10

 Scale SEOQF with 1.000000e-01/1.000000e-01/1.000000e-01

 Standard Electronic Orientation quadrupole field applied
 Nucleus-field energy     =    -0.0000000317 hartrees
 Guess from superposition of atomic densities
 Warning:  Energy on first SCF cycle will be non-variational
 SAD guess density has 49.913408 electrons

 -----------------------------------------------------------------------
  General SCF calculation program by
  Eric Jon Sundstrom, Paul Horn, Yuezhi Mao, Dmitri Zuev, Alec White,
  David Stuck, Shaama M.S., Shane Yost, Joonho Lee, David Small,
  Daniel Levine, Susi Lehtola, Hugh Burton, Evgeny Epifanovsky
 -----------------------------------------------------------------------
 Exchange:     0.1670 Hartree-Fock + 1.0000 wB97X-V + LR-HF
 Correlation:  1.0000 wB97X-V
 Using Euler-Maclaurin-Lebedev (99,590) quadrature formula
 Nonlocal Correlation:  VV10 with C = 0.0100 and b = 6.00 and scale = 1.00000
 Grid used for NLC:  SG-1 standard quadrature
Energy prior to optimization (guess energy) = -271.519387556120
Begin Timing: Total SCF Calculation
begin iterations for algorithm: DIIS         
the SCF tolerance is set to 1.00e-08
    1    -271.5193875561      1.97e-03     00000 
    2    -271.5587024632      1.27e-03     00000 
    3    -271.5809482897      1.39e-04     00000 
    4    -271.5813641764      4.76e-05     00000 
    5    -271.5813985112      1.58e-05     00000 
    6    -271.5814030007      3.73e-06     00000 
    7    -271.5814033002      1.69e-06     00000 
    8    -271.5814033473      3.57e-07     00000 
    9    -271.5814033505      7.51e-08     00000 
   10    -271.5814033507      3.73e-08     00000 
   11    -271.5814033507      9.85e-09     00000 Convergence criterion met
Timing for Total SCF: 1386.00s (wall), 2753.10s (cpu)

************** Final PCM Free Energy Summary **************
 G_electrostatic  =      -0.00246664 hartree =      -1.54783707 kcal/mol
 G_cavitation     =       0.00000000 hartree =       0.00000000 kcal/mol
 G_dispersion     =       0.00000000 hartree =       0.00000000 kcal/mol
 G_repulsion      =       0.00000000 hartree =       0.00000000 kcal/mol
 --------------------------------------------------
 Non-electrostatic Free Energy =       0.00000000 hartree =       0.00000000 kcal/mol
 Total                         =      -0.00246664 hartree =      -1.54783707 kcal/mol
 --------------------------------------------------
 SCF Energy (H0 + V/2)                       =    -271.58140335 
 Solute Internal Energy (H0)                 =    -271.57893672 
 Total Free Energy (H0 + V/2 + non-elec)     =    -271.58140335 hartree
                                             = -170419.90275003 kcal/mol
***********************************************************

E_pcm = -0.0024666354
Multipole orders to be included
        2
        3
computing dipole RHS
computing quadrupole RHS
total number of RHS in solve_reponses: 8
RHS batch sizes
        8
Beginning Block Conjugate Gradient Iterations. Batch Number: 0
computing hessian-vector products by finite difference
              1      5.83e-01     00000 Conjugate Gradient Iteration
computing hessian-vector products by finite difference
              2      1.95e-01     00000 Conjugate Gradient Iteration
computing hessian-vector products by finite difference
              3      4.50e-02     00000 Conjugate Gradient Iteration
computing hessian-vector products by finite difference
              4      9.85e-03     00000 Conjugate Gradient Iteration
computing hessian-vector products by finite difference
              5      2.39e-03     00000 Conjugate Gradient Iteration
computing hessian-vector products by finite difference
              6      7.20e-04     00000 Conjugate Gradient Iteration
computing hessian-vector products by finite difference
              7      1.60e-04     00000 Conjugate Gradient Iteration
computing hessian-vector products by finite difference
              8      2.44e-05     00000 Conjugate Gradient Iteration
computing hessian-vector products by finite difference
              9      3.58e-06     00000 Conjugate Gradient Iteration
computing hessian-vector products by finite difference
             10      5.09e-07     00000 Conjugate Gradient Iteration
computing hessian-vector products by finite difference
             11      7.43e-08     00000 Conjugate Gradient Iteration
computing hessian-vector products by finite difference
             12      1.31e-08     00000 Conjugate Gradient Iteration
computing hessian-vector products by finite difference
             13      3.14e-09     00000 CG Converged
batch 0 complete
Done Calculating Responses
TESTING ORTHOGONALIZATION OF MULTIPOLE BASIS
Multipole virts passed orthogonality test
Virts Per Order
           75
          125
 
 --------------------------------------------------------------
 
                    Orbital Energies (a.u.)
 --------------------------------------------------------------
 
 Alpha MOs
 -- Occupied --
-10.2835 -10.2726 -10.2711 -10.2704 -10.2703 -10.2676 -10.2632  -0.9980
 -0.9082  -0.8790  -0.8143  -0.7317  -0.7055  -0.6313  -0.5746  -0.5678
 -0.5355  -0.5301  -0.5145  -0.4895  -0.4746  -0.4421  -0.4409  -0.3489
 -0.3391
 -- Virtual --
  0.0624   0.0632   0.0692   0.0789   0.0845   0.1044   0.1102   0.1135
  0.1355   0.1538   0.1651   0.1696   0.1840   0.1903   0.1945   0.1992
  0.2212   0.2252   0.2329   0.2399   0.2489   0.2574   0.2595   0.2707
  0.2786   0.2815   0.2864   0.2922   0.2940   0.3001   0.3022   0.3110
  0.3209   0.3241   0.3294   0.3379   0.3491   0.3527   0.3653   0.3739
  0.3753   0.3820   0.3856   0.3879   0.3911   0.3989   0.4023   0.4053
  0.4131   0.4271   0.4317   0.4360   0.4403   0.4470   0.4523   0.4541
  0.4663   0.4700   0.4734   0.4827   0.4909   0.4987   0.5102   0.5144
  0.5175   0.5225   0.5339   0.5398   0.5437   0.5490   0.5541   0.5632
  0.5784   0.5820   0.5892   0.5971   0.5984   0.6228   0.6369   0.6443
  0.6646   0.6719   0.6815   0.6839   0.6913   0.7002   0.7208   0.7252
  0.7293   0.7340   0.7428   0.7595   0.7636   0.7676   0.7744   0.7840
  0.7904   0.7922   0.7989   0.8010   0.8076   0.8226   0.8253   0.8281
  0.8349   0.8367   0.8489   0.8545   0.8601   0.8643   0.8865   0.8901
  0.9110   0.9207   0.9347   0.9453   0.9544   1.0063   1.0265   1.0392
  1.0465   1.0623   1.0702   1.0789   1.0892   1.0961   1.1025   1.1400
  1.1629   1.1715   1.2561   1.2757   1.2945   1.3271   1.3536   1.3561
  1.3772   1.4365   1.4492   1.4593   1.4661   1.4743   1.5291   1.5374
  1.6033   1.6108   1.6185   1.6267   1.6534   1.6820   1.7342   1.7789
  1.7824   1.7952   1.7976   1.8126   1.8315   1.8616   1.8833   1.9087
  1.9174   1.9228   1.9338   1.9672   1.9859   1.9926   2.0121   2.0276
  2.0346   2.0441   2.0684   2.0915   2.1102   2.1233   2.1750   2.1784
  2.2013   2.2300   2.2402   2.2702   2.2871   2.3140   2.3815   2.3998
  2.4080   2.4163   2.4666   2.5094   2.5404   2.5583   2.5624   2.6054
  2.6116   2.6365   2.6659   2.6727   2.6991   2.7071   2.7637   2.7777
  2.7851   2.8105   2.8185   2.8484   2.8598   2.8958   2.9060   2.9207
  2.9322   2.9416   2.9722   2.9761   2.9917   3.0131   3.0221   3.0497
  3.0618   3.0915   3.0986   3.1207   3.1701   3.1906   3.1975   3.2109
  3.2284   3.2460   3.2765   3.2919   3.3433   3.3561   3.3590   3.3792
  3.4068   3.4363   3.4428   3.4524   3.4568   3.4828   3.4899   3.4976
  3.5046   3.5386   3.5416   3.5439   3.5519   3.5728   3.5805   3.6041
  3.6194   3.6377   3.6550   3.6930   3.7140   3.7542   3.7728   3.8020
  3.8482   3.8906   3.9223   3.9435   3.9517   3.9952   4.0434   4.0565
  4.1251   4.1997   4.2677   4.2811   4.2955   4.3110   4.3286   4.3427
  4.3630   4.3700   4.3910   4.4044   4.4292   4.4571   4.4890   4.5395
  4.5908   4.6228   4.7498   4.7757   4.8257   4.8641   4.9086   4.9442
  5.0267   5.0466   5.1675   5.2677   5.3783   5.3960   5.4978   5.5258
  5.6744   5.8478  22.5800  22.6649  22.9033  22.9115  23.0061  23.0917
 23.4193
 --------------------------------------------------------------
 
          Ground-State Mulliken Net Atomic Charges

     Atom                 Charge (a.u.)
  ----------------------------------------
      1 C                    -1.025351
      2 C                    -0.462325
      3 C                    -0.314820
      4 C                    -0.471596
      5 C                     0.855043
      6 C                    -0.511783
      7 C                    -0.409905
      8 H                     0.312826
      9 H                     0.342932
     10 H                     0.328754
     11 H                     0.316060
     12 H                     0.246799
     13 H                     0.273188
     14 H                     0.299208
     15 H                     0.220971
  ----------------------------------------
  Sum of atomic charges =     0.000000

 -----------------------------------------------------------------
                    Cartesian Multipole Moments
 -----------------------------------------------------------------
    Charge (ESU x 10^10)
                -0.0000
    Dipole Moment (Debye)
         X      -0.1894      Y       0.1729      Z       0.4211
       Tot       0.4930
    Quadrupole Moments (Debye-Ang)
        XX     -43.4607     XY      -0.3309     YY     -38.4049
        XZ      -4.0303     YZ       0.0322     ZZ     -39.1565
    Octopole Moments (Debye-Ang^2)
       XXX    -134.9800    XXY      11.0478    XYY     -37.1255
       YYY      28.9754    XXZ    -115.5882    XYZ       0.7652
       YYZ     -93.6607    XZZ     -56.6132    YZZ      10.2086
       ZZZ    -292.7970
    Hexadecapole Moments (Debye-Ang^3)
      XXXX    -550.8754   XXXY      63.8185   XXYY    -139.1605
      XYYY      57.0240   YYYY    -320.7987   XXXZ    -217.9175
      XXYZ      22.4775   XYYZ     -55.1169   YYYZ      42.0238
      XXZZ    -443.8362   XYZZ      28.9340   YYZZ    -348.1736
      XZZZ    -221.6496   YZZZ      45.9682   ZZZZ   -1833.1735
 -----------------------------------------------------------------
Archival summary:
1\1\nid00555\SP\ProcedureUnspecified\BasisUnspecified\78\meili\SunSep2616:07:582021SunSep2616:07:582021\0\\#,ProcedureUnspecified,BasisUnspecified,\\0,1\C\C,1,1.39814\H,2,1.08107,1,119.957\C,2,1.38995,1,120.391,3,-178.545,0\H,4,1.07582,2,120.341,1,177.143,0\C,4,1.38039,2,120.369,1,-0.406085,0\H,6,1.08059,4,120.232,2,179.867,0\C,6,1.38058,4,120.267,2,0.88095,0\H,8,1.08056,6,120.279,4,179.273,0\C,1,1.39833,2,118.663,3,178.577,0\H,10,1.07806,1,119.958,2,-178.881,0\C,1,1.50842,2,121.148,3,1.23121,0\H,12,1.08973,1,109.329,2,15.0599,0\H,12,1.09021,1,108.132,2,131.708,0\H,12,1.1,1,113.72,2,-107.475,0\\\@

 Total job time:  31782.18s(wall), 62951.27s(cpu) 
 Sun Sep 26 16:08:00 2021

        *************************************************************
        *                                                           *
        *  Thank you very much for using Q-Chem.  Have a nice day.  *
        *                                                           *
        *************************************************************


Done Job For Fragment 0
calling putenv with: QCSCRATCH=/global/cscratch1/sd/meili 
calling putenv with: QCLOCALSCR=/tmp 
calling putenv with: QCTHREADS=32 
Creating input file /tmp/qchem25638/Frg2.input
using default PutDataFrgm: nothing
calling putenv with: QCSCRATCH=/tmp/qchem25638/ 
calling putenv with: QCLOCALSCR=/tmp/qchem25638/ 
Spawning Job For Fragment 1
                  Welcome to Q-Chem
     A Quantum Leap Into The Future Of Chemistry


 Q-Chem 5.2, Q-Chem, Inc., Pleasanton, CA (2019)

 License issued to: National Energy Research Scientific Computing Center

 Yihan Shao,  Zhengting Gan,  E. Epifanovsky,  A. T. B. Gilbert,  M. Wormit,  
 J. Kussmann,  A. W. Lange,  A. Behn,  Jia Deng,  Xintian Feng,  D. Ghosh,  
 M. Goldey,  P. R. Horn,  L. D. Jacobson,  I. Kaliman,  T. Kus,  A. Landau,  
 Jie Liu,  E. I. Proynov,  R. M. Richard,  R. P. Steele,  E. J. Sundstrom,  
 H. L. Woodcock III,  P. M. Zimmerman,  D. Zuev,  B. Albrecht,  E. Alguire,  
 S. A. Baeppler,  D. Barton,  Z. Benda,  Y. A. Bernard,  E. J. Berquist,  
 K. B. Bravaya,  H. Burton,  D. Casanova,  Chun-Min Chang,  Yunqing Chen,  
 A. Chien,  K. D. Closser,  M. P. Coons,  S. Coriani,  S. Dasgupta,  
 A. L. Dempwolff,  M. Diedenhofen,  Hainam Do,  R. G. Edgar,  Po-Tung Fang,  
 S. Faraji,  S. Fatehi,  Qingguo Feng,  K. D. Fenk,  J. Fosso-Tande,  
 J. Gayvert,  Qinghui Ge,  A. Ghysels,  G. Gidofalvi,  J. Gomes,  
 J. Gonthier,  A. Gunina,  D. Hait,  M. W. D. Hanson-Heine,  
 P. H. P. Harbach,  A. W. Hauser,  M. F. Herbst,  J. E. Herr,  
 E. G. Hohenstein,  Z. C. Holden,  Kerwin Hui,  B. C. Huynh,  T.-C. Jagau,  
 Hyunjun Ji,  B. Kaduk,  K. Khistyaev,  Jaehoon Kim,  P. Klunzinger,  K. Koh,  
 D. Kosenkov,  L. Koulias,  T. Kowalczyk,  C. M. Krauter,  A. Kunitsa,  
 Ka Un Lao,  A. Laurent,  K. V. Lawler,  Joonho Lee,  D. Lefrancois,  
 S. Lehtola,  D. S. Levine,  Yi-Pei Li,  You-Sheng Lin,  Fenglai Liu,  
 E. Livshits,  A. Luenser,  P. Manohar,  E. Mansoor,  S. F. Manzer,  
 Shan-Ping Mao,  Yuezhi Mao,  N. Mardirossian,  A. V. Marenich,  
 T. Markovich,  L. A. Martinez-Martinez,  S. A. Maurer,  N. J. Mayhall,  
 S. C. McKenzie,  J.-M. Mewes,  P. Morgante,  A. F. Morrison,  
 J. W. Mullinax,  K. Nanda,  T. S. Nguyen-Beck,  R. Olivares-Amaya,  
 J. A. Parkhill,  Zheng Pei,  T. M. Perrine,  F. Plasser,  P. Pokhilko,  
 S. Prager,  A. Prociuk,  E. Ramos,  D. R. Rehn,  F. Rob,  M. Scheurer,  
 M. Schneider,  N. Sergueev,  S. M. Sharada,  S. Sharma,  D. W. Small,  
 T. Stauch,  T. Stein,  Yu-Chuan Su,  A. J. W. Thom,  A. Tkatchenko,  
 T. Tsuchimochi,  N. M. Tubman,  L. Vogt,  M. L. Vidal,  O. Vydrov,  
 M. A. Watson,  J. Wenzel,  M. de Wergifosse,  T. A. Wesolowski,  A. White,  
 J. Witte,  A. Yamada,  Jun Yang,  K. Yao,  S. Yeganeh,  S. R. Yost,  
 Zhi-Qiang You,  A. Zech,  Igor Ying Zhang,  Xing Zhang,  Yan Zhao,  
 Ying Zhu,  B. R. Brooks,  G. K. L. Chan,  C. J. Cramer,  M. S. Gordon,  
 W. J. Hehre,  A. Klamt,  M. W. Schmidt,  C. D. Sherrill,  D. G. Truhlar,  
 A. Aspuru-Guzik,  R. Baer,  A. T. Bell,  N. A. Besley,  Jeng-Da Chai,  
 A. E. DePrince, III,  R. A. DiStasio Jr.,  A. Dreuw,  B. D. Dunietz,  
 T. R. Furlani,  Chao-Ping Hsu,  Yousung Jung,  Jing Kong,  D. S. Lambrecht,  
 WanZhen Liang,  C. Ochsenfeld,  V. A. Rassolov,  L. V. Slipchenko,  
 J. E. Subotnik,  T. Van Voorhis,  J. M. Herbert,  A. I. Krylov,  
 P. M. W. Gill,  M. Head-Gordon

 Contributors to earlier versions of Q-Chem not listed above: 
 R. D. Adamson,  B. Austin,  J. Baker,  G. J. O. Beran,  K. Brandhorst,  
 S. T. Brown,  E. F. C. Byrd,  A. K. Chakraborty,  C.-L. Cheng,  
 Siu Hung Chien,  D. M. Chipman,  D. L. Crittenden,  H. Dachsel,  
 R. J. Doerksen,  A. D. Dutoi,  L. Fusti-Molnar,  W. A. Goddard III,  
 A. Golubeva-Zadorozhnaya,  S. R. Gwaltney,  G. Hawkins,  A. Heyden,  
 S. Hirata,  G. Kedziora,  F. J. Keil,  C. Kelley,  Jihan Kim,  R. A. King,  
 R. Z. Khaliullin,  P. P. Korambath,  W. Kurlancheek,  A. M. Lee,  M. S. Lee,  
 S. V. Levchenko,  Ching Yeh Lin,  D. Liotard,  R. C. Lochan,  I. Lotan,  
 P. E. Maslen,  N. Nair,  D. P. O'Neill,  D. Neuhauser,  E. Neuscamman,  
 C. M. Oana,  R. Olson,  B. Peters,  R. Peverati,  P. A. Pieniazek,  
 Y. M. Rhee,  J. Ritchie,  M. A. Rohrdanz,  E. Rosta,  N. J. Russ,  
 H. F. Schaefer III,  N. E. Schultz,  N. Shenvi,  A. C. Simmonett,  A. Sodt,  
 D. Stuck,  K. S. Thanthiriwatte,  V. Vanovschi,  Tao Wang,  A. Warshel,  
 C. F. Williams,  Q. Wu,  X. Xu,  W. Zhang

 Please cite Q-Chem as follows:
 Y. Shao et al., Mol. Phys. 113, 184-215 (2015)
 DOI: 10.1080/00268976.2014.952696

 Q-Chem 5.2.0 for Intel X86 EM64T Linux

 Parts of Q-Chem use Armadillo 8.300.2 (Tropical Shenanigans).
 http://arma.sourceforge.net/

 Q-Chem begins on Sun Sep 26 16:08:02 2021  

Host: cori01
0

     Scratch files written to /tmp/qchem25638//Frg2//
 May1019 |scratch|qcdevops|jenkins|workspace|build_RNUM -1
Processing $rem in /global/common/cori/software/qchem/5.2/config/preferences:
	 MEM_TOTAL  96000 
NAlpha2: 50
NElect   50
Mult     1
Symmetry turned off for PCM/SM12/SMD calculation

Checking the input file for inconsistencies... 	...done.

--------------------------------------------------------------
User input:
--------------------------------------------------------------
$molecule
0 1
 6	0.0016350321	-1.9031734112	-2.0161176259
 6	-0.5213649679	0.4618265888	-1.3431176259
 6	-0.6043649679	-0.5611734112	-2.2781176259
 6	-1.1023649679	1.7068265888	-1.5571176259
 6	-1.3563649679	-0.3431734112	-3.4101176259
 6	-1.8053649679	1.9248265888	-2.7211176259
 6	-1.9403649679	0.8898265888	-3.6231176259
 1	-0.0023649679	0.2858265888	-0.4171176259
 1	-1.0083649679	2.4878265888	-0.8161176259
 1	-0.7453649679	-2.6421734112	-2.2041176259
 1	0.3106350321	-1.9711734112	-0.9721176259
 1	-1.5163649679	-1.1341734112	-4.1261176259
 1	-2.2863649679	2.8748265888	-2.9061176259
 1	-2.5503649679	1.0108265888	-4.4991176259
 1	0.8528550321	-2.1467884112	-2.6688626259
$end
$rem
EDA2		1
METHOD		WB97X-V
BASIS		DEF2-TZVPD
XC_GRID		000099000590
NL_GRID		1
UNRESTRICTED		FALSE
MAX_SCF_CYCLES		200
SYMMETRY		FALSE
SYM_IGNORE		TRUE
BASIS_LIN_DEP_THRESH		6
THRESH		14
SCF_CONVERGENCE		8
SCF_PRINT_FRGM		TRUE
SOLVENT_METHOD		PCM
!required keywords
JOBTYPE		SP
SYM_IGNORE		TRUE
SUBSYSTEM		TRUE
GEN_SCFMAN		TRUE
CHILD_INSTRUCTION		2
SYM_IGNORE		TRUE
SCFMI		0
RI_K 0		
PARI_K 0		
MIN_PARI_K 0		
IARI_K 0		
OCC_RI_K 0		
PURECART		1111
MEM_STATIC		2000
MEM_TOTAL		96000
GUI		0
CHILD_MP		1
CHILD_MP_ORDERS		232
FRZ_RELAX		0
FRZ_RELAX_METHOD		0
EDA_CLS_ELEC		1
EDA_CLS_DISP		0
FRZ_ORTHO_DECOMP		1
EDA2		FALSE
FRGM_METHOD		FALSE
CIS_N_ROOTS  0
LOCAL_CIS    0
CIS_RLX_DNS  1
$end
$pcm
THEORY                  CPCM
METHOD                  SWIG
SOLVER                  INVERSION
RADII                   UFF
HPOINTS                 302
HEAVYPOINTS             302
PRINTLEVEL              0
$end
$solvent
DIELECTRIC              78.390000 ! water
$end
--------------------------------------------------------------
 ----------------------------------------------------------------
             Standard Nuclear Orientation (Angstroms)
    I     Atom           X                Y                Z
 ----------------------------------------------------------------
    1      C       0.0016350321    -1.9031734112    -2.0161176259
    2      C      -0.5213649679     0.4618265888    -1.3431176259
    3      C      -0.6043649679    -0.5611734112    -2.2781176259
    4      C      -1.1023649679     1.7068265888    -1.5571176259
    5      C      -1.3563649679    -0.3431734112    -3.4101176259
    6      C      -1.8053649679     1.9248265888    -2.7211176259
    7      C      -1.9403649679     0.8898265888    -3.6231176259
    8      H      -0.0023649679     0.2858265888    -0.4171176259
    9      H      -1.0083649679     2.4878265888    -0.8161176259
   10      H      -0.7453649679    -2.6421734112    -2.2041176259
   11      H       0.3106350321    -1.9711734112    -0.9721176259
   12      H      -1.5163649679    -1.1341734112    -4.1261176259
   13      H      -2.2863649679     2.8748265888    -2.9061176259
   14      H      -2.5503649679     1.0108265888    -4.4991176259
   15      H       0.8528550321    -2.1467884112    -2.6688626259
 ----------------------------------------------------------------
 Nuclear Repulsion Energy =         271.63351219 hartrees
 There are       25 alpha and       25 beta electrons
 Requested basis set is def2-TZVPD
 There are 131 shells and 331 basis functions

 Total QAlloc Memory Limit  96000 MB
 Mega-Array Size      1956 MB
 MEM_STATIC part      2000 MB
 Discretize the solute cavity surface with Lebedev spheres
	Using 302 Lebedev grid points for each H atom
	Using 302 Lebedev grid points for other atoms
	Atomic van der Waals radii will be scaled by 1.20
 Remove points where switching function is < 1.0e-08
 Keep 1805 surface tesserae and discard 2725 interior tesserae
 Molecular Surface Area = 177.257 Angst**2

                       Distance Matrix (Angstroms)
             C (  1)   C (  2)   C (  3)   C (  4)   C (  5)   C (  6)
   C (  2)  2.513898
   C (  3)  1.495608  1.388396
   C (  4)  3.802841  1.390461  2.431392
   C (  5)  2.494193  2.370177  1.376391  2.775000
   C (  6)  4.291370  2.384934  2.796220  1.377182  2.412498
   C (  7)  3.762268  2.719402  2.387325  2.374466  1.380838  1.379512
   H (  8)  2.710819  1.076017  2.131463  2.128107  3.344698  3.353438
   H (  9)  4.662722  2.149319  3.405446  1.080684  3.855451  2.140374
   H ( 10)  1.067461  3.228980  2.087084  4.411333  2.667050  4.716819
   H ( 11)  1.090890  2.597952  2.128605  3.983275  3.372405  4.766054
   H ( 12)  2.710680  3.358918  2.138966  3.852588  1.078859  3.378613
   H ( 13)  5.371809  3.373539  3.876803  2.141467  3.387394  1.080780
   H ( 14)  4.601020  3.791910  3.345286  3.352087  2.108287  2.133473
   H ( 15)  1.100000  3.232793  2.188686  4.461974  2.946717  4.862809
             C (  7)   H (  8)   H (  9)   H ( 10)   H ( 11)   H ( 12)
   H (  8)  3.794614
   H (  9)  3.361767  2.453577
   H ( 10)  3.989563  3.509787  5.320960
   H ( 11)  4.503346  2.345217  4.652610  1.755905
   H ( 12)  2.128230  4.250327  4.932854  2.561755  3.739815
   H ( 13)  2.138698  4.256137  2.480152  5.771029  5.828249  4.260678
   H ( 14)  1.074298  4.866277  4.257204  4.676479  5.432989  2.410251
   H ( 15)  4.234821  3.423357  5.326956  1.736577  1.789912  2.960099
             H ( 13)   H ( 14)
   H ( 14)  2.466139
   H ( 15)  5.926855  4.990218
 
 A cutoff of  1.0D-14 yielded   8370 shell pairs
 There are     54542 function pairs (     69497 Cartesian)
 Smallest overlap matrix eigenvalue = 5.18E-07
 Linear dependence detected in AO basis
 Tighter screening thresholds may be required for diffuse basis sets
 Use S2THRESH > 14 and THRESH = 14 in case of SCF convergence issues
 Number of orthogonalized atomic orbitals = 330
 Maximum deviation from orthogonality = 1.511E-10

 Scale SEOQF with 1.000000e-01/1.000000e-01/1.000000e-01

 Standard Electronic Orientation quadrupole field applied
 Nucleus-field energy     =    -0.0000000255 hartrees
 Guess from superposition of atomic densities
 Warning:  Energy on first SCF cycle will be non-variational
 SAD guess density has 49.913408 electrons

 -----------------------------------------------------------------------
  General SCF calculation program by
  Eric Jon Sundstrom, Paul Horn, Yuezhi Mao, Dmitri Zuev, Alec White,
  David Stuck, Shaama M.S., Shane Yost, Joonho Lee, David Small,
  Daniel Levine, Susi Lehtola, Hugh Burton, Evgeny Epifanovsky
 -----------------------------------------------------------------------
 Exchange:     0.1670 Hartree-Fock + 1.0000 wB97X-V + LR-HF
 Correlation:  1.0000 wB97X-V
 Using Euler-Maclaurin-Lebedev (99,590) quadrature formula
 Nonlocal Correlation:  VV10 with C = 0.0100 and b = 6.00 and scale = 1.00000
 Grid used for NLC:  SG-1 standard quadrature
Energy prior to optimization (guess energy) = -271.514674957668
Begin Timing: Total SCF Calculation
begin iterations for algorithm: DIIS         
the SCF tolerance is set to 1.00e-08
    1    -271.5146749577      2.03e-03     00000 
    2    -271.5551588577      1.31e-03     00000 
    3    -271.5790041017      1.41e-04     00000 
    4    -271.5794196374      5.15e-05     00000 
    5    -271.5794580143      1.65e-05     00000 
    6    -271.5794627664      4.42e-06     00000 
    7    -271.5794631351      1.98e-06     00000 
    8    -271.5794632035      3.55e-07     00000 
    9    -271.5794632071      8.11e-08     00000 
   10    -271.5794632073      4.73e-08     00000 
   11    -271.5794632074      1.39e-08     00000 
   12    -271.5794632074      5.82e-09     00000 Convergence criterion met
Timing for Total SCF: 1589.00s (wall), 3147.86s (cpu)

************** Final PCM Free Energy Summary **************
 G_electrostatic  =      -0.00239230 hartree =      -1.50119170 kcal/mol
 G_cavitation     =       0.00000000 hartree =       0.00000000 kcal/mol
 G_dispersion     =       0.00000000 hartree =       0.00000000 kcal/mol
 G_repulsion      =       0.00000000 hartree =       0.00000000 kcal/mol
 --------------------------------------------------
 Non-electrostatic Free Energy =       0.00000000 hartree =       0.00000000 kcal/mol
 Total                         =      -0.00239230 hartree =      -1.50119170 kcal/mol
 --------------------------------------------------
 SCF Energy (H0 + V/2)                       =    -271.57946321 
 Solute Internal Energy (H0)                 =    -271.57707091 
 Total Free Energy (H0 + V/2 + non-elec)     =    -271.57946321 hartree
                                             = -170418.68529174 kcal/mol
***********************************************************

E_pcm = -0.0023923013
Multipole orders to be included
        2
        3
computing dipole RHS
computing quadrupole RHS
total number of RHS in solve_reponses: 8
RHS batch sizes
        8
Beginning Block Conjugate Gradient Iterations. Batch Number: 0
computing hessian-vector products by finite difference
              1      5.76e-01     00000 Conjugate Gradient Iteration
computing hessian-vector products by finite difference
              2      1.84e-01     00000 Conjugate Gradient Iteration
computing hessian-vector products by finite difference
              3      4.29e-02     00000 Conjugate Gradient Iteration
computing hessian-vector products by finite difference
              4      1.01e-02     00000 Conjugate Gradient Iteration
computing hessian-vector products by finite difference
              5      2.08e-03     00000 Conjugate Gradient Iteration
computing hessian-vector products by finite difference
              6      5.37e-04     00000 Conjugate Gradient Iteration
computing hessian-vector products by finite difference
              7      1.18e-04     00000 Conjugate Gradient Iteration
computing hessian-vector products by finite difference
              8      1.79e-05     00000 Conjugate Gradient Iteration
computing hessian-vector products by finite difference
              9      2.66e-06     00000 Conjugate Gradient Iteration
computing hessian-vector products by finite difference
             10      4.62e-07     00000 Conjugate Gradient Iteration
computing hessian-vector products by finite difference
             11      9.14e-08     00000 Conjugate Gradient Iteration
computing hessian-vector products by finite difference
             12      1.41e-08     00000 Conjugate Gradient Iteration
computing hessian-vector products by finite difference
             13      3.35e-09     00000 CG Converged
batch 0 complete
Done Calculating Responses
TESTING ORTHOGONALIZATION OF MULTIPOLE BASIS
Multipole virts passed orthogonality test
Virts Per Order
           75
          125
 
 --------------------------------------------------------------
 
                    Orbital Energies (a.u.)
 --------------------------------------------------------------
 
 Alpha MOs
 -- Occupied --
-10.2783 -10.2709 -10.2681 -10.2671 -10.2670 -10.2650 -10.2595  -1.0026
 -0.9116  -0.8803  -0.8168  -0.7318  -0.7083  -0.6331  -0.5775  -0.5661
 -0.5361  -0.5293  -0.5179  -0.4917  -0.4756  -0.4436  -0.4396  -0.3494
 -0.3401
 -- Virtual --
  0.0628   0.0652   0.0714   0.0791   0.0845   0.1044   0.1104   0.1133
  0.1357   0.1540   0.1666   0.1725   0.1803   0.1894   0.1949   0.1991
  0.2206   0.2278   0.2324   0.2417   0.2483   0.2576   0.2602   0.2719
  0.2765   0.2816   0.2904   0.2930   0.2949   0.3001   0.3022   0.3118
  0.3221   0.3259   0.3330   0.3420   0.3523   0.3534   0.3676   0.3746
  0.3764   0.3832   0.3874   0.3895   0.3924   0.3979   0.4001   0.4051
  0.4143   0.4270   0.4318   0.4402   0.4419   0.4479   0.4559   0.4567
  0.4718   0.4721   0.4774   0.4870   0.4940   0.5030   0.5098   0.5133
  0.5185   0.5256   0.5364   0.5422   0.5450   0.5506   0.5519   0.5696
  0.5745   0.5763   0.5902   0.6004   0.6084   0.6197   0.6381   0.6468
  0.6656   0.6739   0.6868   0.6894   0.6911   0.7017   0.7226   0.7254
  0.7271   0.7367   0.7417   0.7564   0.7661   0.7688   0.7720   0.7837
  0.7906   0.7951   0.7998   0.8049   0.8066   0.8199   0.8244   0.8281
  0.8377   0.8379   0.8476   0.8551   0.8663   0.8683   0.8849   0.8982
  0.9163   0.9211   0.9400   0.9456   0.9567   1.0071   1.0280   1.0370
  1.0508   1.0645   1.0696   1.0768   1.0840   1.1044   1.1126   1.1431
  1.1701   1.1730   1.2672   1.2817   1.3115   1.3340   1.3577   1.3666
  1.3796   1.4426   1.4498   1.4654   1.4801   1.4848   1.5316   1.5489
  1.6087   1.6135   1.6217   1.6238   1.6666   1.6895   1.7392   1.7727
  1.7882   1.7965   1.8103   1.8119   1.8395   1.8632   1.8802   1.9101
  1.9150   1.9232   1.9308   1.9683   1.9875   1.9974   2.0129   2.0304
  2.0352   2.0423   2.0749   2.0938   2.1164   2.1274   2.1747   2.1921
  2.2094   2.2372   2.2474   2.2771   2.2848   2.3238   2.3834   2.3990
  2.4189   2.4299   2.4776   2.5127   2.5438   2.5607   2.5681   2.6019
  2.6266   2.6472   2.6669   2.6748   2.7110   2.7305   2.7742   2.7820
  2.7993   2.8064   2.8273   2.8526   2.8721   2.9007   2.9129   2.9270
  2.9353   2.9580   2.9806   2.9907   3.0072   3.0107   3.0317   3.0523
  3.0655   3.0954   3.1127   3.1325   3.1745   3.1864   3.2030   3.2134
  3.2276   3.2588   3.2749   3.3002   3.3487   3.3567   3.3644   3.3858
  3.4127   3.4350   3.4399   3.4592   3.4630   3.4852   3.4882   3.5016
  3.5121   3.5390   3.5457   3.5540   3.5656   3.5885   3.5951   3.6119
  3.6185   3.6625   3.6757   3.7055   3.7246   3.7660   3.7804   3.8048
  3.8635   3.9128   3.9356   3.9560   3.9652   4.0051   4.0572   4.0605
  4.1396   4.2023   4.2791   4.3016   4.3151   4.3317   4.3432   4.3729
  4.3845   4.3984   4.4097   4.4338   4.4426   4.4738   4.5172   4.5496
  4.6093   4.6548   4.7784   4.7945   4.8551   4.8919   4.9212   4.9585
  5.0508   5.0589   5.1889   5.2735   5.4075   5.4196   5.5119   5.5335
  5.6929   5.8640  22.5798  22.7058  22.9200  22.9410  23.0618  23.1323
 23.4852
 --------------------------------------------------------------
 
          Ground-State Mulliken Net Atomic Charges

     Atom                 Charge (a.u.)
  ----------------------------------------
      1 C                    -1.045125
      2 C                    -0.366633
      3 C                     0.889134
      4 C                    -0.530889
      5 C                    -0.345315
      6 C                    -0.515350
      7 C                    -0.409099
      8 H                     0.289124
      9 H                     0.312405
     10 H                     0.252320
     11 H                     0.272628
     12 H                     0.325703
     13 H                     0.327057
     14 H                     0.317380
     15 H                     0.226662
  ----------------------------------------
  Sum of atomic charges =     0.000000

 -----------------------------------------------------------------
                    Cartesian Multipole Moments
 -----------------------------------------------------------------
    Charge (ESU x 10^10)
                 0.0000
    Dipole Moment (Debye)
         X       0.0286      Y      -0.5341      Z       0.0974
       Tot       0.5437
    Quadrupole Moments (Debye-Ang)
        XX     -43.7545     XY      -1.5964     YY     -38.9285
        XZ       2.7125     YZ       2.7141     ZZ     -40.6368
    Octopole Moments (Debye-Ang^2)
       XXX     135.4944    XXY      -7.9997    XYY      35.5636
       YYY     -25.8524    XXZ      97.2763    XYZ       4.5179
       YYZ      95.1841    XZZ      27.1848    YZZ     -19.9387
       ZZZ     293.1380
    Hexadecapole Moments (Debye-Ang^3)
      XXXX    -477.9337   XXXY     120.1810   XXYY    -153.8312
      XYYY     106.6392   YYYY    -528.2241   XXXZ    -368.3143
      XXYZ      14.0292   XYYZ    -102.5691   YYYZ      76.2228
      XXZZ    -325.8449   XYZZ      26.5328   YYZZ    -362.2761
      XZZZ    -289.1734   YZZZ     112.6018   ZZZZ   -1666.8959
 -----------------------------------------------------------------
Archival summary:
1\1\nid00555\SP\ProcedureUnspecified\BasisUnspecified\78\meili\MonSep2701:00:212021MonSep2701:00:212021\0\\#,ProcedureUnspecified,BasisUnspecified,\\0,1\C\C,1,1.37639\H,2,1.07886,1,120.712\C,2,1.38084,1,119.958,3,178.522,0\H,4,1.0743,2,117.807,1,-177.738,0\C,4,1.37951,2,121.85,1,-0.620941,0\H,6,1.08078,4,120.265,2,-179.042,0\C,6,1.37718,4,118.936,2,-2.02926,0\H,8,1.08068,6,120.633,4,-177.897,0\C,1,1.3884,2,118.023,3,-175.015,0\H,10,1.07602,1,119.2,2,175.311,0\C,1,1.49561,2,120.502,3,-0.25383,0\H,12,1.06746,1,107.866,2,-45.6502,0\H,12,1.09089,1,109.777,2,-164.154,0\H,12,1.1,1,114.099,2,72.4303,0\\\@

 Total job time:  31942.78s(wall), 63299.76s(cpu) 
 Mon Sep 27 01:00:25 2021

        *************************************************************
        *                                                           *
        *  Thank you very much for using Q-Chem.  Have a nice day.  *
        *                                                           *
        *************************************************************


Done Job For Fragment 1
calling putenv with: QCSCRATCH=/global/cscratch1/sd/meili 
calling putenv with: QCLOCALSCR=/tmp 
calling putenv with: QCTHREADS=32 
Doing General SCFMI
 Exchange:     0.1670 Hartree-Fock + 1.0000 wB97X-V + LR-HF
 Correlation:  1.0000 wB97X-V
 Using Euler-Maclaurin-Lebedev (99,590) quadrature formula
 Nonlocal Correlation:  VV10 with C = 0.0100 and b = 6.00 and scale = 1.00000
 Grid used for NLC:  SG-1 standard quadrature
performing fock build before subrot guess so that all methods have access
Printing subrot_rss_gen Method Specification:
Occupied Subspace Method is 0
Virtual Subspace Method is 0
Energy of the unrelaxed supersystem initial determinant -543.157794959816
performing fock build before subrot guess so that all methods have access
Printing subrot_rss_gen Method Specification:
Occupied Subspace Method is 0
Virtual Subspace Method is 0
Energy of the unrelaxed supersystem initial determinant w/ solvent -543.162157926385
write pseudocanon occs and virts to disk
write pseudocanon orbital energies to disk
Tolerance of ortho_decomp_scf: 1.00e-06
GDM subspace size: 20
Beginning the Orthogonal Decomposition of the Initial Supersystem Wavefunction
    1    -543.1350834242      2.12e-02     ortho_decomp Preconditoned Steepest Descent
    2    -543.1371358923      5.67e-04     ortho_decomp BFGS Step
    3    -543.1371432039      4.50e-05     ortho_decomp BFGS Step
    4    -543.1371432189      1.95e-06     ortho_decomp BFGS Step
    5    -543.1371432189      7.39e-08     ortho_decomp 00000 Convergence criterion met
 Hartree-Fock
 Hartree-Fock
 Hartree-Fock
Doing General SCFMI
 Exchange:     0.1670 Hartree-Fock + 1.0000 wB97X-V + LR-HF
 Correlation:  1.0000 wB97X-V
 Using Euler-Maclaurin-Lebedev (99,590) quadrature formula
 Nonlocal Correlation:  VV10 with C = 0.0100 and b = 6.00 and scale = 1.00000
 Grid used for NLC:  SG-1 standard quadrature
performing fock build at end of subrot_r(subrot) constructor so that all methods have access
<S^2> of initial wavefunction before polarization iterations 0.0000000000
Beginning iterations for the determination of the polarized wavefunction
Energy prior to optimization (guess energy) = -543.162157926386
Begin Timing: Total SCF Calculation
begin iterations for algorithm: DIIS         
the SCF tolerance is set to 1.00e-08
    1    -543.1621579264      5.33e-05     00000 
    2    -543.1624449161      2.02e-05     00000 
    3    -543.1624695540      1.16e-05     00000 
    4    -543.1624783528      3.02e-06     00000 
    5    -543.1624791337      1.17e-06     00000 
    6    -543.1624792738      5.41e-07     00000 
    7    -543.1624792988      2.58e-07     00000 
    8    -543.1624793040      1.48e-07     00000 
    9    -543.1624793053      7.52e-08     00000 
   10    -543.1624793056      3.63e-08     00000 
   11    -543.1624793056      1.79e-08     00000 
   12    -543.1624793057      7.59e-09     00000 Convergence criterion met
write pseudocanon occs and virts to disk
write pseudocanon orbital energies to disk
Timing for Total SCF: 8895.00s (wall), 17712.37s (cpu)
<S^2> of polarized wavefunction after polarization iterations 0.0000000000
relaxing scfmi constraint to allow all rotations in the entire AO span
Doing General SCFMI
 Exchange:     0.1670 Hartree-Fock + 1.0000 wB97X-V + LR-HF
 Correlation:  1.0000 wB97X-V
 Using Euler-Maclaurin-Lebedev (99,590) quadrature formula
 Nonlocal Correlation:  VV10 with C = 0.0100 and b = 6.00 and scale = 1.00000
 Grid used for NLC:  SG-1 standard quadrature
performing fock build at end of subrot_r(subrot) constructor so that all methods have access
<S^2> of polarized wavefunction before ct-allowed iterations 0.0000000000
Beginning iterations for the determination of the CT-Allowed wavefunction
Energy prior to optimization (guess energy) = -543.162479305662
Begin Timing: Total SCF Calculation
begin iterations for algorithm: DIIS         
the SCF tolerance is set to 1.00e-08
    1    -543.1624793057      7.17e-05     00000 
    2    -543.1636891483      8.25e-06     00000 
    3    -543.1637293873      1.52e-06     00000 
    4    -543.1637306521      9.24e-07     00000 
    5    -543.1637308550      1.64e-07     00000 
    6    -543.1637308665      7.20e-08     00000 
    7    -543.1637308681      1.53e-08     00000 
    8    -543.1637308683      6.15e-09     00000 Convergence criterion met
write pseudocanon occs and virts to disk
write pseudocanon orbital energies to disk
Timing for Total SCF: 5642.00s (wall), 11234.45s (cpu)
<S^2> of ct_allowed wavefunction after ct-allowed iterations 0.0000000000

================================
        Results of EDA2         
================================
Basic EDA Quantities
--------------------
Fragment Energies (Ha):
1 -271.5814033507
2 -271.5794632074
--------------------
  E_prp (kJ/mol) = 0.0000
  E_sol (kJ/mol) = 1.3022
  E_frz (kJ/mol) = -4.6927
  E_pol (kJ/mol) = -0.8438
  E_vct (kJ/mol) = -3.2860
  E_int (kJ/mol) = -7.5203
--------------------


Initial Wavefunction Decomposition
--------------------
  --------------------
  Orthogonal Fragment Subspace Decomposition:
  --------------------
     E_elec   (ELEC)   (kJ/mol) = -25.6250
     E_pauli  (PAULI)  (kJ/mol) = 38.8329
     E_disp   (DISP)   (kJ/mol) = -17.9007
     --------------------
     Terms summing to E_pauli:
     --------------------
        E_kep_pauli       (kJ/mol) = 49.5291
        E_disp_free_pauli (kJ/mol) = -10.6961
  --------------------
  Classical Frozen Decomposition:
  --------------------
     E_cls_elec  (CLS ELEC)  (kJ/mol) = -11.0347
     E_cls_pauli (CLS PAULI) (kJ/mol) = 6.3420
    [E_mod_pauli (MOD PAULI) (kJ/mol) = 24.2426 (CLS PAULI - DISP from orthogonal decomposition) ]
  --------------------
--------------------

Simplified EDA Summary (kJ/mol)
--------------------
 PREPARATION     0.0000
 SOLVATION       1.3022
 FROZEN          13.2079      (does not include dispersion)
[PAULI           38.8329]     (if this is negligible, then frozen describes electrostatics)
 DISPERSION      -17.9007
 POLARIZATION    -0.8438
 CHARGE TRANSFER -3.2860
 TOTAL           -7.5203     (PRP + SOL + FRZ + DISP + POL + CT)
--------------------
 
 --------------------------------------------------------------
 
                    Orbital Energies (a.u.)
 --------------------------------------------------------------
 
 Alpha MOs
 -- Occupied --
-10.2851 -10.2763 -10.2738 -10.2726 -10.2718 -10.2717 -10.2692 -10.2687
-10.2668 -10.2659 -10.2638 -10.2637 -10.2627 -10.2573  -1.0011  -0.9994
 -0.9104  -0.9091  -0.8810  -0.8779  -0.8157  -0.8147  -0.7334  -0.7298
 -0.7072  -0.7062  -0.6327  -0.6316  -0.5761  -0.5756  -0.5691  -0.5649
 -0.5375  -0.5345  -0.5314  -0.5276  -0.5167  -0.5156  -0.4905  -0.4896
 -0.4763  -0.4741  -0.4433  -0.4421  -0.4418  -0.4354  -0.3508  -0.3473
 -0.3408  -0.3372
 -- Virtual --
  0.0554   0.0594   0.0642   0.0670   0.0707   0.0716   0.0727   0.0824
  0.0908   0.0967   0.0996   0.1030   0.1123   0.1162   0.1198   0.1302
  0.1317   0.1488   0.1577   0.1585   0.1628   0.1687   0.1741   0.1829
  0.1860   0.1919   0.1975   0.2002   0.2030   0.2047   0.2094   0.2178
  0.2257   0.2299   0.2330   0.2409   0.2436   0.2480   0.2550   0.2560
  0.2578   0.2600   0.2666   0.2676   0.2696   0.2728   0.2780   0.2814
  0.2865   0.2884   0.2901   0.2950   0.2951   0.2976   0.3013   0.3087
  0.3122   0.3153   0.3203   0.3224   0.3246   0.3272   0.3297   0.3369
  0.3391   0.3433   0.3454   0.3507   0.3514   0.3601   0.3615   0.3638
  0.3679   0.3715   0.3756   0.3774   0.3802   0.3827   0.3856   0.3884
  0.3896   0.3907   0.3971   0.4007   0.4049   0.4076   0.4093   0.4129
  0.4145   0.4200   0.4239   0.4246   0.4291   0.4340   0.4375   0.4424
  0.4427   0.4468   0.4493   0.4507   0.4537   0.4598   0.4636   0.4653
  0.4681   0.4710   0.4738   0.4779   0.4797   0.4831   0.4874   0.4927
  0.4949   0.4996   0.5014   0.5093   0.5104   0.5151   0.5184   0.5206
  0.5241   0.5269   0.5325   0.5371   0.5398   0.5441   0.5512   0.5537
  0.5570   0.5616   0.5630   0.5660   0.5696   0.5771   0.5830   0.5860
  0.5913   0.5931   0.5980   0.6048   0.6109   0.6171   0.6235   0.6240
  0.6303   0.6357   0.6408   0.6416   0.6473   0.6523   0.6562   0.6606
  0.6664   0.6743   0.6768   0.6800   0.6832   0.6896   0.6931   0.6974
  0.7033   0.7096   0.7141   0.7150   0.7174   0.7244   0.7276   0.7320
  0.7372   0.7440   0.7456   0.7524   0.7552   0.7570   0.7623   0.7690
  0.7704   0.7727   0.7784   0.7797   0.7829   0.7869   0.7910   0.7914
  0.7939   0.7963   0.7977   0.8090   0.8125   0.8151   0.8188   0.8208
  0.8272   0.8327   0.8341   0.8370   0.8392   0.8456   0.8472   0.8488
  0.8544   0.8576   0.8619   0.8670   0.8733   0.8754   0.8760   0.8817
  0.8872   0.8914   0.8987   0.9023   0.9038   0.9125   0.9182   0.9211
  0.9256   0.9316   0.9373   0.9454   0.9518   0.9563   0.9615   0.9773
  0.9833   0.9919   1.0058   1.0116   1.0183   1.0340   1.0431   1.0498
  1.0512   1.0545   1.0600   1.0734   1.0828   1.0866   1.0890   1.0920
  1.0981   1.1104   1.1179   1.1214   1.1305   1.1383   1.1495   1.1572
  1.1648   1.1682   1.1886   1.1997   1.2064   1.2137   1.2226   1.2332
  1.2686   1.2938   1.3001   1.3183   1.3328   1.3413   1.3607   1.3658
  1.3699   1.3709   1.3837   1.3936   1.3946   1.4093   1.4259   1.4437
  1.4595   1.4643   1.4720   1.4729   1.4888   1.4923   1.5036   1.5115
  1.5254   1.5351   1.5416   1.5563   1.5611   1.5838   1.6083   1.6248
  1.6310   1.6381   1.6394   1.6502   1.6560   1.6705   1.6855   1.6929
  1.7071   1.7148   1.7278   1.7616   1.7868   1.7978   1.8028   1.8129
  1.8166   1.8260   1.8284   1.8419   1.8544   1.8697   1.8882   1.8976
  1.9062   1.9128   1.9244   1.9327   1.9364   1.9432   1.9526   1.9577
  1.9618   1.9670   1.9762   1.9857   1.9982   2.0153   2.0189   2.0266
  2.0342   2.0378   2.0434   2.0580   2.0621   2.0722   2.0985   2.1022
  2.1066   2.1184   2.1233   2.1289   2.1505   2.1606   2.1809   2.1825
  2.1885   2.1995   2.2159   2.2263   2.2342   2.2387   2.2454   2.2556
  2.2705   2.2764   2.2974   2.3045   2.3118   2.3272   2.3318   2.3493
  2.3623   2.3874   2.4142   2.4208   2.4224   2.4378   2.4415   2.4518
  2.4566   2.4814   2.4870   2.4965   2.5330   2.5578   2.5657   2.5791
  2.5832   2.5931   2.5986   2.6052   2.6211   2.6302   2.6482   2.6575
  2.6638   2.6749   2.6889   2.6967   2.7023   2.7095   2.7140   2.7263
  2.7607   2.7716   2.7760   2.7889   2.7937   2.8112   2.8159   2.8179
  2.8264   2.8300   2.8374   2.8444   2.8640   2.8681   2.8706   2.8916
  2.9103   2.9164   2.9299   2.9344   2.9424   2.9517   2.9568   2.9614
  2.9822   2.9866   2.9913   3.0032   3.0115   3.0135   3.0195   3.0283
  3.0386   3.0475   3.0519   3.0610   3.0702   3.0779   3.0869   3.0937
  3.1036   3.1079   3.1260   3.1367   3.1506   3.1623   3.1884   3.2066
  3.2163   3.2198   3.2317   3.2364   3.2396   3.2596   3.2700   3.2820
  3.2835   3.2876   3.3067   3.3145   3.3276   3.3367   3.3539   3.3681
  3.3709   3.3750   3.3879   3.3948   3.4056   3.4290   3.4319   3.4425
  3.4537   3.4556   3.4583   3.4625   3.4764   3.4799   3.4826   3.4866
  3.4977   3.5085   3.5156   3.5195   3.5258   3.5407   3.5442   3.5564
  3.5584   3.5604   3.5633   3.5669   3.5742   3.5792   3.5823   3.5961
  3.5978   3.6058   3.6124   3.6252   3.6308   3.6340   3.6390   3.6620
  3.6650   3.6850   3.6920   3.6982   3.7079   3.7119   3.7199   3.7366
  3.7406   3.7567   3.7859   3.8016   3.8122   3.8231   3.8649   3.8743
  3.9010   3.9243   3.9371   3.9568   3.9593   3.9672   3.9759   3.9919
  4.0166   4.0474   4.0646   4.0708   4.0942   4.0986   4.1364   4.1676
  4.2166   4.2204   4.2753   4.2900   4.2953   4.3036   4.3135   4.3223
  4.3308   4.3434   4.3463   4.3561   4.3698   4.3769   4.3802   4.3878
  4.3999   4.4090   4.4137   4.4139   4.4261   4.4419   4.4487   4.4663
  4.4750   4.4978   4.4995   4.5399   4.5578   4.5712   4.6052   4.6270
  4.6404   4.6766   4.7583   4.7833   4.7970   4.8121   4.8291   4.8659
  4.8728   4.9052   4.9328   4.9504   4.9712   4.9785   5.0488   5.0625
  5.0729   5.0801   5.1813   5.2154   5.2767   5.2929   5.3803   5.3935
  5.4121   5.4287   5.5019   5.5221   5.5283   5.5456   5.6799   5.7253
  5.8168   5.8430  22.6422  22.6706  22.7291  22.7482  22.9351  22.9551
 22.9711  22.9895  23.0361  23.0982  23.1193  23.1569  23.4301  23.5203
 --------------------------------------------------------------
 
          Ground-State Mulliken Net Atomic Charges

     Atom                 Charge (a.u.)
  ----------------------------------------
      1 C                    -1.187722
      2 C                    -0.400750
      3 C                    -0.295507
      4 C                    -0.367636
      5 C                     0.743914
      6 C                    -0.364969
      7 C                    -0.468643
      8 H                     0.287810
      9 H                     0.359934
     10 H                     0.324045
     11 H                     0.345208
     12 H                     0.263476
     13 H                     0.281959
     14 H                     0.328238
     15 H                     0.221717
     16 C                    -0.939305
     17 C                     0.044628
     18 C                     0.195764
     19 C                    -0.400728
     20 C                    -0.457638
     21 C                    -0.471384
     22 C                    -0.356092
     23 H                     0.306755
     24 H                     0.345932
     25 H                     0.262508
     26 H                     0.155514
     27 H                     0.358885
     28 H                     0.344601
     29 H                     0.320513
     30 H                     0.218972
  ----------------------------------------
  Sum of atomic charges =     0.000000

 -----------------------------------------------------------------
                    Cartesian Multipole Moments
 -----------------------------------------------------------------
    Charge (ESU x 10^10)
                -0.0000
    Dipole Moment (Debye)
         X      -0.0134      Y      -0.3965      Z       0.7996
       Tot       0.8926
    Quadrupole Moments (Debye-Ang)
        XX     -87.3220     XY      -1.8759     YY     -77.5066
        XZ      -1.5337     YZ       2.6992     ZZ     -80.0103
    Octopole Moments (Debye-Ang^2)
       XXX       1.3498    XXY       2.7873    XYY      -1.0008
       YYY       2.8144    XXZ     -17.4640    XYZ       4.9411
       YYZ       2.6925    XZZ     -28.3374    YZZ      -9.9531
       ZZZ       4.9065
    Hexadecapole Moments (Debye-Ang^3)
      XXXX   -1029.9113   XXXY     184.4341   XXYY    -293.4475
      XYYY     163.9807   YYYY    -851.0129   XXXZ    -587.8720
      XXYZ      36.8172   XYYZ    -158.1421   YYYZ     117.7717
      XXZZ    -771.5677   XYZZ      55.9299   YYZZ    -711.6925
      XZZZ    -514.3450   YZZZ     158.4241   ZZZZ   -3502.2988
 -----------------------------------------------------------------
Archival summary:
1\1\nid00555\SP\ProcedureUnspecified\BasisUnspecified\1416\meili\MonSep2709:09:252021MonSep2709:09:252021\0\\#,ProcedureUnspecified,BasisUnspecified,\\0,1\C\H,1,1.07602\C,1,1.3884,2,119.2\C,3,1.37639,1,118.023,2,175.311,0\H,4,1.07886,3,120.712,1,-175.015,0\C,4,1.38084,3,119.958,1,3.50791,0\H,6,1.0743,4,117.807,3,-177.738,0\C,6,1.37951,4,121.85,3,-0.620941,0\H,8,1.08078,6,120.265,4,-179.042,0\C,8,1.37718,6,118.936,4,-2.02926,0\H,10,1.08068,8,120.633,6,-177.897,0\C,3,1.49561,1,121.262,2,0.592107,0\H,12,1.06746,3,107.866,1,128.939,0\H,12,1.09089,3,109.777,1,10.4346,0\H,12,1.1,3,114.099,1,-112.981,0\C,2,2.5263,1,155.063,3,110.449,0\H,16,1.08056,2,90.2105,1,5.34664,0\C,16,1.38058,2,85.9398,1,-115,0\H,18,1.08059,16,119.494,2,88.1484,0\C,18,1.38039,16,120.267,2,-92.8577,0\H,20,1.07582,18,119.245,16,-176.695,0\C,20,1.38995,18,120.369,16,0.88095,0\H,22,1.08107,20,119.635,18,-178.956,0\C,22,1.39814,20,120.391,18,-0.406085,0\C,24,1.39833,22,118.663,20,0.0314344,0\H,25,1.07806,24,119.958,22,-178.881,0\C,24,1.50842,22,121.148,20,-177.314,0\H,27,1.08973,24,109.329,22,15.0599,0\H,27,1.09021,24,108.132,22,131.708,0\H,27,1.1,24,113.72,22,-107.475,0\\\@

 Total job time:  93636.05s(wall), 59602.36s(cpu) 
 Mon Sep 27 09:09:28 2021

        *************************************************************
        *                                                           *
        *  Thank you very much for using Q-Chem.  Have a nice day.  *
        *                                                           *
        *************************************************************


