
Running Job 1 of 1 SSI-047ARG-050GLU-1_PCM_TZVPD.in
qchem SSI-047ARG-050GLU-1_PCM_TZVPD.in_50249.0 /tmp/qchem50249/ 0
/global/common/cori/software/qchem/5.2/exe/qcprog.exe_s SSI-047ARG-050GLU-1_PCM_TZVPD.in_50249.0 /tmp/qchem50249/
                  Welcome to Q-Chem
     A Quantum Leap Into The Future Of Chemistry


 Q-Chem 5.2, Q-Chem, Inc., Pleasanton, CA (2019)

 License issued to: National Energy Research Scientific Computing Center

 Yihan Shao,  Zhengting Gan,  E. Epifanovsky,  A. T. B. Gilbert,  M. Wormit,  
 J. Kussmann,  A. W. Lange,  A. Behn,  Jia Deng,  Xintian Feng,  D. Ghosh,  
 M. Goldey,  P. R. Horn,  L. D. Jacobson,  I. Kaliman,  T. Kus,  A. Landau,  
 Jie Liu,  E. I. Proynov,  R. M. Richard,  R. P. Steele,  E. J. Sundstrom,  
 H. L. Woodcock III,  P. M. Zimmerman,  D. Zuev,  B. Albrecht,  E. Alguire,  
 S. A. Baeppler,  D. Barton,  Z. Benda,  Y. A. Bernard,  E. J. Berquist,  
 K. B. Bravaya,  H. Burton,  D. Casanova,  Chun-Min Chang,  Yunqing Chen,  
 A. Chien,  K. D. Closser,  M. P. Coons,  S. Coriani,  S. Dasgupta,  
 A. L. Dempwolff,  M. Diedenhofen,  Hainam Do,  R. G. Edgar,  Po-Tung Fang,  
 S. Faraji,  S. Fatehi,  Qingguo Feng,  K. D. Fenk,  J. Fosso-Tande,  
 J. Gayvert,  Qinghui Ge,  A. Ghysels,  G. Gidofalvi,  J. Gomes,  
 J. Gonthier,  A. Gunina,  D. Hait,  M. W. D. Hanson-Heine,  
 P. H. P. Harbach,  A. W. Hauser,  M. F. Herbst,  J. E. Herr,  
 E. G. Hohenstein,  Z. C. Holden,  Kerwin Hui,  B. C. Huynh,  T.-C. Jagau,  
 Hyunjun Ji,  B. Kaduk,  K. Khistyaev,  Jaehoon Kim,  P. Klunzinger,  K. Koh,  
 D. Kosenkov,  L. Koulias,  T. Kowalczyk,  C. M. Krauter,  A. Kunitsa,  
 Ka Un Lao,  A. Laurent,  K. V. Lawler,  Joonho Lee,  D. Lefrancois,  
 S. Lehtola,  D. S. Levine,  Yi-Pei Li,  You-Sheng Lin,  Fenglai Liu,  
 E. Livshits,  A. Luenser,  P. Manohar,  E. Mansoor,  S. F. Manzer,  
 Shan-Ping Mao,  Yuezhi Mao,  N. Mardirossian,  A. V. Marenich,  
 T. Markovich,  L. A. Martinez-Martinez,  S. A. Maurer,  N. J. Mayhall,  
 S. C. McKenzie,  J.-M. Mewes,  P. Morgante,  A. F. Morrison,  
 J. W. Mullinax,  K. Nanda,  T. S. Nguyen-Beck,  R. Olivares-Amaya,  
 J. A. Parkhill,  Zheng Pei,  T. M. Perrine,  F. Plasser,  P. Pokhilko,  
 S. Prager,  A. Prociuk,  E. Ramos,  D. R. Rehn,  F. Rob,  M. Scheurer,  
 M. Schneider,  N. Sergueev,  S. M. Sharada,  S. Sharma,  D. W. Small,  
 T. Stauch,  T. Stein,  Yu-Chuan Su,  A. J. W. Thom,  A. Tkatchenko,  
 T. Tsuchimochi,  N. M. Tubman,  L. Vogt,  M. L. Vidal,  O. Vydrov,  
 M. A. Watson,  J. Wenzel,  M. de Wergifosse,  T. A. Wesolowski,  A. White,  
 J. Witte,  A. Yamada,  Jun Yang,  K. Yao,  S. Yeganeh,  S. R. Yost,  
 Zhi-Qiang You,  A. Zech,  Igor Ying Zhang,  Xing Zhang,  Yan Zhao,  
 Ying Zhu,  B. R. Brooks,  G. K. L. Chan,  C. J. Cramer,  M. S. Gordon,  
 W. J. Hehre,  A. Klamt,  M. W. Schmidt,  C. D. Sherrill,  D. G. Truhlar,  
 A. Aspuru-Guzik,  R. Baer,  A. T. Bell,  N. A. Besley,  Jeng-Da Chai,  
 A. E. DePrince, III,  R. A. DiStasio Jr.,  A. Dreuw,  B. D. Dunietz,  
 T. R. Furlani,  Chao-Ping Hsu,  Yousung Jung,  Jing Kong,  D. S. Lambrecht,  
 WanZhen Liang,  C. Ochsenfeld,  V. A. Rassolov,  L. V. Slipchenko,  
 J. E. Subotnik,  T. Van Voorhis,  J. M. Herbert,  A. I. Krylov,  
 P. M. W. Gill,  M. Head-Gordon

 Contributors to earlier versions of Q-Chem not listed above: 
 R. D. Adamson,  B. Austin,  J. Baker,  G. J. O. Beran,  K. Brandhorst,  
 S. T. Brown,  E. F. C. Byrd,  A. K. Chakraborty,  C.-L. Cheng,  
 Siu Hung Chien,  D. M. Chipman,  D. L. Crittenden,  H. Dachsel,  
 R. J. Doerksen,  A. D. Dutoi,  L. Fusti-Molnar,  W. A. Goddard III,  
 A. Golubeva-Zadorozhnaya,  S. R. Gwaltney,  G. Hawkins,  A. Heyden,  
 S. Hirata,  G. Kedziora,  F. J. Keil,  C. Kelley,  Jihan Kim,  R. A. King,  
 R. Z. Khaliullin,  P. P. Korambath,  W. Kurlancheek,  A. M. Lee,  M. S. Lee,  
 S. V. Levchenko,  Ching Yeh Lin,  D. Liotard,  R. C. Lochan,  I. Lotan,  
 P. E. Maslen,  N. Nair,  D. P. O'Neill,  D. Neuhauser,  E. Neuscamman,  
 C. M. Oana,  R. Olson,  B. Peters,  R. Peverati,  P. A. Pieniazek,  
 Y. M. Rhee,  J. Ritchie,  M. A. Rohrdanz,  E. Rosta,  N. J. Russ,  
 H. F. Schaefer III,  N. E. Schultz,  N. Shenvi,  A. C. Simmonett,  A. Sodt,  
 D. Stuck,  K. S. Thanthiriwatte,  V. Vanovschi,  Tao Wang,  A. Warshel,  
 C. F. Williams,  Q. Wu,  X. Xu,  W. Zhang

 Please cite Q-Chem as follows:
 Y. Shao et al., Mol. Phys. 113, 184-215 (2015)
 DOI: 10.1080/00268976.2014.952696

 Q-Chem 5.2.0 for Intel X86 EM64T Linux

 Parts of Q-Chem use Armadillo 8.300.2 (Tropical Shenanigans).
 http://arma.sourceforge.net/

 Q-Chem begins on Sun Sep 26 07:54:25 2021  

Host: cori01
0

     Scratch files written to /tmp/qchem50249//
 May1019 |scratch|qcdevops|jenkins|workspace|build_RNUM -1
Processing $rem in /global/common/cori/software/qchem/5.2/config/preferences:
	 MEM_TOTAL  96000 
NAlpha2: 72
NElect   72
Mult     1
Symmetry turned off for PCM/SM12/SMD calculation

 Q-Chem warning in module libgen/rem_setup.C, line 2803:

 Neither GIA nor STOLL is specified by user. Use STOLL as the default


Checking the input file for inconsistencies... 	...done.

--------------------------------------------------------------
User input:
--------------------------------------------------------------
$comment
SSI-047ARG-050GLU-1.pdb
$end

$molecule
0 1
--
1 1
C    0.734215693642    3.052160975511    2.573945923522
C    0.789215693642    0.918160975511    1.326945923522
N    0.665215693642    0.330160975511    0.157945923522
N    0.577215693642    2.225160975511    1.378945923522
N    1.139215693642    0.215160975511    2.399945923522
H    0.729215693642    0.871160975511   -0.688054076478
H    0.720215693642   -0.673839024489    0.086945923522
H    0.310215693642    2.684160975511    0.521945923522
H    1.243215693642    0.681160975511    3.285945923522
H    1.304215693642   -0.775839024489    2.326945923522
H    1.787215693642    3.053160975511    2.864945923522
H    0.147215693642    2.646160975511    3.401945923522
H    0.430215693642    4.093414975511    2.391255923522
--
-1 1
C   -2.046784306358   -1.165839024489   -2.794054076478
C   -0.930784306358   -1.697839024489   -1.916054076478
O   -1.180784306358   -2.011839024489   -0.737054076478
O    0.204215693642   -1.837839024489   -2.421054076478
H   -2.614784306358   -2.019839024489   -3.169054076478
H   -1.599784306358   -0.671839024489   -3.661054076478
H   -2.735580306358   -0.461359024489   -2.304904076478
$end

$rem
JOBTYPE			EDA
EDA2			1
method			wB97X-V
BASIS			def2-TZVPD
XC_GRID			000099000590
NL_GRID			1
UNRESTRICTED		FALSE
MAX_SCF_CYCLES		200
SYMMETRY		FALSE
SYM_IGNORE		TRUE
MEM_STATIC		2000
BASIS_LIN_DEP_THRESH 	6
THRESH 			14
SCF_CONVERGENCE 	8
SCF_PRINT_FRGM 		TRUE
SOLVENT_METHOD          PCM
$end

$PCM
THEORY                  CPCM
METHOD                  SWIG
SOLVER                  INVERSION
RADII                   UFF
HPOINTS                 302
HEAVYPOINTS             302
PRINTLEVEL              0
$END

$SOLVENT
DIELECTRIC              78.390000 ! water
$END
--------------------------------------------------------------
 ----------------------------------------------------------------
             Standard Nuclear Orientation (Angstroms)
    I     Atom           X                Y                Z
 ----------------------------------------------------------------
    1      C       0.7342156936     3.0521609755     2.5739459235
    2      C       0.7892156936     0.9181609755     1.3269459235
    3      N       0.6652156936     0.3301609755     0.1579459235
    4      N       0.5772156936     2.2251609755     1.3789459235
    5      N       1.1392156936     0.2151609755     2.3999459235
    6      H       0.7292156936     0.8711609755    -0.6880540765
    7      H       0.7202156936    -0.6738390245     0.0869459235
    8      H       0.3102156936     2.6841609755     0.5219459235
    9      H       1.2432156936     0.6811609755     3.2859459235
   10      H       1.3042156936    -0.7758390245     2.3269459235
   11      H       1.7872156936     3.0531609755     2.8649459235
   12      H       0.1472156936     2.6461609755     3.4019459235
   13      H       0.4302156936     4.0934149755     2.3912559235
   14      C      -2.0467843064    -1.1658390245    -2.7940540765
   15      C      -0.9307843064    -1.6978390245    -1.9160540765
   16      O      -1.1807843064    -2.0118390245    -0.7370540765
   17      O       0.2042156936    -1.8378390245    -2.4210540765
   18      H      -2.6147843064    -2.0198390245    -3.1690540765
   19      H      -1.5997843064    -0.6718390245    -3.6610540765
   20      H      -2.7355803064    -0.4613590245    -2.3049040765
 ----------------------------------------------------------------
 Nuclear Repulsion Energy =         443.31811896 hartrees
 There are       36 alpha and       36 beta electrons
 Requested basis set is def2-TZVPD
 There are 174 shells and 438 basis functions

 Total QAlloc Memory Limit  96000 MB
 Mega-Array Size      1956 MB
 MEM_STATIC part      2000 MB
 Discretize the solute cavity surface with Lebedev spheres
	Using 302 Lebedev grid points for each H atom
	Using 302 Lebedev grid points for other atoms
	Atomic van der Waals radii will be scaled by 1.20
 Remove points where switching function is < 1.0e-08
 Keep 2392 surface tesserae and discard 3648 interior tesserae
 Molecular Surface Area = 246.094 Angst**2
 A cutoff of  1.0D-14 yielded  13174 shell pairs
 There are     83550 function pairs (    104665 Cartesian)
 Smallest overlap matrix eigenvalue = 1.17E-05

 Scale SEOQF with 1.000000e-01/1.000000e-01/1.000000e-01

 Standard Electronic Orientation quadrupole field applied
 Nucleus-field energy     =    -0.0000000122 hartrees

 -----------------------------------------------------------------------
  General SCF calculation program by
  Eric Jon Sundstrom, Paul Horn, Yuezhi Mao, Dmitri Zuev, Alec White,
  David Stuck, Shaama M.S., Shane Yost, Joonho Lee, David Small,
  Daniel Levine, Susi Lehtola, Hugh Burton, Evgeny Epifanovsky
 -----------------------------------------------------------------------
================================================================
                 ALMO-EDA with the EDA2 driver                  
================================================================
 The second-generation ALMO-EDA (for DFT):                      
 P. R. Horn, Y. Mao and M. Head-Gordon, PCCP, 18, 23067 (2016)  
 Decomposition of the frozen energy:                            
 P. R. Horn, Y. Mao and M. Head-Gordon, JCP, 144, 114107 (2016) 
 FERF model for polarization:                                   
 P. R. Horn and M. Head-Gordon, JCP, 143, 114111 (2015)         
Using eda2 option set 1
Option set summary: Frozen orbital wavefunction, initial wavefunction decomposition, and nDQ polarization.
--------------------------------
Printing EDA Options
--------------------------------
eda_child_super_basis      0
fragmo_guess_mode          0
child_mp                   1
child_mp_orders            232
cls_elec                   1
cls_disp                   0
scfmi_mode                 1
scfmi_occs                 0
scfmi_virts                0
frz_relax                  0
frz_relax_method           0
dc_pen_start               0
dc_pen_conv                0
dc_pen_increment           0
dc_pen_steps               0
dc_pen_thresh_factor       0
dc_pen_pre_newton_thresh   0
frz_ortho_decomp           1
frz_ortho_decomp_conv      6
frgm_method                2
scfmi_freeze_ss            0
separate_rehyb             0
plot_diff_den              0
eda_nocv                   0
eda_vct_relax              1
disp_free_x                0
disp_free_c                0
eda_bsse                   0
eda_pct_a                  0
eda_covp                   0
--------------------------------
Attempting to make child job directory: /tmp/qchem50249//Frg1/
Attempting to make child job directory: /tmp/qchem50249//Frg2/
Creating input file /tmp/qchem50249/Frg1.input
using default PutDataFrgm: nothing
calling putenv with: QCSCRATCH=/tmp/qchem50249/ 
calling putenv with: QCLOCALSCR=/tmp/qchem50249/ 
Spawning Job For Fragment 0
                  Welcome to Q-Chem
     A Quantum Leap Into The Future Of Chemistry


 Q-Chem 5.2, Q-Chem, Inc., Pleasanton, CA (2019)

 License issued to: National Energy Research Scientific Computing Center

 Yihan Shao,  Zhengting Gan,  E. Epifanovsky,  A. T. B. Gilbert,  M. Wormit,  
 J. Kussmann,  A. W. Lange,  A. Behn,  Jia Deng,  Xintian Feng,  D. Ghosh,  
 M. Goldey,  P. R. Horn,  L. D. Jacobson,  I. Kaliman,  T. Kus,  A. Landau,  
 Jie Liu,  E. I. Proynov,  R. M. Richard,  R. P. Steele,  E. J. Sundstrom,  
 H. L. Woodcock III,  P. M. Zimmerman,  D. Zuev,  B. Albrecht,  E. Alguire,  
 S. A. Baeppler,  D. Barton,  Z. Benda,  Y. A. Bernard,  E. J. Berquist,  
 K. B. Bravaya,  H. Burton,  D. Casanova,  Chun-Min Chang,  Yunqing Chen,  
 A. Chien,  K. D. Closser,  M. P. Coons,  S. Coriani,  S. Dasgupta,  
 A. L. Dempwolff,  M. Diedenhofen,  Hainam Do,  R. G. Edgar,  Po-Tung Fang,  
 S. Faraji,  S. Fatehi,  Qingguo Feng,  K. D. Fenk,  J. Fosso-Tande,  
 J. Gayvert,  Qinghui Ge,  A. Ghysels,  G. Gidofalvi,  J. Gomes,  
 J. Gonthier,  A. Gunina,  D. Hait,  M. W. D. Hanson-Heine,  
 P. H. P. Harbach,  A. W. Hauser,  M. F. Herbst,  J. E. Herr,  
 E. G. Hohenstein,  Z. C. Holden,  Kerwin Hui,  B. C. Huynh,  T.-C. Jagau,  
 Hyunjun Ji,  B. Kaduk,  K. Khistyaev,  Jaehoon Kim,  P. Klunzinger,  K. Koh,  
 D. Kosenkov,  L. Koulias,  T. Kowalczyk,  C. M. Krauter,  A. Kunitsa,  
 Ka Un Lao,  A. Laurent,  K. V. Lawler,  Joonho Lee,  D. Lefrancois,  
 S. Lehtola,  D. S. Levine,  Yi-Pei Li,  You-Sheng Lin,  Fenglai Liu,  
 E. Livshits,  A. Luenser,  P. Manohar,  E. Mansoor,  S. F. Manzer,  
 Shan-Ping Mao,  Yuezhi Mao,  N. Mardirossian,  A. V. Marenich,  
 T. Markovich,  L. A. Martinez-Martinez,  S. A. Maurer,  N. J. Mayhall,  
 S. C. McKenzie,  J.-M. Mewes,  P. Morgante,  A. F. Morrison,  
 J. W. Mullinax,  K. Nanda,  T. S. Nguyen-Beck,  R. Olivares-Amaya,  
 J. A. Parkhill,  Zheng Pei,  T. M. Perrine,  F. Plasser,  P. Pokhilko,  
 S. Prager,  A. Prociuk,  E. Ramos,  D. R. Rehn,  F. Rob,  M. Scheurer,  
 M. Schneider,  N. Sergueev,  S. M. Sharada,  S. Sharma,  D. W. Small,  
 T. Stauch,  T. Stein,  Yu-Chuan Su,  A. J. W. Thom,  A. Tkatchenko,  
 T. Tsuchimochi,  N. M. Tubman,  L. Vogt,  M. L. Vidal,  O. Vydrov,  
 M. A. Watson,  J. Wenzel,  M. de Wergifosse,  T. A. Wesolowski,  A. White,  
 J. Witte,  A. Yamada,  Jun Yang,  K. Yao,  S. Yeganeh,  S. R. Yost,  
 Zhi-Qiang You,  A. Zech,  Igor Ying Zhang,  Xing Zhang,  Yan Zhao,  
 Ying Zhu,  B. R. Brooks,  G. K. L. Chan,  C. J. Cramer,  M. S. Gordon,  
 W. J. Hehre,  A. Klamt,  M. W. Schmidt,  C. D. Sherrill,  D. G. Truhlar,  
 A. Aspuru-Guzik,  R. Baer,  A. T. Bell,  N. A. Besley,  Jeng-Da Chai,  
 A. E. DePrince, III,  R. A. DiStasio Jr.,  A. Dreuw,  B. D. Dunietz,  
 T. R. Furlani,  Chao-Ping Hsu,  Yousung Jung,  Jing Kong,  D. S. Lambrecht,  
 WanZhen Liang,  C. Ochsenfeld,  V. A. Rassolov,  L. V. Slipchenko,  
 J. E. Subotnik,  T. Van Voorhis,  J. M. Herbert,  A. I. Krylov,  
 P. M. W. Gill,  M. Head-Gordon

 Contributors to earlier versions of Q-Chem not listed above: 
 R. D. Adamson,  B. Austin,  J. Baker,  G. J. O. Beran,  K. Brandhorst,  
 S. T. Brown,  E. F. C. Byrd,  A. K. Chakraborty,  C.-L. Cheng,  
 Siu Hung Chien,  D. M. Chipman,  D. L. Crittenden,  H. Dachsel,  
 R. J. Doerksen,  A. D. Dutoi,  L. Fusti-Molnar,  W. A. Goddard III,  
 A. Golubeva-Zadorozhnaya,  S. R. Gwaltney,  G. Hawkins,  A. Heyden,  
 S. Hirata,  G. Kedziora,  F. J. Keil,  C. Kelley,  Jihan Kim,  R. A. King,  
 R. Z. Khaliullin,  P. P. Korambath,  W. Kurlancheek,  A. M. Lee,  M. S. Lee,  
 S. V. Levchenko,  Ching Yeh Lin,  D. Liotard,  R. C. Lochan,  I. Lotan,  
 P. E. Maslen,  N. Nair,  D. P. O'Neill,  D. Neuhauser,  E. Neuscamman,  
 C. M. Oana,  R. Olson,  B. Peters,  R. Peverati,  P. A. Pieniazek,  
 Y. M. Rhee,  J. Ritchie,  M. A. Rohrdanz,  E. Rosta,  N. J. Russ,  
 H. F. Schaefer III,  N. E. Schultz,  N. Shenvi,  A. C. Simmonett,  A. Sodt,  
 D. Stuck,  K. S. Thanthiriwatte,  V. Vanovschi,  Tao Wang,  A. Warshel,  
 C. F. Williams,  Q. Wu,  X. Xu,  W. Zhang

 Please cite Q-Chem as follows:
 Y. Shao et al., Mol. Phys. 113, 184-215 (2015)
 DOI: 10.1080/00268976.2014.952696

 Q-Chem 5.2.0 for Intel X86 EM64T Linux

 Parts of Q-Chem use Armadillo 8.300.2 (Tropical Shenanigans).
 http://arma.sourceforge.net/

 Q-Chem begins on Sun Sep 26 07:54:30 2021  

Host: cori01
0

     Scratch files written to /tmp/qchem50249//Frg1//
 May1019 |scratch|qcdevops|jenkins|workspace|build_RNUM -1
Processing $rem in /global/common/cori/software/qchem/5.2/config/preferences:
	 MEM_TOTAL  96000 
NAlpha2: 40
NElect   40
Mult     1
Symmetry turned off for PCM/SM12/SMD calculation

Checking the input file for inconsistencies... 	...done.

--------------------------------------------------------------
User input:
--------------------------------------------------------------
$molecule
1 1
 6	0.7342156936	3.0521609755	2.5739459235
 6	0.7892156936	0.9181609755	1.3269459235
 7	0.6652156936	0.3301609755	0.1579459235
 7	0.5772156936	2.2251609755	1.3789459235
 7	1.1392156936	0.2151609755	2.3999459235
 1	0.7292156936	0.8711609755	-0.6880540765
 1	0.7202156936	-0.6738390245	0.0869459235
 1	0.3102156936	2.6841609755	0.5219459235
 1	1.2432156936	0.6811609755	3.2859459235
 1	1.3042156936	-0.7758390245	2.3269459235
 1	1.7872156936	3.0531609755	2.8649459235
 1	0.1472156936	2.6461609755	3.4019459235
 1	0.4302156936	4.0934149755	2.3912559235
$end
$rem
EDA2		1
METHOD		WB97X-V
BASIS		DEF2-TZVPD
XC_GRID		000099000590
NL_GRID		1
UNRESTRICTED		FALSE
MAX_SCF_CYCLES		200
SYMMETRY		FALSE
SYM_IGNORE		TRUE
BASIS_LIN_DEP_THRESH		6
THRESH		14
SCF_CONVERGENCE		8
SCF_PRINT_FRGM		TRUE
SOLVENT_METHOD		PCM
!required keywords
JOBTYPE		SP
SYM_IGNORE		TRUE
SUBSYSTEM		TRUE
GEN_SCFMAN		TRUE
CHILD_INSTRUCTION		2
SYM_IGNORE		TRUE
SCFMI		0
RI_K 0		
PARI_K 0		
MIN_PARI_K 0		
IARI_K 0		
OCC_RI_K 0		
PURECART		1111
MEM_STATIC		2000
MEM_TOTAL		96000
GUI		0
CHILD_MP		1
CHILD_MP_ORDERS		232
FRZ_RELAX		0
FRZ_RELAX_METHOD		0
EDA_CLS_ELEC		1
EDA_CLS_DISP		0
FRZ_ORTHO_DECOMP		1
EDA2		FALSE
FRGM_METHOD		FALSE
CIS_N_ROOTS  0
LOCAL_CIS    0
CIS_RLX_DNS  1
$end
$pcm
THEORY                  CPCM
METHOD                  SWIG
SOLVER                  INVERSION
RADII                   UFF
HPOINTS                 302
HEAVYPOINTS             302
PRINTLEVEL              0
$end
$solvent
DIELECTRIC              78.390000 ! water
$end
--------------------------------------------------------------
 ----------------------------------------------------------------
             Standard Nuclear Orientation (Angstroms)
    I     Atom           X                Y                Z
 ----------------------------------------------------------------
    1      C       0.7342156936     3.0521609755     2.5739459235
    2      C       0.7892156936     0.9181609755     1.3269459235
    3      N       0.6652156936     0.3301609755     0.1579459235
    4      N       0.5772156936     2.2251609755     1.3789459235
    5      N       1.1392156936     0.2151609755     2.3999459235
    6      H       0.7292156936     0.8711609755    -0.6880540765
    7      H       0.7202156936    -0.6738390245     0.0869459235
    8      H       0.3102156936     2.6841609755     0.5219459235
    9      H       1.2432156936     0.6811609755     3.2859459235
   10      H       1.3042156936    -0.7758390245     2.3269459235
   11      H       1.7872156936     3.0531609755     2.8649459235
   12      H       0.1472156936     2.6461609755     3.4019459235
   13      H       0.4302156936     4.0934149755     2.3912559235
 ----------------------------------------------------------------
 Nuclear Repulsion Energy =         194.15764525 hartrees
 There are       20 alpha and       20 beta electrons
 Requested basis set is def2-TZVPD
 There are 105 shells and 257 basis functions

 Total QAlloc Memory Limit  96000 MB
 Mega-Array Size      1956 MB
 MEM_STATIC part      2000 MB
 Discretize the solute cavity surface with Lebedev spheres
	Using 302 Lebedev grid points for each H atom
	Using 302 Lebedev grid points for other atoms
	Atomic van der Waals radii will be scaled by 1.20
 Remove points where switching function is < 1.0e-08
 Keep 1551 surface tesserae and discard 2375 interior tesserae
 Molecular Surface Area = 152.899 Angst**2

                       Distance Matrix (Angstroms)
             C (  1)   C (  2)   N (  3)   N (  4)   N (  5)   H (  6)
   C (  2)  2.472244
   N (  3)  3.640206  1.314413
   N (  4)  1.461712  1.325103  2.256016
   N (  5)  2.871040  1.329676  2.294442  2.323442
   H (  6)  3.923956  2.016441  1.006227  2.475663  3.183423
   H (  7)  4.479781  2.019115  1.008009  3.177092  2.513136  1.728505
   H (  8)  2.127417  1.999055  2.408285  1.008176  3.210932  2.219601
   H (  9)  2.527383  2.024837  3.200261  2.542468  1.006463  4.011605
   H ( 10)  3.878079  2.033436  2.517165  3.230052  1.007291  3.483311
   H ( 11)  1.092470  2.814191  4.000183  2.087554  2.947944  4.301662
   H ( 12)  1.093156  2.775567  4.019417  2.110609  2.810308  4.496382
   H ( 13)  1.100001  3.368067  4.382349  2.129966  3.942539  4.467043
             H (  7)   H (  8)   H (  9)   H ( 10)   H ( 11)   H ( 12)
   H (  8)  3.410790
   H (  9)  3.513283  3.538671
   H ( 10)  2.317123  4.027116  1.745351
   H ( 11)  4.769308  2.794162  2.469729  3.896662
   H ( 12)  4.726516  2.884859  2.252975  3.768867  1.773025
   H ( 13)  5.302891  2.344081  3.620071  4.947489  1.774249  1.787772

 
 A cutoff of  1.0D-14 yielded   5443 shell pairs
 There are     33175 function pairs (     41511 Cartesian)
 Smallest overlap matrix eigenvalue = 1.66E-05

 Scale SEOQF with 1.000000e-01/1.000000e-01/1.000000e-01

 Standard Electronic Orientation quadrupole field applied
 Nucleus-field energy     =    -0.0000000047 hartrees
 Guess from superposition of atomic densities
 Warning:  Energy on first SCF cycle will be non-variational
 SAD guess density has 40.388232 electrons

 -----------------------------------------------------------------------
  General SCF calculation program by
  Eric Jon Sundstrom, Paul Horn, Yuezhi Mao, Dmitri Zuev, Alec White,
  David Stuck, Shaama M.S., Shane Yost, Joonho Lee, David Small,
  Daniel Levine, Susi Lehtola, Hugh Burton, Evgeny Epifanovsky
 -----------------------------------------------------------------------
 Exchange:     0.1670 Hartree-Fock + 1.0000 wB97X-V + LR-HF
 Correlation:  1.0000 wB97X-V
 Using Euler-Maclaurin-Lebedev (99,590) quadrature formula
 Nonlocal Correlation:  VV10 with C = 0.0100 and b = 6.00 and scale = 1.00000
 Grid used for NLC:  SG-1 standard quadrature
Energy prior to optimization (guess energy) = -244.726001734363
Begin Timing: Total SCF Calculation
begin iterations for algorithm: DIIS         
the SCF tolerance is set to 1.00e-08
    1    -244.7260017344      7.93e-03     00000 
    2    -244.9414480367      6.22e-03     00000 
    3    -245.1792703680      3.12e-04     00000 
    4    -245.1798906970      1.78e-04     00000 
    5    -245.1801064711      3.53e-05     00000 
    6    -245.1801156430      1.39e-05     00000 
    7    -245.1801172997      2.34e-06     00000 
    8    -245.1801173856      8.33e-07     00000 
    9    -245.1801173977      3.43e-07     00000 
   10    -245.1801173997      1.03e-07     00000 
   11    -245.1801173999      4.54e-08     00000 
   12    -245.1801173999      1.07e-08     00000 
   13    -245.1801173999      1.59e-09     00000 Convergence criterion met
Timing for Total SCF: 752.00s (wall), 1495.21s (cpu)

************** Final PCM Free Energy Summary **************
 G_electrostatic  =      -0.08145718 hartree =     -51.11515094 kcal/mol
 G_cavitation     =       0.00000000 hartree =       0.00000000 kcal/mol
 G_dispersion     =       0.00000000 hartree =       0.00000000 kcal/mol
 G_repulsion      =       0.00000000 hartree =       0.00000000 kcal/mol
 --------------------------------------------------
 Non-electrostatic Free Energy =       0.00000000 hartree =       0.00000000 kcal/mol
 Total                         =      -0.08145718 hartree =     -51.11515094 kcal/mol
 --------------------------------------------------
 SCF Energy (H0 + V/2)                       =    -245.18011740 
 Solute Internal Energy (H0)                 =    -245.09866022 
 Total Free Energy (H0 + V/2 + non-elec)     =    -245.18011740 hartree
                                             = -153852.84576935 kcal/mol
***********************************************************

E_pcm = -0.0814571784
Multipole orders to be included
        2
        3
computing dipole RHS
computing quadrupole RHS
total number of RHS in solve_reponses: 8
RHS batch sizes
        8
Beginning Block Conjugate Gradient Iterations. Batch Number: 0
computing hessian-vector products by finite difference
              1      4.56e-01     00000 Conjugate Gradient Iteration
computing hessian-vector products by finite difference
              2      1.77e-01     00000 Conjugate Gradient Iteration
computing hessian-vector products by finite difference
              3      5.07e-02     00000 Conjugate Gradient Iteration
computing hessian-vector products by finite difference
              4      1.37e-02     00000 Conjugate Gradient Iteration
computing hessian-vector products by finite difference
              5      1.92e-03     00000 Conjugate Gradient Iteration
computing hessian-vector products by finite difference
              6      2.91e-04     00000 Conjugate Gradient Iteration
computing hessian-vector products by finite difference
              7      4.19e-05     00000 Conjugate Gradient Iteration
computing hessian-vector products by finite difference
              8      5.77e-06     00000 Conjugate Gradient Iteration
computing hessian-vector products by finite difference
              9      9.58e-07     00000 Conjugate Gradient Iteration
computing hessian-vector products by finite difference
             10      2.47e-07     00000 Conjugate Gradient Iteration
computing hessian-vector products by finite difference
             11      3.88e-08     00000 Conjugate Gradient Iteration
computing hessian-vector products by finite difference
             12      4.15e-09     00000 CG Converged
batch 0 complete
Done Calculating Responses
TESTING ORTHOGONALIZATION OF MULTIPOLE BASIS
Multipole virts passed orthogonality test
Virts Per Order
           60
          100
 
 --------------------------------------------------------------
 
                    Orbital Energies (a.u.)
 --------------------------------------------------------------
 
 Alpha MOs
 -- Occupied --
-14.4823 -14.4796 -14.4720 -10.4507 -10.3302  -1.2012  -1.0830  -1.0724
 -0.8790  -0.7957  -0.7515  -0.7159  -0.6507  -0.6483  -0.6170  -0.5956
 -0.5486  -0.5332  -0.4274  -0.4016
 -- Virtual --
  0.0481   0.0746   0.0758   0.0864   0.1123   0.1156   0.1245   0.1402
  0.1598   0.1709   0.1773   0.1816   0.1900   0.1940   0.2112   0.2251
  0.2299   0.2329   0.2417   0.2592   0.2648   0.2727   0.2842   0.2866
  0.2975   0.3074   0.3110   0.3145   0.3257   0.3273   0.3381   0.3433
  0.3498   0.3644   0.3680   0.3880   0.3933   0.3967   0.4034   0.4171
  0.4288   0.4351   0.4412   0.4436   0.4532   0.4645   0.4758   0.4818
  0.4851   0.4969   0.5033   0.5075   0.5144   0.5218   0.5311   0.5412
  0.5471   0.5560   0.5573   0.5741   0.6054   0.6120   0.6284   0.6384
  0.6449   0.6616   0.6623   0.6861   0.7049   0.7155   0.7321   0.7374
  0.7677   0.7772   0.7999   0.8158   0.8195   0.8260   0.8380   0.8536
  0.8564   0.8756   0.8899   0.9036   0.9150   0.9584   0.9617   1.0016
  1.0156   1.0375   1.0386   1.0675   1.0846   1.0893   1.1045   1.1268
  1.1421   1.1518   1.2131   1.2264   1.2474   1.3108   1.3473   1.4002
  1.4046   1.4140   1.4536   1.4785   1.5212   1.5733   1.6176   1.6362
  1.6599   1.7111   1.7242   1.7670   1.8192   1.8274   1.8389   1.8572
  1.8746   1.8924   1.8992   1.9484   1.9648   1.9870   1.9993   2.0690
  2.0750   2.1048   2.1231   2.1794   2.1810   2.1999   2.2357   2.2746
  2.3043   2.3162   2.3753   2.3890   2.4286   2.4443   2.4848   2.5087
  2.5345   2.5670   2.5984   2.6073   2.6276   2.6510   2.6870   2.7339
  2.7710   2.7927   2.8061   2.8472   2.8796   2.8935   2.9034   2.9462
  3.0297   3.0787   3.1043   3.1358   3.1434   3.1646   3.1898   3.2277
  3.2410   3.2829   3.2892   3.3248   3.3312   3.3639   3.3943   3.4126
  3.4372   3.4640   3.5003   3.5570   3.5951   3.6303   3.6525   3.7266
  3.7757   3.8205   3.9373   3.9422   4.0188   4.1035   4.1349   4.2273
  4.2699   4.2914   4.3030   4.3438   4.4192   4.4647   4.5633   4.6054
  4.6403   4.8136   4.8258   4.8464   4.9228   4.9651   4.9898   5.0251
  5.0725   5.0844   5.1036   5.1288   5.1444   5.1964   5.2782   5.3324
  5.3684   5.3728   5.4314   5.4546   5.4716   5.4974   5.5477   5.6118
  5.6764   5.7407   5.7812   5.8600   6.1538   6.1767   6.3367   6.4417
 22.6674  23.6196  32.3049  32.4347  32.7840
 --------------------------------------------------------------
 
          Ground-State Mulliken Net Atomic Charges

     Atom                 Charge (a.u.)
  ----------------------------------------
      1 C                    -0.821333
      2 C                     0.508066
      3 N                    -0.275088
      4 N                    -0.086680
      5 N                    -0.240161
      6 H                     0.216186
      7 H                     0.208969
      8 H                     0.241710
      9 H                     0.197230
     10 H                     0.200513
     11 H                     0.309955
     12 H                     0.298248
     13 H                     0.242384
  ----------------------------------------
  Sum of atomic charges =     1.000000

 -----------------------------------------------------------------
                    Cartesian Multipole Moments
 -----------------------------------------------------------------
    Charge (ESU x 10^10)
                 4.8032
    Dipole Moment (Debye)
         X       4.2403      Y       5.1247      Z       6.6082
       Tot       9.3761
    Quadrupole Moments (Debye-Ang)
        XX     -27.7492     XY       2.1228     YY      -8.9382
        XZ       7.6987     YZ       8.2676     ZZ      -7.6758
    Octopole Moments (Debye-Ang^2)
       XXX     -70.5391    XXY     -42.1933    XYY     -11.9716
       YYY     -67.7146    XXZ     -40.7565    XYZ       5.3503
       YYZ     -14.6593    XZZ       1.6065    YZZ     -14.4990
       ZZZ     -79.9759
    Hexadecapole Moments (Debye-Ang^3)
      XXXX    -158.5398   XXXY     -87.3533   XXYY    -127.5507
      XYYY     -64.4638   YYYY    -439.0127   XXXZ    -116.5676
      XXYZ     -79.2082   XYYZ     -16.0225   YYYZ    -146.4615
      XXZZ    -110.6159   XYZZ      -9.2983   YYZZ    -131.8221
      XZZZ     -49.3952   YZZZ    -168.6228   ZZZZ    -460.4658
 -----------------------------------------------------------------
Archival summary:
1\1\nid00571\SP\ProcedureUnspecified\BasisUnspecified\328(1+,1)\meili\SunSep2611:41:372021SunSep2611:41:372021\0\\#,ProcedureUnspecified,BasisUnspecified,\\1,1\C\N,1,1.31441\H,2,1.00623,1,120.082\H,2,1.00801,1,120.203,3,165.794,0\N,1,1.3251,2,117.455,3,20.7126,0\H,5,1.00818,1,117.263,2,1.54501,0\N,1,1.32968,2,120.398,3,-158.07,0\H,7,1.00646,1,119.524,2,179.125,0\H,7,1.00729,1,120.317,2,-0.547502,0\C,5,1.46171,1,124.956,2,-176.82,0\H,10,1.09247,5,108.772,1,65.0585,0\H,10,1.09316,5,110.575,1,-53.9053,0\H,10,1.1,5,111.722,1,-175.761,0\\\@

 Total job time:  13629.44s(wall), 26964.74s(cpu) 
 Sun Sep 26 11:41:40 2021

        *************************************************************
        *                                                           *
        *  Thank you very much for using Q-Chem.  Have a nice day.  *
        *                                                           *
        *************************************************************


Done Job For Fragment 0
calling putenv with: QCSCRATCH=/global/cscratch1/sd/meili 
calling putenv with: QCLOCALSCR=/tmp 
calling putenv with: QCTHREADS=32 
Creating input file /tmp/qchem50249/Frg2.input
using default PutDataFrgm: nothing
calling putenv with: QCSCRATCH=/tmp/qchem50249/ 
calling putenv with: QCLOCALSCR=/tmp/qchem50249/ 
Spawning Job For Fragment 1
                  Welcome to Q-Chem
     A Quantum Leap Into The Future Of Chemistry


 Q-Chem 5.2, Q-Chem, Inc., Pleasanton, CA (2019)

 License issued to: National Energy Research Scientific Computing Center

 Yihan Shao,  Zhengting Gan,  E. Epifanovsky,  A. T. B. Gilbert,  M. Wormit,  
 J. Kussmann,  A. W. Lange,  A. Behn,  Jia Deng,  Xintian Feng,  D. Ghosh,  
 M. Goldey,  P. R. Horn,  L. D. Jacobson,  I. Kaliman,  T. Kus,  A. Landau,  
 Jie Liu,  E. I. Proynov,  R. M. Richard,  R. P. Steele,  E. J. Sundstrom,  
 H. L. Woodcock III,  P. M. Zimmerman,  D. Zuev,  B. Albrecht,  E. Alguire,  
 S. A. Baeppler,  D. Barton,  Z. Benda,  Y. A. Bernard,  E. J. Berquist,  
 K. B. Bravaya,  H. Burton,  D. Casanova,  Chun-Min Chang,  Yunqing Chen,  
 A. Chien,  K. D. Closser,  M. P. Coons,  S. Coriani,  S. Dasgupta,  
 A. L. Dempwolff,  M. Diedenhofen,  Hainam Do,  R. G. Edgar,  Po-Tung Fang,  
 S. Faraji,  S. Fatehi,  Qingguo Feng,  K. D. Fenk,  J. Fosso-Tande,  
 J. Gayvert,  Qinghui Ge,  A. Ghysels,  G. Gidofalvi,  J. Gomes,  
 J. Gonthier,  A. Gunina,  D. Hait,  M. W. D. Hanson-Heine,  
 P. H. P. Harbach,  A. W. Hauser,  M. F. Herbst,  J. E. Herr,  
 E. G. Hohenstein,  Z. C. Holden,  Kerwin Hui,  B. C. Huynh,  T.-C. Jagau,  
 Hyunjun Ji,  B. Kaduk,  K. Khistyaev,  Jaehoon Kim,  P. Klunzinger,  K. Koh,  
 D. Kosenkov,  L. Koulias,  T. Kowalczyk,  C. M. Krauter,  A. Kunitsa,  
 Ka Un Lao,  A. Laurent,  K. V. Lawler,  Joonho Lee,  D. Lefrancois,  
 S. Lehtola,  D. S. Levine,  Yi-Pei Li,  You-Sheng Lin,  Fenglai Liu,  
 E. Livshits,  A. Luenser,  P. Manohar,  E. Mansoor,  S. F. Manzer,  
 Shan-Ping Mao,  Yuezhi Mao,  N. Mardirossian,  A. V. Marenich,  
 T. Markovich,  L. A. Martinez-Martinez,  S. A. Maurer,  N. J. Mayhall,  
 S. C. McKenzie,  J.-M. Mewes,  P. Morgante,  A. F. Morrison,  
 J. W. Mullinax,  K. Nanda,  T. S. Nguyen-Beck,  R. Olivares-Amaya,  
 J. A. Parkhill,  Zheng Pei,  T. M. Perrine,  F. Plasser,  P. Pokhilko,  
 S. Prager,  A. Prociuk,  E. Ramos,  D. R. Rehn,  F. Rob,  M. Scheurer,  
 M. Schneider,  N. Sergueev,  S. M. Sharada,  S. Sharma,  D. W. Small,  
 T. Stauch,  T. Stein,  Yu-Chuan Su,  A. J. W. Thom,  A. Tkatchenko,  
 T. Tsuchimochi,  N. M. Tubman,  L. Vogt,  M. L. Vidal,  O. Vydrov,  
 M. A. Watson,  J. Wenzel,  M. de Wergifosse,  T. A. Wesolowski,  A. White,  
 J. Witte,  A. Yamada,  Jun Yang,  K. Yao,  S. Yeganeh,  S. R. Yost,  
 Zhi-Qiang You,  A. Zech,  Igor Ying Zhang,  Xing Zhang,  Yan Zhao,  
 Ying Zhu,  B. R. Brooks,  G. K. L. Chan,  C. J. Cramer,  M. S. Gordon,  
 W. J. Hehre,  A. Klamt,  M. W. Schmidt,  C. D. Sherrill,  D. G. Truhlar,  
 A. Aspuru-Guzik,  R. Baer,  A. T. Bell,  N. A. Besley,  Jeng-Da Chai,  
 A. E. DePrince, III,  R. A. DiStasio Jr.,  A. Dreuw,  B. D. Dunietz,  
 T. R. Furlani,  Chao-Ping Hsu,  Yousung Jung,  Jing Kong,  D. S. Lambrecht,  
 WanZhen Liang,  C. Ochsenfeld,  V. A. Rassolov,  L. V. Slipchenko,  
 J. E. Subotnik,  T. Van Voorhis,  J. M. Herbert,  A. I. Krylov,  
 P. M. W. Gill,  M. Head-Gordon

 Contributors to earlier versions of Q-Chem not listed above: 
 R. D. Adamson,  B. Austin,  J. Baker,  G. J. O. Beran,  K. Brandhorst,  
 S. T. Brown,  E. F. C. Byrd,  A. K. Chakraborty,  C.-L. Cheng,  
 Siu Hung Chien,  D. M. Chipman,  D. L. Crittenden,  H. Dachsel,  
 R. J. Doerksen,  A. D. Dutoi,  L. Fusti-Molnar,  W. A. Goddard III,  
 A. Golubeva-Zadorozhnaya,  S. R. Gwaltney,  G. Hawkins,  A. Heyden,  
 S. Hirata,  G. Kedziora,  F. J. Keil,  C. Kelley,  Jihan Kim,  R. A. King,  
 R. Z. Khaliullin,  P. P. Korambath,  W. Kurlancheek,  A. M. Lee,  M. S. Lee,  
 S. V. Levchenko,  Ching Yeh Lin,  D. Liotard,  R. C. Lochan,  I. Lotan,  
 P. E. Maslen,  N. Nair,  D. P. O'Neill,  D. Neuhauser,  E. Neuscamman,  
 C. M. Oana,  R. Olson,  B. Peters,  R. Peverati,  P. A. Pieniazek,  
 Y. M. Rhee,  J. Ritchie,  M. A. Rohrdanz,  E. Rosta,  N. J. Russ,  
 H. F. Schaefer III,  N. E. Schultz,  N. Shenvi,  A. C. Simmonett,  A. Sodt,  
 D. Stuck,  K. S. Thanthiriwatte,  V. Vanovschi,  Tao Wang,  A. Warshel,  
 C. F. Williams,  Q. Wu,  X. Xu,  W. Zhang

 Please cite Q-Chem as follows:
 Y. Shao et al., Mol. Phys. 113, 184-215 (2015)
 DOI: 10.1080/00268976.2014.952696

 Q-Chem 5.2.0 for Intel X86 EM64T Linux

 Parts of Q-Chem use Armadillo 8.300.2 (Tropical Shenanigans).
 http://arma.sourceforge.net/

 Q-Chem begins on Sun Sep 26 11:41:43 2021  

Host: cori01
0

     Scratch files written to /tmp/qchem50249//Frg2//
 May1019 |scratch|qcdevops|jenkins|workspace|build_RNUM -1
Processing $rem in /global/common/cori/software/qchem/5.2/config/preferences:
	 MEM_TOTAL  96000 
NAlpha2: 32
NElect   32
Mult     1
Symmetry turned off for PCM/SM12/SMD calculation

Checking the input file for inconsistencies... 	...done.

--------------------------------------------------------------
User input:
--------------------------------------------------------------
$molecule
-1 1
 6	-2.0467843064	-1.1658390245	-2.7940540765
 6	-0.9307843064	-1.6978390245	-1.9160540765
 8	-1.1807843064	-2.0118390245	-0.7370540765
 8	0.2042156936	-1.8378390245	-2.4210540765
 1	-2.6147843064	-2.0198390245	-3.1690540765
 1	-1.5997843064	-0.6718390245	-3.6610540765
 1	-2.7355803064	-0.4613590245	-2.3049040765
$end
$rem
EDA2		1
METHOD		WB97X-V
BASIS		DEF2-TZVPD
XC_GRID		000099000590
NL_GRID		1
UNRESTRICTED		FALSE
MAX_SCF_CYCLES		200
SYMMETRY		FALSE
SYM_IGNORE		TRUE
BASIS_LIN_DEP_THRESH		6
THRESH		14
SCF_CONVERGENCE		8
SCF_PRINT_FRGM		TRUE
SOLVENT_METHOD		PCM
!required keywords
JOBTYPE		SP
SYM_IGNORE		TRUE
SUBSYSTEM		TRUE
GEN_SCFMAN		TRUE
CHILD_INSTRUCTION		2
SYM_IGNORE		TRUE
SCFMI		0
RI_K 0		
PARI_K 0		
MIN_PARI_K 0		
IARI_K 0		
OCC_RI_K 0		
PURECART		1111
MEM_STATIC		2000
MEM_TOTAL		96000
GUI		0
CHILD_MP		1
CHILD_MP_ORDERS		232
FRZ_RELAX		0
FRZ_RELAX_METHOD		0
EDA_CLS_ELEC		1
EDA_CLS_DISP		0
FRZ_ORTHO_DECOMP		1
EDA2		FALSE
FRGM_METHOD		FALSE
CIS_N_ROOTS  0
LOCAL_CIS    0
CIS_RLX_DNS  1
$end
$pcm
THEORY                  CPCM
METHOD                  SWIG
SOLVER                  INVERSION
RADII                   UFF
HPOINTS                 302
HEAVYPOINTS             302
PRINTLEVEL              0
$end
$solvent
DIELECTRIC              78.390000 ! water
$end
--------------------------------------------------------------
 ----------------------------------------------------------------
             Standard Nuclear Orientation (Angstroms)
    I     Atom           X                Y                Z
 ----------------------------------------------------------------
    1      C      -2.0467843064    -1.1658390245    -2.7940540765
    2      C      -0.9307843064    -1.6978390245    -1.9160540765
    3      O      -1.1807843064    -2.0118390245    -0.7370540765
    4      O       0.2042156936    -1.8378390245    -2.4210540765
    5      H      -2.6147843064    -2.0198390245    -3.1690540765
    6      H      -1.5997843064    -0.6718390245    -3.6610540765
    7      H      -2.7355803064    -0.4613590245    -2.3049040765
 ----------------------------------------------------------------
 Nuclear Repulsion Energy =         112.91826030 hartrees
 There are       16 alpha and       16 beta electrons
 Requested basis set is def2-TZVPD
 There are 69 shells and 181 basis functions

 Total QAlloc Memory Limit  96000 MB
 Mega-Array Size      1956 MB
 MEM_STATIC part      2000 MB
 Discretize the solute cavity surface with Lebedev spheres
	Using 302 Lebedev grid points for each H atom
	Using 302 Lebedev grid points for other atoms
	Atomic van der Waals radii will be scaled by 1.20
 Remove points where switching function is < 1.0e-08
 Keep 1025 surface tesserae and discard 1089 interior tesserae
 Molecular Surface Area = 119.802 Angst**2

                       Distance Matrix (Angstroms)
             C (  1)   C (  2)   O (  3)   O (  4)   H (  5)   H (  6)
   C (  2)  1.516365
   O (  3)  2.386822  1.245447
   O (  4)  2.378595  1.250140  2.187317
   H (  5)  1.092046  2.123570  2.823304  2.922223
   H (  6)  1.093405  2.131962  3.243599  2.480236  1.757667
   H (  7)  1.100000  2.222021  2.698061  3.248167  1.786115  1.781426

 
 A cutoff of  1.0D-14 yielded   2391 shell pairs
 There are     16695 function pairs (     21491 Cartesian)
 Smallest overlap matrix eigenvalue = 1.68E-05

 Scale SEOQF with 1.000000e-01/1.000000e-01/1.000000e-01

 Standard Electronic Orientation quadrupole field applied
 Nucleus-field energy     =    -0.0000000075 hartrees
 Guess from superposition of atomic densities
 Warning:  Energy on first SCF cycle will be non-variational
 SAD guess density has 30.625312 electrons

 -----------------------------------------------------------------------
  General SCF calculation program by
  Eric Jon Sundstrom, Paul Horn, Yuezhi Mao, Dmitri Zuev, Alec White,
  David Stuck, Shaama M.S., Shane Yost, Joonho Lee, David Small,
  Daniel Levine, Susi Lehtola, Hugh Burton, Evgeny Epifanovsky
 -----------------------------------------------------------------------
 Exchange:     0.1670 Hartree-Fock + 1.0000 wB97X-V + LR-HF
 Correlation:  1.0000 wB97X-V
 Using Euler-Maclaurin-Lebedev (99,590) quadrature formula
 Nonlocal Correlation:  VV10 with C = 0.0100 and b = 6.00 and scale = 1.00000
 Grid used for NLC:  SG-1 standard quadrature
Energy prior to optimization (guess energy) = -227.762566217588
Begin Timing: Total SCF Calculation
begin iterations for algorithm: DIIS         
the SCF tolerance is set to 1.00e-08
    1    -227.7625662176      1.66e-02     00000 
    2    -225.5890414311      2.55e-02     00000 
    3    -228.5761029946      4.14e-03     00000 
    4    -228.6351856283      1.38e-03     00000 
    5    -228.6413128498      2.62e-04     00000 
    6    -228.6415363667      2.09e-04     00000 
    7    -228.6416550205      4.89e-05     00000 
    8    -228.6416657285      1.39e-05     00000 
    9    -228.6416670351      2.88e-06     00000 
   10    -228.6416671392      4.94e-07     00000 
   11    -228.6416671422      2.38e-07     00000 
   12    -228.6416671427      6.08e-08     00000 
   13    -228.6416671427      1.74e-08     00000 
   14    -228.6416671427      2.93e-09     00000 Convergence criterion met
Timing for Total SCF: 293.00s (wall), 575.90s (cpu)

************** Final PCM Free Energy Summary **************
 G_electrostatic  =      -0.10197553 hartree =     -63.99060856 kcal/mol
 G_cavitation     =       0.00000000 hartree =       0.00000000 kcal/mol
 G_dispersion     =       0.00000000 hartree =       0.00000000 kcal/mol
 G_repulsion      =       0.00000000 hartree =       0.00000000 kcal/mol
 --------------------------------------------------
 Non-electrostatic Free Energy =       0.00000000 hartree =       0.00000000 kcal/mol
 Total                         =      -0.10197553 hartree =     -63.99060856 kcal/mol
 --------------------------------------------------
 SCF Energy (H0 + V/2)                       =    -228.64166714 
 Solute Internal Energy (H0)                 =    -228.53969162 
 Total Free Energy (H0 + V/2 + non-elec)     =    -228.64166714 hartree
                                             = -143474.81159729 kcal/mol
***********************************************************

E_pcm = -0.1019755263
Multipole orders to be included
        2
        3
computing dipole RHS
computing quadrupole RHS
total number of RHS in solve_reponses: 8
RHS batch sizes
        8
Beginning Block Conjugate Gradient Iterations. Batch Number: 0
computing hessian-vector products by finite difference
              1      6.60e-01     00000 Conjugate Gradient Iteration
computing hessian-vector products by finite difference
              2      2.40e-01     00000 Conjugate Gradient Iteration
computing hessian-vector products by finite difference
              3      6.35e-02     00000 Conjugate Gradient Iteration
computing hessian-vector products by finite difference
              4      1.67e-02     00000 Conjugate Gradient Iteration
computing hessian-vector products by finite difference
              5      2.93e-03     00000 Conjugate Gradient Iteration
computing hessian-vector products by finite difference
              6      6.77e-04     00000 Conjugate Gradient Iteration
computing hessian-vector products by finite difference
              7      1.11e-04     00000 Conjugate Gradient Iteration
computing hessian-vector products by finite difference
              8      1.36e-05     00000 Conjugate Gradient Iteration
computing hessian-vector products by finite difference
              9      2.10e-06     00000 Conjugate Gradient Iteration
computing hessian-vector products by finite difference
             10      2.54e-07     00000 Conjugate Gradient Iteration
computing hessian-vector products by finite difference
             11      3.22e-08     00000 Conjugate Gradient Iteration
computing hessian-vector products by finite difference
             12      7.16e-09     00000 CG Converged
batch 0 complete
Done Calculating Responses
TESTING ORTHOGONALIZATION OF MULTIPOLE BASIS
Multipole virts passed orthogonality test
Virts Per Order
        48
        80
 
 --------------------------------------------------------------
 
                    Orbital Energies (a.u.)
 --------------------------------------------------------------
 
 Alpha MOs
 -- Occupied --
-19.1205 -19.1203 -10.3233 -10.2396  -1.1340  -1.0315  -0.8295  -0.5928
 -0.5299  -0.5193  -0.5142  -0.4616  -0.4435  -0.3286  -0.3266  -0.3071
 -- Virtual --
  0.0633   0.0955   0.0956   0.1052   0.1303   0.1407   0.1423   0.1459
  0.1695   0.1907   0.1996   0.2205   0.2324   0.2375   0.2630   0.2700
  0.2983   0.3114   0.3342   0.3461   0.3569   0.3627   0.3725   0.3792
  0.3907   0.4087   0.4255   0.4292   0.4335   0.4599   0.4726   0.4772
  0.4934   0.4956   0.5061   0.5230   0.5622   0.5835   0.5985   0.6110
  0.6278   0.6482   0.6498   0.6579   0.6682   0.6848   0.6984   0.7121
  0.7238   0.7362   0.7826   0.8001   0.8104   0.8229   0.8523   0.8560
  0.8672   0.9819   0.9930   1.0017   1.0083   1.0452   1.0692   1.1145
  1.1530   1.2348   1.2560   1.2727   1.2903   1.3174   1.3568   1.3823
  1.4437   1.5615   1.6099   1.7435   1.8296   1.8719   1.8839   1.9237
  1.9335   1.9527   1.9652   1.9752   2.0202   2.1149   2.1336   2.1973
  2.1977   2.2317   2.3093   2.3473   2.4195   2.4671   2.4840   2.5068
  2.5793   2.5917   2.6415   2.6545   2.7843   2.8163   2.8707   2.9123
  2.9533   3.0354   3.0798   3.1621   3.2261   3.2376   3.2837   3.3032
  3.3467   3.3564   3.3968   3.4125   3.4209   3.5334   3.5922   3.6035
  3.6182   3.6854   3.7171   3.7417   3.7683   3.8592   3.9665   4.0637
  4.0987   4.2255   4.3499   4.5478   4.6414   4.6638   4.8027   4.8346
  4.9871   5.3335   5.3608   5.3704   5.3793   5.5056   5.7206   5.7877
  5.8334   6.0412   6.2462   6.3500   6.3704   6.6317   6.6340   6.7289
  6.7526   6.7654   6.9670   6.9855   7.0495   7.2566   7.3576   7.3984
  7.4219  22.5920  23.7623  44.2248  44.3730
 --------------------------------------------------------------
 
          Ground-State Mulliken Net Atomic Charges

     Atom                 Charge (a.u.)
  ----------------------------------------
      1 C                    -0.410252
      2 C                     0.289075
      3 O                    -0.674481
      4 O                    -0.675816
      5 H                     0.129164
      6 H                     0.158393
      7 H                     0.183918
  ----------------------------------------
  Sum of atomic charges =    -1.000000

 -----------------------------------------------------------------
                    Cartesian Multipole Moments
 -----------------------------------------------------------------
    Charge (ESU x 10^10)
                -4.8032
    Dipole Moment (Debye)
         X       1.1129      Y       9.8287      Z       6.6267
       Tot      11.9061
    Quadrupole Moments (Debye-Ang)
        XX     -29.9192     XY      -2.8380     YY     -45.6578
        XZ       3.7341     YZ     -12.8644     ZZ     -40.9549
    Octopole Moments (Debye-Ang^2)
       XXX      88.2319    XXY      50.8331    XYY      33.1773
       YYY     167.5638    XXZ      53.3463    XYZ      -7.1727
       YYZ      76.7647    XZZ      16.0036    YZZ      70.1797
       ZZZ     198.6985
    Hexadecapole Moments (Debye-Ang^3)
      XXXX    -339.8228   XXXY    -130.7277   XXYY    -148.3962
      XYYY    -129.5491   YYYY    -556.2855   XXXZ    -176.6172
      XXYZ     -78.9679   XYYZ     -42.1255   YYYZ    -286.0067
      XXZZ    -184.7996   XYZZ     -14.0756   YYZZ    -258.4524
      XZZZ    -149.0804   YZZZ    -315.1767   ZZZZ    -898.2766
 -----------------------------------------------------------------
Archival summary:
1\1\nid00571\SP\ProcedureUnspecified\BasisUnspecified\223(1-,1)\meili\SunSep2613:03:302021SunSep2613:03:302021\0\\#,ProcedureUnspecified,BasisUnspecified,\\-1,1\C\O,1,1.24545\O,1,1.25014,2,122.44\C,1,1.51637,2,119.265,3,178.019,0\H,4,1.09205,1,107.894,2,-81.2213,0\H,4,1.0934,1,108.467,2,163.11,0\H,4,1.1,1,115.345,2,41.0638,0\\\@

 Total job time:  4910.86s(wall), 9634.24s(cpu) 
 Sun Sep 26 13:03:34 2021

        *************************************************************
        *                                                           *
        *  Thank you very much for using Q-Chem.  Have a nice day.  *
        *                                                           *
        *************************************************************


Done Job For Fragment 1
calling putenv with: QCSCRATCH=/global/cscratch1/sd/meili 
calling putenv with: QCLOCALSCR=/tmp 
calling putenv with: QCTHREADS=32 
Doing General SCFMI
 Exchange:     0.1670 Hartree-Fock + 1.0000 wB97X-V + LR-HF
 Correlation:  1.0000 wB97X-V
 Using Euler-Maclaurin-Lebedev (99,590) quadrature formula
 Nonlocal Correlation:  VV10 with C = 0.0100 and b = 6.00 and scale = 1.00000
 Grid used for NLC:  SG-1 standard quadrature
performing fock build before subrot guess so that all methods have access
Printing subrot_rss_gen Method Specification:
Occupied Subspace Method is 0
Virtual Subspace Method is 0
Energy of the unrelaxed supersystem initial determinant -473.762543720300
performing fock build before subrot guess so that all methods have access
Printing subrot_rss_gen Method Specification:
Occupied Subspace Method is 0
Virtual Subspace Method is 0
Energy of the unrelaxed supersystem initial determinant w/ solvent -473.828947368490
write pseudocanon occs and virts to disk
write pseudocanon orbital energies to disk
Tolerance of ortho_decomp_scf: 1.00e-06
GDM subspace size: 20
Beginning the Orthogonal Decomposition of the Initial Supersystem Wavefunction
    1    -473.6183690412      4.13e-02     ortho_decomp Preconditoned Steepest Descent
    2    -473.6213517187      1.06e-03     ortho_decomp BFGS Step
    3    -473.6213615466      7.27e-05     ortho_decomp BFGS Step
    4    -473.6213615591      2.73e-06     ortho_decomp BFGS Step
    5    -473.6213615591      9.64e-08     ortho_decomp 00000 Convergence criterion met
 Hartree-Fock
 Hartree-Fock
 Hartree-Fock
Doing General SCFMI
 Exchange:     0.1670 Hartree-Fock + 1.0000 wB97X-V + LR-HF
 Correlation:  1.0000 wB97X-V
 Using Euler-Maclaurin-Lebedev (99,590) quadrature formula
 Nonlocal Correlation:  VV10 with C = 0.0100 and b = 6.00 and scale = 1.00000
 Grid used for NLC:  SG-1 standard quadrature
performing fock build at end of subrot_r(subrot) constructor so that all methods have access
<S^2> of initial wavefunction before polarization iterations 0.0000000000
Beginning iterations for the determination of the polarized wavefunction
Energy prior to optimization (guess energy) = -473.828947368491
Begin Timing: Total SCF Calculation
begin iterations for algorithm: DIIS         
the SCF tolerance is set to 1.00e-08
    1    -473.8289473685      1.07e-04     00000 
    2    -473.8295693840      5.10e-05     00000 
    3    -473.8296354448      3.01e-05     00000 
    4    -473.8296618895      8.53e-06     00000 
    5    -473.8296646958      4.75e-06     00000 
    6    -473.8296654380      1.72e-06     00000 
    7    -473.8296656109      6.94e-07     00000 
    8    -473.8296656302      2.73e-07     00000 
    9    -473.8296656331      9.49e-08     00000 
   10    -473.8296656333      3.25e-08     00000 
   11    -473.8296656334      1.23e-08     00000 
   12    -473.8296656334      5.12e-09     00000 Convergence criterion met
write pseudocanon occs and virts to disk
write pseudocanon orbital energies to disk
Timing for Total SCF: 2566.00s (wall), 5090.73s (cpu)
<S^2> of polarized wavefunction after polarization iterations 0.0000000000
relaxing scfmi constraint to allow all rotations in the entire AO span
Doing General SCFMI
 Exchange:     0.1670 Hartree-Fock + 1.0000 wB97X-V + LR-HF
 Correlation:  1.0000 wB97X-V
 Using Euler-Maclaurin-Lebedev (99,590) quadrature formula
 Nonlocal Correlation:  VV10 with C = 0.0100 and b = 6.00 and scale = 1.00000
 Grid used for NLC:  SG-1 standard quadrature
performing fock build at end of subrot_r(subrot) constructor so that all methods have access
<S^2> of polarized wavefunction before ct-allowed iterations 0.0000000000
Beginning iterations for the determination of the CT-Allowed wavefunction
Energy prior to optimization (guess energy) = -473.829665633374
Begin Timing: Total SCF Calculation
begin iterations for algorithm: DIIS         
the SCF tolerance is set to 1.00e-08
    1    -473.8296656334      9.35e-05     00000 
    2    -473.8306858105      1.27e-05     00000 
    3    -473.8307322386      3.96e-06     00000 
    4    -473.8307342757      3.54e-06     00000 
    5    -473.8307352547      5.65e-07     00000 
    6    -473.8307353001      3.26e-07     00000 
    7    -473.8307353149      1.00e-07     00000 
    8    -473.8307353162      2.84e-08     00000 
    9    -473.8307353165      9.47e-09     00000 Convergence criterion met
write pseudocanon occs and virts to disk
write pseudocanon orbital energies to disk
Timing for Total SCF: 1895.00s (wall), 3757.33s (cpu)
<S^2> of ct_allowed wavefunction after ct-allowed iterations 0.0000000000

================================
        Results of EDA2         
================================
Basic EDA Quantities
--------------------
Fragment Energies (Ha):
1 -245.1801173999
2 -228.6416671427
--------------------
  E_prp (kJ/mol) = 0.0000
  E_sol (kJ/mol) = 307.2634
  E_frz (kJ/mol) = -326.0697
  E_pol (kJ/mol) = -1.8858
  E_vct (kJ/mol) = -2.8085
  E_int (kJ/mol) = -23.5005
--------------------


Initial Wavefunction Decomposition
--------------------
  --------------------
  Orthogonal Fragment Subspace Decomposition:
  --------------------
     E_elec   (ELEC)   (kJ/mol) = -350.7083
     E_pauli  (PAULI)  (kJ/mol) = 35.7602
     E_disp   (DISP)   (kJ/mol) = -11.1216
     --------------------
     Terms summing to E_pauli:
     --------------------
        E_kep_pauli       (kJ/mol) = 44.6085
        E_disp_free_pauli (kJ/mol) = -8.8483
  --------------------
  Classical Frozen Decomposition:
  --------------------
     E_cls_elec  (CLS ELEC)  (kJ/mol) = -333.6004
     E_cls_pauli (CLS PAULI) (kJ/mol) = 7.5307
    [E_mod_pauli (MOD PAULI) (kJ/mol) = 18.6523 (CLS PAULI - DISP from orthogonal decomposition) ]
  --------------------
--------------------

Simplified EDA Summary (kJ/mol)
--------------------
 PREPARATION     0.0000
 SOLVATION       307.2634
 FROZEN          -314.9481      (does not include dispersion)
[PAULI           35.7602]     (if this is negligible, then frozen describes electrostatics)
 DISPERSION      -11.1216
 POLARIZATION    -1.8858
 CHARGE TRANSFER -2.8085
 TOTAL           -23.5005     (PRP + SOL + FRZ + DISP + POL + CT)
--------------------
 
 --------------------------------------------------------------
 
                    Orbital Energies (a.u.)
 --------------------------------------------------------------
 
 Alpha MOs
 -- Occupied --
-19.1265 -19.1264 -14.4765 -14.4742 -14.4588 -10.4428 -10.3284 -10.3272
-10.2425  -1.1937  -1.1405  -1.0770  -1.0631  -1.0376  -0.8737  -0.8328
 -0.7896  -0.7444  -0.7057  -0.6442  -0.6404  -0.6112  -0.5977  -0.5892
 -0.5440  -0.5336  -0.5302  -0.5244  -0.5188  -0.4659  -0.4486  -0.4195
 -0.3947  -0.3345  -0.3324  -0.3132
 -- Virtual --
  0.0475   0.0680   0.0773   0.0806   0.0881   0.0956   0.1015   0.1096
  0.1216   0.1230   0.1287   0.1381   0.1450   0.1517   0.1569   0.1623
  0.1721   0.1757   0.1807   0.1856   0.1906   0.1979   0.2036   0.2129
  0.2216   0.2293   0.2310   0.2367   0.2391   0.2440   0.2543   0.2574
  0.2698   0.2734   0.2759   0.2850   0.2897   0.2942   0.3031   0.3077
  0.3114   0.3162   0.3241   0.3264   0.3306   0.3399   0.3422   0.3470
  0.3507   0.3527   0.3600   0.3611   0.3660   0.3718   0.3803   0.3848
  0.3909   0.3951   0.3961   0.3997   0.4073   0.4151   0.4163   0.4284
  0.4341   0.4410   0.4440   0.4477   0.4531   0.4552   0.4643   0.4685
  0.4705   0.4757   0.4846   0.4887   0.4929   0.4982   0.5045   0.5072
  0.5098   0.5142   0.5227   0.5273   0.5342   0.5407   0.5451   0.5586
  0.5591   0.5639   0.5742   0.5771   0.5824   0.5909   0.5993   0.6059
  0.6136   0.6197   0.6281   0.6370   0.6420   0.6498   0.6524   0.6622
  0.6705   0.6819   0.6919   0.6985   0.7019   0.7114   0.7196   0.7285
  0.7323   0.7388   0.7428   0.7600   0.7615   0.7636   0.7762   0.7930
  0.7950   0.8048   0.8105   0.8109   0.8221   0.8300   0.8311   0.8453
  0.8547   0.8560   0.8634   0.8654   0.8734   0.8871   0.8915   0.9094
  0.9150   0.9257   0.9328   0.9558   0.9759   0.9850   0.9898   1.0092
  1.0119   1.0158   1.0303   1.0442   1.0556   1.0565   1.0907   1.0971
  1.1019   1.1126   1.1150   1.1240   1.1486   1.1542   1.1689   1.1780
  1.1817   1.1979   1.2321   1.2460   1.2598   1.2712   1.2895   1.2963
  1.3128   1.3407   1.3510   1.3634   1.3718   1.3983   1.4175   1.4341
  1.4364   1.4548   1.4699   1.4907   1.5438   1.5632   1.5799   1.5983
  1.6303   1.6453   1.6602   1.7145   1.7347   1.7448   1.7550   1.7945
  1.8389   1.8452   1.8582   1.8686   1.8812   1.8957   1.9078   1.9174
  1.9387   1.9449   1.9588   1.9707   1.9801   1.9845   1.9911   2.0025
  2.0119   2.0164   2.0423   2.0717   2.0890   2.1069   2.1223   2.1350
  2.1516   2.1936   2.2066   2.2205   2.2252   2.2376   2.2564   2.2645
  2.2888   2.2959   2.3234   2.3426   2.3579   2.3685   2.3937   2.4360
  2.4590   2.4619   2.4701   2.4939   2.5097   2.5229   2.5363   2.5542
  2.5695   2.5925   2.6050   2.6193   2.6226   2.6394   2.6497   2.6553
  2.6721   2.6943   2.7077   2.7476   2.7909   2.7976   2.8130   2.8194
  2.8389   2.8818   2.8861   2.9027   2.9103   2.9186   2.9448   2.9664
  2.9786   3.0585   3.0941   3.1129   3.1343   3.1548   3.1584   3.1727
  3.1882   3.2060   3.2154   3.2401   3.2437   3.2477   3.2697   3.2977
  3.3060   3.3173   3.3336   3.3444   3.3470   3.3658   3.3750   3.3904
  3.4070   3.4249   3.4299   3.4343   3.4437   3.4476   3.4789   3.5103
  3.5558   3.5875   3.6088   3.6301   3.6329   3.6497   3.6594   3.6686
  3.7154   3.7339   3.7512   3.7576   3.7855   3.8164   3.8335   3.8715
  3.9493   3.9620   3.9745   4.0497   4.0672   4.1114   4.1177   4.1556
  4.2275   4.2402   4.2849   4.2990   4.3180   4.3559   4.3763   4.4381
  4.4818   4.5612   4.5770   4.6181   4.6524   4.6575   4.6721   4.8261
  4.8283   4.8415   4.8471   4.8840   4.9645   4.9962   5.0073   5.0238
  5.0452   5.0952   5.1088   5.1186   5.1472   5.1620   5.2166   5.3045
  5.3308   5.3516   5.3673   5.3753   5.3813   5.3931   5.4122   5.4454
  5.4849   5.4929   5.5048   5.5193   5.5780   5.6329   5.6970   5.7178
  5.7590   5.7898   5.8011   5.8327   5.8804   6.0405   6.1713   6.1979
  6.2594   6.3517   6.3663   6.3739   6.4650   6.6362   6.6856   6.7512
  6.7812   6.7945   6.9711   7.0222   7.0692   7.2667   7.3563   7.4146
  7.4289  22.6073  22.6760  23.6501  23.7819  32.3458  32.4956  32.8129
 44.3437  44.4271
 --------------------------------------------------------------
 
          Ground-State Mulliken Net Atomic Charges

     Atom                 Charge (a.u.)
  ----------------------------------------
      1 C                    -0.826995
      2 C                     0.513286
      3 N                    -0.192003
      4 N                    -0.087502
      5 N                    -0.229459
      6 H                     0.208352
      7 H                     0.106230
      8 H                     0.236986
      9 H                     0.190587
     10 H                     0.206522
     11 H                     0.309544
     12 H                     0.301609
     13 H                     0.236882
     14 C                    -0.546288
     15 C                     0.424776
     16 O                    -0.686127
     17 O                    -0.686063
     18 H                     0.178461
     19 H                     0.167107
     20 H                     0.174095
  ----------------------------------------
  Sum of atomic charges =     0.000000

 -----------------------------------------------------------------
                    Cartesian Multipole Moments
 -----------------------------------------------------------------
    Charge (ESU x 10^10)
                 0.0000
    Dipole Moment (Debye)
         X       5.1094      Y      14.5678      Z      12.8525
       Tot      20.0876
    Quadrupole Moments (Debye-Ang)
        XX     -57.5512     XY      -0.6899     YY     -54.8347
        XZ      11.4224     YZ      -4.6299     ZZ     -48.7068
    Octopole Moments (Debye-Ang^2)
       XXX      16.2169    XXY       7.6785    XYY      20.2311
       YYY      96.5614    XXZ      11.3925    XYZ      -2.3771
       YYZ      59.9375    XZZ      16.2389    YZZ      53.4236
       ZZZ     114.2473
    Hexadecapole Moments (Debye-Ang^3)
      XXXX    -496.5506   XXXY    -217.1492   XXYY    -275.3447
      XYYY    -193.9877   YYYY    -998.6051   XXXZ    -292.1228
      XXYZ    -157.6978   XYYZ     -58.4657   YYYZ    -434.1395
      XXZZ    -294.4423   XYZZ     -23.4243   YYZZ    -390.9771
      XZZZ    -198.2145   YZZZ    -483.1411   ZZZZ   -1357.2912
 -----------------------------------------------------------------
Archival summary:
1\1\nid00571\SP\ProcedureUnspecified\BasisUnspecified\23411\meili\SunSep2615:12:462021SunSep2615:12:462021\0\\#,ProcedureUnspecified,BasisUnspecified,\\0,1\N\H,1,1.00623\H,1,1.00801,2,118.218\C,1,1.31441,2,120.082,3,166.072,0\N,4,1.3251,1,117.455,2,20.7126,0\H,5,1.00818,4,117.263,1,1.54501,0\N,4,1.32968,1,120.398,2,-158.07,0\H,7,1.00646,4,119.524,1,179.125,0\H,7,1.00729,4,120.317,1,-0.547502,0\C,5,1.46171,4,124.956,1,-176.82,0\H,10,1.09247,5,108.772,4,65.0585,0\H,10,1.09316,5,110.575,4,-53.9053,0\H,10,1.1,5,111.722,4,-175.761,0\O,3,2.46638,1,121.454,2,-75.601,0\C,14,1.24545,3,91.4199,1,77.3736,0\O,15,1.25014,14,122.44,3,52.1785,0\C,15,1.51637,14,119.265,3,-129.802,0\H,17,1.09205,15,107.894,14,-81.2213,0\H,17,1.0934,15,108.467,14,163.11,0\H,17,1.1,15,115.345,14,41.0638,0\\\@

 Total job time:  26303.99s(wall), 15409.79s(cpu) 
 Sun Sep 26 15:12:48 2021

        *************************************************************
        *                                                           *
        *  Thank you very much for using Q-Chem.  Have a nice day.  *
        *                                                           *
        *************************************************************


