
Running Job 1 of 1 SSI-062ASP-080ARG-1_SMD_TZVPD.in
qchem SSI-062ASP-080ARG-1_SMD_TZVPD.in_26913.0 /tmp/qchem26913/ 0
/global/common/cori/software/qchem/5.2/exe/qcprog.exe_s SSI-062ASP-080ARG-1_SMD_TZVPD.in_26913.0 /tmp/qchem26913/
                  Welcome to Q-Chem
     A Quantum Leap Into The Future Of Chemistry


 Q-Chem 5.2, Q-Chem, Inc., Pleasanton, CA (2019)

 License issued to: National Energy Research Scientific Computing Center

 Yihan Shao,  Zhengting Gan,  E. Epifanovsky,  A. T. B. Gilbert,  M. Wormit,  
 J. Kussmann,  A. W. Lange,  A. Behn,  Jia Deng,  Xintian Feng,  D. Ghosh,  
 M. Goldey,  P. R. Horn,  L. D. Jacobson,  I. Kaliman,  T. Kus,  A. Landau,  
 Jie Liu,  E. I. Proynov,  R. M. Richard,  R. P. Steele,  E. J. Sundstrom,  
 H. L. Woodcock III,  P. M. Zimmerman,  D. Zuev,  B. Albrecht,  E. Alguire,  
 S. A. Baeppler,  D. Barton,  Z. Benda,  Y. A. Bernard,  E. J. Berquist,  
 K. B. Bravaya,  H. Burton,  D. Casanova,  Chun-Min Chang,  Yunqing Chen,  
 A. Chien,  K. D. Closser,  M. P. Coons,  S. Coriani,  S. Dasgupta,  
 A. L. Dempwolff,  M. Diedenhofen,  Hainam Do,  R. G. Edgar,  Po-Tung Fang,  
 S. Faraji,  S. Fatehi,  Qingguo Feng,  K. D. Fenk,  J. Fosso-Tande,  
 J. Gayvert,  Qinghui Ge,  A. Ghysels,  G. Gidofalvi,  J. Gomes,  
 J. Gonthier,  A. Gunina,  D. Hait,  M. W. D. Hanson-Heine,  
 P. H. P. Harbach,  A. W. Hauser,  M. F. Herbst,  J. E. Herr,  
 E. G. Hohenstein,  Z. C. Holden,  Kerwin Hui,  B. C. Huynh,  T.-C. Jagau,  
 Hyunjun Ji,  B. Kaduk,  K. Khistyaev,  Jaehoon Kim,  P. Klunzinger,  K. Koh,  
 D. Kosenkov,  L. Koulias,  T. Kowalczyk,  C. M. Krauter,  A. Kunitsa,  
 Ka Un Lao,  A. Laurent,  K. V. Lawler,  Joonho Lee,  D. Lefrancois,  
 S. Lehtola,  D. S. Levine,  Yi-Pei Li,  You-Sheng Lin,  Fenglai Liu,  
 E. Livshits,  A. Luenser,  P. Manohar,  E. Mansoor,  S. F. Manzer,  
 Shan-Ping Mao,  Yuezhi Mao,  N. Mardirossian,  A. V. Marenich,  
 T. Markovich,  L. A. Martinez-Martinez,  S. A. Maurer,  N. J. Mayhall,  
 S. C. McKenzie,  J.-M. Mewes,  P. Morgante,  A. F. Morrison,  
 J. W. Mullinax,  K. Nanda,  T. S. Nguyen-Beck,  R. Olivares-Amaya,  
 J. A. Parkhill,  Zheng Pei,  T. M. Perrine,  F. Plasser,  P. Pokhilko,  
 S. Prager,  A. Prociuk,  E. Ramos,  D. R. Rehn,  F. Rob,  M. Scheurer,  
 M. Schneider,  N. Sergueev,  S. M. Sharada,  S. Sharma,  D. W. Small,  
 T. Stauch,  T. Stein,  Yu-Chuan Su,  A. J. W. Thom,  A. Tkatchenko,  
 T. Tsuchimochi,  N. M. Tubman,  L. Vogt,  M. L. Vidal,  O. Vydrov,  
 M. A. Watson,  J. Wenzel,  M. de Wergifosse,  T. A. Wesolowski,  A. White,  
 J. Witte,  A. Yamada,  Jun Yang,  K. Yao,  S. Yeganeh,  S. R. Yost,  
 Zhi-Qiang You,  A. Zech,  Igor Ying Zhang,  Xing Zhang,  Yan Zhao,  
 Ying Zhu,  B. R. Brooks,  G. K. L. Chan,  C. J. Cramer,  M. S. Gordon,  
 W. J. Hehre,  A. Klamt,  M. W. Schmidt,  C. D. Sherrill,  D. G. Truhlar,  
 A. Aspuru-Guzik,  R. Baer,  A. T. Bell,  N. A. Besley,  Jeng-Da Chai,  
 A. E. DePrince, III,  R. A. DiStasio Jr.,  A. Dreuw,  B. D. Dunietz,  
 T. R. Furlani,  Chao-Ping Hsu,  Yousung Jung,  Jing Kong,  D. S. Lambrecht,  
 WanZhen Liang,  C. Ochsenfeld,  V. A. Rassolov,  L. V. Slipchenko,  
 J. E. Subotnik,  T. Van Voorhis,  J. M. Herbert,  A. I. Krylov,  
 P. M. W. Gill,  M. Head-Gordon

 Contributors to earlier versions of Q-Chem not listed above: 
 R. D. Adamson,  B. Austin,  J. Baker,  G. J. O. Beran,  K. Brandhorst,  
 S. T. Brown,  E. F. C. Byrd,  A. K. Chakraborty,  C.-L. Cheng,  
 Siu Hung Chien,  D. M. Chipman,  D. L. Crittenden,  H. Dachsel,  
 R. J. Doerksen,  A. D. Dutoi,  L. Fusti-Molnar,  W. A. Goddard III,  
 A. Golubeva-Zadorozhnaya,  S. R. Gwaltney,  G. Hawkins,  A. Heyden,  
 S. Hirata,  G. Kedziora,  F. J. Keil,  C. Kelley,  Jihan Kim,  R. A. King,  
 R. Z. Khaliullin,  P. P. Korambath,  W. Kurlancheek,  A. M. Lee,  M. S. Lee,  
 S. V. Levchenko,  Ching Yeh Lin,  D. Liotard,  R. C. Lochan,  I. Lotan,  
 P. E. Maslen,  N. Nair,  D. P. O'Neill,  D. Neuhauser,  E. Neuscamman,  
 C. M. Oana,  R. Olson,  B. Peters,  R. Peverati,  P. A. Pieniazek,  
 Y. M. Rhee,  J. Ritchie,  M. A. Rohrdanz,  E. Rosta,  N. J. Russ,  
 H. F. Schaefer III,  N. E. Schultz,  N. Shenvi,  A. C. Simmonett,  A. Sodt,  
 D. Stuck,  K. S. Thanthiriwatte,  V. Vanovschi,  Tao Wang,  A. Warshel,  
 C. F. Williams,  Q. Wu,  X. Xu,  W. Zhang

 Please cite Q-Chem as follows:
 Y. Shao et al., Mol. Phys. 113, 184-215 (2015)
 DOI: 10.1080/00268976.2014.952696

 Q-Chem 5.2.0 for Intel X86 EM64T Linux

 Parts of Q-Chem use Armadillo 8.300.2 (Tropical Shenanigans).
 http://arma.sourceforge.net/

 Q-Chem begins on Sun Sep 26 09:33:55 2021  

Host: cori01
0

     Scratch files written to /tmp/qchem26913//
 May1019 |scratch|qcdevops|jenkins|workspace|build_RNUM -1
Processing $rem in /global/common/cori/software/qchem/5.2/config/preferences:
	 MEM_TOTAL  96000 
NAlpha2: 80
NElect   80
Mult     1
Symmetry turned off for PCM/SM12/SMD calculation

 Q-Chem warning in module libgen/rem_setup.C, line 2803:

 Neither GIA nor STOLL is specified by user. Use STOLL as the default


Checking the input file for inconsistencies... 	...done.

--------------------------------------------------------------
User input:
--------------------------------------------------------------
$comment
SSI-062ASP-080ARG-1.pdb
$end

$molecule
0 1
--
-1 1
C   -1.867943274440   -1.600232390658    2.408962592524
C   -0.456943274440   -1.967232390658    2.003962592524
O    0.148056725560   -1.235232390658    1.189962592524
O    0.034056725560   -3.017232390658    2.470962592524
H   -2.225943274440   -0.778232390658    1.784962592524
H   -1.853943274440   -1.257232390658    3.444962592524
H   -2.552273274440   -2.457082390658    2.322347292524
--
1 1
C   -0.497943274440    1.664767609342   -0.115037407476
C   -1.917943274440    2.028767609342   -0.495037407476
C    1.132056725560    1.053767609342   -1.857037407476
N    0.448056725560    1.968767609342   -1.189037407476
N    0.960056725560   -0.229232390658   -1.596037407476
N    1.981056725560    1.429767609342   -2.791037407476
H   -0.217943274440    2.233767609342    0.773962592524
H   -0.509943274440    0.622767609342    0.146962592524
H   -1.949943274440    3.075767609342   -0.779037407476
H   -2.537943274440    1.881767609342    0.388962592524
H    0.621056725560    2.939767609342   -1.399037407476
H    0.453056725560   -0.494232390658   -0.759037407476
H    1.372056725560   -0.956232390658   -2.164037407476
H    2.160056725560    2.406767609342   -2.958037407476
H    2.544056725560    0.733767609342   -3.251037407476
H   -2.314573274440    1.454807609342   -1.345480407476
$end

$rem
JOBTYPE			EDA
EDA2			1
method			wB97X-V
BASIS			def2-TZVPD
XC_GRID			000099000590
NL_GRID			1
UNRESTRICTED		FALSE
MAX_SCF_CYCLES		200
SYMMETRY		FALSE
SYM_IGNORE		TRUE
MEM_STATIC		2000
BASIS_LIN_DEP_THRESH 	6
THRESH 			14
SCF_CONVERGENCE 	8
SCF_PRINT_FRGM 		TRUE
SOLVENT_METHOD          SMD
$end

$SMX
SOLVENT			WATER
$END
--------------------------------------------------------------
 ----------------------------------------------------------------
             Standard Nuclear Orientation (Angstroms)
    I     Atom           X                Y                Z
 ----------------------------------------------------------------
    1      C      -1.8679432744    -1.6002323907     2.4089625925
    2      C      -0.4569432744    -1.9672323907     2.0039625925
    3      O       0.1480567256    -1.2352323907     1.1899625925
    4      O       0.0340567256    -3.0172323907     2.4709625925
    5      H      -2.2259432744    -0.7782323907     1.7849625925
    6      H      -1.8539432744    -1.2572323907     3.4449625925
    7      H      -2.5522732744    -2.4570823907     2.3223472925
    8      C      -0.4979432744     1.6647676093    -0.1150374075
    9      C      -1.9179432744     2.0287676093    -0.4950374075
   10      C       1.1320567256     1.0537676093    -1.8570374075
   11      N       0.4480567256     1.9687676093    -1.1890374075
   12      N       0.9600567256    -0.2292323907    -1.5960374075
   13      N       1.9810567256     1.4297676093    -2.7910374075
   14      H      -0.2179432744     2.2337676093     0.7739625925
   15      H      -0.5099432744     0.6227676093     0.1469625925
   16      H      -1.9499432744     3.0757676093    -0.7790374075
   17      H      -2.5379432744     1.8817676093     0.3889625925
   18      H       0.6210567256     2.9397676093    -1.3990374075
   19      H       0.4530567256    -0.4942323907    -0.7590374075
   20      H       1.3720567256    -0.9562323907    -2.1640374075
   21      H       2.1600567256     2.4067676093    -2.9580374075
   22      H       2.5440567256     0.7337676093    -3.2510374075
   23      H      -2.3145732744     1.4548076093    -1.3454804075
 ----------------------------------------------------------------
 Nuclear Repulsion Energy =         537.04166535 hartrees
 There are       40 alpha and       40 beta electrons
 Requested basis set is def2-TZVPD
 There are 197 shells and 493 basis functions

 Total QAlloc Memory Limit  96000 MB
 Mega-Array Size      1956 MB
 MEM_STATIC part      2000 MB
 
 Citation of the SMD model:
 Marenich, A.V.; Cramer, C.J.; Truhlar, D.G.
 J. Phys. Chem. B 2009, 113, 6378-6396.
 iSolventCode=           1
 Solvent: water                                                           
 
 vradii
            1           2           3           4           5           6
    1   1.8500000   1.8500000   1.5200000   1.5200000   1.2000000   1.2000000
            7           8           9          10          11          12
    1   1.2000000   1.8500000   1.8500000   1.8500000   1.8900000   1.8900000
           13          14          15          16          17          18
    1   1.8900000   1.2000000   1.2000000   1.2000000   1.2000000   1.2000000
           19          20          21          22          23
    1   1.2000000   1.2000000   1.2000000   1.2000000   1.2000000
 Changing PCM_VDW_RADII to SMD_RADIUS
 Discretize the solute cavity surface with Lebedev spheres
	Using 110 Lebedev grid points for each H atom
	Using 194 Lebedev grid points for other atoms
	Atomic van der Waals radii will be scaled by 1.20
 Remove points where switching function is < 1.0e-08
 Keep 1714 surface tesserae and discard 1656 interior tesserae
 Molecular Surface Area = 204.253 Angst**2
 A cutoff of  1.0D-14 yielded  17112 shell pairs
 There are    107024 function pairs (    133679 Cartesian)
 Smallest overlap matrix eigenvalue = 1.61E-06

 Scale SEOQF with 1.000000e-01/1.000000e-01/1.000000e-01

 Standard Electronic Orientation quadrupole field applied
 Nucleus-field energy     =    -0.0000000061 hartrees

 -----------------------------------------------------------------------
  General SCF calculation program by
  Eric Jon Sundstrom, Paul Horn, Yuezhi Mao, Dmitri Zuev, Alec White,
  David Stuck, Shaama M.S., Shane Yost, Joonho Lee, David Small,
  Daniel Levine, Susi Lehtola, Hugh Burton, Evgeny Epifanovsky
 -----------------------------------------------------------------------
================================================================
                 ALMO-EDA with the EDA2 driver                  
================================================================
 The second-generation ALMO-EDA (for DFT):                      
 P. R. Horn, Y. Mao and M. Head-Gordon, PCCP, 18, 23067 (2016)  
 Decomposition of the frozen energy:                            
 P. R. Horn, Y. Mao and M. Head-Gordon, JCP, 144, 114107 (2016) 
 FERF model for polarization:                                   
 P. R. Horn and M. Head-Gordon, JCP, 143, 114111 (2015)         
Using eda2 option set 1
Option set summary: Frozen orbital wavefunction, initial wavefunction decomposition, and nDQ polarization.
--------------------------------
Printing EDA Options
--------------------------------
eda_child_super_basis      0
fragmo_guess_mode          0
child_mp                   1
child_mp_orders            232
cls_elec                   1
cls_disp                   0
scfmi_mode                 1
scfmi_occs                 0
scfmi_virts                0
frz_relax                  0
frz_relax_method           0
dc_pen_start               0
dc_pen_conv                0
dc_pen_increment           0
dc_pen_steps               0
dc_pen_thresh_factor       0
dc_pen_pre_newton_thresh   0
frz_ortho_decomp           1
frz_ortho_decomp_conv      6
frgm_method                2
scfmi_freeze_ss            0
separate_rehyb             0
plot_diff_den              0
eda_nocv                   0
eda_vct_relax              1
disp_free_x                0
disp_free_c                0
eda_bsse                   0
eda_pct_a                  0
eda_covp                   0
--------------------------------
Attempting to make child job directory: /tmp/qchem26913//Frg1/
Attempting to make child job directory: /tmp/qchem26913//Frg2/
Creating input file /tmp/qchem26913/Frg1.input
using default PutDataFrgm: nothing
calling putenv with: QCSCRATCH=/tmp/qchem26913/ 
calling putenv with: QCLOCALSCR=/tmp/qchem26913/ 
Spawning Job For Fragment 0
                  Welcome to Q-Chem
     A Quantum Leap Into The Future Of Chemistry


 Q-Chem 5.2, Q-Chem, Inc., Pleasanton, CA (2019)

 License issued to: National Energy Research Scientific Computing Center

 Yihan Shao,  Zhengting Gan,  E. Epifanovsky,  A. T. B. Gilbert,  M. Wormit,  
 J. Kussmann,  A. W. Lange,  A. Behn,  Jia Deng,  Xintian Feng,  D. Ghosh,  
 M. Goldey,  P. R. Horn,  L. D. Jacobson,  I. Kaliman,  T. Kus,  A. Landau,  
 Jie Liu,  E. I. Proynov,  R. M. Richard,  R. P. Steele,  E. J. Sundstrom,  
 H. L. Woodcock III,  P. M. Zimmerman,  D. Zuev,  B. Albrecht,  E. Alguire,  
 S. A. Baeppler,  D. Barton,  Z. Benda,  Y. A. Bernard,  E. J. Berquist,  
 K. B. Bravaya,  H. Burton,  D. Casanova,  Chun-Min Chang,  Yunqing Chen,  
 A. Chien,  K. D. Closser,  M. P. Coons,  S. Coriani,  S. Dasgupta,  
 A. L. Dempwolff,  M. Diedenhofen,  Hainam Do,  R. G. Edgar,  Po-Tung Fang,  
 S. Faraji,  S. Fatehi,  Qingguo Feng,  K. D. Fenk,  J. Fosso-Tande,  
 J. Gayvert,  Qinghui Ge,  A. Ghysels,  G. Gidofalvi,  J. Gomes,  
 J. Gonthier,  A. Gunina,  D. Hait,  M. W. D. Hanson-Heine,  
 P. H. P. Harbach,  A. W. Hauser,  M. F. Herbst,  J. E. Herr,  
 E. G. Hohenstein,  Z. C. Holden,  Kerwin Hui,  B. C. Huynh,  T.-C. Jagau,  
 Hyunjun Ji,  B. Kaduk,  K. Khistyaev,  Jaehoon Kim,  P. Klunzinger,  K. Koh,  
 D. Kosenkov,  L. Koulias,  T. Kowalczyk,  C. M. Krauter,  A. Kunitsa,  
 Ka Un Lao,  A. Laurent,  K. V. Lawler,  Joonho Lee,  D. Lefrancois,  
 S. Lehtola,  D. S. Levine,  Yi-Pei Li,  You-Sheng Lin,  Fenglai Liu,  
 E. Livshits,  A. Luenser,  P. Manohar,  E. Mansoor,  S. F. Manzer,  
 Shan-Ping Mao,  Yuezhi Mao,  N. Mardirossian,  A. V. Marenich,  
 T. Markovich,  L. A. Martinez-Martinez,  S. A. Maurer,  N. J. Mayhall,  
 S. C. McKenzie,  J.-M. Mewes,  P. Morgante,  A. F. Morrison,  
 J. W. Mullinax,  K. Nanda,  T. S. Nguyen-Beck,  R. Olivares-Amaya,  
 J. A. Parkhill,  Zheng Pei,  T. M. Perrine,  F. Plasser,  P. Pokhilko,  
 S. Prager,  A. Prociuk,  E. Ramos,  D. R. Rehn,  F. Rob,  M. Scheurer,  
 M. Schneider,  N. Sergueev,  S. M. Sharada,  S. Sharma,  D. W. Small,  
 T. Stauch,  T. Stein,  Yu-Chuan Su,  A. J. W. Thom,  A. Tkatchenko,  
 T. Tsuchimochi,  N. M. Tubman,  L. Vogt,  M. L. Vidal,  O. Vydrov,  
 M. A. Watson,  J. Wenzel,  M. de Wergifosse,  T. A. Wesolowski,  A. White,  
 J. Witte,  A. Yamada,  Jun Yang,  K. Yao,  S. Yeganeh,  S. R. Yost,  
 Zhi-Qiang You,  A. Zech,  Igor Ying Zhang,  Xing Zhang,  Yan Zhao,  
 Ying Zhu,  B. R. Brooks,  G. K. L. Chan,  C. J. Cramer,  M. S. Gordon,  
 W. J. Hehre,  A. Klamt,  M. W. Schmidt,  C. D. Sherrill,  D. G. Truhlar,  
 A. Aspuru-Guzik,  R. Baer,  A. T. Bell,  N. A. Besley,  Jeng-Da Chai,  
 A. E. DePrince, III,  R. A. DiStasio Jr.,  A. Dreuw,  B. D. Dunietz,  
 T. R. Furlani,  Chao-Ping Hsu,  Yousung Jung,  Jing Kong,  D. S. Lambrecht,  
 WanZhen Liang,  C. Ochsenfeld,  V. A. Rassolov,  L. V. Slipchenko,  
 J. E. Subotnik,  T. Van Voorhis,  J. M. Herbert,  A. I. Krylov,  
 P. M. W. Gill,  M. Head-Gordon

 Contributors to earlier versions of Q-Chem not listed above: 
 R. D. Adamson,  B. Austin,  J. Baker,  G. J. O. Beran,  K. Brandhorst,  
 S. T. Brown,  E. F. C. Byrd,  A. K. Chakraborty,  C.-L. Cheng,  
 Siu Hung Chien,  D. M. Chipman,  D. L. Crittenden,  H. Dachsel,  
 R. J. Doerksen,  A. D. Dutoi,  L. Fusti-Molnar,  W. A. Goddard III,  
 A. Golubeva-Zadorozhnaya,  S. R. Gwaltney,  G. Hawkins,  A. Heyden,  
 S. Hirata,  G. Kedziora,  F. J. Keil,  C. Kelley,  Jihan Kim,  R. A. King,  
 R. Z. Khaliullin,  P. P. Korambath,  W. Kurlancheek,  A. M. Lee,  M. S. Lee,  
 S. V. Levchenko,  Ching Yeh Lin,  D. Liotard,  R. C. Lochan,  I. Lotan,  
 P. E. Maslen,  N. Nair,  D. P. O'Neill,  D. Neuhauser,  E. Neuscamman,  
 C. M. Oana,  R. Olson,  B. Peters,  R. Peverati,  P. A. Pieniazek,  
 Y. M. Rhee,  J. Ritchie,  M. A. Rohrdanz,  E. Rosta,  N. J. Russ,  
 H. F. Schaefer III,  N. E. Schultz,  N. Shenvi,  A. C. Simmonett,  A. Sodt,  
 D. Stuck,  K. S. Thanthiriwatte,  V. Vanovschi,  Tao Wang,  A. Warshel,  
 C. F. Williams,  Q. Wu,  X. Xu,  W. Zhang

 Please cite Q-Chem as follows:
 Y. Shao et al., Mol. Phys. 113, 184-215 (2015)
 DOI: 10.1080/00268976.2014.952696

 Q-Chem 5.2.0 for Intel X86 EM64T Linux

 Parts of Q-Chem use Armadillo 8.300.2 (Tropical Shenanigans).
 http://arma.sourceforge.net/

 Q-Chem begins on Sun Sep 26 09:33:59 2021  

Host: cori01
0

     Scratch files written to /tmp/qchem26913//Frg1//
 May1019 |scratch|qcdevops|jenkins|workspace|build_RNUM -1
Processing $rem in /global/common/cori/software/qchem/5.2/config/preferences:
	 MEM_TOTAL  96000 
NAlpha2: 32
NElect   32
Mult     1
Symmetry turned off for PCM/SM12/SMD calculation

Checking the input file for inconsistencies... 	...done.

--------------------------------------------------------------
User input:
--------------------------------------------------------------
$molecule
-1 1
 6	-1.8679432744	-1.6002323907	2.4089625925
 6	-0.4569432744	-1.9672323907	2.0039625925
 8	0.1480567256	-1.2352323907	1.1899625925
 8	0.0340567256	-3.0172323907	2.4709625925
 1	-2.2259432744	-0.7782323907	1.7849625925
 1	-1.8539432744	-1.2572323907	3.4449625925
 1	-2.5522732744	-2.4570823907	2.3223472925
$end
$rem
EDA2		1
METHOD		WB97X-V
BASIS		DEF2-TZVPD
XC_GRID		000099000590
NL_GRID		1
UNRESTRICTED		FALSE
MAX_SCF_CYCLES		200
SYMMETRY		FALSE
SYM_IGNORE		TRUE
BASIS_LIN_DEP_THRESH		6
THRESH		14
SCF_CONVERGENCE		8
SCF_PRINT_FRGM		TRUE
SOLVENT_METHOD		SMD
!required keywords
JOBTYPE		SP
SYM_IGNORE		TRUE
SUBSYSTEM		TRUE
GEN_SCFMAN		TRUE
CHILD_INSTRUCTION		2
SYM_IGNORE		TRUE
SCFMI		0
RI_K 0		
PARI_K 0		
MIN_PARI_K 0		
IARI_K 0		
OCC_RI_K 0		
PURECART		1111
MEM_STATIC		2000
MEM_TOTAL		96000
GUI		0
CHILD_MP		1
CHILD_MP_ORDERS		232
FRZ_RELAX		0
FRZ_RELAX_METHOD		0
EDA_CLS_ELEC		1
EDA_CLS_DISP		0
FRZ_ORTHO_DECOMP		1
EDA2		FALSE
FRGM_METHOD		FALSE
CIS_N_ROOTS  0
LOCAL_CIS    0
CIS_RLX_DNS  1
$end
$smx
SOLVENT			WATER
$end
--------------------------------------------------------------
 ----------------------------------------------------------------
             Standard Nuclear Orientation (Angstroms)
    I     Atom           X                Y                Z
 ----------------------------------------------------------------
    1      C      -1.8679432744    -1.6002323907     2.4089625925
    2      C      -0.4569432744    -1.9672323907     2.0039625925
    3      O       0.1480567256    -1.2352323907     1.1899625925
    4      O       0.0340567256    -3.0172323907     2.4709625925
    5      H      -2.2259432744    -0.7782323907     1.7849625925
    6      H      -1.8539432744    -1.2572323907     3.4449625925
    7      H      -2.5522732744    -2.4570823907     2.3223472925
 ----------------------------------------------------------------
 Nuclear Repulsion Energy =         112.89185283 hartrees
 There are       16 alpha and       16 beta electrons
 Requested basis set is def2-TZVPD
 There are 69 shells and 181 basis functions

 Total QAlloc Memory Limit  96000 MB
 Mega-Array Size      1956 MB
 MEM_STATIC part      2000 MB
 
 Citation of the SMD model:
 Marenich, A.V.; Cramer, C.J.; Truhlar, D.G.
 J. Phys. Chem. B 2009, 113, 6378-6396.
 iSolventCode=           1
 Solvent: water                                                           
 
 vradii
            1           2           3           4           5           6
    1   1.8500000   1.8500000   1.5200000   1.5200000   1.2000000   1.2000000
            7
    1   1.2000000
 Changing PCM_VDW_RADII to SMD_RADIUS
 Discretize the solute cavity surface with Lebedev spheres
	Using 110 Lebedev grid points for each H atom
	Using 194 Lebedev grid points for other atoms
	Atomic van der Waals radii will be scaled by 1.20
 Remove points where switching function is < 1.0e-08
 Keep 648 surface tesserae and discard 458 interior tesserae
 Molecular Surface Area = 79.865 Angst**2

                       Distance Matrix (Angstroms)
             C (  1)   C (  2)   O (  3)   O (  4)   H (  5)   H (  6)
   C (  2)  1.513154
   O (  3)  2.383997  1.250778
   O (  4)  2.372622  1.249668  2.197608
   H (  5)  1.092348  2.142672  2.489729  3.254430
   H (  6)  1.091394  2.128894  3.015545  2.758771  1.767321
   H (  7)  1.100001  2.175254  3.172853  2.650464  1.792710  1.785377

 
 A cutoff of  1.0D-14 yielded   2391 shell pairs
 There are     16695 function pairs (     21491 Cartesian)
 Smallest overlap matrix eigenvalue = 1.60E-05

 Scale SEOQF with 1.000000e-01/1.000000e-01/1.000000e-01

 Standard Electronic Orientation quadrupole field applied
 Nucleus-field energy     =    -0.0000000042 hartrees
 Guess from superposition of atomic densities
 Warning:  Energy on first SCF cycle will be non-variational
 SAD guess density has 30.625312 electrons

 -----------------------------------------------------------------------
  General SCF calculation program by
  Eric Jon Sundstrom, Paul Horn, Yuezhi Mao, Dmitri Zuev, Alec White,
  David Stuck, Shaama M.S., Shane Yost, Joonho Lee, David Small,
  Daniel Levine, Susi Lehtola, Hugh Burton, Evgeny Epifanovsky
 -----------------------------------------------------------------------
 Exchange:     0.1670 Hartree-Fock + 1.0000 wB97X-V + LR-HF
 Correlation:  1.0000 wB97X-V
 Using Euler-Maclaurin-Lebedev (99,590) quadrature formula
 Nonlocal Correlation:  VV10 with C = 0.0100 and b = 6.00 and scale = 1.00000
 Grid used for NLC:  SG-1 standard quadrature
Energy prior to optimization (guess energy) = -227.763226821874
Begin Timing: Total SCF Calculation
begin iterations for algorithm: DIIS         
the SCF tolerance is set to 1.00e-08
    1    -227.7632268219      1.66e-02     00000 
    2    -225.6254787061      2.50e-02     00000 
    3    -228.6066287621      4.07e-03     00000 
    4    -228.6593814902      1.38e-03     00000 
    5    -228.6652705521      2.62e-04     00000 
    6    -228.6655204308      1.80e-04     00000 
    7    -228.6656053259      5.27e-05     00000 
    8    -228.6656155933      1.32e-05     00000 
    9    -228.6656166998      3.72e-06     00000 
   10    -228.6656168061      1.09e-06     00000 
   11    -228.6656168157      2.25e-07     00000 
   12    -228.6656168161      5.02e-08     00000 
   13    -228.6656168162      1.25e-08     00000 
   14    -228.6656168162      3.21e-09     00000 Convergence criterion met
Timing for Total SCF: 285.00s (wall), 559.50s (cpu)
(3)  G-ENP(liq) elect-nuc-pol free energy of system     -228.665616816 a.u.
(4)  G-CDS(liq) cavity-dispersion-solvent structure 
     free energy                                                3.9027 kcal/mol
(6)  G-S(liq) free energy of system                     -228.659397432 a.u.
E_pcm = -0.1310158191
E_cds = 0.0062193845
Multipole orders to be included
        2
        3
computing dipole RHS
computing quadrupole RHS
total number of RHS in solve_reponses: 8
RHS batch sizes
        8
Beginning Block Conjugate Gradient Iterations. Batch Number: 0
computing hessian-vector products by finite difference
              1      6.99e-01     00000 Conjugate Gradient Iteration
computing hessian-vector products by finite difference
              2      2.14e-01     00000 Conjugate Gradient Iteration
computing hessian-vector products by finite difference
              3      5.81e-02     00000 Conjugate Gradient Iteration
computing hessian-vector products by finite difference
              4      1.55e-02     00000 Conjugate Gradient Iteration
computing hessian-vector products by finite difference
              5      2.31e-03     00000 Conjugate Gradient Iteration
computing hessian-vector products by finite difference
              6      6.10e-04     00000 Conjugate Gradient Iteration
computing hessian-vector products by finite difference
              7      8.77e-05     00000 Conjugate Gradient Iteration
computing hessian-vector products by finite difference
              8      1.08e-05     00000 Conjugate Gradient Iteration
computing hessian-vector products by finite difference
              9      1.65e-06     00000 Conjugate Gradient Iteration
computing hessian-vector products by finite difference
             10      1.60e-07     00000 Conjugate Gradient Iteration
computing hessian-vector products by finite difference
             11      2.13e-08     00000 Conjugate Gradient Iteration
computing hessian-vector products by finite difference
             12      6.89e-09     00000 CG Converged
batch 0 complete
Done Calculating Responses
TESTING ORTHOGONALIZATION OF MULTIPOLE BASIS
Multipole virts passed orthogonality test
Virts Per Order
        48
        80
 
 --------------------------------------------------------------
 
                    Orbital Energies (a.u.)
 --------------------------------------------------------------
 
 Alpha MOs
 -- Occupied --
-19.1532 -19.1519 -10.3528 -10.2459  -1.1660  -1.0659  -0.8413  -0.6171
 -0.5483  -0.5465  -0.5423  -0.4818  -0.4629  -0.3655  -0.3576  -0.3446
 -- Virtual --
  0.0670   0.0999   0.1009   0.1072   0.1353   0.1455   0.1458   0.1496
  0.1561   0.1904   0.2031   0.2247   0.2346   0.2389   0.2596   0.2665
  0.2991   0.3157   0.3330   0.3459   0.3547   0.3604   0.3732   0.3840
  0.3873   0.4015   0.4153   0.4256   0.4304   0.4551   0.4666   0.4730
  0.4843   0.4903   0.5050   0.5093   0.5479   0.5606   0.5807   0.6002
  0.6110   0.6257   0.6296   0.6423   0.6570   0.6699   0.6829   0.6944
  0.7111   0.7214   0.7703   0.7940   0.8040   0.8088   0.8343   0.8502
  0.8586   0.9523   0.9723   0.9781   0.9871   1.0307   1.0425   1.1029
  1.1529   1.2029   1.2440   1.2617   1.2749   1.3026   1.3330   1.3411
  1.4351   1.5540   1.5845   1.7334   1.8047   1.8470   1.8541   1.8958
  1.9149   1.9380   1.9474   1.9606   2.0016   2.0999   2.1111   2.1648
  2.1908   2.2050   2.3025   2.3281   2.3975   2.4345   2.4605   2.4723
  2.5617   2.5717   2.6165   2.6379   2.7910   2.7996   2.8768   2.9046
  2.9372   2.9829   3.0259   3.1679   3.1905   3.2423   3.2612   3.2927
  3.3286   3.3410   3.3852   3.3931   3.4171   3.5241   3.5481   3.5675
  3.5970   3.6384   3.6779   3.7174   3.7576   3.8602   3.9498   4.0519
  4.0815   4.1823   4.3415   4.5290   4.6291   4.6563   4.7818   4.8207
  4.9788   5.2968   5.3239   5.3346   5.3404   5.4717   5.6858   5.7389
  5.7917   5.9953   6.2144   6.3147   6.3275   6.5955   6.5978   6.6865
  6.7126   6.7292   6.9324   6.9463   7.0128   7.2180   7.3290   7.3574
  7.3845  22.5898  23.7270  44.1919  44.3238
 --------------------------------------------------------------
 
          Ground-State Mulliken Net Atomic Charges

     Atom                 Charge (a.u.)
  ----------------------------------------
      1 C                    -0.582710
      2 C                     0.497559
      3 O                    -0.770462
      4 O                    -0.776272
      5 H                     0.206285
      6 H                     0.198881
      7 H                     0.226718
  ----------------------------------------
  Sum of atomic charges =    -1.000000

 -----------------------------------------------------------------
                    Cartesian Multipole Moments
 -----------------------------------------------------------------
    Charge (ESU x 10^10)
                -4.8032
    Dipole Moment (Debye)
         X      -2.5765      Y      10.8259      Z      -8.1155
       Tot      13.7731
    Quadrupole Moments (Debye-Ang)
        XX     -24.7676     XY       4.9659     YY     -56.5278
        XZ      -4.6194     YZ      23.7482     ZZ     -42.2206
    Octopole Moments (Debye-Ang^2)
       XXX      44.4175    XXY      47.4330    XYY       4.9209
       YYY     245.1319    XXZ     -50.4469    XYZ       8.8775
       YYZ    -128.6306    XZZ       6.5483    YZZ     107.7351
       ZZZ    -194.8209
    Hexadecapole Moments (Debye-Ang^3)
      XXXX    -212.7053   XXXY     -68.0616   XXYY    -142.5969
      XYYY     -51.8054   YYYY    -991.1340   XXXZ     111.7272
      XXYZ     102.5404   XYYZ      20.0115   YYYZ     569.1187
      XXZZ    -151.4689   XYZZ      -9.4384   YYZZ    -430.6788
      XZZZ      94.4049   YZZZ     472.0657   ZZZZ    -807.5480
 -----------------------------------------------------------------
Archival summary:
1\1\nid00557\SP\ProcedureUnspecified\BasisUnspecified\223(1-,1)\meili\SunSep2610:49:352021SunSep2610:49:352021\0\\#,ProcedureUnspecified,BasisUnspecified,\\-1,1\C\O,1,1.24967\O,1,1.25078,2,123.017\C,1,1.51315,2,118.044,3,177.694,0\H,4,1.09139,1,108.562,2,72.9462,0\H,4,1.09235,1,109.586,2,-169.244,0\H,4,1.1,1,111.723,2,-47.4317,0\\\@

 Total job time:  4535.83s(wall), 8822.64s(cpu) 
 Sun Sep 26 10:49:35 2021

        *************************************************************
        *                                                           *
        *  Thank you very much for using Q-Chem.  Have a nice day.  *
        *                                                           *
        *************************************************************


Done Job For Fragment 0
calling putenv with: QCSCRATCH=/global/cscratch1/sd/meili 
calling putenv with: QCLOCALSCR=/tmp 
calling putenv with: QCTHREADS=32 
Creating input file /tmp/qchem26913/Frg2.input
using default PutDataFrgm: nothing
calling putenv with: QCSCRATCH=/tmp/qchem26913/ 
calling putenv with: QCLOCALSCR=/tmp/qchem26913/ 
Spawning Job For Fragment 1
                  Welcome to Q-Chem
     A Quantum Leap Into The Future Of Chemistry


 Q-Chem 5.2, Q-Chem, Inc., Pleasanton, CA (2019)

 License issued to: National Energy Research Scientific Computing Center

 Yihan Shao,  Zhengting Gan,  E. Epifanovsky,  A. T. B. Gilbert,  M. Wormit,  
 J. Kussmann,  A. W. Lange,  A. Behn,  Jia Deng,  Xintian Feng,  D. Ghosh,  
 M. Goldey,  P. R. Horn,  L. D. Jacobson,  I. Kaliman,  T. Kus,  A. Landau,  
 Jie Liu,  E. I. Proynov,  R. M. Richard,  R. P. Steele,  E. J. Sundstrom,  
 H. L. Woodcock III,  P. M. Zimmerman,  D. Zuev,  B. Albrecht,  E. Alguire,  
 S. A. Baeppler,  D. Barton,  Z. Benda,  Y. A. Bernard,  E. J. Berquist,  
 K. B. Bravaya,  H. Burton,  D. Casanova,  Chun-Min Chang,  Yunqing Chen,  
 A. Chien,  K. D. Closser,  M. P. Coons,  S. Coriani,  S. Dasgupta,  
 A. L. Dempwolff,  M. Diedenhofen,  Hainam Do,  R. G. Edgar,  Po-Tung Fang,  
 S. Faraji,  S. Fatehi,  Qingguo Feng,  K. D. Fenk,  J. Fosso-Tande,  
 J. Gayvert,  Qinghui Ge,  A. Ghysels,  G. Gidofalvi,  J. Gomes,  
 J. Gonthier,  A. Gunina,  D. Hait,  M. W. D. Hanson-Heine,  
 P. H. P. Harbach,  A. W. Hauser,  M. F. Herbst,  J. E. Herr,  
 E. G. Hohenstein,  Z. C. Holden,  Kerwin Hui,  B. C. Huynh,  T.-C. Jagau,  
 Hyunjun Ji,  B. Kaduk,  K. Khistyaev,  Jaehoon Kim,  P. Klunzinger,  K. Koh,  
 D. Kosenkov,  L. Koulias,  T. Kowalczyk,  C. M. Krauter,  A. Kunitsa,  
 Ka Un Lao,  A. Laurent,  K. V. Lawler,  Joonho Lee,  D. Lefrancois,  
 S. Lehtola,  D. S. Levine,  Yi-Pei Li,  You-Sheng Lin,  Fenglai Liu,  
 E. Livshits,  A. Luenser,  P. Manohar,  E. Mansoor,  S. F. Manzer,  
 Shan-Ping Mao,  Yuezhi Mao,  N. Mardirossian,  A. V. Marenich,  
 T. Markovich,  L. A. Martinez-Martinez,  S. A. Maurer,  N. J. Mayhall,  
 S. C. McKenzie,  J.-M. Mewes,  P. Morgante,  A. F. Morrison,  
 J. W. Mullinax,  K. Nanda,  T. S. Nguyen-Beck,  R. Olivares-Amaya,  
 J. A. Parkhill,  Zheng Pei,  T. M. Perrine,  F. Plasser,  P. Pokhilko,  
 S. Prager,  A. Prociuk,  E. Ramos,  D. R. Rehn,  F. Rob,  M. Scheurer,  
 M. Schneider,  N. Sergueev,  S. M. Sharada,  S. Sharma,  D. W. Small,  
 T. Stauch,  T. Stein,  Yu-Chuan Su,  A. J. W. Thom,  A. Tkatchenko,  
 T. Tsuchimochi,  N. M. Tubman,  L. Vogt,  M. L. Vidal,  O. Vydrov,  
 M. A. Watson,  J. Wenzel,  M. de Wergifosse,  T. A. Wesolowski,  A. White,  
 J. Witte,  A. Yamada,  Jun Yang,  K. Yao,  S. Yeganeh,  S. R. Yost,  
 Zhi-Qiang You,  A. Zech,  Igor Ying Zhang,  Xing Zhang,  Yan Zhao,  
 Ying Zhu,  B. R. Brooks,  G. K. L. Chan,  C. J. Cramer,  M. S. Gordon,  
 W. J. Hehre,  A. Klamt,  M. W. Schmidt,  C. D. Sherrill,  D. G. Truhlar,  
 A. Aspuru-Guzik,  R. Baer,  A. T. Bell,  N. A. Besley,  Jeng-Da Chai,  
 A. E. DePrince, III,  R. A. DiStasio Jr.,  A. Dreuw,  B. D. Dunietz,  
 T. R. Furlani,  Chao-Ping Hsu,  Yousung Jung,  Jing Kong,  D. S. Lambrecht,  
 WanZhen Liang,  C. Ochsenfeld,  V. A. Rassolov,  L. V. Slipchenko,  
 J. E. Subotnik,  T. Van Voorhis,  J. M. Herbert,  A. I. Krylov,  
 P. M. W. Gill,  M. Head-Gordon

 Contributors to earlier versions of Q-Chem not listed above: 
 R. D. Adamson,  B. Austin,  J. Baker,  G. J. O. Beran,  K. Brandhorst,  
 S. T. Brown,  E. F. C. Byrd,  A. K. Chakraborty,  C.-L. Cheng,  
 Siu Hung Chien,  D. M. Chipman,  D. L. Crittenden,  H. Dachsel,  
 R. J. Doerksen,  A. D. Dutoi,  L. Fusti-Molnar,  W. A. Goddard III,  
 A. Golubeva-Zadorozhnaya,  S. R. Gwaltney,  G. Hawkins,  A. Heyden,  
 S. Hirata,  G. Kedziora,  F. J. Keil,  C. Kelley,  Jihan Kim,  R. A. King,  
 R. Z. Khaliullin,  P. P. Korambath,  W. Kurlancheek,  A. M. Lee,  M. S. Lee,  
 S. V. Levchenko,  Ching Yeh Lin,  D. Liotard,  R. C. Lochan,  I. Lotan,  
 P. E. Maslen,  N. Nair,  D. P. O'Neill,  D. Neuhauser,  E. Neuscamman,  
 C. M. Oana,  R. Olson,  B. Peters,  R. Peverati,  P. A. Pieniazek,  
 Y. M. Rhee,  J. Ritchie,  M. A. Rohrdanz,  E. Rosta,  N. J. Russ,  
 H. F. Schaefer III,  N. E. Schultz,  N. Shenvi,  A. C. Simmonett,  A. Sodt,  
 D. Stuck,  K. S. Thanthiriwatte,  V. Vanovschi,  Tao Wang,  A. Warshel,  
 C. F. Williams,  Q. Wu,  X. Xu,  W. Zhang

 Please cite Q-Chem as follows:
 Y. Shao et al., Mol. Phys. 113, 184-215 (2015)
 DOI: 10.1080/00268976.2014.952696

 Q-Chem 5.2.0 for Intel X86 EM64T Linux

 Parts of Q-Chem use Armadillo 8.300.2 (Tropical Shenanigans).
 http://arma.sourceforge.net/

 Q-Chem begins on Sun Sep 26 10:49:36 2021  

Host: cori01
0

     Scratch files written to /tmp/qchem26913//Frg2//
 May1019 |scratch|qcdevops|jenkins|workspace|build_RNUM -1
Processing $rem in /global/common/cori/software/qchem/5.2/config/preferences:
	 MEM_TOTAL  96000 
NAlpha2: 48
NElect   48
Mult     1
Symmetry turned off for PCM/SM12/SMD calculation

Checking the input file for inconsistencies... 	...done.

--------------------------------------------------------------
User input:
--------------------------------------------------------------
$molecule
1 1
 6	-0.4979432744	1.6647676093	-0.1150374075
 6	-1.9179432744	2.0287676093	-0.4950374075
 6	1.1320567256	1.0537676093	-1.8570374075
 7	0.4480567256	1.9687676093	-1.1890374075
 7	0.9600567256	-0.2292323907	-1.5960374075
 7	1.9810567256	1.4297676093	-2.7910374075
 1	-0.2179432744	2.2337676093	0.7739625925
 1	-0.5099432744	0.6227676093	0.1469625925
 1	-1.9499432744	3.0757676093	-0.7790374075
 1	-2.5379432744	1.8817676093	0.3889625925
 1	0.6210567256	2.9397676093	-1.3990374075
 1	0.4530567256	-0.4942323907	-0.7590374075
 1	1.3720567256	-0.9562323907	-2.1640374075
 1	2.1600567256	2.4067676093	-2.9580374075
 1	2.5440567256	0.7337676093	-3.2510374075
 1	-2.3145732744	1.4548076093	-1.3454804075
$end
$rem
EDA2		1
METHOD		WB97X-V
BASIS		DEF2-TZVPD
XC_GRID		000099000590
NL_GRID		1
UNRESTRICTED		FALSE
MAX_SCF_CYCLES		200
SYMMETRY		FALSE
SYM_IGNORE		TRUE
BASIS_LIN_DEP_THRESH		6
THRESH		14
SCF_CONVERGENCE		8
SCF_PRINT_FRGM		TRUE
SOLVENT_METHOD		SMD
!required keywords
JOBTYPE		SP
SYM_IGNORE		TRUE
SUBSYSTEM		TRUE
GEN_SCFMAN		TRUE
CHILD_INSTRUCTION		2
SYM_IGNORE		TRUE
SCFMI		0
RI_K 0		
PARI_K 0		
MIN_PARI_K 0		
IARI_K 0		
OCC_RI_K 0		
PURECART		1111
MEM_STATIC		2000
MEM_TOTAL		96000
GUI		0
CHILD_MP		1
CHILD_MP_ORDERS		232
FRZ_RELAX		0
FRZ_RELAX_METHOD		0
EDA_CLS_ELEC		1
EDA_CLS_DISP		0
FRZ_ORTHO_DECOMP		1
EDA2		FALSE
FRGM_METHOD		FALSE
CIS_N_ROOTS  0
LOCAL_CIS    0
CIS_RLX_DNS  1
$end
$smx
SOLVENT			WATER
$end
--------------------------------------------------------------
 ----------------------------------------------------------------
             Standard Nuclear Orientation (Angstroms)
    I     Atom           X                Y                Z
 ----------------------------------------------------------------
    1      C      -0.4979432744     1.6647676093    -0.1150374075
    2      C      -1.9179432744     2.0287676093    -0.4950374075
    3      C       1.1320567256     1.0537676093    -1.8570374075
    4      N       0.4480567256     1.9687676093    -1.1890374075
    5      N       0.9600567256    -0.2292323907    -1.5960374075
    6      N       1.9810567256     1.4297676093    -2.7910374075
    7      H      -0.2179432744     2.2337676093     0.7739625925
    8      H      -0.5099432744     0.6227676093     0.1469625925
    9      H      -1.9499432744     3.0757676093    -0.7790374075
   10      H      -2.5379432744     1.8817676093     0.3889625925
   11      H       0.6210567256     2.9397676093    -1.3990374075
   12      H       0.4530567256    -0.4942323907    -0.7590374075
   13      H       1.3720567256    -0.9562323907    -2.1640374075
   14      H       2.1600567256     2.4067676093    -2.9580374075
   15      H       2.5440567256     0.7337676093    -3.2510374075
   16      H      -2.3145732744     1.4548076093    -1.3454804075
 ----------------------------------------------------------------
 Nuclear Repulsion Energy =         258.72208809 hartrees
 There are       24 alpha and       24 beta electrons
 Requested basis set is def2-TZVPD
 There are 128 shells and 312 basis functions

 Total QAlloc Memory Limit  96000 MB
 Mega-Array Size      1956 MB
 MEM_STATIC part      2000 MB
 
 Citation of the SMD model:
 Marenich, A.V.; Cramer, C.J.; Truhlar, D.G.
 J. Phys. Chem. B 2009, 113, 6378-6396.
 iSolventCode=           1
 Solvent: water                                                           
 
 vradii
            1           2           3           4           5           6
    1   1.8500000   1.8500000   1.8500000   1.8900000   1.8900000   1.8900000
            7           8           9          10          11          12
    1   1.2000000   1.2000000   1.2000000   1.2000000   1.2000000   1.2000000
           13          14          15          16
    1   1.2000000   1.2000000   1.2000000   1.2000000
 Changing PCM_VDW_RADII to SMD_RADIUS
 Discretize the solute cavity surface with Lebedev spheres
	Using 110 Lebedev grid points for each H atom
	Using 194 Lebedev grid points for other atoms
	Atomic van der Waals radii will be scaled by 1.20
 Remove points where switching function is < 1.0e-08
 Keep 1102 surface tesserae and discard 1162 interior tesserae
 Molecular Surface Area = 132.685 Angst**2
 A cutoff of  1.0D-14 yielded   7935 shell pairs
 There are     47857 function pairs (     59662 Cartesian)
 Smallest overlap matrix eigenvalue = 8.06E-06

 Scale SEOQF with 1.000000e-01/1.000000e-01/1.000000e-01

 Standard Electronic Orientation quadrupole field applied
 Nucleus-field energy     =    -0.0000000019 hartrees
 Guess from superposition of atomic densities
 Warning:  Energy on first SCF cycle will be non-variational
 SAD guess density has 48.375862 electrons

 -----------------------------------------------------------------------
  General SCF calculation program by
  Eric Jon Sundstrom, Paul Horn, Yuezhi Mao, Dmitri Zuev, Alec White,
  David Stuck, Shaama M.S., Shane Yost, Joonho Lee, David Small,
  Daniel Levine, Susi Lehtola, Hugh Burton, Evgeny Epifanovsky
 -----------------------------------------------------------------------
 Exchange:     0.1670 Hartree-Fock + 1.0000 wB97X-V + LR-HF
 Correlation:  1.0000 wB97X-V
 Using Euler-Maclaurin-Lebedev (99,590) quadrature formula
 Nonlocal Correlation:  VV10 with C = 0.0100 and b = 6.00 and scale = 1.00000
 Grid used for NLC:  SG-1 standard quadrature
Energy prior to optimization (guess energy) = -284.028514725775
Begin Timing: Total SCF Calculation
begin iterations for algorithm: DIIS         
the SCF tolerance is set to 1.00e-08
    1    -284.0285147258      6.63e-03     00000 
    2    -284.2742686725      5.19e-03     00000 
    3    -284.5203815542      3.02e-04     00000 
    4    -284.5216928340      1.56e-04     00000 
    5    -284.5220028588      4.51e-05     00000 
    6    -284.5220308818      1.88e-05     00000 
    7    -284.5220354834      3.48e-06     00000 
    8    -284.5220358185      8.76e-07     00000 
    9    -284.5220358404      4.44e-07     00000 
   10    -284.5220358448      1.20e-07     00000 
   11    -284.5220358453      5.17e-08     00000 
   12    -284.5220358453      1.59e-08     00000 
   13    -284.5220358453      2.34e-09     00000 Convergence criterion met
Timing for Total SCF: 1199.00s (wall), 2384.13s (cpu)
(3)  G-ENP(liq) elect-nuc-pol free energy of system     -284.522035845 a.u.
(4)  G-CDS(liq) cavity-dispersion-solvent structure 
     free energy                                                3.1259 kcal/mol
(6)  G-S(liq) free energy of system                     -284.517054400 a.u.
E_pcm = -0.1076976654
E_cds = 0.0049814449
Multipole orders to be included
        2
        3
computing dipole RHS
computing quadrupole RHS
total number of RHS in solve_reponses: 8
RHS batch sizes
        8
Beginning Block Conjugate Gradient Iterations. Batch Number: 0
computing hessian-vector products by finite difference
              1      4.86e-01     00000 Conjugate Gradient Iteration
computing hessian-vector products by finite difference
              2      1.87e-01     00000 Conjugate Gradient Iteration
computing hessian-vector products by finite difference
              3      5.09e-02     00000 Conjugate Gradient Iteration
computing hessian-vector products by finite difference
              4      1.37e-02     00000 Conjugate Gradient Iteration
computing hessian-vector products by finite difference
              5      1.91e-03     00000 Conjugate Gradient Iteration
computing hessian-vector products by finite difference
              6      3.15e-04     00000 Conjugate Gradient Iteration
computing hessian-vector products by finite difference
              7      5.39e-05     00000 Conjugate Gradient Iteration
computing hessian-vector products by finite difference
              8      8.84e-06     00000 Conjugate Gradient Iteration
computing hessian-vector products by finite difference
              9      1.58e-06     00000 Conjugate Gradient Iteration
computing hessian-vector products by finite difference
             10      2.50e-07     00000 Conjugate Gradient Iteration
computing hessian-vector products by finite difference
             11      3.00e-08     00000 Conjugate Gradient Iteration
computing hessian-vector products by finite difference
             12      3.85e-09     00000 CG Converged
batch 0 complete
Done Calculating Responses
TESTING ORTHOGONALIZATION OF MULTIPOLE BASIS
Multipole virts passed orthogonality test
Virts Per Order
           72
          120
 
 --------------------------------------------------------------
 
                    Orbital Energies (a.u.)
 --------------------------------------------------------------
 
 Alpha MOs
 -- Occupied --
-14.4529 -14.4460 -14.4451 -10.4222 -10.3085 -10.2542  -1.1739  -1.0576
 -1.0425  -0.8996  -0.7871  -0.7525  -0.7242  -0.6847  -0.6197  -0.6147
 -0.5942  -0.5759  -0.5498  -0.5030  -0.4821  -0.4535  -0.3989  -0.3738
 -- Virtual --
  0.0599   0.0826   0.0911   0.0980   0.1096   0.1224   0.1276   0.1349
  0.1641   0.1681   0.1747   0.1794   0.1901   0.1998   0.2057   0.2157
  0.2218   0.2279   0.2291   0.2362   0.2565   0.2618   0.2660   0.2719
  0.2841   0.2934   0.2983   0.3022   0.3095   0.3161   0.3187   0.3253
  0.3337   0.3421   0.3573   0.3601   0.3613   0.3651   0.3719   0.3767
  0.3849   0.3878   0.3941   0.4053   0.4094   0.4164   0.4213   0.4295
  0.4318   0.4430   0.4564   0.4583   0.4642   0.4783   0.4873   0.4901
  0.5000   0.5094   0.5179   0.5225   0.5275   0.5318   0.5361   0.5386
  0.5491   0.5582   0.5646   0.5683   0.5743   0.5825   0.5907   0.5934
  0.6093   0.6234   0.6321   0.6428   0.6529   0.6614   0.6693   0.6725
  0.6857   0.7174   0.7216   0.7284   0.7352   0.7481   0.7773   0.7797
  0.7869   0.7935   0.8018   0.8088   0.8147   0.8343   0.8460   0.8518
  0.8650   0.8664   0.8745   0.8856   0.9189   0.9418   0.9505   0.9559
  0.9718   0.9902   0.9995   1.0083   1.0395   1.0540   1.0792   1.0915
  1.0979   1.1039   1.1160   1.1489   1.1628   1.1802   1.1936   1.2276
  1.2388   1.2690   1.2975   1.3062   1.3480   1.3748   1.3843   1.4149
  1.4327   1.4456   1.4838   1.5170   1.5349   1.5596   1.5839   1.6314
  1.6578   1.6851   1.7242   1.7433   1.7638   1.8039   1.8421   1.8715
  1.8869   1.9036   1.9161   1.9224   1.9515   1.9615   1.9755   1.9967
  2.0105   2.0180   2.0428   2.0474   2.0605   2.1046   2.1521   2.1606
  2.1929   2.2026   2.2230   2.2387   2.2638   2.2990   2.3244   2.3341
  2.3782   2.4022   2.4372   2.4553   2.4793   2.4965   2.5447   2.5623
  2.5687   2.6147   2.6328   2.6429   2.6518   2.6659   2.6892   2.7029
  2.7431   2.7616   2.7878   2.8065   2.8354   2.8588   2.8812   2.8934
  2.9120   2.9364   2.9493   2.9658   2.9988   3.0853   3.0876   3.1561
  3.1770   3.1793   3.1953   3.2086   3.2193   3.2493   3.2764   3.2867
  3.3162   3.3340   3.3489   3.3639   3.3953   3.4313   3.4424   3.4711
  3.4946   3.5185   3.5662   3.5706   3.5775   3.6014   3.6135   3.6866
  3.7070   3.7324   3.7868   3.8360   3.8510   3.9382   3.9591   4.0173
  4.0667   4.1134   4.1247   4.1529   4.1801   4.2088   4.2736   4.3226
  4.3368   4.3636   4.3923   4.4585   4.5423   4.5748   4.6296   4.6769
  4.7235   4.8369   4.8537   4.8755   4.8873   4.9368   4.9934   5.0377
  5.0424   5.0874   5.1236   5.1463   5.1704   5.1949   5.2502   5.2594
  5.3197   5.3700   5.4089   5.4210   5.4686   5.4969   5.5145   5.5286
  5.6069   5.6726   5.7210   5.7995   5.8313   5.9257   6.1909   6.2068
  6.3688   6.5168  22.6436  22.8306  23.6737  32.3460  32.4940  32.9256
 --------------------------------------------------------------
 
          Ground-State Mulliken Net Atomic Charges

     Atom                 Charge (a.u.)
  ----------------------------------------
      1 C                    -0.293807
      2 C                    -0.873973
      3 C                     0.417075
      4 N                    -0.069674
      5 N                    -0.241582
      6 N                    -0.288423
      7 H                     0.207446
      8 H                     0.222963
      9 H                     0.240158
     10 H                     0.269171
     11 H                     0.272846
     12 H                     0.161278
     13 H                     0.245163
     14 H                     0.250408
     15 H                     0.252329
     16 H                     0.228620
  ----------------------------------------
  Sum of atomic charges =     1.000000

 -----------------------------------------------------------------
                    Cartesian Multipole Moments
 -----------------------------------------------------------------
    Charge (ESU x 10^10)
                 4.8032
    Dipole Moment (Debye)
         X       5.2323      Y       5.2995      Z      -8.1229
       Tot      11.0201
    Quadrupole Moments (Debye-Ang)
        XX     -24.9808     XY       5.0396     YY     -16.5110
        XZ     -18.0330     YZ      -8.7574     ZZ     -15.2339
    Octopole Moments (Debye-Ang^2)
       XXX      -2.9971    XXY     -36.9575    XYY      12.0447
       YYY     -94.2513    XXZ       8.7293    XYZ     -18.4923
       YYZ      12.1152    XZZ      43.8136    YZZ     -26.3767
       ZZZ      84.2476
    Hexadecapole Moments (Debye-Ang^3)
      XXXX    -414.9712   XXXY      49.4308   XXYY    -141.1506
      XYYY      76.5526   YYYY    -427.8528   XXXZ      63.0173
      XXYZ      14.4771   XYYZ      -8.4960   YYYZ      67.1370
      XXZZ     -49.9149   XYZZ      61.8056   YYZZ    -117.8666
      XZZZ      -6.1649   YZZZ     104.5280   ZZZZ    -446.6906
 -----------------------------------------------------------------
Archival summary:
1\1\nid00557\SP\ProcedureUnspecified\BasisUnspecified\3310(1+,1)\meili\SunSep2617:00:282021SunSep2617:00:282021\0\\#,ProcedureUnspecified,BasisUnspecified,\\1,1\N\H,1,1.0084\C,1,1.32337,2,118.163\N,3,1.31702,1,119.589,2,-1.86283,0\H,4,1.00647,3,119.163,1,175.825,0\H,4,1.0072,3,120.603,1,4.1606,0\N,3,1.32053,1,120.31,2,178.546,0\H,7,1.01039,3,122.334,1,171.849,0\H,7,1.01383,3,118.834,1,-12.6658,0\C,1,1.46315,2,117.636,3,177.015,0\H,10,1.0745,1,112.811,2,-171.035,0\H,10,1.09201,1,108.877,2,-51.1127,0\C,10,1.51436,1,111.847,2,68.9426,0\H,13,1.08531,10,108.977,1,-55.7124,0\H,13,1.08971,10,107.309,1,-173.608,0\H,13,1.1,10,113.997,1,63.5793,0\\\@

 Total job time:  22256.09s(wall), 44202.39s(cpu) 
 Sun Sep 26 17:00:32 2021

        *************************************************************
        *                                                           *
        *  Thank you very much for using Q-Chem.  Have a nice day.  *
        *                                                           *
        *************************************************************


Done Job For Fragment 1
calling putenv with: QCSCRATCH=/global/cscratch1/sd/meili 
calling putenv with: QCLOCALSCR=/tmp 
calling putenv with: QCTHREADS=32 
Doing General SCFMI
 Exchange:     0.1670 Hartree-Fock + 1.0000 wB97X-V + LR-HF
 Correlation:  1.0000 wB97X-V
 Using Euler-Maclaurin-Lebedev (99,590) quadrature formula
 Nonlocal Correlation:  VV10 with C = 0.0100 and b = 6.00 and scale = 1.00000
 Grid used for NLC:  SG-1 standard quadrature
performing fock build before subrot guess so that all methods have access
Printing subrot_rss_gen Method Specification:
Occupied Subspace Method is 0
Virtual Subspace Method is 0
Energy of the unrelaxed supersystem initial determinant -513.073105630946
performing fock build before subrot guess so that all methods have access
Printing subrot_rss_gen Method Specification:
Occupied Subspace Method is 0
Virtual Subspace Method is 0
Energy of the unrelaxed supersystem initial determinant w/ solvent -513.188816320328
write pseudocanon occs and virts to disk
write pseudocanon orbital energies to disk
Tolerance of ortho_decomp_scf: 1.00e-06
GDM subspace size: 20
Beginning the Orthogonal Decomposition of the Initial Supersystem Wavefunction
    1    -512.9014379575      7.01e-02     ortho_decomp Preconditoned Steepest Descent
    2    -512.9113548942      2.02e-03     ortho_decomp BFGS Step
    3    -512.9114016212      1.85e-04     ortho_decomp BFGS Step
    4    -512.9114017211      8.26e-06     ortho_decomp BFGS Step
    5    -512.9114017216      2.72e-07     ortho_decomp 00000 Convergence criterion met
 Hartree-Fock
 Hartree-Fock
 Hartree-Fock
Doing General SCFMI
 Exchange:     0.1670 Hartree-Fock + 1.0000 wB97X-V + LR-HF
 Correlation:  1.0000 wB97X-V
 Using Euler-Maclaurin-Lebedev (99,590) quadrature formula
 Nonlocal Correlation:  VV10 with C = 0.0100 and b = 6.00 and scale = 1.00000
 Grid used for NLC:  SG-1 standard quadrature
performing fock build at end of subrot_r(subrot) constructor so that all methods have access
<S^2> of initial wavefunction before polarization iterations 0.0000000000
Beginning iterations for the determination of the polarized wavefunction
Energy prior to optimization (guess energy) = -513.188816320328
Begin Timing: Total SCF Calculation
begin iterations for algorithm: DIIS         
the SCF tolerance is set to 1.00e-08
    1    -513.1888163203      1.17e-04     00000 
    2    -513.1896341507      7.19e-05     00000 
    3    -513.1897695700      3.74e-05     00000 
    4    -513.1898201436      1.12e-05     00000 
    5    -513.1898258475      4.31e-06     00000 
    6    -513.1898271988      2.14e-06     00000 
    7    -513.1898274700      7.43e-07     00000 
    8    -513.1898275181      2.24e-07     00000 
    9    -513.1898275218      1.08e-07     00000 
   10    -513.1898275223      3.41e-08     00000 
   11    -513.1898275224      1.28e-08     00000 
   12    -513.1898275224      5.88e-09     00000 Convergence criterion met
write pseudocanon occs and virts to disk
write pseudocanon orbital energies to disk
Timing for Total SCF: 3823.00s (wall), 7570.83s (cpu)
<S^2> of polarized wavefunction after polarization iterations 0.0000000000
relaxing scfmi constraint to allow all rotations in the entire AO span
Doing General SCFMI
 Exchange:     0.1670 Hartree-Fock + 1.0000 wB97X-V + LR-HF
 Correlation:  1.0000 wB97X-V
 Using Euler-Maclaurin-Lebedev (99,590) quadrature formula
 Nonlocal Correlation:  VV10 with C = 0.0100 and b = 6.00 and scale = 1.00000
 Grid used for NLC:  SG-1 standard quadrature
performing fock build at end of subrot_r(subrot) constructor so that all methods have access
<S^2> of polarized wavefunction before ct-allowed iterations 0.0000000000
Beginning iterations for the determination of the CT-Allowed wavefunction
Energy prior to optimization (guess energy) = -513.189827522430
Begin Timing: Total SCF Calculation
begin iterations for algorithm: DIIS         
the SCF tolerance is set to 1.00e-08
    1    -513.1898275224      1.37e-04     00000 
    2    -513.1923730963      1.95e-05     00000 
    3    -513.1924666385      9.11e-06     00000 
    4    -513.1924736302      4.91e-06     00000 
    5    -513.1924762424      9.72e-07     00000 
    6    -513.1924763711      4.07e-07     00000 
    7    -513.1924764039      1.56e-07     00000 
    8    -513.1924764081      4.10e-08     00000 
    9    -513.1924764086      1.36e-08     00000 
   10    -513.1924764087      6.26e-09     00000 Convergence criterion met
write pseudocanon occs and virts to disk
write pseudocanon orbital energies to disk
Timing for Total SCF: 3188.00s (wall), 6303.60s (cpu)
<S^2> of ct_allowed wavefunction after ct-allowed iterations 0.0000000000

================================
        Results of EDA2         
================================
Basic EDA Quantities
--------------------
Fragment Energies (Ha):
1 -228.6593974317
2 -284.5170544005
--------------------
  E_prp (kJ/mol) = -0.0000
  E_sol (kJ/mol) = 319.6922
  E_frz (kJ/mol) = -326.0029
  E_pol (kJ/mol) = -2.6549
  E_vct (kJ/mol) = -6.9547
  E_int (kJ/mol) = -15.9204
--------------------


Initial Wavefunction Decomposition
--------------------
  --------------------
  Orthogonal Fragment Subspace Decomposition:
  --------------------
     E_elec   (ELEC)   (kJ/mol) = -387.7191
     E_pauli  (PAULI)  (kJ/mol) = 78.9013
     E_disp   (DISP)   (kJ/mol) = -17.1850
     --------------------
     Terms summing to E_pauli:
     --------------------
        E_kep_pauli       (kJ/mol) = 98.5558
        E_disp_free_pauli (kJ/mol) = -19.6545
  --------------------
  Classical Frozen Decomposition:
  --------------------
     E_cls_elec  (CLS ELEC)  (kJ/mol) = -354.3695
     E_cls_pauli (CLS PAULI) (kJ/mol) = 28.3666
    [E_mod_pauli (MOD PAULI) (kJ/mol) = 45.5517 (CLS PAULI - DISP from orthogonal decomposition) ]
  --------------------
--------------------

Simplified EDA Summary (kJ/mol)
--------------------
 PREPARATION     -0.0000
 SOLVATION       319.6922
 FROZEN          -308.8179      (does not include dispersion)
[PAULI           78.9013]     (if this is negligible, then frozen describes electrostatics)
 DISPERSION      -17.1850
 POLARIZATION    -2.6549
 CHARGE TRANSFER -6.9547
 TOTAL           -15.9204     (PRP + SOL + FRZ + DISP + POL + CT)
--------------------
 
 --------------------------------------------------------------
 
                    Orbital Energies (a.u.)
 --------------------------------------------------------------
 
 Alpha MOs
 -- Occupied --
-19.1571 -19.1547 -14.4487 -14.4421 -14.4387 -10.4179 -10.3565 -10.2996
-10.2512 -10.2481  -1.1703  -1.1690  -1.0700  -1.0534  -1.0376  -0.8951
 -0.8437  -0.7833  -0.7479  -0.7206  -0.6815  -0.6268  -0.6153  -0.6064
 -0.5902  -0.5722  -0.5519  -0.5508  -0.5448  -0.5425  -0.4995  -0.4841
 -0.4785  -0.4654  -0.4480  -0.3947  -0.3705  -0.3687  -0.3602  -0.3466
 -- Virtual --
  0.0584   0.0731   0.0804   0.0905   0.1036   0.1046   0.1091   0.1117
  0.1251   0.1305   0.1322   0.1339   0.1440   0.1491   0.1599   0.1692
  0.1721   0.1772   0.1858   0.1907   0.1967   0.2014   0.2071   0.2088
  0.2189   0.2234   0.2346   0.2385   0.2430   0.2467   0.2529   0.2572
  0.2642   0.2656   0.2708   0.2794   0.2859   0.2915   0.2977   0.3015
  0.3044   0.3082   0.3132   0.3185   0.3254   0.3276   0.3308   0.3375
  0.3429   0.3450   0.3510   0.3542   0.3597   0.3673   0.3688   0.3736
  0.3740   0.3778   0.3823   0.3883   0.3914   0.3994   0.4002   0.4011
  0.4106   0.4153   0.4197   0.4237   0.4313   0.4328   0.4352   0.4398
  0.4500   0.4575   0.4608   0.4638   0.4712   0.4756   0.4835   0.4880
  0.4887   0.4919   0.5019   0.5041   0.5114   0.5172   0.5188   0.5218
  0.5266   0.5366   0.5384   0.5483   0.5488   0.5573   0.5586   0.5677
  0.5708   0.5760   0.5790   0.5853   0.5885   0.5947   0.5989   0.6005
  0.6140   0.6198   0.6212   0.6301   0.6405   0.6484   0.6498   0.6552
  0.6637   0.6657   0.6742   0.6787   0.6808   0.6885   0.6922   0.6977
  0.7099   0.7166   0.7227   0.7347   0.7443   0.7505   0.7566   0.7571
  0.7680   0.7725   0.7752   0.7761   0.7907   0.7930   0.7980   0.8019
  0.8093   0.8132   0.8176   0.8288   0.8305   0.8347   0.8452   0.8517
  0.8595   0.8664   0.8732   0.8838   0.8954   0.9113   0.9191   0.9274
  0.9371   0.9461   0.9494   0.9708   0.9727   0.9846   0.9906   0.9960
  1.0029   1.0101   1.0243   1.0386   1.0503   1.0592   1.0630   1.0722
  1.0816   1.0894   1.1001   1.1097   1.1176   1.1306   1.1332   1.1550
  1.1669   1.1785   1.1858   1.1976   1.2043   1.2351   1.2473   1.2502
  1.2626   1.2742   1.2798   1.3100   1.3194   1.3266   1.3366   1.3443
  1.3594   1.3687   1.3854   1.3989   1.4037   1.4095   1.4209   1.4522
  1.4619   1.4924   1.5083   1.5255   1.5481   1.5746   1.5926   1.6144
  1.6275   1.6382   1.6749   1.6919   1.7171   1.7550   1.7629   1.7890
  1.8102   1.8353   1.8710   1.8824   1.8900   1.9113   1.9198   1.9317
  1.9342   1.9355   1.9511   1.9573   1.9652   1.9815   1.9867   1.9904
  2.0044   2.0120   2.0145   2.0248   2.0368   2.0557   2.0677   2.0768
  2.0932   2.0988   2.1344   2.1420   2.1541   2.1868   2.2005   2.2197
  2.2298   2.2432   2.2607   2.2678   2.2704   2.2918   2.3025   2.3277
  2.3400   2.3460   2.3644   2.3779   2.4014   2.4292   2.4545   2.4597
  2.4946   2.5020   2.5037   2.5252   2.5641   2.5722   2.5768   2.5860
  2.5998   2.6104   2.6213   2.6495   2.6593   2.6686   2.6802   2.6875
  2.6977   2.7211   2.7296   2.7587   2.7686   2.7926   2.8178   2.8250
  2.8313   2.8595   2.8806   2.8831   2.9065   2.9226   2.9291   2.9404
  2.9487   2.9643   2.9741   2.9801   2.9944   3.0306   3.0564   3.0726
  3.1052   3.1218   3.1638   3.1877   3.1976   3.2032   3.2152   3.2269
  3.2307   3.2590   3.2735   3.2838   3.3000   3.3064   3.3204   3.3353
  3.3367   3.3582   3.3740   3.3942   3.4001   3.4113   3.4202   3.4342
  3.4475   3.4526   3.4617   3.4766   3.4962   3.5073   3.5433   3.5660
  3.5765   3.5884   3.5917   3.6176   3.6254   3.6319   3.6340   3.6727
  3.6957   3.7181   3.7307   3.7455   3.7536   3.7615   3.7852   3.8149
  3.8618   3.8697   3.8931   3.9616   3.9763   3.9939   4.0324   4.0785
  4.0901   4.0945   4.1375   4.1509   4.1804   4.1993   4.2184   4.2293
  4.2977   4.3378   4.3532   4.3674   4.3947   4.4046   4.4721   4.5487
  4.5530   4.5993   4.6390   4.6593   4.6850   4.7078   4.7419   4.8059
  4.8534   4.8803   4.8979   4.9033   4.9138   4.9582   5.0019   5.0135
  5.0548   5.0633   5.1085   5.1543   5.1700   5.1905   5.2136   5.2658
  5.2691   5.2973   5.3286   5.3367   5.3396   5.3490   5.3822   5.4255
  5.4383   5.4726   5.4857   5.5055   5.5419   5.5511   5.6191   5.6818
  5.7029   5.7442   5.7495   5.7958   5.8137   5.8510   5.9409   6.0193
  6.2100   6.2212   6.2418   6.3357   6.3768   6.3983   6.5270   6.6299
  6.6511   6.7272   6.7370   6.7574   6.9623   6.9760   7.0315   7.2458
  7.3421   7.3848   7.4687  22.6224  22.6918  22.8788  23.6921  23.7668
 32.3954  32.5417  32.9735  44.3739  44.3984
 --------------------------------------------------------------
 
          Ground-State Mulliken Net Atomic Charges

     Atom                 Charge (a.u.)
  ----------------------------------------
      1 C                    -0.524506
      2 C                     0.451710
      3 O                    -0.742055
      4 O                    -0.798211
      5 H                     0.096288
      6 H                     0.222571
      7 H                     0.245573
      8 C                     0.292746
      9 C                    -1.027057
     10 C                     0.430850
     11 N                    -0.040607
     12 N                    -0.129087
     13 N                    -0.291601
     14 H                     0.165398
     15 H                    -0.245285
     16 H                     0.281413
     17 H                     0.284033
     18 H                     0.278882
     19 H                     0.038298
     20 H                     0.261214
     21 H                     0.250102
     22 H                     0.253581
     23 H                     0.245749
  ----------------------------------------
  Sum of atomic charges =     0.000000

 -----------------------------------------------------------------
                    Cartesian Multipole Moments
 -----------------------------------------------------------------
    Charge (ESU x 10^10)
                 0.0000
    Dipole Moment (Debye)
         X       2.5959      Y      15.7121      Z     -15.8209
       Tot      22.4479
    Quadrupole Moments (Debye-Ang)
        XX     -50.0824     XY      10.1801     YY     -73.3963
        XZ     -22.5234     YZ      14.8674     ZZ     -57.5852
    Octopole Moments (Debye-Ang^2)
       XXX      41.2809    XXY       9.3342    XYY      17.0910
       YYY     147.3048    XXZ     -40.5730    XYZ      -9.2677
       YYZ    -114.7261    XZZ      49.3486    YZZ      79.6242
       ZZZ    -107.4460
    Hexadecapole Moments (Debye-Ang^3)
      XXXX    -630.5558   XXXY     -17.1603   XXYY    -285.3504
      XYYY      26.2763   YYYY   -1420.9470   XXXZ     175.1335
      XXYZ     117.3277   XYYZ      11.5695   YYYZ     634.5869
      XXZZ    -202.5656   XYZZ      52.2854   YYZZ    -547.7017
      XZZZ      89.6489   YZZZ     575.2340   ZZZZ   -1255.3201
 -----------------------------------------------------------------
Archival summary:
1\1\nid00557\SP\ProcedureUnspecified\BasisUnspecified\23513\meili\SunSep2620:25:422021SunSep2620:25:422021\0\\#,ProcedureUnspecified,BasisUnspecified,\\0,1\O\C,1,1.25078\O,2,1.24967,1,123.017\C,2,1.51315,1,118.9,3,-177.675,0\H,4,1.09139,2,108.562,1,-109.262,0\H,4,1.09235,2,109.586,1,8.54705,0\H,4,1.1,2,111.723,1,130.36,0\H,1,2.1073,2,151.367,3,105.291,0\N,8,1.01383,1,158.104,2,-131.221,0\H,9,1.01039,8,118.682,1,68.597,0\C,9,1.32053,8,118.834,1,-107.055,0\N,11,1.31702,9,120.1,8,167.745,0\H,12,1.00647,11,119.163,9,-4.58352,0\H,12,1.0072,11,120.603,9,-176.248,0\N,11,1.32337,9,120.31,8,-12.6658,0\H,15,1.0084,11,118.163,9,178.546,0\C,15,1.46315,11,124.128,9,1.74093,0\H,17,1.0745,15,112.811,11,5.78554,0\H,17,1.09201,15,108.877,11,125.708,0\C,17,1.51436,15,111.847,11,-114.237,0\H,20,1.08531,17,108.977,15,-55.7124,0\H,20,1.08971,17,107.309,15,-173.608,0\H,20,1.1,17,113.997,15,63.5793,0\\\@

 Total job time:  39109.79s(wall), 24435.07s(cpu) 
 Sun Sep 26 20:25:45 2021

        *************************************************************
        *                                                           *
        *  Thank you very much for using Q-Chem.  Have a nice day.  *
        *                                                           *
        *************************************************************


