
Running Job 1 of 1 SSI-007ARG-011GLU-2_SMD_TZVPD.in
qchem SSI-007ARG-011GLU-2_SMD_TZVPD.in_42113.0 /tmp/qchem42113/ 0
/global/common/cori/software/qchem/5.2/exe/qcprog.exe_s SSI-007ARG-011GLU-2_SMD_TZVPD.in_42113.0 /tmp/qchem42113/
                  Welcome to Q-Chem
     A Quantum Leap Into The Future Of Chemistry


 Q-Chem 5.2, Q-Chem, Inc., Pleasanton, CA (2019)

 License issued to: National Energy Research Scientific Computing Center

 Yihan Shao,  Zhengting Gan,  E. Epifanovsky,  A. T. B. Gilbert,  M. Wormit,  
 J. Kussmann,  A. W. Lange,  A. Behn,  Jia Deng,  Xintian Feng,  D. Ghosh,  
 M. Goldey,  P. R. Horn,  L. D. Jacobson,  I. Kaliman,  T. Kus,  A. Landau,  
 Jie Liu,  E. I. Proynov,  R. M. Richard,  R. P. Steele,  E. J. Sundstrom,  
 H. L. Woodcock III,  P. M. Zimmerman,  D. Zuev,  B. Albrecht,  E. Alguire,  
 S. A. Baeppler,  D. Barton,  Z. Benda,  Y. A. Bernard,  E. J. Berquist,  
 K. B. Bravaya,  H. Burton,  D. Casanova,  Chun-Min Chang,  Yunqing Chen,  
 A. Chien,  K. D. Closser,  M. P. Coons,  S. Coriani,  S. Dasgupta,  
 A. L. Dempwolff,  M. Diedenhofen,  Hainam Do,  R. G. Edgar,  Po-Tung Fang,  
 S. Faraji,  S. Fatehi,  Qingguo Feng,  K. D. Fenk,  J. Fosso-Tande,  
 J. Gayvert,  Qinghui Ge,  A. Ghysels,  G. Gidofalvi,  J. Gomes,  
 J. Gonthier,  A. Gunina,  D. Hait,  M. W. D. Hanson-Heine,  
 P. H. P. Harbach,  A. W. Hauser,  M. F. Herbst,  J. E. Herr,  
 E. G. Hohenstein,  Z. C. Holden,  Kerwin Hui,  B. C. Huynh,  T.-C. Jagau,  
 Hyunjun Ji,  B. Kaduk,  K. Khistyaev,  Jaehoon Kim,  P. Klunzinger,  K. Koh,  
 D. Kosenkov,  L. Koulias,  T. Kowalczyk,  C. M. Krauter,  A. Kunitsa,  
 Ka Un Lao,  A. Laurent,  K. V. Lawler,  Joonho Lee,  D. Lefrancois,  
 S. Lehtola,  D. S. Levine,  Yi-Pei Li,  You-Sheng Lin,  Fenglai Liu,  
 E. Livshits,  A. Luenser,  P. Manohar,  E. Mansoor,  S. F. Manzer,  
 Shan-Ping Mao,  Yuezhi Mao,  N. Mardirossian,  A. V. Marenich,  
 T. Markovich,  L. A. Martinez-Martinez,  S. A. Maurer,  N. J. Mayhall,  
 S. C. McKenzie,  J.-M. Mewes,  P. Morgante,  A. F. Morrison,  
 J. W. Mullinax,  K. Nanda,  T. S. Nguyen-Beck,  R. Olivares-Amaya,  
 J. A. Parkhill,  Zheng Pei,  T. M. Perrine,  F. Plasser,  P. Pokhilko,  
 S. Prager,  A. Prociuk,  E. Ramos,  D. R. Rehn,  F. Rob,  M. Scheurer,  
 M. Schneider,  N. Sergueev,  S. M. Sharada,  S. Sharma,  D. W. Small,  
 T. Stauch,  T. Stein,  Yu-Chuan Su,  A. J. W. Thom,  A. Tkatchenko,  
 T. Tsuchimochi,  N. M. Tubman,  L. Vogt,  M. L. Vidal,  O. Vydrov,  
 M. A. Watson,  J. Wenzel,  M. de Wergifosse,  T. A. Wesolowski,  A. White,  
 J. Witte,  A. Yamada,  Jun Yang,  K. Yao,  S. Yeganeh,  S. R. Yost,  
 Zhi-Qiang You,  A. Zech,  Igor Ying Zhang,  Xing Zhang,  Yan Zhao,  
 Ying Zhu,  B. R. Brooks,  G. K. L. Chan,  C. J. Cramer,  M. S. Gordon,  
 W. J. Hehre,  A. Klamt,  M. W. Schmidt,  C. D. Sherrill,  D. G. Truhlar,  
 A. Aspuru-Guzik,  R. Baer,  A. T. Bell,  N. A. Besley,  Jeng-Da Chai,  
 A. E. DePrince, III,  R. A. DiStasio Jr.,  A. Dreuw,  B. D. Dunietz,  
 T. R. Furlani,  Chao-Ping Hsu,  Yousung Jung,  Jing Kong,  D. S. Lambrecht,  
 WanZhen Liang,  C. Ochsenfeld,  V. A. Rassolov,  L. V. Slipchenko,  
 J. E. Subotnik,  T. Van Voorhis,  J. M. Herbert,  A. I. Krylov,  
 P. M. W. Gill,  M. Head-Gordon

 Contributors to earlier versions of Q-Chem not listed above: 
 R. D. Adamson,  B. Austin,  J. Baker,  G. J. O. Beran,  K. Brandhorst,  
 S. T. Brown,  E. F. C. Byrd,  A. K. Chakraborty,  C.-L. Cheng,  
 Siu Hung Chien,  D. M. Chipman,  D. L. Crittenden,  H. Dachsel,  
 R. J. Doerksen,  A. D. Dutoi,  L. Fusti-Molnar,  W. A. Goddard III,  
 A. Golubeva-Zadorozhnaya,  S. R. Gwaltney,  G. Hawkins,  A. Heyden,  
 S. Hirata,  G. Kedziora,  F. J. Keil,  C. Kelley,  Jihan Kim,  R. A. King,  
 R. Z. Khaliullin,  P. P. Korambath,  W. Kurlancheek,  A. M. Lee,  M. S. Lee,  
 S. V. Levchenko,  Ching Yeh Lin,  D. Liotard,  R. C. Lochan,  I. Lotan,  
 P. E. Maslen,  N. Nair,  D. P. O'Neill,  D. Neuhauser,  E. Neuscamman,  
 C. M. Oana,  R. Olson,  B. Peters,  R. Peverati,  P. A. Pieniazek,  
 Y. M. Rhee,  J. Ritchie,  M. A. Rohrdanz,  E. Rosta,  N. J. Russ,  
 H. F. Schaefer III,  N. E. Schultz,  N. Shenvi,  A. C. Simmonett,  A. Sodt,  
 D. Stuck,  K. S. Thanthiriwatte,  V. Vanovschi,  Tao Wang,  A. Warshel,  
 C. F. Williams,  Q. Wu,  X. Xu,  W. Zhang

 Please cite Q-Chem as follows:
 Y. Shao et al., Mol. Phys. 113, 184-215 (2015)
 DOI: 10.1080/00268976.2014.952696

 Q-Chem 5.2.0 for Intel X86 EM64T Linux

 Parts of Q-Chem use Armadillo 8.300.2 (Tropical Shenanigans).
 http://arma.sourceforge.net/

 Q-Chem begins on Sun Sep 26 01:54:44 2021  

Host: cori01
0

     Scratch files written to /tmp/qchem42113//
 May1019 |scratch|qcdevops|jenkins|workspace|build_RNUM -1
Processing $rem in /global/common/cori/software/qchem/5.2/config/preferences:
	 MEM_TOTAL  96000 
NAlpha2: 72
NElect   72
Mult     1
Symmetry turned off for PCM/SM12/SMD calculation

 Q-Chem warning in module libgen/rem_setup.C, line 2803:

 Neither GIA nor STOLL is specified by user. Use STOLL as the default


Checking the input file for inconsistencies... 	...done.

--------------------------------------------------------------
User input:
--------------------------------------------------------------
$comment
SSI-007ARG-011GLU-2.pdb
$end

$molecule
0 1
--
1 1
C    2.486711096664   -0.441594776608   -0.752939436939
C    0.915711096664   -1.719594776608    0.717060563061
N   -0.241288903336   -1.670594776608    1.335060563061
N    1.187711096664   -0.732594776608   -0.119939436939
N    1.716711096664   -2.755594776608    0.944060563061
H   -0.797288903336   -0.826594776608    1.239060563061
H   -0.501288903336   -2.370594776608    2.018060563061
H    0.473711096664   -0.000594776608   -0.148939436939
H    2.568711096664   -2.872594776608    0.422060563061
H    1.393711096664   -3.473594776608    1.581060563061
H    2.323711096664   -0.143594776608   -1.789939436939
H    3.168711096664   -1.292594776608   -0.714939436939
H    2.889561096664    0.401241223392   -0.172129436939
--
-1 1
C   -1.142288903336    1.825405223392   -1.908939436939
C   -1.522288903336    1.873405223392   -0.447939436939
O   -0.911288903336    1.108405223392    0.319060563061
O   -2.500288903336    2.581405223392   -0.137939436939
H   -1.685288903336    1.001405223392   -2.377939436939
H   -0.076288903336    1.626405223392   -2.014939436939
H   -1.401638903336    2.760910223392   -2.426209436939
$end

$rem
JOBTYPE			EDA
EDA2			1
method			wB97X-V
BASIS			def2-TZVPD
XC_GRID			000099000590
NL_GRID			1
UNRESTRICTED		FALSE
MAX_SCF_CYCLES		200
SYMMETRY		FALSE
SYM_IGNORE		TRUE
MEM_STATIC		2000
BASIS_LIN_DEP_THRESH 	6
THRESH 			14
SCF_CONVERGENCE 	8
SCF_PRINT_FRGM 		TRUE
SOLVENT_METHOD          SMD
$end

$SMX
SOLVENT			WATER
$END
--------------------------------------------------------------
 ----------------------------------------------------------------
             Standard Nuclear Orientation (Angstroms)
    I     Atom           X                Y                Z
 ----------------------------------------------------------------
    1      C       2.4867110967    -0.4415947766    -0.7529394369
    2      C       0.9157110967    -1.7195947766     0.7170605631
    3      N      -0.2412889033    -1.6705947766     1.3350605631
    4      N       1.1877110967    -0.7325947766    -0.1199394369
    5      N       1.7167110967    -2.7555947766     0.9440605631
    6      H      -0.7972889033    -0.8265947766     1.2390605631
    7      H      -0.5012889033    -2.3705947766     2.0180605631
    8      H       0.4737110967    -0.0005947766    -0.1489394369
    9      H       2.5687110967    -2.8725947766     0.4220605631
   10      H       1.3937110967    -3.4735947766     1.5810605631
   11      H       2.3237110967    -0.1435947766    -1.7899394369
   12      H       3.1687110967    -1.2925947766    -0.7149394369
   13      H       2.8895610967     0.4012412234    -0.1721294369
   14      C      -1.1422889033     1.8254052234    -1.9089394369
   15      C      -1.5222889033     1.8734052234    -0.4479394369
   16      O      -0.9112889033     1.1084052234     0.3190605631
   17      O      -2.5002889033     2.5814052234    -0.1379394369
   18      H      -1.6852889033     1.0014052234    -2.3779394369
   19      H      -0.0762889033     1.6264052234    -2.0149394369
   20      H      -1.4016389033     2.7609102234    -2.4262094369
 ----------------------------------------------------------------
 Nuclear Repulsion Energy =         458.66058842 hartrees
 There are       36 alpha and       36 beta electrons
 Requested basis set is def2-TZVPD
 There are 174 shells and 438 basis functions

 Total QAlloc Memory Limit  96000 MB
 Mega-Array Size      1956 MB
 MEM_STATIC part      2000 MB
 
 Citation of the SMD model:
 Marenich, A.V.; Cramer, C.J.; Truhlar, D.G.
 J. Phys. Chem. B 2009, 113, 6378-6396.
 iSolventCode=           1
 Solvent: water                                                           
 
 vradii
            1           2           3           4           5           6
    1   1.8500000   1.8500000   1.8900000   1.8900000   1.8900000   1.2000000
            7           8           9          10          11          12
    1   1.2000000   1.2000000   1.2000000   1.2000000   1.2000000   1.2000000
           13          14          15          16          17          18
    1   1.2000000   1.8500000   1.8500000   1.5200000   1.5200000   1.2000000
           19          20
    1   1.2000000   1.2000000
 Changing PCM_VDW_RADII to SMD_RADIUS
 Discretize the solute cavity surface with Lebedev spheres
	Using 110 Lebedev grid points for each H atom
	Using 194 Lebedev grid points for other atoms
	Atomic van der Waals radii will be scaled by 1.20
 Remove points where switching function is < 1.0e-08
 Keep 1499 surface tesserae and discard 1457 interior tesserae
 Molecular Surface Area = 181.943 Angst**2
 A cutoff of  1.0D-14 yielded  13653 shell pairs
 There are     87069 function pairs (    109408 Cartesian)
 Smallest overlap matrix eigenvalue = 8.33E-06

 Scale SEOQF with 1.000000e-01/1.000000e-01/1.000000e-01

 Standard Electronic Orientation quadrupole field applied
 Nucleus-field energy     =     0.0000000156 hartrees

 -----------------------------------------------------------------------
  General SCF calculation program by
  Eric Jon Sundstrom, Paul Horn, Yuezhi Mao, Dmitri Zuev, Alec White,
  David Stuck, Shaama M.S., Shane Yost, Joonho Lee, David Small,
  Daniel Levine, Susi Lehtola, Hugh Burton, Evgeny Epifanovsky
 -----------------------------------------------------------------------
================================================================
                 ALMO-EDA with the EDA2 driver                  
================================================================
 The second-generation ALMO-EDA (for DFT):                      
 P. R. Horn, Y. Mao and M. Head-Gordon, PCCP, 18, 23067 (2016)  
 Decomposition of the frozen energy:                            
 P. R. Horn, Y. Mao and M. Head-Gordon, JCP, 144, 114107 (2016) 
 FERF model for polarization:                                   
 P. R. Horn and M. Head-Gordon, JCP, 143, 114111 (2015)         
Using eda2 option set 1
Option set summary: Frozen orbital wavefunction, initial wavefunction decomposition, and nDQ polarization.
--------------------------------
Printing EDA Options
--------------------------------
eda_child_super_basis      0
fragmo_guess_mode          0
child_mp                   1
child_mp_orders            232
cls_elec                   1
cls_disp                   0
scfmi_mode                 1
scfmi_occs                 0
scfmi_virts                0
frz_relax                  0
frz_relax_method           0
dc_pen_start               0
dc_pen_conv                0
dc_pen_increment           0
dc_pen_steps               0
dc_pen_thresh_factor       0
dc_pen_pre_newton_thresh   0
frz_ortho_decomp           1
frz_ortho_decomp_conv      6
frgm_method                2
scfmi_freeze_ss            0
separate_rehyb             0
plot_diff_den              0
eda_nocv                   0
eda_vct_relax              1
disp_free_x                0
disp_free_c                0
eda_bsse                   0
eda_pct_a                  0
eda_covp                   0
--------------------------------
Attempting to make child job directory: /tmp/qchem42113//Frg1/
Attempting to make child job directory: /tmp/qchem42113//Frg2/
Creating input file /tmp/qchem42113/Frg1.input
using default PutDataFrgm: nothing
calling putenv with: QCSCRATCH=/tmp/qchem42113/ 
calling putenv with: QCLOCALSCR=/tmp/qchem42113/ 
Spawning Job For Fragment 0
                  Welcome to Q-Chem
     A Quantum Leap Into The Future Of Chemistry


 Q-Chem 5.2, Q-Chem, Inc., Pleasanton, CA (2019)

 License issued to: National Energy Research Scientific Computing Center

 Yihan Shao,  Zhengting Gan,  E. Epifanovsky,  A. T. B. Gilbert,  M. Wormit,  
 J. Kussmann,  A. W. Lange,  A. Behn,  Jia Deng,  Xintian Feng,  D. Ghosh,  
 M. Goldey,  P. R. Horn,  L. D. Jacobson,  I. Kaliman,  T. Kus,  A. Landau,  
 Jie Liu,  E. I. Proynov,  R. M. Richard,  R. P. Steele,  E. J. Sundstrom,  
 H. L. Woodcock III,  P. M. Zimmerman,  D. Zuev,  B. Albrecht,  E. Alguire,  
 S. A. Baeppler,  D. Barton,  Z. Benda,  Y. A. Bernard,  E. J. Berquist,  
 K. B. Bravaya,  H. Burton,  D. Casanova,  Chun-Min Chang,  Yunqing Chen,  
 A. Chien,  K. D. Closser,  M. P. Coons,  S. Coriani,  S. Dasgupta,  
 A. L. Dempwolff,  M. Diedenhofen,  Hainam Do,  R. G. Edgar,  Po-Tung Fang,  
 S. Faraji,  S. Fatehi,  Qingguo Feng,  K. D. Fenk,  J. Fosso-Tande,  
 J. Gayvert,  Qinghui Ge,  A. Ghysels,  G. Gidofalvi,  J. Gomes,  
 J. Gonthier,  A. Gunina,  D. Hait,  M. W. D. Hanson-Heine,  
 P. H. P. Harbach,  A. W. Hauser,  M. F. Herbst,  J. E. Herr,  
 E. G. Hohenstein,  Z. C. Holden,  Kerwin Hui,  B. C. Huynh,  T.-C. Jagau,  
 Hyunjun Ji,  B. Kaduk,  K. Khistyaev,  Jaehoon Kim,  P. Klunzinger,  K. Koh,  
 D. Kosenkov,  L. Koulias,  T. Kowalczyk,  C. M. Krauter,  A. Kunitsa,  
 Ka Un Lao,  A. Laurent,  K. V. Lawler,  Joonho Lee,  D. Lefrancois,  
 S. Lehtola,  D. S. Levine,  Yi-Pei Li,  You-Sheng Lin,  Fenglai Liu,  
 E. Livshits,  A. Luenser,  P. Manohar,  E. Mansoor,  S. F. Manzer,  
 Shan-Ping Mao,  Yuezhi Mao,  N. Mardirossian,  A. V. Marenich,  
 T. Markovich,  L. A. Martinez-Martinez,  S. A. Maurer,  N. J. Mayhall,  
 S. C. McKenzie,  J.-M. Mewes,  P. Morgante,  A. F. Morrison,  
 J. W. Mullinax,  K. Nanda,  T. S. Nguyen-Beck,  R. Olivares-Amaya,  
 J. A. Parkhill,  Zheng Pei,  T. M. Perrine,  F. Plasser,  P. Pokhilko,  
 S. Prager,  A. Prociuk,  E. Ramos,  D. R. Rehn,  F. Rob,  M. Scheurer,  
 M. Schneider,  N. Sergueev,  S. M. Sharada,  S. Sharma,  D. W. Small,  
 T. Stauch,  T. Stein,  Yu-Chuan Su,  A. J. W. Thom,  A. Tkatchenko,  
 T. Tsuchimochi,  N. M. Tubman,  L. Vogt,  M. L. Vidal,  O. Vydrov,  
 M. A. Watson,  J. Wenzel,  M. de Wergifosse,  T. A. Wesolowski,  A. White,  
 J. Witte,  A. Yamada,  Jun Yang,  K. Yao,  S. Yeganeh,  S. R. Yost,  
 Zhi-Qiang You,  A. Zech,  Igor Ying Zhang,  Xing Zhang,  Yan Zhao,  
 Ying Zhu,  B. R. Brooks,  G. K. L. Chan,  C. J. Cramer,  M. S. Gordon,  
 W. J. Hehre,  A. Klamt,  M. W. Schmidt,  C. D. Sherrill,  D. G. Truhlar,  
 A. Aspuru-Guzik,  R. Baer,  A. T. Bell,  N. A. Besley,  Jeng-Da Chai,  
 A. E. DePrince, III,  R. A. DiStasio Jr.,  A. Dreuw,  B. D. Dunietz,  
 T. R. Furlani,  Chao-Ping Hsu,  Yousung Jung,  Jing Kong,  D. S. Lambrecht,  
 WanZhen Liang,  C. Ochsenfeld,  V. A. Rassolov,  L. V. Slipchenko,  
 J. E. Subotnik,  T. Van Voorhis,  J. M. Herbert,  A. I. Krylov,  
 P. M. W. Gill,  M. Head-Gordon

 Contributors to earlier versions of Q-Chem not listed above: 
 R. D. Adamson,  B. Austin,  J. Baker,  G. J. O. Beran,  K. Brandhorst,  
 S. T. Brown,  E. F. C. Byrd,  A. K. Chakraborty,  C.-L. Cheng,  
 Siu Hung Chien,  D. M. Chipman,  D. L. Crittenden,  H. Dachsel,  
 R. J. Doerksen,  A. D. Dutoi,  L. Fusti-Molnar,  W. A. Goddard III,  
 A. Golubeva-Zadorozhnaya,  S. R. Gwaltney,  G. Hawkins,  A. Heyden,  
 S. Hirata,  G. Kedziora,  F. J. Keil,  C. Kelley,  Jihan Kim,  R. A. King,  
 R. Z. Khaliullin,  P. P. Korambath,  W. Kurlancheek,  A. M. Lee,  M. S. Lee,  
 S. V. Levchenko,  Ching Yeh Lin,  D. Liotard,  R. C. Lochan,  I. Lotan,  
 P. E. Maslen,  N. Nair,  D. P. O'Neill,  D. Neuhauser,  E. Neuscamman,  
 C. M. Oana,  R. Olson,  B. Peters,  R. Peverati,  P. A. Pieniazek,  
 Y. M. Rhee,  J. Ritchie,  M. A. Rohrdanz,  E. Rosta,  N. J. Russ,  
 H. F. Schaefer III,  N. E. Schultz,  N. Shenvi,  A. C. Simmonett,  A. Sodt,  
 D. Stuck,  K. S. Thanthiriwatte,  V. Vanovschi,  Tao Wang,  A. Warshel,  
 C. F. Williams,  Q. Wu,  X. Xu,  W. Zhang

 Please cite Q-Chem as follows:
 Y. Shao et al., Mol. Phys. 113, 184-215 (2015)
 DOI: 10.1080/00268976.2014.952696

 Q-Chem 5.2.0 for Intel X86 EM64T Linux

 Parts of Q-Chem use Armadillo 8.300.2 (Tropical Shenanigans).
 http://arma.sourceforge.net/

 Q-Chem begins on Sun Sep 26 01:54:48 2021  

Host: cori01
0

     Scratch files written to /tmp/qchem42113//Frg1//
 May1019 |scratch|qcdevops|jenkins|workspace|build_RNUM -1
Processing $rem in /global/common/cori/software/qchem/5.2/config/preferences:
	 MEM_TOTAL  96000 
NAlpha2: 40
NElect   40
Mult     1
Symmetry turned off for PCM/SM12/SMD calculation

Checking the input file for inconsistencies... 	...done.

--------------------------------------------------------------
User input:
--------------------------------------------------------------
$molecule
1 1
 6	2.4867110967	-0.4415947766	-0.7529394369
 6	0.9157110967	-1.7195947766	0.7170605631
 7	-0.2412889033	-1.6705947766	1.3350605631
 7	1.1877110967	-0.7325947766	-0.1199394369
 7	1.7167110967	-2.7555947766	0.9440605631
 1	-0.7972889033	-0.8265947766	1.2390605631
 1	-0.5012889033	-2.3705947766	2.0180605631
 1	0.4737110967	-0.0005947766	-0.1489394369
 1	2.5687110967	-2.8725947766	0.4220605631
 1	1.3937110967	-3.4735947766	1.5810605631
 1	2.3237110967	-0.1435947766	-1.7899394369
 1	3.1687110967	-1.2925947766	-0.7149394369
 1	2.8895610967	0.4012412234	-0.1721294369
$end
$rem
EDA2		1
METHOD		WB97X-V
BASIS		DEF2-TZVPD
XC_GRID		000099000590
NL_GRID		1
UNRESTRICTED		FALSE
MAX_SCF_CYCLES		200
SYMMETRY		FALSE
SYM_IGNORE		TRUE
BASIS_LIN_DEP_THRESH		6
THRESH		14
SCF_CONVERGENCE		8
SCF_PRINT_FRGM		TRUE
SOLVENT_METHOD		SMD
!required keywords
JOBTYPE		SP
SYM_IGNORE		TRUE
SUBSYSTEM		TRUE
GEN_SCFMAN		TRUE
CHILD_INSTRUCTION		2
SYM_IGNORE		TRUE
SCFMI		0
RI_K 0		
PARI_K 0		
MIN_PARI_K 0		
IARI_K 0		
OCC_RI_K 0		
PURECART		1111
MEM_STATIC		2000
MEM_TOTAL		96000
GUI		0
CHILD_MP		1
CHILD_MP_ORDERS		232
FRZ_RELAX		0
FRZ_RELAX_METHOD		0
EDA_CLS_ELEC		1
EDA_CLS_DISP		0
FRZ_ORTHO_DECOMP		1
EDA2		FALSE
FRGM_METHOD		FALSE
CIS_N_ROOTS  0
LOCAL_CIS    0
CIS_RLX_DNS  1
$end
$smx
SOLVENT			WATER
$end
--------------------------------------------------------------
 ----------------------------------------------------------------
             Standard Nuclear Orientation (Angstroms)
    I     Atom           X                Y                Z
 ----------------------------------------------------------------
    1      C       2.4867110967    -0.4415947766    -0.7529394369
    2      C       0.9157110967    -1.7195947766     0.7170605631
    3      N      -0.2412889033    -1.6705947766     1.3350605631
    4      N       1.1877110967    -0.7325947766    -0.1199394369
    5      N       1.7167110967    -2.7555947766     0.9440605631
    6      H      -0.7972889033    -0.8265947766     1.2390605631
    7      H      -0.5012889033    -2.3705947766     2.0180605631
    8      H       0.4737110967    -0.0005947766    -0.1489394369
    9      H       2.5687110967    -2.8725947766     0.4220605631
   10      H       1.3937110967    -3.4735947766     1.5810605631
   11      H       2.3237110967    -0.1435947766    -1.7899394369
   12      H       3.1687110967    -1.2925947766    -0.7149394369
   13      H       2.8895610967     0.4012412234    -0.1721294369
 ----------------------------------------------------------------
 Nuclear Repulsion Energy =         193.60514716 hartrees
 There are       20 alpha and       20 beta electrons
 Requested basis set is def2-TZVPD
 There are 105 shells and 257 basis functions

 Total QAlloc Memory Limit  96000 MB
 Mega-Array Size      1956 MB
 MEM_STATIC part      2000 MB
 
 Citation of the SMD model:
 Marenich, A.V.; Cramer, C.J.; Truhlar, D.G.
 J. Phys. Chem. B 2009, 113, 6378-6396.
 iSolventCode=           1
 Solvent: water                                                           
 
 vradii
            1           2           3           4           5           6
    1   1.8500000   1.8500000   1.8900000   1.8900000   1.8900000   1.2000000
            7           8           9          10          11          12
    1   1.2000000   1.2000000   1.2000000   1.2000000   1.2000000   1.2000000
           13
    1   1.2000000
 Changing PCM_VDW_RADII to SMD_RADIUS
 Discretize the solute cavity surface with Lebedev spheres
	Using 110 Lebedev grid points for each H atom
	Using 194 Lebedev grid points for other atoms
	Atomic van der Waals radii will be scaled by 1.20
 Remove points where switching function is < 1.0e-08
 Keep 908 surface tesserae and discard 942 interior tesserae
 Molecular Surface Area = 114.086 Angst**2

                       Distance Matrix (Angstroms)
             C (  1)   C (  2)   N (  3)   N (  4)   N (  5)   H (  6)
   C (  2)  2.502444
   N (  3)  3.648585  1.312621
   N (  4)  1.474032  1.322393  2.244752
   N (  5)  2.971078  1.329070  2.272415  2.346160
   H (  6)  3.860174  2.001075  1.015228  2.407476  3.182493
   H (  7)  4.508617  2.030835  1.011973  3.179121  2.494238  1.754535
   H (  8)  2.147432  1.974913  2.345715  1.022967  3.213989  2.055301
   H (  9)  2.701316  2.036871  3.189745  2.603944  1.006020  4.022880
   H ( 10)  3.979350  2.012833  2.446334  3.232479  1.012730  3.453122
   H ( 11)  1.091211  3.278916  4.321641  2.103881  3.829589  4.402496
   H ( 12)  1.091224  2.703509  3.996684  2.142892  2.645932  4.445720
   H ( 13)  1.100000  3.030625  4.045534  2.045630  3.547826  4.134235
             H (  7)   H (  8)   H (  9)   H ( 10)   H ( 11)   H ( 12)
   H (  8)  3.356101
   H (  9)  3.496301  3.600479
   H ( 10)  2.235756  3.987609  1.756447
   H ( 11)  5.238418  2.477061  3.521422  4.828814
   H ( 12)  4.701093  3.041816  2.036951  3.630290  1.786015
   H ( 13)  4.896720  2.449151  3.342755  4.508392  1.798428  1.800458

 
 A cutoff of  1.0D-14 yielded   5439 shell pairs
 There are     33171 function pairs (     41507 Cartesian)
 Smallest overlap matrix eigenvalue = 1.51E-05

 Scale SEOQF with 1.000000e-01/1.000000e-01/1.000000e-01

 Standard Electronic Orientation quadrupole field applied
 Nucleus-field energy     =     0.0000000086 hartrees
 Guess from superposition of atomic densities
 Warning:  Energy on first SCF cycle will be non-variational
 SAD guess density has 40.388232 electrons

 -----------------------------------------------------------------------
  General SCF calculation program by
  Eric Jon Sundstrom, Paul Horn, Yuezhi Mao, Dmitri Zuev, Alec White,
  David Stuck, Shaama M.S., Shane Yost, Joonho Lee, David Small,
  Daniel Levine, Susi Lehtola, Hugh Burton, Evgeny Epifanovsky
 -----------------------------------------------------------------------
 Exchange:     0.1670 Hartree-Fock + 1.0000 wB97X-V + LR-HF
 Correlation:  1.0000 wB97X-V
 Using Euler-Maclaurin-Lebedev (99,590) quadrature formula
 Nonlocal Correlation:  VV10 with C = 0.0100 and b = 6.00 and scale = 1.00000
 Grid used for NLC:  SG-1 standard quadrature
Energy prior to optimization (guess energy) = -244.720071544954
Begin Timing: Total SCF Calculation
begin iterations for algorithm: DIIS         
the SCF tolerance is set to 1.00e-08
    1    -244.7200715450      7.93e-03     00000 
    2    -244.9602685184      6.24e-03     00000 
    3    -245.2015976336      3.35e-04     00000 
    4    -245.2026056440      1.72e-04     00000 
    5    -245.2028435709      4.86e-05     00000 
    6    -245.2028641372      2.03e-05     00000 
    7    -245.2028676450      3.69e-06     00000 
    8    -245.2028678882      1.07e-06     00000 
    9    -245.2028679077      4.42e-07     00000 
   10    -245.2028679113      1.22e-07     00000 
   11    -245.2028679117      4.56e-08     00000 
   12    -245.2028679117      2.09e-08     00000 
   13    -245.2028679117      2.44e-09     00000 Convergence criterion met
Timing for Total SCF: 740.00s (wall), 1468.49s (cpu)
(3)  G-ENP(liq) elect-nuc-pol free energy of system     -245.202867912 a.u.
(4)  G-CDS(liq) cavity-dispersion-solvent structure 
     free energy                                                2.8856 kcal/mol
(6)  G-S(liq) free energy of system                     -245.198269493 a.u.
E_pcm = -0.1095576253
E_cds = 0.0045984189
Multipole orders to be included
        2
        3
computing dipole RHS
computing quadrupole RHS
total number of RHS in solve_reponses: 8
RHS batch sizes
        8
Beginning Block Conjugate Gradient Iterations. Batch Number: 0
computing hessian-vector products by finite difference
              1      4.73e-01     00000 Conjugate Gradient Iteration
computing hessian-vector products by finite difference
              2      1.74e-01     00000 Conjugate Gradient Iteration
computing hessian-vector products by finite difference
              3      4.82e-02     00000 Conjugate Gradient Iteration
computing hessian-vector products by finite difference
              4      1.25e-02     00000 Conjugate Gradient Iteration
computing hessian-vector products by finite difference
              5      1.72e-03     00000 Conjugate Gradient Iteration
computing hessian-vector products by finite difference
              6      2.65e-04     00000 Conjugate Gradient Iteration
computing hessian-vector products by finite difference
              7      3.63e-05     00000 Conjugate Gradient Iteration
computing hessian-vector products by finite difference
              8      6.02e-06     00000 Conjugate Gradient Iteration
computing hessian-vector products by finite difference
              9      1.05e-06     00000 Conjugate Gradient Iteration
computing hessian-vector products by finite difference
             10      1.36e-07     00000 Conjugate Gradient Iteration
computing hessian-vector products by finite difference
             11      1.65e-08     00000 Conjugate Gradient Iteration
computing hessian-vector products by finite difference
             12      2.25e-09     00000 CG Converged
batch 0 complete
Done Calculating Responses
TESTING ORTHOGONALIZATION OF MULTIPOLE BASIS
Multipole virts passed orthogonality test
Virts Per Order
           60
          100
 
 --------------------------------------------------------------
 
                    Orbital Energies (a.u.)
 --------------------------------------------------------------
 
 Alpha MOs
 -- Occupied --
-14.4552 -14.4480 -14.4440 -10.4209 -10.3068  -1.1730  -1.0547  -1.0396
 -0.8531  -0.7626  -0.7172  -0.6855  -0.6172  -0.6100  -0.5928  -0.5639
 -0.5287  -0.5116  -0.3989  -0.3738
 -- Virtual --
  0.0585   0.0862   0.0985   0.1043   0.1240   0.1278   0.1388   0.1508
  0.1706   0.1828   0.1892   0.2003   0.2044   0.2137   0.2225   0.2334
  0.2425   0.2451   0.2467   0.2697   0.2838   0.2927   0.3014   0.3041
  0.3141   0.3146   0.3229   0.3265   0.3332   0.3480   0.3532   0.3583
  0.3644   0.3712   0.3778   0.3876   0.4106   0.4189   0.4240   0.4308
  0.4335   0.4462   0.4632   0.4690   0.4795   0.4876   0.4894   0.5055
  0.5091   0.5166   0.5189   0.5258   0.5288   0.5401   0.5488   0.5519
  0.5655   0.5730   0.5860   0.6003   0.6099   0.6254   0.6283   0.6409
  0.6669   0.6683   0.6943   0.6994   0.7104   0.7143   0.7403   0.7666
  0.7994   0.8050   0.8061   0.8228   0.8369   0.8448   0.8568   0.8678
  0.8821   0.8936   0.9029   0.9363   0.9395   0.9754   0.9924   0.9981
  1.0279   1.0611   1.0708   1.0911   1.0968   1.1182   1.1314   1.1519
  1.1799   1.2041   1.2216   1.2451   1.2779   1.3352   1.3692   1.4248
  1.4365   1.4455   1.4740   1.5232   1.5415   1.5873   1.6294   1.6594
  1.6953   1.7175   1.7312   1.7791   1.8232   1.8673   1.8774   1.8897
  1.9011   1.9322   1.9471   1.9806   2.0095   2.0139   2.0204   2.0629
  2.0829   2.0892   2.1458   2.2187   2.2367   2.2464   2.2742   2.3155
  2.3273   2.3668   2.3736   2.4066   2.4491   2.4825   2.4982   2.5320
  2.5589   2.5806   2.5918   2.6115   2.6390   2.6548   2.6956   2.7559
  2.7753   2.8231   2.8390   2.8640   2.8940   2.9250   2.9596   2.9642
  3.0277   3.1202   3.1356   3.1519   3.1767   3.1860   3.2140   3.2465
  3.2747   3.2937   3.2985   3.3248   3.3808   3.4054   3.4454   3.4674
  3.4838   3.5100   3.5407   3.5640   3.6154   3.6764   3.7311   3.7692
  3.7811   3.8937   3.9252   3.9747   4.0218   4.1042   4.1766   4.1897
  4.2462   4.2997   4.3525   4.3968   4.4409   4.4993   4.5536   4.6166
  4.7000   4.8366   4.8696   4.8794   4.9226   4.9863   5.0101   5.0506
  5.0958   5.1173   5.1316   5.1646   5.2077   5.2404   5.3155   5.3367
  5.3725   5.4004   5.4301   5.4621   5.4930   5.5054   5.6021   5.6382
  5.7056   5.7551   5.7958   5.9015   6.1215   6.2024   6.3661   6.4830
 22.6159  23.6454  32.3314  32.4527  32.8437
 --------------------------------------------------------------
 
          Ground-State Mulliken Net Atomic Charges

     Atom                 Charge (a.u.)
  ----------------------------------------
      1 C                    -0.747803
      2 C                     0.477005
      3 N                    -0.312979
      4 N                    -0.145383
      5 N                    -0.287528
      6 H                     0.250735
      7 H                     0.243084
      8 H                     0.266936
      9 H                     0.203053
     10 H                     0.247983
     11 H                     0.246613
     12 H                     0.308348
     13 H                     0.249936
  ----------------------------------------
  Sum of atomic charges =     1.000000

 -----------------------------------------------------------------
                    Cartesian Multipole Moments
 -----------------------------------------------------------------
    Charge (ESU x 10^10)
                 4.8032
    Dipole Moment (Debye)
         X       4.7555      Y      -7.5870      Z       3.5035
       Tot       9.6152
    Quadrupole Moments (Debye-Ang)
        XX     -14.9005     XY     -10.5004     YY      -6.7700
        XZ      -2.8285     YZ     -11.8244     ZZ     -22.4106
    Octopole Moments (Debye-Ang^2)
       XXX     -77.2119    XXY      14.2618    XYY      -4.0923
       YYY      55.1249    XXZ     -14.2376    XYZ      -2.7450
       YYZ      26.2156    XZZ     -39.0514    YZZ      22.3941
       ZZZ     -25.0518
    Hexadecapole Moments (Debye-Ang^3)
      XXXX    -401.1875   XXXY      67.3793   XXYY     -91.7281
      XYYY      33.2954   YYYY    -308.4121   XXXZ      -2.7549
      XXYZ      28.4349   XYYZ      26.3203   YYYZ     -21.4906
      XXZZ    -108.4283   XYZZ      47.5361   YYZZ     -55.0497
      XZZZ       0.9328   YZZZ      62.8943   ZZZZ    -159.0974
 -----------------------------------------------------------------
Archival summary:
1\1\nid00562\SP\ProcedureUnspecified\BasisUnspecified\328(1+,1)\meili\SunSep2605:24:232021SunSep2605:24:232021\0\\#,ProcedureUnspecified,BasisUnspecified,\\1,1\C\N,1,1.31262\H,2,1.01197,1,121.225\H,2,1.01523,1,117.985,3,169.062,0\N,1,1.32239,2,116.836,3,-177.452,0\H,5,1.02297,1,114.108,2,3.4697,0\N,1,1.32907,2,118.68,3,3.98978,0\H,7,1.00602,1,120.827,2,173.971,0\H,7,1.01273,1,117.895,2,0.662964,0\C,5,1.47403,1,126.9,2,169.037,0\H,10,1.09121,5,109.292,1,139.769,0\H,10,1.09122,5,112.449,1,17.5119,0\H,10,1.1,5,104.315,1,-102.261,0\\\@

 Total job time:  12578.26s(wall), 24920.43s(cpu) 
 Sun Sep 26 05:24:26 2021

        *************************************************************
        *                                                           *
        *  Thank you very much for using Q-Chem.  Have a nice day.  *
        *                                                           *
        *************************************************************


Done Job For Fragment 0
calling putenv with: QCSCRATCH=/global/cscratch1/sd/meili 
calling putenv with: QCLOCALSCR=/tmp 
calling putenv with: QCTHREADS=32 
Creating input file /tmp/qchem42113/Frg2.input
using default PutDataFrgm: nothing
calling putenv with: QCSCRATCH=/tmp/qchem42113/ 
calling putenv with: QCLOCALSCR=/tmp/qchem42113/ 
Spawning Job For Fragment 1
                  Welcome to Q-Chem
     A Quantum Leap Into The Future Of Chemistry


 Q-Chem 5.2, Q-Chem, Inc., Pleasanton, CA (2019)

 License issued to: National Energy Research Scientific Computing Center

 Yihan Shao,  Zhengting Gan,  E. Epifanovsky,  A. T. B. Gilbert,  M. Wormit,  
 J. Kussmann,  A. W. Lange,  A. Behn,  Jia Deng,  Xintian Feng,  D. Ghosh,  
 M. Goldey,  P. R. Horn,  L. D. Jacobson,  I. Kaliman,  T. Kus,  A. Landau,  
 Jie Liu,  E. I. Proynov,  R. M. Richard,  R. P. Steele,  E. J. Sundstrom,  
 H. L. Woodcock III,  P. M. Zimmerman,  D. Zuev,  B. Albrecht,  E. Alguire,  
 S. A. Baeppler,  D. Barton,  Z. Benda,  Y. A. Bernard,  E. J. Berquist,  
 K. B. Bravaya,  H. Burton,  D. Casanova,  Chun-Min Chang,  Yunqing Chen,  
 A. Chien,  K. D. Closser,  M. P. Coons,  S. Coriani,  S. Dasgupta,  
 A. L. Dempwolff,  M. Diedenhofen,  Hainam Do,  R. G. Edgar,  Po-Tung Fang,  
 S. Faraji,  S. Fatehi,  Qingguo Feng,  K. D. Fenk,  J. Fosso-Tande,  
 J. Gayvert,  Qinghui Ge,  A. Ghysels,  G. Gidofalvi,  J. Gomes,  
 J. Gonthier,  A. Gunina,  D. Hait,  M. W. D. Hanson-Heine,  
 P. H. P. Harbach,  A. W. Hauser,  M. F. Herbst,  J. E. Herr,  
 E. G. Hohenstein,  Z. C. Holden,  Kerwin Hui,  B. C. Huynh,  T.-C. Jagau,  
 Hyunjun Ji,  B. Kaduk,  K. Khistyaev,  Jaehoon Kim,  P. Klunzinger,  K. Koh,  
 D. Kosenkov,  L. Koulias,  T. Kowalczyk,  C. M. Krauter,  A. Kunitsa,  
 Ka Un Lao,  A. Laurent,  K. V. Lawler,  Joonho Lee,  D. Lefrancois,  
 S. Lehtola,  D. S. Levine,  Yi-Pei Li,  You-Sheng Lin,  Fenglai Liu,  
 E. Livshits,  A. Luenser,  P. Manohar,  E. Mansoor,  S. F. Manzer,  
 Shan-Ping Mao,  Yuezhi Mao,  N. Mardirossian,  A. V. Marenich,  
 T. Markovich,  L. A. Martinez-Martinez,  S. A. Maurer,  N. J. Mayhall,  
 S. C. McKenzie,  J.-M. Mewes,  P. Morgante,  A. F. Morrison,  
 J. W. Mullinax,  K. Nanda,  T. S. Nguyen-Beck,  R. Olivares-Amaya,  
 J. A. Parkhill,  Zheng Pei,  T. M. Perrine,  F. Plasser,  P. Pokhilko,  
 S. Prager,  A. Prociuk,  E. Ramos,  D. R. Rehn,  F. Rob,  M. Scheurer,  
 M. Schneider,  N. Sergueev,  S. M. Sharada,  S. Sharma,  D. W. Small,  
 T. Stauch,  T. Stein,  Yu-Chuan Su,  A. J. W. Thom,  A. Tkatchenko,  
 T. Tsuchimochi,  N. M. Tubman,  L. Vogt,  M. L. Vidal,  O. Vydrov,  
 M. A. Watson,  J. Wenzel,  M. de Wergifosse,  T. A. Wesolowski,  A. White,  
 J. Witte,  A. Yamada,  Jun Yang,  K. Yao,  S. Yeganeh,  S. R. Yost,  
 Zhi-Qiang You,  A. Zech,  Igor Ying Zhang,  Xing Zhang,  Yan Zhao,  
 Ying Zhu,  B. R. Brooks,  G. K. L. Chan,  C. J. Cramer,  M. S. Gordon,  
 W. J. Hehre,  A. Klamt,  M. W. Schmidt,  C. D. Sherrill,  D. G. Truhlar,  
 A. Aspuru-Guzik,  R. Baer,  A. T. Bell,  N. A. Besley,  Jeng-Da Chai,  
 A. E. DePrince, III,  R. A. DiStasio Jr.,  A. Dreuw,  B. D. Dunietz,  
 T. R. Furlani,  Chao-Ping Hsu,  Yousung Jung,  Jing Kong,  D. S. Lambrecht,  
 WanZhen Liang,  C. Ochsenfeld,  V. A. Rassolov,  L. V. Slipchenko,  
 J. E. Subotnik,  T. Van Voorhis,  J. M. Herbert,  A. I. Krylov,  
 P. M. W. Gill,  M. Head-Gordon

 Contributors to earlier versions of Q-Chem not listed above: 
 R. D. Adamson,  B. Austin,  J. Baker,  G. J. O. Beran,  K. Brandhorst,  
 S. T. Brown,  E. F. C. Byrd,  A. K. Chakraborty,  C.-L. Cheng,  
 Siu Hung Chien,  D. M. Chipman,  D. L. Crittenden,  H. Dachsel,  
 R. J. Doerksen,  A. D. Dutoi,  L. Fusti-Molnar,  W. A. Goddard III,  
 A. Golubeva-Zadorozhnaya,  S. R. Gwaltney,  G. Hawkins,  A. Heyden,  
 S. Hirata,  G. Kedziora,  F. J. Keil,  C. Kelley,  Jihan Kim,  R. A. King,  
 R. Z. Khaliullin,  P. P. Korambath,  W. Kurlancheek,  A. M. Lee,  M. S. Lee,  
 S. V. Levchenko,  Ching Yeh Lin,  D. Liotard,  R. C. Lochan,  I. Lotan,  
 P. E. Maslen,  N. Nair,  D. P. O'Neill,  D. Neuhauser,  E. Neuscamman,  
 C. M. Oana,  R. Olson,  B. Peters,  R. Peverati,  P. A. Pieniazek,  
 Y. M. Rhee,  J. Ritchie,  M. A. Rohrdanz,  E. Rosta,  N. J. Russ,  
 H. F. Schaefer III,  N. E. Schultz,  N. Shenvi,  A. C. Simmonett,  A. Sodt,  
 D. Stuck,  K. S. Thanthiriwatte,  V. Vanovschi,  Tao Wang,  A. Warshel,  
 C. F. Williams,  Q. Wu,  X. Xu,  W. Zhang

 Please cite Q-Chem as follows:
 Y. Shao et al., Mol. Phys. 113, 184-215 (2015)
 DOI: 10.1080/00268976.2014.952696

 Q-Chem 5.2.0 for Intel X86 EM64T Linux

 Parts of Q-Chem use Armadillo 8.300.2 (Tropical Shenanigans).
 http://arma.sourceforge.net/

 Q-Chem begins on Sun Sep 26 05:24:31 2021  

Host: cori01
0

     Scratch files written to /tmp/qchem42113//Frg2//
 May1019 |scratch|qcdevops|jenkins|workspace|build_RNUM -1
Processing $rem in /global/common/cori/software/qchem/5.2/config/preferences:
	 MEM_TOTAL  96000 
NAlpha2: 32
NElect   32
Mult     1
Symmetry turned off for PCM/SM12/SMD calculation

Checking the input file for inconsistencies... 	...done.

--------------------------------------------------------------
User input:
--------------------------------------------------------------
$molecule
-1 1
 6	-1.1422889033	1.8254052234	-1.9089394369
 6	-1.5222889033	1.8734052234	-0.4479394369
 8	-0.9112889033	1.1084052234	0.3190605631
 8	-2.5002889033	2.5814052234	-0.1379394369
 1	-1.6852889033	1.0014052234	-2.3779394369
 1	-0.0762889033	1.6264052234	-2.0149394369
 1	-1.4016389033	2.7609102234	-2.4262094369
$end
$rem
EDA2		1
METHOD		WB97X-V
BASIS		DEF2-TZVPD
XC_GRID		000099000590
NL_GRID		1
UNRESTRICTED		FALSE
MAX_SCF_CYCLES		200
SYMMETRY		FALSE
SYM_IGNORE		TRUE
BASIS_LIN_DEP_THRESH		6
THRESH		14
SCF_CONVERGENCE		8
SCF_PRINT_FRGM		TRUE
SOLVENT_METHOD		SMD
!required keywords
JOBTYPE		SP
SYM_IGNORE		TRUE
SUBSYSTEM		TRUE
GEN_SCFMAN		TRUE
CHILD_INSTRUCTION		2
SYM_IGNORE		TRUE
SCFMI		0
RI_K 0		
PARI_K 0		
MIN_PARI_K 0		
IARI_K 0		
OCC_RI_K 0		
PURECART		1111
MEM_STATIC		2000
MEM_TOTAL		96000
GUI		0
CHILD_MP		1
CHILD_MP_ORDERS		232
FRZ_RELAX		0
FRZ_RELAX_METHOD		0
EDA_CLS_ELEC		1
EDA_CLS_DISP		0
FRZ_ORTHO_DECOMP		1
EDA2		FALSE
FRGM_METHOD		FALSE
CIS_N_ROOTS  0
LOCAL_CIS    0
CIS_RLX_DNS  1
$end
$smx
SOLVENT			WATER
$end
--------------------------------------------------------------
 ----------------------------------------------------------------
             Standard Nuclear Orientation (Angstroms)
    I     Atom           X                Y                Z
 ----------------------------------------------------------------
    1      C      -1.1422889033     1.8254052234    -1.9089394369
    2      C      -1.5222889033     1.8734052234    -0.4479394369
    3      O      -0.9112889033     1.1084052234     0.3190605631
    4      O      -2.5002889033     2.5814052234    -0.1379394369
    5      H      -1.6852889033     1.0014052234    -2.3779394369
    6      H      -0.0762889033     1.6264052234    -2.0149394369
    7      H      -1.4016389033     2.7609102234    -2.4262094369
 ----------------------------------------------------------------
 Nuclear Repulsion Energy =         113.26925348 hartrees
 There are       16 alpha and       16 beta electrons
 Requested basis set is def2-TZVPD
 There are 69 shells and 181 basis functions

 Total QAlloc Memory Limit  96000 MB
 Mega-Array Size      1956 MB
 MEM_STATIC part      2000 MB
 
 Citation of the SMD model:
 Marenich, A.V.; Cramer, C.J.; Truhlar, D.G.
 J. Phys. Chem. B 2009, 113, 6378-6396.
 iSolventCode=           1
 Solvent: water                                                           
 
 vradii
            1           2           3           4           5           6
    1   1.8500000   1.8500000   1.5200000   1.5200000   1.2000000   1.2000000
            7
    1   1.2000000
 Changing PCM_VDW_RADII to SMD_RADIUS
 Discretize the solute cavity surface with Lebedev spheres
	Using 110 Lebedev grid points for each H atom
	Using 194 Lebedev grid points for other atoms
	Atomic van der Waals radii will be scaled by 1.20
 Remove points where switching function is < 1.0e-08
 Keep 646 surface tesserae and discard 460 interior tesserae
 Molecular Surface Area = 79.533 Angst**2

                       Distance Matrix (Angstroms)
             C (  1)   C (  2)   O (  3)   O (  4)   H (  5)   H (  6)
   C (  2)  1.510372
   O (  3)  2.351900  1.243718
   O (  4)  2.356298  1.246534  2.214385
   H (  5)  1.092605  2.124112  2.807906  2.859760
   H (  6)  1.089584  2.146489  2.532411  3.211064  1.763881
   H (  7)  1.100000  2.171583  3.241562  2.544687  1.782876  1.792428

 
 A cutoff of  1.0D-14 yielded   2392 shell pairs
 There are     16696 function pairs (     21492 Cartesian)
 Smallest overlap matrix eigenvalue = 1.71E-05

 Scale SEOQF with 1.000000e-01/1.000000e-01/1.000000e-01

 Standard Electronic Orientation quadrupole field applied
 Nucleus-field energy     =     0.0000000070 hartrees
 Guess from superposition of atomic densities
 Warning:  Energy on first SCF cycle will be non-variational
 SAD guess density has 30.625312 electrons

 -----------------------------------------------------------------------
  General SCF calculation program by
  Eric Jon Sundstrom, Paul Horn, Yuezhi Mao, Dmitri Zuev, Alec White,
  David Stuck, Shaama M.S., Shane Yost, Joonho Lee, David Small,
  Daniel Levine, Susi Lehtola, Hugh Burton, Evgeny Epifanovsky
 -----------------------------------------------------------------------
 Exchange:     0.1670 Hartree-Fock + 1.0000 wB97X-V + LR-HF
 Correlation:  1.0000 wB97X-V
 Using Euler-Maclaurin-Lebedev (99,590) quadrature formula
 Nonlocal Correlation:  VV10 with C = 0.0100 and b = 6.00 and scale = 1.00000
 Grid used for NLC:  SG-1 standard quadrature
Energy prior to optimization (guess energy) = -227.774251534368
Begin Timing: Total SCF Calculation
begin iterations for algorithm: DIIS         
the SCF tolerance is set to 1.00e-08
    1    -227.7742515344      1.65e-02     00000 
    2    -225.6951824762      2.46e-02     00000 
    3    -228.6066076655      4.06e-03     00000 
    4    -228.6590238141      1.37e-03     00000 
    5    -228.6648136792      2.52e-04     00000 
    6    -228.6650555889      1.70e-04     00000 
    7    -228.6651313030      5.11e-05     00000 
    8    -228.6651409855      1.27e-05     00000 
    9    -228.6651420065      3.53e-06     00000 
   10    -228.6651421023      1.05e-06     00000 
   11    -228.6651421111      1.98e-07     00000 
   12    -228.6651421114      4.29e-08     00000 
   13    -228.6651421114      9.62e-09     00000 Convergence criterion met
Timing for Total SCF: 258.00s (wall), 506.17s (cpu)
(3)  G-ENP(liq) elect-nuc-pol free energy of system     -228.665142111 a.u.
(4)  G-CDS(liq) cavity-dispersion-solvent structure 
     free energy                                                3.9216 kcal/mol
(6)  G-S(liq) free energy of system                     -228.658892622 a.u.
E_pcm = -0.1291290616
E_cds = 0.0062494899
Multipole orders to be included
        2
        3
computing dipole RHS
computing quadrupole RHS
total number of RHS in solve_reponses: 8
RHS batch sizes
        8
Beginning Block Conjugate Gradient Iterations. Batch Number: 0
computing hessian-vector products by finite difference
              1      6.63e-01     00000 Conjugate Gradient Iteration
computing hessian-vector products by finite difference
              2      1.99e-01     00000 Conjugate Gradient Iteration
computing hessian-vector products by finite difference
              3      5.26e-02     00000 Conjugate Gradient Iteration
computing hessian-vector products by finite difference
              4      1.37e-02     00000 Conjugate Gradient Iteration
computing hessian-vector products by finite difference
              5      2.06e-03     00000 Conjugate Gradient Iteration
computing hessian-vector products by finite difference
              6      5.46e-04     00000 Conjugate Gradient Iteration
computing hessian-vector products by finite difference
              7      7.76e-05     00000 Conjugate Gradient Iteration
computing hessian-vector products by finite difference
              8      9.56e-06     00000 Conjugate Gradient Iteration
computing hessian-vector products by finite difference
              9      1.48e-06     00000 Conjugate Gradient Iteration
computing hessian-vector products by finite difference
             10      1.45e-07     00000 Conjugate Gradient Iteration
computing hessian-vector products by finite difference
             11      2.01e-08     00000 Conjugate Gradient Iteration
computing hessian-vector products by finite difference
             12      4.13e-09     00000 CG Converged
batch 0 complete
Done Calculating Responses
TESTING ORTHOGONALIZATION OF MULTIPOLE BASIS
Multipole virts passed orthogonality test
Virts Per Order
        48
        80
 
 --------------------------------------------------------------
 
                    Orbital Energies (a.u.)
 --------------------------------------------------------------
 
 Alpha MOs
 -- Occupied --
-19.1533 -19.1530 -10.3512 -10.2429  -1.1677  -1.0711  -0.8393  -0.6166
 -0.5493  -0.5469  -0.5434  -0.4830  -0.4611  -0.3676  -0.3537  -0.3477
 -- Virtual --
  0.0668   0.1000   0.1011   0.1074   0.1356   0.1419   0.1456   0.1508
  0.1605   0.1909   0.2064   0.2201   0.2372   0.2411   0.2578   0.2672
  0.2987   0.3119   0.3338   0.3474   0.3575   0.3642   0.3740   0.3778
  0.3862   0.4071   0.4159   0.4226   0.4325   0.4554   0.4641   0.4713
  0.4853   0.4905   0.5019   0.5119   0.5468   0.5718   0.5756   0.5937
  0.6156   0.6294   0.6339   0.6424   0.6545   0.6768   0.6840   0.6949
  0.7091   0.7266   0.7831   0.7926   0.8114   0.8137   0.8312   0.8508
  0.8625   0.9556   0.9811   0.9876   0.9907   1.0204   1.0574   1.0790
  1.1299   1.2150   1.2376   1.2556   1.2631   1.3040   1.3500   1.3910
  1.4167   1.5478   1.5774   1.7382   1.8080   1.8565   1.8594   1.8857
  1.9223   1.9411   1.9490   1.9604   2.0130   2.1013   2.1149   2.1744
  2.1817   2.2242   2.2783   2.3220   2.4097   2.4326   2.4534   2.4923
  2.5561   2.5851   2.6226   2.6396   2.7840   2.8102   2.8549   2.8758
  2.9367   3.0273   3.0637   3.1233   3.2152   3.2280   3.2602   3.2928
  3.3341   3.3391   3.3779   3.3987   3.4079   3.5061   3.5691   3.5838
  3.5882   3.6417   3.7257   3.7305   3.7400   3.8611   3.9419   4.0589
  4.0889   4.2010   4.3320   4.5865   4.6207   4.6691   4.7590   4.8042
  4.9666   5.2944   5.3275   5.3322   5.3476   5.4968   5.7024   5.7168
  5.7872   6.0057   6.2613   6.3005   6.3327   6.6016   6.6326   6.6673
  6.7189   6.7296   6.9342   6.9406   7.0296   7.2039   7.3478   7.3790
  7.3971  22.6008  23.7645  44.1927  44.3514
 --------------------------------------------------------------
 
          Ground-State Mulliken Net Atomic Charges

     Atom                 Charge (a.u.)
  ----------------------------------------
      1 C                    -0.596867
      2 C                     0.491689
      3 O                    -0.764725
      4 O                    -0.767373
      5 H                     0.193345
      6 H                     0.220987
      7 H                     0.222944
  ----------------------------------------
  Sum of atomic charges =    -1.000000

 -----------------------------------------------------------------
                    Cartesian Multipole Moments
 -----------------------------------------------------------------
    Charge (ESU x 10^10)
                -4.8032
    Dipole Moment (Debye)
         X       8.8104      Y      -8.9048      Z      -2.5046
       Tot      12.7747
    Quadrupole Moments (Debye-Ang)
        XX     -46.7709     XY      21.6236     YY     -46.3356
        XZ       2.6587     YZ      -2.9722     ZZ     -25.5133
    Octopole Moments (Debye-Ang^2)
       XXX     171.3449    XXY    -104.4862    XYY      95.0524
       YYY    -195.4649    XXZ      13.3663    XYZ       2.1062
       YYZ      12.1776    XZZ      37.9898    YZZ     -47.2195
       ZZZ      46.2775
    Hexadecapole Moments (Debye-Ang^3)
      XXXX    -591.2580   XXXY     390.2950   XXYY    -327.7172
      XYYY     388.5551   YYYY    -745.9717   XXXZ     -62.1227
      XXYZ      33.0555   XYYZ     -19.4168   YYYZ      88.5865
      XXZZ    -110.6699   XYZZ      79.4883   YYZZ    -135.6262
      XZZZ     -56.6249   YZZZ      92.1347   ZZZZ    -229.2704
 -----------------------------------------------------------------
Archival summary:
1\1\nid00562\SP\ProcedureUnspecified\BasisUnspecified\223(1-,1)\meili\SunSep2606:41:402021SunSep2606:41:402021\0\\#,ProcedureUnspecified,BasisUnspecified,\\-1,1\C\O,1,1.24372\O,1,1.24653,2,125.551\C,1,1.51037,2,116.962,3,-172.906,0\H,4,1.08958,1,110.246,2,-34.4139,0\H,4,1.09261,1,108.309,2,83.3874,0\H,4,1.1,1,111.625,2,-156.848,0\\\@

 Total job time:  4633.08s(wall), 9081.83s(cpu) 
 Sun Sep 26 06:41:44 2021

        *************************************************************
        *                                                           *
        *  Thank you very much for using Q-Chem.  Have a nice day.  *
        *                                                           *
        *************************************************************


Done Job For Fragment 1
calling putenv with: QCSCRATCH=/global/cscratch1/sd/meili 
calling putenv with: QCLOCALSCR=/tmp 
calling putenv with: QCTHREADS=32 
Doing General SCFMI
 Exchange:     0.1670 Hartree-Fock + 1.0000 wB97X-V + LR-HF
 Correlation:  1.0000 wB97X-V
 Using Euler-Maclaurin-Lebedev (99,590) quadrature formula
 Nonlocal Correlation:  VV10 with C = 0.0100 and b = 6.00 and scale = 1.00000
 Grid used for NLC:  SG-1 standard quadrature
performing fock build before subrot guess so that all methods have access
Printing subrot_rss_gen Method Specification:
Occupied Subspace Method is 0
Virtual Subspace Method is 0
Energy of the unrelaxed supersystem initial determinant -473.768877160701
performing fock build before subrot guess so that all methods have access
Printing subrot_rss_gen Method Specification:
Occupied Subspace Method is 0
Virtual Subspace Method is 0
Energy of the unrelaxed supersystem initial determinant w/ solvent -473.869152710111
write pseudocanon occs and virts to disk
write pseudocanon orbital energies to disk
Tolerance of ortho_decomp_scf: 1.00e-06
GDM subspace size: 20
Beginning the Orthogonal Decomposition of the Initial Supersystem Wavefunction
    1    -473.5530532981      9.76e-02     ortho_decomp Preconditoned Steepest Descent
    2    -473.5670347349      2.52e-03     ortho_decomp BFGS Step
    3    -473.5670887211      2.35e-04     ortho_decomp BFGS Step
    4    -473.5670888581      1.05e-05     ortho_decomp BFGS Step
    5    -473.5670888587      3.63e-07     ortho_decomp 00000 Convergence criterion met
 Hartree-Fock
 Hartree-Fock
 Hartree-Fock
Doing General SCFMI
 Exchange:     0.1670 Hartree-Fock + 1.0000 wB97X-V + LR-HF
 Correlation:  1.0000 wB97X-V
 Using Euler-Maclaurin-Lebedev (99,590) quadrature formula
 Nonlocal Correlation:  VV10 with C = 0.0100 and b = 6.00 and scale = 1.00000
 Grid used for NLC:  SG-1 standard quadrature
performing fock build at end of subrot_r(subrot) constructor so that all methods have access
<S^2> of initial wavefunction before polarization iterations 0.0000000000
Beginning iterations for the determination of the polarized wavefunction
Energy prior to optimization (guess energy) = -473.869152710111
Begin Timing: Total SCF Calculation
begin iterations for algorithm: DIIS         
the SCF tolerance is set to 1.00e-08
    1    -473.8691527101      2.10e-04     00000 
    2    -473.8713334828      9.91e-05     00000 
    3    -473.8715907361      6.36e-05     00000 
    4    -473.8716994702      1.88e-05     00000 
    5    -473.8717121145      7.93e-06     00000 
    6    -473.8717155084      3.54e-06     00000 
    7    -473.8717161278      1.42e-06     00000 
    8    -473.8717162418      4.25e-07     00000 
    9    -473.8717162530      2.15e-07     00000 
   10    -473.8717162544      6.15e-08     00000 
   11    -473.8717162546      2.56e-08     00000 
   12    -473.8717162546      1.16e-08     00000 
   13    -473.8717162546      3.79e-09     00000 Convergence criterion met
write pseudocanon occs and virts to disk
write pseudocanon orbital energies to disk
Timing for Total SCF: 2903.00s (wall), 5770.57s (cpu)
<S^2> of polarized wavefunction after polarization iterations 0.0000000000
relaxing scfmi constraint to allow all rotations in the entire AO span
Doing General SCFMI
 Exchange:     0.1670 Hartree-Fock + 1.0000 wB97X-V + LR-HF
 Correlation:  1.0000 wB97X-V
 Using Euler-Maclaurin-Lebedev (99,590) quadrature formula
 Nonlocal Correlation:  VV10 with C = 0.0100 and b = 6.00 and scale = 1.00000
 Grid used for NLC:  SG-1 standard quadrature
performing fock build at end of subrot_r(subrot) constructor so that all methods have access
<S^2> of polarized wavefunction before ct-allowed iterations 0.0000000000
Beginning iterations for the determination of the CT-Allowed wavefunction
Energy prior to optimization (guess energy) = -473.871716254582
Begin Timing: Total SCF Calculation
begin iterations for algorithm: DIIS         
the SCF tolerance is set to 1.00e-08
    1    -473.8717162546      2.36e-04     00000 
    2    -473.8778706006      3.89e-05     00000 
    3    -473.8781186604      2.22e-05     00000 
    4    -473.8781505987      8.59e-06     00000 
    5    -473.8781575319      2.23e-06     00000 
    6    -473.8781579929      7.63e-07     00000 
    7    -473.8781580861      3.15e-07     00000 
    8    -473.8781580990      6.86e-08     00000 
    9    -473.8781581002      2.69e-08     00000 
   10    -473.8781581004      1.13e-08     00000 
   11    -473.8781581004      3.11e-09     00000 Convergence criterion met
write pseudocanon occs and virts to disk
write pseudocanon orbital energies to disk
Timing for Total SCF: 2445.00s (wall), 4862.14s (cpu)
<S^2> of ct_allowed wavefunction after ct-allowed iterations 0.0000000000

================================
        Results of EDA2         
================================
Basic EDA Quantities
--------------------
Fragment Energies (Ha):
1 -245.1982694929
2 -228.6588926216
--------------------
  E_prp (kJ/mol) = 0.0000
  E_sol (kJ/mol) = 358.1575
  E_frz (kJ/mol) = -366.4029
  E_pol (kJ/mol) = -6.7307
  E_vct (kJ/mol) = -16.9133
  E_int (kJ/mol) = -31.8893
--------------------


Initial Wavefunction Decomposition
--------------------
  --------------------
  Orthogonal Fragment Subspace Decomposition:
  --------------------
     E_elec   (ELEC)   (kJ/mol) = -480.2703
     E_pauli  (PAULI)  (kJ/mol) = 134.5247
     E_disp   (DISP)   (kJ/mol) = -20.6573
     --------------------
     Terms summing to E_pauli:
     --------------------
        E_kep_pauli       (kJ/mol) = 163.3986
        E_disp_free_pauli (kJ/mol) = -28.8738
  --------------------
  Classical Frozen Decomposition:
  --------------------
     E_cls_elec  (CLS ELEC)  (kJ/mol) = -429.5793
     E_cls_pauli (CLS PAULI) (kJ/mol) = 63.1764
    [E_mod_pauli (MOD PAULI) (kJ/mol) = 83.8337 (CLS PAULI - DISP from orthogonal decomposition) ]
  --------------------
--------------------

Simplified EDA Summary (kJ/mol)
--------------------
 PREPARATION     0.0000
 SOLVATION       358.1575
 FROZEN          -345.7456      (does not include dispersion)
[PAULI           134.5247]     (if this is negligible, then frozen describes electrostatics)
 DISPERSION      -20.6573
 POLARIZATION    -6.7307
 CHARGE TRANSFER -16.9133
 TOTAL           -31.8893     (PRP + SOL + FRZ + DISP + POL + CT)
--------------------
 
 --------------------------------------------------------------
 
                    Orbital Energies (a.u.)
 --------------------------------------------------------------
 
 Alpha MOs
 -- Occupied --
-19.1648 -19.1587 -14.4422 -14.4373 -14.4346 -10.4121 -10.3591 -10.3015
-10.2467  -1.1769  -1.1639  -1.0807  -1.0447  -1.0324  -0.8460  -0.8436
 -0.7564  -0.7096  -0.6787  -0.6345  -0.6070  -0.6022  -0.5856  -0.5636
 -0.5545  -0.5497  -0.5454  -0.5236  -0.5048  -0.4845  -0.4661  -0.3934
 -0.3762  -0.3645  -0.3618  -0.3542
 -- Virtual --
  0.0580   0.0744   0.0843   0.0939   0.1049   0.1068   0.1122   0.1259
  0.1262   0.1330   0.1410   0.1436   0.1465   0.1652   0.1727   0.1790
  0.1812   0.1870   0.1936   0.2039   0.2067   0.2152   0.2213   0.2316
  0.2357   0.2387   0.2441   0.2485   0.2583   0.2635   0.2701   0.2749
  0.2850   0.2922   0.2969   0.2998   0.3023   0.3080   0.3162   0.3235
  0.3301   0.3309   0.3339   0.3410   0.3437   0.3487   0.3510   0.3534
  0.3647   0.3721   0.3729   0.3790   0.3852   0.3906   0.3957   0.4027
  0.4084   0.4117   0.4166   0.4266   0.4305   0.4387   0.4419   0.4491
  0.4527   0.4606   0.4668   0.4731   0.4767   0.4809   0.4876   0.4897
  0.4934   0.4988   0.5009   0.5120   0.5162   0.5191   0.5290   0.5307
  0.5418   0.5440   0.5517   0.5541   0.5622   0.5671   0.5698   0.5757
  0.5833   0.5940   0.5995   0.6090   0.6117   0.6205   0.6278   0.6335
  0.6381   0.6466   0.6516   0.6604   0.6651   0.6712   0.6758   0.6863
  0.6899   0.6990   0.7003   0.7107   0.7152   0.7220   0.7257   0.7307
  0.7516   0.7550   0.7662   0.7700   0.7711   0.7852   0.8020   0.8120
  0.8167   0.8209   0.8281   0.8307   0.8416   0.8462   0.8530   0.8629
  0.8734   0.8915   0.8997   0.9067   0.9124   0.9154   0.9249   0.9406
  0.9475   0.9512   0.9602   0.9833   0.9978   1.0034   1.0184   1.0380
  1.0430   1.0454   1.0640   1.0652   1.0871   1.0919   1.0981   1.1033
  1.1184   1.1317   1.1494   1.1705   1.1775   1.1861   1.2028   1.2129
  1.2246   1.2409   1.2558   1.2690   1.2808   1.3080   1.3175   1.3338
  1.3493   1.3542   1.3735   1.3909   1.4032   1.4223   1.4528   1.4707
  1.4837   1.4901   1.5216   1.5447   1.5640   1.5888   1.6049   1.6139
  1.6570   1.6949   1.7058   1.7310   1.7502   1.7665   1.8003   1.8413
  1.8627   1.8858   1.8950   1.9042   1.9112   1.9153   1.9351   1.9490
  1.9562   1.9731   1.9761   1.9787   1.9813   2.0003   2.0065   2.0256
  2.0307   2.0504   2.0573   2.0806   2.1135   2.1215   2.1267   2.1461
  2.1670   2.1826   2.1998   2.2241   2.2531   2.2624   2.2785   2.2879
  2.3064   2.3363   2.3594   2.3780   2.3905   2.4280   2.4367   2.4597
  2.4697   2.4941   2.5145   2.5266   2.5408   2.5590   2.5647   2.5847
  2.6000   2.6078   2.6305   2.6464   2.6555   2.6671   2.6712   2.6733
  2.6943   2.7213   2.7345   2.7977   2.8180   2.8434   2.8572   2.8674
  2.8752   2.8964   2.9023   2.9245   2.9366   2.9633   2.9711   3.0026
  3.0222   3.0789   3.0941   3.1067   3.1507   3.1569   3.1728   3.1841
  3.2132   3.2249   3.2548   3.2617   3.2751   3.2852   3.3027   3.3157
  3.3305   3.3404   3.3505   3.3659   3.3711   3.3968   3.4027   3.4263
  3.4278   3.4417   3.4765   3.4839   3.4997   3.5176   3.5367   3.5617
  3.5731   3.6085   3.6193   3.6491   3.6534   3.6815   3.6938   3.7093
  3.7423   3.7491   3.7652   3.7843   3.8033   3.8437   3.8807   3.9363
  3.9575   3.9744   4.0007   4.0445   4.0896   4.1018   4.1441   4.2087
  4.2224   4.2287   4.2777   4.3147   4.3538   4.3695   4.4123   4.4694
  4.5423   4.5819   4.6002   4.6354   4.6521   4.6960   4.7243   4.8045
  4.8595   4.8646   4.8979   4.9050   4.9624   4.9933   5.0244   5.0398
  5.0768   5.1185   5.1555   5.1758   5.1923   5.2377   5.2629   5.2880
  5.3260   5.3315   5.3446   5.3527   5.3658   5.3929   5.4290   5.4494
  5.4815   5.4947   5.5304   5.5452   5.6290   5.6776   5.7116   5.7173
  5.7551   5.7741   5.8108   5.8364   5.9386   6.0233   6.1526   6.2255
  6.2901   6.3473   6.3486   6.3976   6.5070   6.6373   6.6640   6.7124
  6.7383   6.7725   6.9649   6.9724   7.0430   7.2313   7.3756   7.3953
  7.4670  22.6422  22.6557  23.7003  23.7994  32.3794  32.5340  32.9889
 44.3864  44.4263
 --------------------------------------------------------------
 
          Ground-State Mulliken Net Atomic Charges

     Atom                 Charge (a.u.)
  ----------------------------------------
      1 C                    -0.775881
      2 C                     0.499415
      3 N                    -0.217665
      4 N                     0.062645
      5 N                    -0.277721
      6 H                     0.184281
      7 H                     0.234408
      8 H                     0.127039
      9 H                     0.201878
     10 H                     0.251400
     11 H                     0.249505
     12 H                     0.306157
     13 H                     0.267033
     14 C                    -0.557373
     15 C                     0.437595
     16 O                    -0.814150
     17 O                    -0.785519
     18 H                     0.201951
     19 H                     0.167814
     20 H                     0.237189
  ----------------------------------------
  Sum of atomic charges =     0.000000

 -----------------------------------------------------------------
                    Cartesian Multipole Moments
 -----------------------------------------------------------------
    Charge (ESU x 10^10)
                 0.0000
    Dipole Moment (Debye)
         X      12.8632      Y     -15.6438      Z       0.8390
       Tot      20.2706
    Quadrupole Moments (Debye-Ang)
        XX     -61.9744     XY      10.8993     YY     -53.2529
        XZ       0.0624     YZ     -14.5423     ZZ     -48.0027
    Octopole Moments (Debye-Ang^2)
       XXX      88.3969    XXY     -86.7411    XYY      87.3840
       YYY    -133.6691    XXZ      -0.8425    XYZ      -0.2164
       YYZ      36.7253    XZZ      -2.2648    YZZ     -22.9407
       ZZZ      19.9577
    Hexadecapole Moments (Debye-Ang^3)
      XXXX    -996.4772   XXXY     455.6350   XXYY    -417.9811
      XYYY     419.7161   YYYY   -1056.1376   XXXZ     -62.8156
      XXYZ      61.5164   XYYZ       6.9173   YYYZ      69.4758
      XXZZ    -219.5808   XYZZ     126.4341   YYZZ    -191.2073
      XZZZ     -54.2262   YZZZ     155.2804   ZZZZ    -388.0099
 -----------------------------------------------------------------
Archival summary:
1\1\nid00562\SP\ProcedureUnspecified\BasisUnspecified\23411\meili\SunSep2609:12:472021SunSep2609:12:472021\0\\#,ProcedureUnspecified,BasisUnspecified,\\0,1\O\C,1,1.24372\O,2,1.24653,1,125.551\C,2,1.51037,1,116.962,3,-172.906,0\H,4,1.08958,2,110.246,1,-34.4139,0\H,4,1.09261,2,108.309,1,83.3874,0\H,4,1.1,2,111.625,1,-156.848,0\H,1,1.83497,2,125.821,3,176.668,0\N,8,1.02297,1,162.185,2,-168.761,0\C,9,1.32239,8,114.108,1,24.3276,0\N,10,1.31262,9,116.836,8,3.4697,0\H,11,1.01197,10,121.225,9,-177.452,0\H,11,1.01523,10,117.985,9,-8.3902,0\N,10,1.32907,9,124.467,8,-178.065,0\H,14,1.00602,10,120.827,9,-4.46905,0\H,14,1.01273,10,117.895,9,-177.777,0\C,9,1.47403,8,117.494,1,-142.687,0\H,17,1.09121,9,109.292,8,-55.0915,0\H,17,1.09122,9,112.449,8,-177.349,0\H,17,1.1,9,104.315,8,62.8782,0\\\@

 Total job time:  26287.71s(wall), 17892.49s(cpu) 
 Sun Sep 26 09:12:52 2021

        *************************************************************
        *                                                           *
        *  Thank you very much for using Q-Chem.  Have a nice day.  *
        *                                                           *
        *************************************************************


