
Running Job 1 of 1 SSI-062GLN-112PHE-1_PCM_TZVPD.in
qchem SSI-062GLN-112PHE-1_PCM_TZVPD.in_62713.0 /tmp/qchem62713/ 0
/global/common/cori/software/qchem/5.2/exe/qcprog.exe_s SSI-062GLN-112PHE-1_PCM_TZVPD.in_62713.0 /tmp/qchem62713/
                  Welcome to Q-Chem
     A Quantum Leap Into The Future Of Chemistry


 Q-Chem 5.2, Q-Chem, Inc., Pleasanton, CA (2019)

 License issued to: National Energy Research Scientific Computing Center

 Yihan Shao,  Zhengting Gan,  E. Epifanovsky,  A. T. B. Gilbert,  M. Wormit,  
 J. Kussmann,  A. W. Lange,  A. Behn,  Jia Deng,  Xintian Feng,  D. Ghosh,  
 M. Goldey,  P. R. Horn,  L. D. Jacobson,  I. Kaliman,  T. Kus,  A. Landau,  
 Jie Liu,  E. I. Proynov,  R. M. Richard,  R. P. Steele,  E. J. Sundstrom,  
 H. L. Woodcock III,  P. M. Zimmerman,  D. Zuev,  B. Albrecht,  E. Alguire,  
 S. A. Baeppler,  D. Barton,  Z. Benda,  Y. A. Bernard,  E. J. Berquist,  
 K. B. Bravaya,  H. Burton,  D. Casanova,  Chun-Min Chang,  Yunqing Chen,  
 A. Chien,  K. D. Closser,  M. P. Coons,  S. Coriani,  S. Dasgupta,  
 A. L. Dempwolff,  M. Diedenhofen,  Hainam Do,  R. G. Edgar,  Po-Tung Fang,  
 S. Faraji,  S. Fatehi,  Qingguo Feng,  K. D. Fenk,  J. Fosso-Tande,  
 J. Gayvert,  Qinghui Ge,  A. Ghysels,  G. Gidofalvi,  J. Gomes,  
 J. Gonthier,  A. Gunina,  D. Hait,  M. W. D. Hanson-Heine,  
 P. H. P. Harbach,  A. W. Hauser,  M. F. Herbst,  J. E. Herr,  
 E. G. Hohenstein,  Z. C. Holden,  Kerwin Hui,  B. C. Huynh,  T.-C. Jagau,  
 Hyunjun Ji,  B. Kaduk,  K. Khistyaev,  Jaehoon Kim,  P. Klunzinger,  K. Koh,  
 D. Kosenkov,  L. Koulias,  T. Kowalczyk,  C. M. Krauter,  A. Kunitsa,  
 Ka Un Lao,  A. Laurent,  K. V. Lawler,  Joonho Lee,  D. Lefrancois,  
 S. Lehtola,  D. S. Levine,  Yi-Pei Li,  You-Sheng Lin,  Fenglai Liu,  
 E. Livshits,  A. Luenser,  P. Manohar,  E. Mansoor,  S. F. Manzer,  
 Shan-Ping Mao,  Yuezhi Mao,  N. Mardirossian,  A. V. Marenich,  
 T. Markovich,  L. A. Martinez-Martinez,  S. A. Maurer,  N. J. Mayhall,  
 S. C. McKenzie,  J.-M. Mewes,  P. Morgante,  A. F. Morrison,  
 J. W. Mullinax,  K. Nanda,  T. S. Nguyen-Beck,  R. Olivares-Amaya,  
 J. A. Parkhill,  Zheng Pei,  T. M. Perrine,  F. Plasser,  P. Pokhilko,  
 S. Prager,  A. Prociuk,  E. Ramos,  D. R. Rehn,  F. Rob,  M. Scheurer,  
 M. Schneider,  N. Sergueev,  S. M. Sharada,  S. Sharma,  D. W. Small,  
 T. Stauch,  T. Stein,  Yu-Chuan Su,  A. J. W. Thom,  A. Tkatchenko,  
 T. Tsuchimochi,  N. M. Tubman,  L. Vogt,  M. L. Vidal,  O. Vydrov,  
 M. A. Watson,  J. Wenzel,  M. de Wergifosse,  T. A. Wesolowski,  A. White,  
 J. Witte,  A. Yamada,  Jun Yang,  K. Yao,  S. Yeganeh,  S. R. Yost,  
 Zhi-Qiang You,  A. Zech,  Igor Ying Zhang,  Xing Zhang,  Yan Zhao,  
 Ying Zhu,  B. R. Brooks,  G. K. L. Chan,  C. J. Cramer,  M. S. Gordon,  
 W. J. Hehre,  A. Klamt,  M. W. Schmidt,  C. D. Sherrill,  D. G. Truhlar,  
 A. Aspuru-Guzik,  R. Baer,  A. T. Bell,  N. A. Besley,  Jeng-Da Chai,  
 A. E. DePrince, III,  R. A. DiStasio Jr.,  A. Dreuw,  B. D. Dunietz,  
 T. R. Furlani,  Chao-Ping Hsu,  Yousung Jung,  Jing Kong,  D. S. Lambrecht,  
 WanZhen Liang,  C. Ochsenfeld,  V. A. Rassolov,  L. V. Slipchenko,  
 J. E. Subotnik,  T. Van Voorhis,  J. M. Herbert,  A. I. Krylov,  
 P. M. W. Gill,  M. Head-Gordon

 Contributors to earlier versions of Q-Chem not listed above: 
 R. D. Adamson,  B. Austin,  J. Baker,  G. J. O. Beran,  K. Brandhorst,  
 S. T. Brown,  E. F. C. Byrd,  A. K. Chakraborty,  C.-L. Cheng,  
 Siu Hung Chien,  D. M. Chipman,  D. L. Crittenden,  H. Dachsel,  
 R. J. Doerksen,  A. D. Dutoi,  L. Fusti-Molnar,  W. A. Goddard III,  
 A. Golubeva-Zadorozhnaya,  S. R. Gwaltney,  G. Hawkins,  A. Heyden,  
 S. Hirata,  G. Kedziora,  F. J. Keil,  C. Kelley,  Jihan Kim,  R. A. King,  
 R. Z. Khaliullin,  P. P. Korambath,  W. Kurlancheek,  A. M. Lee,  M. S. Lee,  
 S. V. Levchenko,  Ching Yeh Lin,  D. Liotard,  R. C. Lochan,  I. Lotan,  
 P. E. Maslen,  N. Nair,  D. P. O'Neill,  D. Neuhauser,  E. Neuscamman,  
 C. M. Oana,  R. Olson,  B. Peters,  R. Peverati,  P. A. Pieniazek,  
 Y. M. Rhee,  J. Ritchie,  M. A. Rohrdanz,  E. Rosta,  N. J. Russ,  
 H. F. Schaefer III,  N. E. Schultz,  N. Shenvi,  A. C. Simmonett,  A. Sodt,  
 D. Stuck,  K. S. Thanthiriwatte,  V. Vanovschi,  Tao Wang,  A. Warshel,  
 C. F. Williams,  Q. Wu,  X. Xu,  W. Zhang

 Please cite Q-Chem as follows:
 Y. Shao et al., Mol. Phys. 113, 184-215 (2015)
 DOI: 10.1080/00268976.2014.952696

 Q-Chem 5.2.0 for Intel X86 EM64T Linux

 Parts of Q-Chem use Armadillo 8.300.2 (Tropical Shenanigans).
 http://arma.sourceforge.net/

 Q-Chem begins on Sun Sep 26 09:35:02 2021  

Host: cori01
0

     Scratch files written to /tmp/qchem62713//
 May1019 |scratch|qcdevops|jenkins|workspace|build_RNUM -1
Processing $rem in /global/common/cori/software/qchem/5.2/config/preferences:
	 MEM_TOTAL  96000 
NAlpha2: 90
NElect   90
Mult     1
Symmetry turned off for PCM/SM12/SMD calculation

 Q-Chem warning in module libgen/rem_setup.C, line 2803:

 Neither GIA nor STOLL is specified by user. Use STOLL as the default


Checking the input file for inconsistencies... 	...done.

--------------------------------------------------------------
User input:
--------------------------------------------------------------
$comment
SSI-062GLN-112PHE-1.pdb
$end

$molecule
0 1
--
0 1
C   -0.878181103841    1.412993895904    2.228080504039
C   -2.094181103841    0.670993895904    2.747080504039
C   -1.246181103841    2.327993895904    1.076080504039
O   -2.099181103841    2.005993895904    0.248080504039
N   -0.592181103841    3.473993895904    0.995080504039
H   -0.452181103841    2.003993895904    3.040080504039
H   -0.106181103841    0.726993895904    1.901080504039
H   -2.835181103841    0.509993895904    1.982080504039
H   -2.645181103841    1.440993895904    3.290080504039
H   -0.785181103841    4.069993895904    0.203080504039
H    0.108818896159    3.758993895904    1.673080504039
H   -1.890380103841   -0.119266104096    3.484610504039
--
0 1
C    1.217818896159   -3.470006104096    0.385080504039
C    0.439818896159   -0.057006104096   -1.081919495961
C    0.499818896159   -1.115006104096   -0.183919495961
C    1.007818896159   -0.176006104096   -2.340919495961
C    1.149818896159   -2.293006104096   -0.536919495961
C    1.653818896159   -1.349006104096   -2.696919495961
C    1.706818896159   -2.405006104096   -1.802919495961
H   -0.048181103841    0.865993895904   -0.813919495961
H    0.090818896159   -1.017006104096    0.803080504039
H    0.956818896159    0.646993895904   -3.040919495961
H    2.102818896159   -1.445006104096   -3.675919495961
H    2.010818896159   -4.132006104096    0.033080504039
H    0.276818896159   -4.017006104096    0.299080504039
H    2.193818896159   -3.320006104096   -2.106919495961
H    1.401076896159   -3.243629104096    1.445820504039
$end

$rem
JOBTYPE			EDA
EDA2			1
method			wB97X-V
BASIS			def2-TZVPD
XC_GRID			000099000590
NL_GRID			1
UNRESTRICTED		FALSE
MAX_SCF_CYCLES		200
SYMMETRY		FALSE
SYM_IGNORE		TRUE
MEM_STATIC		2000
BASIS_LIN_DEP_THRESH 	6
THRESH 			14
SCF_CONVERGENCE 	8
SCF_PRINT_FRGM 		TRUE
SOLVENT_METHOD          PCM
$end

$PCM
THEORY                  CPCM
METHOD                  SWIG
SOLVER                  INVERSION
RADII                   UFF
HPOINTS                 302
HEAVYPOINTS             302
PRINTLEVEL              0
$END

$SOLVENT
DIELECTRIC              78.390000 ! water
$END
--------------------------------------------------------------
 ----------------------------------------------------------------
             Standard Nuclear Orientation (Angstroms)
    I     Atom           X                Y                Z
 ----------------------------------------------------------------
    1      C      -0.8781811038     1.4129938959     2.2280805040
    2      C      -2.0941811038     0.6709938959     2.7470805040
    3      C      -1.2461811038     2.3279938959     1.0760805040
    4      O      -2.0991811038     2.0059938959     0.2480805040
    5      N      -0.5921811038     3.4739938959     0.9950805040
    6      H      -0.4521811038     2.0039938959     3.0400805040
    7      H      -0.1061811038     0.7269938959     1.9010805040
    8      H      -2.8351811038     0.5099938959     1.9820805040
    9      H      -2.6451811038     1.4409938959     3.2900805040
   10      H      -0.7851811038     4.0699938959     0.2030805040
   11      H       0.1088188962     3.7589938959     1.6730805040
   12      H      -1.8903801038    -0.1192661041     3.4846105040
   13      C       1.2178188962    -3.4700061041     0.3850805040
   14      C       0.4398188962    -0.0570061041    -1.0819194960
   15      C       0.4998188962    -1.1150061041    -0.1839194960
   16      C       1.0078188962    -0.1760061041    -2.3409194960
   17      C       1.1498188962    -2.2930061041    -0.5369194960
   18      C       1.6538188962    -1.3490061041    -2.6969194960
   19      C       1.7068188962    -2.4050061041    -1.8029194960
   20      H      -0.0481811038     0.8659938959    -0.8139194960
   21      H       0.0908188962    -1.0170061041     0.8030805040
   22      H       0.9568188962     0.6469938959    -3.0409194960
   23      H       2.1028188962    -1.4450061041    -3.6759194960
   24      H       2.0108188962    -4.1320061041     0.0330805040
   25      H       0.2768188962    -4.0170061041     0.2990805040
   26      H       2.1938188962    -3.3200061041    -2.1069194960
   27      H       1.4010768962    -3.2436291041     1.4458205040
 ----------------------------------------------------------------
 Nuclear Repulsion Energy =         652.33963541 hartrees
 There are       45 alpha and       45 beta electrons
 Requested basis set is def2-TZVPD
 There are 232 shells and 582 basis functions

 Total QAlloc Memory Limit  96000 MB
 Mega-Array Size      1956 MB
 MEM_STATIC part      2000 MB
 Discretize the solute cavity surface with Lebedev spheres
	Using 302 Lebedev grid points for each H atom
	Using 302 Lebedev grid points for other atoms
	Atomic van der Waals radii will be scaled by 1.20
 Remove points where switching function is < 1.0e-08
 Keep 2997 surface tesserae and discard 5157 interior tesserae
 Molecular Surface Area = 293.729 Angst**2
 A cutoff of  1.0D-14 yielded  23348 shell pairs
 There are    147370 function pairs (    184855 Cartesian)
 Smallest overlap matrix eigenvalue = 4.31E-07
 Linear dependence detected in AO basis
 Tighter screening thresholds may be required for diffuse basis sets
 Use S2THRESH > 14 and THRESH = 14 in case of SCF convergence issues
 Number of orthogonalized atomic orbitals = 580
 Maximum deviation from orthogonality = 1.628E-10

 Scale SEOQF with 1.000000e-01/1.000000e-01/1.000000e-01

 Standard Electronic Orientation quadrupole field applied
 Nucleus-field energy     =     0.0000000072 hartrees

 -----------------------------------------------------------------------
  General SCF calculation program by
  Eric Jon Sundstrom, Paul Horn, Yuezhi Mao, Dmitri Zuev, Alec White,
  David Stuck, Shaama M.S., Shane Yost, Joonho Lee, David Small,
  Daniel Levine, Susi Lehtola, Hugh Burton, Evgeny Epifanovsky
 -----------------------------------------------------------------------
================================================================
                 ALMO-EDA with the EDA2 driver                  
================================================================
 The second-generation ALMO-EDA (for DFT):                      
 P. R. Horn, Y. Mao and M. Head-Gordon, PCCP, 18, 23067 (2016)  
 Decomposition of the frozen energy:                            
 P. R. Horn, Y. Mao and M. Head-Gordon, JCP, 144, 114107 (2016) 
 FERF model for polarization:                                   
 P. R. Horn and M. Head-Gordon, JCP, 143, 114111 (2015)         
Using eda2 option set 1
Option set summary: Frozen orbital wavefunction, initial wavefunction decomposition, and nDQ polarization.
--------------------------------
Printing EDA Options
--------------------------------
eda_child_super_basis      0
fragmo_guess_mode          0
child_mp                   1
child_mp_orders            232
cls_elec                   1
cls_disp                   0
scfmi_mode                 1
scfmi_occs                 0
scfmi_virts                0
frz_relax                  0
frz_relax_method           0
dc_pen_start               0
dc_pen_conv                0
dc_pen_increment           0
dc_pen_steps               0
dc_pen_thresh_factor       0
dc_pen_pre_newton_thresh   0
frz_ortho_decomp           1
frz_ortho_decomp_conv      6
frgm_method                2
scfmi_freeze_ss            0
separate_rehyb             0
plot_diff_den              0
eda_nocv                   0
eda_vct_relax              1
disp_free_x                0
disp_free_c                0
eda_bsse                   0
eda_pct_a                  0
eda_covp                   0
--------------------------------
Attempting to make child job directory: /tmp/qchem62713//Frg1/
Attempting to make child job directory: /tmp/qchem62713//Frg2/
Creating input file /tmp/qchem62713/Frg1.input
using default PutDataFrgm: nothing
calling putenv with: QCSCRATCH=/tmp/qchem62713/ 
calling putenv with: QCLOCALSCR=/tmp/qchem62713/ 
Spawning Job For Fragment 0
                  Welcome to Q-Chem
     A Quantum Leap Into The Future Of Chemistry


 Q-Chem 5.2, Q-Chem, Inc., Pleasanton, CA (2019)

 License issued to: National Energy Research Scientific Computing Center

 Yihan Shao,  Zhengting Gan,  E. Epifanovsky,  A. T. B. Gilbert,  M. Wormit,  
 J. Kussmann,  A. W. Lange,  A. Behn,  Jia Deng,  Xintian Feng,  D. Ghosh,  
 M. Goldey,  P. R. Horn,  L. D. Jacobson,  I. Kaliman,  T. Kus,  A. Landau,  
 Jie Liu,  E. I. Proynov,  R. M. Richard,  R. P. Steele,  E. J. Sundstrom,  
 H. L. Woodcock III,  P. M. Zimmerman,  D. Zuev,  B. Albrecht,  E. Alguire,  
 S. A. Baeppler,  D. Barton,  Z. Benda,  Y. A. Bernard,  E. J. Berquist,  
 K. B. Bravaya,  H. Burton,  D. Casanova,  Chun-Min Chang,  Yunqing Chen,  
 A. Chien,  K. D. Closser,  M. P. Coons,  S. Coriani,  S. Dasgupta,  
 A. L. Dempwolff,  M. Diedenhofen,  Hainam Do,  R. G. Edgar,  Po-Tung Fang,  
 S. Faraji,  S. Fatehi,  Qingguo Feng,  K. D. Fenk,  J. Fosso-Tande,  
 J. Gayvert,  Qinghui Ge,  A. Ghysels,  G. Gidofalvi,  J. Gomes,  
 J. Gonthier,  A. Gunina,  D. Hait,  M. W. D. Hanson-Heine,  
 P. H. P. Harbach,  A. W. Hauser,  M. F. Herbst,  J. E. Herr,  
 E. G. Hohenstein,  Z. C. Holden,  Kerwin Hui,  B. C. Huynh,  T.-C. Jagau,  
 Hyunjun Ji,  B. Kaduk,  K. Khistyaev,  Jaehoon Kim,  P. Klunzinger,  K. Koh,  
 D. Kosenkov,  L. Koulias,  T. Kowalczyk,  C. M. Krauter,  A. Kunitsa,  
 Ka Un Lao,  A. Laurent,  K. V. Lawler,  Joonho Lee,  D. Lefrancois,  
 S. Lehtola,  D. S. Levine,  Yi-Pei Li,  You-Sheng Lin,  Fenglai Liu,  
 E. Livshits,  A. Luenser,  P. Manohar,  E. Mansoor,  S. F. Manzer,  
 Shan-Ping Mao,  Yuezhi Mao,  N. Mardirossian,  A. V. Marenich,  
 T. Markovich,  L. A. Martinez-Martinez,  S. A. Maurer,  N. J. Mayhall,  
 S. C. McKenzie,  J.-M. Mewes,  P. Morgante,  A. F. Morrison,  
 J. W. Mullinax,  K. Nanda,  T. S. Nguyen-Beck,  R. Olivares-Amaya,  
 J. A. Parkhill,  Zheng Pei,  T. M. Perrine,  F. Plasser,  P. Pokhilko,  
 S. Prager,  A. Prociuk,  E. Ramos,  D. R. Rehn,  F. Rob,  M. Scheurer,  
 M. Schneider,  N. Sergueev,  S. M. Sharada,  S. Sharma,  D. W. Small,  
 T. Stauch,  T. Stein,  Yu-Chuan Su,  A. J. W. Thom,  A. Tkatchenko,  
 T. Tsuchimochi,  N. M. Tubman,  L. Vogt,  M. L. Vidal,  O. Vydrov,  
 M. A. Watson,  J. Wenzel,  M. de Wergifosse,  T. A. Wesolowski,  A. White,  
 J. Witte,  A. Yamada,  Jun Yang,  K. Yao,  S. Yeganeh,  S. R. Yost,  
 Zhi-Qiang You,  A. Zech,  Igor Ying Zhang,  Xing Zhang,  Yan Zhao,  
 Ying Zhu,  B. R. Brooks,  G. K. L. Chan,  C. J. Cramer,  M. S. Gordon,  
 W. J. Hehre,  A. Klamt,  M. W. Schmidt,  C. D. Sherrill,  D. G. Truhlar,  
 A. Aspuru-Guzik,  R. Baer,  A. T. Bell,  N. A. Besley,  Jeng-Da Chai,  
 A. E. DePrince, III,  R. A. DiStasio Jr.,  A. Dreuw,  B. D. Dunietz,  
 T. R. Furlani,  Chao-Ping Hsu,  Yousung Jung,  Jing Kong,  D. S. Lambrecht,  
 WanZhen Liang,  C. Ochsenfeld,  V. A. Rassolov,  L. V. Slipchenko,  
 J. E. Subotnik,  T. Van Voorhis,  J. M. Herbert,  A. I. Krylov,  
 P. M. W. Gill,  M. Head-Gordon

 Contributors to earlier versions of Q-Chem not listed above: 
 R. D. Adamson,  B. Austin,  J. Baker,  G. J. O. Beran,  K. Brandhorst,  
 S. T. Brown,  E. F. C. Byrd,  A. K. Chakraborty,  C.-L. Cheng,  
 Siu Hung Chien,  D. M. Chipman,  D. L. Crittenden,  H. Dachsel,  
 R. J. Doerksen,  A. D. Dutoi,  L. Fusti-Molnar,  W. A. Goddard III,  
 A. Golubeva-Zadorozhnaya,  S. R. Gwaltney,  G. Hawkins,  A. Heyden,  
 S. Hirata,  G. Kedziora,  F. J. Keil,  C. Kelley,  Jihan Kim,  R. A. King,  
 R. Z. Khaliullin,  P. P. Korambath,  W. Kurlancheek,  A. M. Lee,  M. S. Lee,  
 S. V. Levchenko,  Ching Yeh Lin,  D. Liotard,  R. C. Lochan,  I. Lotan,  
 P. E. Maslen,  N. Nair,  D. P. O'Neill,  D. Neuhauser,  E. Neuscamman,  
 C. M. Oana,  R. Olson,  B. Peters,  R. Peverati,  P. A. Pieniazek,  
 Y. M. Rhee,  J. Ritchie,  M. A. Rohrdanz,  E. Rosta,  N. J. Russ,  
 H. F. Schaefer III,  N. E. Schultz,  N. Shenvi,  A. C. Simmonett,  A. Sodt,  
 D. Stuck,  K. S. Thanthiriwatte,  V. Vanovschi,  Tao Wang,  A. Warshel,  
 C. F. Williams,  Q. Wu,  X. Xu,  W. Zhang

 Please cite Q-Chem as follows:
 Y. Shao et al., Mol. Phys. 113, 184-215 (2015)
 DOI: 10.1080/00268976.2014.952696

 Q-Chem 5.2.0 for Intel X86 EM64T Linux

 Parts of Q-Chem use Armadillo 8.300.2 (Tropical Shenanigans).
 http://arma.sourceforge.net/

 Q-Chem begins on Sun Sep 26 09:35:07 2021  

Host: cori01
0

     Scratch files written to /tmp/qchem62713//Frg1//
 May1019 |scratch|qcdevops|jenkins|workspace|build_RNUM -1
Processing $rem in /global/common/cori/software/qchem/5.2/config/preferences:
	 MEM_TOTAL  96000 
NAlpha2: 40
NElect   40
Mult     1
Symmetry turned off for PCM/SM12/SMD calculation

Checking the input file for inconsistencies... 	...done.

--------------------------------------------------------------
User input:
--------------------------------------------------------------
$molecule
0 1
 6	-0.8781811038	1.4129938959	2.2280805040
 6	-2.0941811038	0.6709938959	2.7470805040
 6	-1.2461811038	2.3279938959	1.0760805040
 8	-2.0991811038	2.0059938959	0.2480805040
 7	-0.5921811038	3.4739938959	0.9950805040
 1	-0.4521811038	2.0039938959	3.0400805040
 1	-0.1061811038	0.7269938959	1.9010805040
 1	-2.8351811038	0.5099938959	1.9820805040
 1	-2.6451811038	1.4409938959	3.2900805040
 1	-0.7851811038	4.0699938959	0.2030805040
 1	0.1088188962	3.7589938959	1.6730805040
 1	-1.8903801038	-0.1192661041	3.4846105040
$end
$rem
EDA2		1
METHOD		WB97X-V
BASIS		DEF2-TZVPD
XC_GRID		000099000590
NL_GRID		1
UNRESTRICTED		FALSE
MAX_SCF_CYCLES		200
SYMMETRY		FALSE
SYM_IGNORE		TRUE
BASIS_LIN_DEP_THRESH		6
THRESH		14
SCF_CONVERGENCE		8
SCF_PRINT_FRGM		TRUE
SOLVENT_METHOD		PCM
!required keywords
JOBTYPE		SP
SYM_IGNORE		TRUE
SUBSYSTEM		TRUE
GEN_SCFMAN		TRUE
CHILD_INSTRUCTION		2
SYM_IGNORE		TRUE
SCFMI		0
RI_K 0		
PARI_K 0		
MIN_PARI_K 0		
IARI_K 0		
OCC_RI_K 0		
PURECART		1111
MEM_STATIC		2000
MEM_TOTAL		96000
GUI		0
CHILD_MP		1
CHILD_MP_ORDERS		232
FRZ_RELAX		0
FRZ_RELAX_METHOD		0
EDA_CLS_ELEC		1
EDA_CLS_DISP		0
FRZ_ORTHO_DECOMP		1
EDA2		FALSE
FRGM_METHOD		FALSE
CIS_N_ROOTS  0
LOCAL_CIS    0
CIS_RLX_DNS  1
$end
$pcm
THEORY                  CPCM
METHOD                  SWIG
SOLVER                  INVERSION
RADII                   UFF
HPOINTS                 302
HEAVYPOINTS             302
PRINTLEVEL              0
$end
$solvent
DIELECTRIC              78.390000 ! water
$end
--------------------------------------------------------------
 ----------------------------------------------------------------
             Standard Nuclear Orientation (Angstroms)
    I     Atom           X                Y                Z
 ----------------------------------------------------------------
    1      C      -0.8781811038     1.4129938959     2.2280805040
    2      C      -2.0941811038     0.6709938959     2.7470805040
    3      C      -1.2461811038     2.3279938959     1.0760805040
    4      O      -2.0991811038     2.0059938959     0.2480805040
    5      N      -0.5921811038     3.4739938959     0.9950805040
    6      H      -0.4521811038     2.0039938959     3.0400805040
    7      H      -0.1061811038     0.7269938959     1.9010805040
    8      H      -2.8351811038     0.5099938959     1.9820805040
    9      H      -2.6451811038     1.4409938959     3.2900805040
   10      H      -0.7851811038     4.0699938959     0.2030805040
   11      H       0.1088188962     3.7589938959     1.6730805040
   12      H      -1.8903801038    -0.1192661041     3.4846105040
 ----------------------------------------------------------------
 Nuclear Repulsion Energy =         180.32596004 hartrees
 There are       20 alpha and       20 beta electrons
 Requested basis set is def2-TZVPD
 There are 101 shells and 251 basis functions

 Total QAlloc Memory Limit  96000 MB
 Mega-Array Size      1956 MB
 MEM_STATIC part      2000 MB
 Discretize the solute cavity surface with Lebedev spheres
	Using 302 Lebedev grid points for each H atom
	Using 302 Lebedev grid points for other atoms
	Atomic van der Waals radii will be scaled by 1.20
 Remove points where switching function is < 1.0e-08
 Keep 1493 surface tesserae and discard 2131 interior tesserae
 Molecular Surface Area = 151.042 Angst**2

                       Distance Matrix (Angstroms)
             C (  1)   C (  2)   C (  3)   O (  4)   N (  5)   H (  6)
   C (  2)  1.516107
   C (  3)  1.516494  2.501398
   O (  4)  2.400602  2.833240  1.231616
   N (  5)  2.418637  3.630746  1.321966  2.232506
   H (  6)  1.090918  2.135159  2.143060  3.241586  2.522405
   H (  7)  1.083286  2.161249  2.131531  2.887958  2.933094  1.745785
   H (  8)  2.169280  1.077138  2.578930  2.405508  3.845844  3.005011
   H (  9)  2.061775  1.091490  2.765098  3.141831  3.689841  2.277876
   H ( 10)  3.341994  4.442816  2.002302  2.447186  1.009816  3.525310
   H ( 11)  2.604978  3.942389  2.059173  3.158939  1.016027  2.294218
   H ( 12)  2.225137  1.099998  3.493578  3.877558  4.560109  2.602740
             H (  7)   H (  8)   H (  9)   H ( 10)   H ( 11)
   H (  8)  2.738812
   H (  9)  2.980879  1.616702
   H ( 10)  3.810498  4.476711  4.461032
   H ( 11)  3.048152  4.395295  3.946179  1.748387
   H ( 12)  2.531223  1.883139  1.744127  5.435053  4.724335
 
 A cutoff of  1.0D-14 yielded   5042 shell pairs
 There are     31666 function pairs (     39811 Cartesian)
 Smallest overlap matrix eigenvalue = 6.03E-06

 Scale SEOQF with 1.000000e-01/1.000000e-01/1.000000e-01

 Standard Electronic Orientation quadrupole field applied
 Nucleus-field energy     =     0.0000000037 hartrees
 Guess from superposition of atomic densities
 Warning:  Energy on first SCF cycle will be non-variational
 SAD guess density has 39.592240 electrons

 -----------------------------------------------------------------------
  General SCF calculation program by
  Eric Jon Sundstrom, Paul Horn, Yuezhi Mao, Dmitri Zuev, Alec White,
  David Stuck, Shaama M.S., Shane Yost, Joonho Lee, David Small,
  Daniel Levine, Susi Lehtola, Hugh Burton, Evgeny Epifanovsky
 -----------------------------------------------------------------------
 Exchange:     0.1670 Hartree-Fock + 1.0000 wB97X-V + LR-HF
 Correlation:  1.0000 wB97X-V
 Using Euler-Maclaurin-Lebedev (99,590) quadrature formula
 Nonlocal Correlation:  VV10 with C = 0.0100 and b = 6.00 and scale = 1.00000
 Grid used for NLC:  SG-1 standard quadrature
Energy prior to optimization (guess energy) = -248.008654599553
Begin Timing: Total SCF Calculation
begin iterations for algorithm: DIIS         
the SCF tolerance is set to 1.00e-08
    1    -248.0086545996      9.82e-03     00000 
    2    -247.6164813530      1.22e-02     00000 
    3    -248.5294387734      2.00e-03     00000 
    4    -248.5507416669      6.50e-04     00000 
    5    -248.5535123096      1.01e-04     00000 
    6    -248.5536180246      4.26e-05     00000 
    7    -248.5536384502      9.49e-06     00000 
    8    -248.5536398317      1.74e-06     00000 
    9    -248.5536399298      4.85e-07     00000 
   10    -248.5536399347      1.69e-07     00000 
   11    -248.5536399351      5.61e-08     00000 
   12    -248.5536399352      1.59e-08     00000 
   13    -248.5536399352      4.21e-09     00000 Convergence criterion met
Timing for Total SCF: 692.00s (wall), 1373.64s (cpu)

************** Final PCM Free Energy Summary **************
 G_electrostatic  =      -0.01120045 hartree =      -7.02838870 kcal/mol
 G_cavitation     =       0.00000000 hartree =       0.00000000 kcal/mol
 G_dispersion     =       0.00000000 hartree =       0.00000000 kcal/mol
 G_repulsion      =       0.00000000 hartree =       0.00000000 kcal/mol
 --------------------------------------------------
 Non-electrostatic Free Energy =       0.00000000 hartree =       0.00000000 kcal/mol
 Total                         =      -0.01120045 hartree =      -7.02838870 kcal/mol
 --------------------------------------------------
 SCF Energy (H0 + V/2)                       =    -248.55363994 
 Solute Internal Energy (H0)                 =    -248.54243948 
 Total Free Energy (H0 + V/2 + non-elec)     =    -248.55363994 hartree
                                             = -155969.76311084 kcal/mol
***********************************************************

E_pcm = -0.0112004504
Multipole orders to be included
        2
        3
computing dipole RHS
computing quadrupole RHS
total number of RHS in solve_reponses: 8
RHS batch sizes
        8
Beginning Block Conjugate Gradient Iterations. Batch Number: 0
computing hessian-vector products by finite difference
              1      5.31e-01     00000 Conjugate Gradient Iteration
computing hessian-vector products by finite difference
              2      1.69e-01     00000 Conjugate Gradient Iteration
computing hessian-vector products by finite difference
              3      4.18e-02     00000 Conjugate Gradient Iteration
computing hessian-vector products by finite difference
              4      1.06e-02     00000 Conjugate Gradient Iteration
computing hessian-vector products by finite difference
              5      1.67e-03     00000 Conjugate Gradient Iteration
computing hessian-vector products by finite difference
              6      3.26e-04     00000 Conjugate Gradient Iteration
computing hessian-vector products by finite difference
              7      5.48e-05     00000 Conjugate Gradient Iteration
computing hessian-vector products by finite difference
              8      7.71e-06     00000 Conjugate Gradient Iteration
computing hessian-vector products by finite difference
              9      1.16e-06     00000 Conjugate Gradient Iteration
computing hessian-vector products by finite difference
             10      1.53e-07     00000 Conjugate Gradient Iteration
computing hessian-vector products by finite difference
             11      2.39e-08     00000 Conjugate Gradient Iteration
computing hessian-vector products by finite difference
             12      4.48e-09     00000 CG Converged
batch 0 complete
Done Calculating Responses
TESTING ORTHOGONALIZATION OF MULTIPOLE BASIS
Multipole virts passed orthogonality test
Virts Per Order
           60
          100
 
 --------------------------------------------------------------
 
                    Orbital Energies (a.u.)
 --------------------------------------------------------------
 
 Alpha MOs
 -- Occupied --
-19.1783 -14.4352 -10.3749 -10.2751 -10.2554  -1.1718  -1.0462  -0.9142
 -0.7839  -0.7045  -0.6568  -0.6050  -0.5771  -0.5376  -0.5144  -0.4826
 -0.4749  -0.4335  -0.3828  -0.3685
 -- Virtual --
  0.0595   0.0835   0.0861   0.0942   0.1122   0.1272   0.1277   0.1346
  0.1442   0.1694   0.1788   0.1870   0.1994   0.2172   0.2174   0.2324
  0.2347   0.2396   0.2495   0.2627   0.2794   0.2848   0.2944   0.3070
  0.3148   0.3235   0.3316   0.3368   0.3409   0.3500   0.3570   0.3615
  0.3688   0.3744   0.3866   0.3922   0.4020   0.4117   0.4139   0.4208
  0.4369   0.4410   0.4577   0.4640   0.4728   0.4789   0.4880   0.4969
  0.5065   0.5132   0.5143   0.5360   0.5375   0.5482   0.5525   0.5595
  0.5850   0.5990   0.6049   0.6212   0.6363   0.6511   0.6542   0.6610
  0.6773   0.7010   0.7089   0.7173   0.7384   0.7421   0.7641   0.7719
  0.7809   0.7862   0.7916   0.7982   0.8125   0.8298   0.8316   0.8424
  0.8595   0.8705   0.8790   0.9059   0.9160   0.9658   0.9728   1.0127
  1.0239   1.0361   1.0575   1.0742   1.1025   1.1104   1.1410   1.1746
  1.2176   1.2691   1.2855   1.3128   1.3391   1.3426   1.3581   1.4106
  1.4628   1.4717   1.4965   1.5499   1.5637   1.6264   1.6974   1.7706
  1.8384   1.8447   1.8706   1.8825   1.9020   1.9261   1.9380   1.9483
  1.9622   1.9891   2.0045   2.0274   2.0324   2.0548   2.1074   2.1368
  2.1577   2.1791   2.2334   2.2434   2.2816   2.3330   2.3345   2.3813
  2.3975   2.4211   2.4685   2.4813   2.5178   2.5733   2.5760   2.6102
  2.6599   2.6909   2.7382   2.7667   2.7711   2.8134   2.8454   2.8717
  2.9026   2.9184   2.9426   2.9837   3.0193   3.0616   3.0756   3.1260
  3.1507   3.1951   3.2144   3.2379   3.2722   3.2749   3.3137   3.3305
  3.3531   3.3793   3.4105   3.4520   3.4691   3.5008   3.5235   3.5435
  3.5737   3.6055   3.6264   3.6671   3.7126   3.7739   3.7912   3.8082
  3.8865   3.9655   4.0136   4.0589   4.0929   4.1467   4.1733   4.2396
  4.2897   4.3282   4.4172   4.5261   4.5707   4.6305   4.6509   4.7561
  4.8158   4.8494   4.8971   4.9222   4.9804   5.0485   5.1818   5.1935
  5.2805   5.3646   5.3738   5.4151   5.4218   5.5284   5.5543   5.7829
  5.9232   6.1512   6.2606   6.5342   6.6676   6.7593   6.8431   6.9961
  7.2486   7.3325  22.6462  22.7582  23.6250  32.4342  44.3542
 --------------------------------------------------------------
 
          Ground-State Mulliken Net Atomic Charges

     Atom                 Charge (a.u.)
  ----------------------------------------
      1 C                     0.015169
      2 C                    -0.881191
      3 C                     0.197729
      4 O                    -0.588451
      5 N                    -0.241990
      6 H                     0.193410
      7 H                     0.202111
      8 H                     0.250352
      9 H                     0.203811
     10 H                     0.216627
     11 H                     0.205674
     12 H                     0.226749
  ----------------------------------------
  Sum of atomic charges =     0.000000

 -----------------------------------------------------------------
                    Cartesian Multipole Moments
 -----------------------------------------------------------------
    Charge (ESU x 10^10)
                 0.0000
    Dipole Moment (Debye)
         X       3.5918      Y       2.3254      Z       2.8045
       Tot       5.1160
    Quadrupole Moments (Debye-Ang)
        XX     -40.8410     XY       6.4884     YY     -16.8820
        XZ      -0.5993     YZ       6.6516     ZZ     -25.1980
    Octopole Moments (Debye-Ang^2)
       XXX     153.5074    XXY     -78.2225    XYY      56.2604
       YYY    -110.5167    XXZ     -48.3754    XYZ       0.8449
       YYZ     -29.7258    XZZ      41.9979    YZZ     -46.9294
       ZZZ    -132.4818
    Hexadecapole Moments (Debye-Ang^3)
      XXXX    -549.2003   XXXY     254.3037   XXYY    -275.5559
      XYYY     231.9369   YYYY    -617.7762   XXXZ     211.1072
      XXYZ     -69.5891   XYYZ      81.8486   YYYZ    -158.7570
      XXZZ    -195.1531   XYZZ      72.2863   YYZZ    -225.5699
      XZZZ     205.8116   YZZZ    -191.2709   ZZZZ    -640.3426
 -----------------------------------------------------------------
Archival summary:
1\1\nid00543\SP\ProcedureUnspecified\BasisUnspecified\1137\meili\SunSep2613:04:102021SunSep2613:04:102021\0\\#,ProcedureUnspecified,BasisUnspecified,\\0,1\C\O,1,1.23162\N,1,1.32197,2,121.876\H,3,1.00982,1,117.72,2,-2.56605,0\H,3,1.01603,1,122.929,2,179.487,0\C,1,1.51649,2,121.401,3,-178.913,0\H,6,1.08329,1,109.009,2,86.8295,0\H,6,1.09092,1,109.47,2,-156.65,0\C,6,1.51611,1,111.144,2,-36.3416,0\H,9,1.07714,6,112.445,1,28.9954,0\H,9,1.09149,6,103.293,1,-73.8041,0\H,9,1.1,6,115.628,1,171.526,0\\\@

 Total job time:  12544.31s(wall), 24897.07s(cpu) 
 Sun Sep 26 13:04:12 2021

        *************************************************************
        *                                                           *
        *  Thank you very much for using Q-Chem.  Have a nice day.  *
        *                                                           *
        *************************************************************


Done Job For Fragment 0
calling putenv with: QCSCRATCH=/global/cscratch1/sd/meili 
calling putenv with: QCLOCALSCR=/tmp 
calling putenv with: QCTHREADS=32 
Creating input file /tmp/qchem62713/Frg2.input
using default PutDataFrgm: nothing
calling putenv with: QCSCRATCH=/tmp/qchem62713/ 
calling putenv with: QCLOCALSCR=/tmp/qchem62713/ 
Spawning Job For Fragment 1
                  Welcome to Q-Chem
     A Quantum Leap Into The Future Of Chemistry


 Q-Chem 5.2, Q-Chem, Inc., Pleasanton, CA (2019)

 License issued to: National Energy Research Scientific Computing Center

 Yihan Shao,  Zhengting Gan,  E. Epifanovsky,  A. T. B. Gilbert,  M. Wormit,  
 J. Kussmann,  A. W. Lange,  A. Behn,  Jia Deng,  Xintian Feng,  D. Ghosh,  
 M. Goldey,  P. R. Horn,  L. D. Jacobson,  I. Kaliman,  T. Kus,  A. Landau,  
 Jie Liu,  E. I. Proynov,  R. M. Richard,  R. P. Steele,  E. J. Sundstrom,  
 H. L. Woodcock III,  P. M. Zimmerman,  D. Zuev,  B. Albrecht,  E. Alguire,  
 S. A. Baeppler,  D. Barton,  Z. Benda,  Y. A. Bernard,  E. J. Berquist,  
 K. B. Bravaya,  H. Burton,  D. Casanova,  Chun-Min Chang,  Yunqing Chen,  
 A. Chien,  K. D. Closser,  M. P. Coons,  S. Coriani,  S. Dasgupta,  
 A. L. Dempwolff,  M. Diedenhofen,  Hainam Do,  R. G. Edgar,  Po-Tung Fang,  
 S. Faraji,  S. Fatehi,  Qingguo Feng,  K. D. Fenk,  J. Fosso-Tande,  
 J. Gayvert,  Qinghui Ge,  A. Ghysels,  G. Gidofalvi,  J. Gomes,  
 J. Gonthier,  A. Gunina,  D. Hait,  M. W. D. Hanson-Heine,  
 P. H. P. Harbach,  A. W. Hauser,  M. F. Herbst,  J. E. Herr,  
 E. G. Hohenstein,  Z. C. Holden,  Kerwin Hui,  B. C. Huynh,  T.-C. Jagau,  
 Hyunjun Ji,  B. Kaduk,  K. Khistyaev,  Jaehoon Kim,  P. Klunzinger,  K. Koh,  
 D. Kosenkov,  L. Koulias,  T. Kowalczyk,  C. M. Krauter,  A. Kunitsa,  
 Ka Un Lao,  A. Laurent,  K. V. Lawler,  Joonho Lee,  D. Lefrancois,  
 S. Lehtola,  D. S. Levine,  Yi-Pei Li,  You-Sheng Lin,  Fenglai Liu,  
 E. Livshits,  A. Luenser,  P. Manohar,  E. Mansoor,  S. F. Manzer,  
 Shan-Ping Mao,  Yuezhi Mao,  N. Mardirossian,  A. V. Marenich,  
 T. Markovich,  L. A. Martinez-Martinez,  S. A. Maurer,  N. J. Mayhall,  
 S. C. McKenzie,  J.-M. Mewes,  P. Morgante,  A. F. Morrison,  
 J. W. Mullinax,  K. Nanda,  T. S. Nguyen-Beck,  R. Olivares-Amaya,  
 J. A. Parkhill,  Zheng Pei,  T. M. Perrine,  F. Plasser,  P. Pokhilko,  
 S. Prager,  A. Prociuk,  E. Ramos,  D. R. Rehn,  F. Rob,  M. Scheurer,  
 M. Schneider,  N. Sergueev,  S. M. Sharada,  S. Sharma,  D. W. Small,  
 T. Stauch,  T. Stein,  Yu-Chuan Su,  A. J. W. Thom,  A. Tkatchenko,  
 T. Tsuchimochi,  N. M. Tubman,  L. Vogt,  M. L. Vidal,  O. Vydrov,  
 M. A. Watson,  J. Wenzel,  M. de Wergifosse,  T. A. Wesolowski,  A. White,  
 J. Witte,  A. Yamada,  Jun Yang,  K. Yao,  S. Yeganeh,  S. R. Yost,  
 Zhi-Qiang You,  A. Zech,  Igor Ying Zhang,  Xing Zhang,  Yan Zhao,  
 Ying Zhu,  B. R. Brooks,  G. K. L. Chan,  C. J. Cramer,  M. S. Gordon,  
 W. J. Hehre,  A. Klamt,  M. W. Schmidt,  C. D. Sherrill,  D. G. Truhlar,  
 A. Aspuru-Guzik,  R. Baer,  A. T. Bell,  N. A. Besley,  Jeng-Da Chai,  
 A. E. DePrince, III,  R. A. DiStasio Jr.,  A. Dreuw,  B. D. Dunietz,  
 T. R. Furlani,  Chao-Ping Hsu,  Yousung Jung,  Jing Kong,  D. S. Lambrecht,  
 WanZhen Liang,  C. Ochsenfeld,  V. A. Rassolov,  L. V. Slipchenko,  
 J. E. Subotnik,  T. Van Voorhis,  J. M. Herbert,  A. I. Krylov,  
 P. M. W. Gill,  M. Head-Gordon

 Contributors to earlier versions of Q-Chem not listed above: 
 R. D. Adamson,  B. Austin,  J. Baker,  G. J. O. Beran,  K. Brandhorst,  
 S. T. Brown,  E. F. C. Byrd,  A. K. Chakraborty,  C.-L. Cheng,  
 Siu Hung Chien,  D. M. Chipman,  D. L. Crittenden,  H. Dachsel,  
 R. J. Doerksen,  A. D. Dutoi,  L. Fusti-Molnar,  W. A. Goddard III,  
 A. Golubeva-Zadorozhnaya,  S. R. Gwaltney,  G. Hawkins,  A. Heyden,  
 S. Hirata,  G. Kedziora,  F. J. Keil,  C. Kelley,  Jihan Kim,  R. A. King,  
 R. Z. Khaliullin,  P. P. Korambath,  W. Kurlancheek,  A. M. Lee,  M. S. Lee,  
 S. V. Levchenko,  Ching Yeh Lin,  D. Liotard,  R. C. Lochan,  I. Lotan,  
 P. E. Maslen,  N. Nair,  D. P. O'Neill,  D. Neuhauser,  E. Neuscamman,  
 C. M. Oana,  R. Olson,  B. Peters,  R. Peverati,  P. A. Pieniazek,  
 Y. M. Rhee,  J. Ritchie,  M. A. Rohrdanz,  E. Rosta,  N. J. Russ,  
 H. F. Schaefer III,  N. E. Schultz,  N. Shenvi,  A. C. Simmonett,  A. Sodt,  
 D. Stuck,  K. S. Thanthiriwatte,  V. Vanovschi,  Tao Wang,  A. Warshel,  
 C. F. Williams,  Q. Wu,  X. Xu,  W. Zhang

 Please cite Q-Chem as follows:
 Y. Shao et al., Mol. Phys. 113, 184-215 (2015)
 DOI: 10.1080/00268976.2014.952696

 Q-Chem 5.2.0 for Intel X86 EM64T Linux

 Parts of Q-Chem use Armadillo 8.300.2 (Tropical Shenanigans).
 http://arma.sourceforge.net/

 Q-Chem begins on Sun Sep 26 13:04:14 2021  

Host: cori01
0

     Scratch files written to /tmp/qchem62713//Frg2//
 May1019 |scratch|qcdevops|jenkins|workspace|build_RNUM -1
Processing $rem in /global/common/cori/software/qchem/5.2/config/preferences:
	 MEM_TOTAL  96000 
NAlpha2: 50
NElect   50
Mult     1
Symmetry turned off for PCM/SM12/SMD calculation

Checking the input file for inconsistencies... 	...done.

--------------------------------------------------------------
User input:
--------------------------------------------------------------
$molecule
0 1
 6	1.2178188962	-3.4700061041	0.3850805040
 6	0.4398188962	-0.0570061041	-1.0819194960
 6	0.4998188962	-1.1150061041	-0.1839194960
 6	1.0078188962	-0.1760061041	-2.3409194960
 6	1.1498188962	-2.2930061041	-0.5369194960
 6	1.6538188962	-1.3490061041	-2.6969194960
 6	1.7068188962	-2.4050061041	-1.8029194960
 1	-0.0481811038	0.8659938959	-0.8139194960
 1	0.0908188962	-1.0170061041	0.8030805040
 1	0.9568188962	0.6469938959	-3.0409194960
 1	2.1028188962	-1.4450061041	-3.6759194960
 1	2.0108188962	-4.1320061041	0.0330805040
 1	0.2768188962	-4.0170061041	0.2990805040
 1	2.1938188962	-3.3200061041	-2.1069194960
 1	1.4010768962	-3.2436291041	1.4458205040
$end
$rem
EDA2		1
METHOD		WB97X-V
BASIS		DEF2-TZVPD
XC_GRID		000099000590
NL_GRID		1
UNRESTRICTED		FALSE
MAX_SCF_CYCLES		200
SYMMETRY		FALSE
SYM_IGNORE		TRUE
BASIS_LIN_DEP_THRESH		6
THRESH		14
SCF_CONVERGENCE		8
SCF_PRINT_FRGM		TRUE
SOLVENT_METHOD		PCM
!required keywords
JOBTYPE		SP
SYM_IGNORE		TRUE
SUBSYSTEM		TRUE
GEN_SCFMAN		TRUE
CHILD_INSTRUCTION		2
SYM_IGNORE		TRUE
SCFMI		0
RI_K 0		
PARI_K 0		
MIN_PARI_K 0		
IARI_K 0		
OCC_RI_K 0		
PURECART		1111
MEM_STATIC		2000
MEM_TOTAL		96000
GUI		0
CHILD_MP		1
CHILD_MP_ORDERS		232
FRZ_RELAX		0
FRZ_RELAX_METHOD		0
EDA_CLS_ELEC		1
EDA_CLS_DISP		0
FRZ_ORTHO_DECOMP		1
EDA2		FALSE
FRGM_METHOD		FALSE
CIS_N_ROOTS  0
LOCAL_CIS    0
CIS_RLX_DNS  1
$end
$pcm
THEORY                  CPCM
METHOD                  SWIG
SOLVER                  INVERSION
RADII                   UFF
HPOINTS                 302
HEAVYPOINTS             302
PRINTLEVEL              0
$end
$solvent
DIELECTRIC              78.390000 ! water
$end
--------------------------------------------------------------
 ----------------------------------------------------------------
             Standard Nuclear Orientation (Angstroms)
    I     Atom           X                Y                Z
 ----------------------------------------------------------------
    1      C       1.2178188962    -3.4700061041     0.3850805040
    2      C       0.4398188962    -0.0570061041    -1.0819194960
    3      C       0.4998188962    -1.1150061041    -0.1839194960
    4      C       1.0078188962    -0.1760061041    -2.3409194960
    5      C       1.1498188962    -2.2930061041    -0.5369194960
    6      C       1.6538188962    -1.3490061041    -2.6969194960
    7      C       1.7068188962    -2.4050061041    -1.8029194960
    8      H      -0.0481811038     0.8659938959    -0.8139194960
    9      H       0.0908188962    -1.0170061041     0.8030805040
   10      H       0.9568188962     0.6469938959    -3.0409194960
   11      H       2.1028188962    -1.4450061041    -3.6759194960
   12      H       2.0108188962    -4.1320061041     0.0330805040
   13      H       0.2768188962    -4.0170061041     0.2990805040
   14      H       2.1938188962    -3.3200061041    -2.1069194960
   15      H       1.4010768962    -3.2436291041     1.4458205040
 ----------------------------------------------------------------
 Nuclear Repulsion Energy =         270.83185703 hartrees
 There are       25 alpha and       25 beta electrons
 Requested basis set is def2-TZVPD
 There are 131 shells and 331 basis functions

 Total QAlloc Memory Limit  96000 MB
 Mega-Array Size      1956 MB
 MEM_STATIC part      2000 MB
 Discretize the solute cavity surface with Lebedev spheres
	Using 302 Lebedev grid points for each H atom
	Using 302 Lebedev grid points for other atoms
	Atomic van der Waals radii will be scaled by 1.20
 Remove points where switching function is < 1.0e-08
 Keep 1783 surface tesserae and discard 2747 interior tesserae
 Molecular Surface Area = 177.842 Angst**2

                       Distance Matrix (Angstroms)
             C (  1)   C (  2)   C (  3)   C (  4)   C (  5)   C (  6)
   C (  2)  3.795516
   C (  3)  2.526917  1.389017
   C (  4)  4.280842  1.386314  2.406748
   C (  5)  1.496675  2.408489  1.390968  2.785008
   C (  6)  3.766625  2.398184  2.775183  1.385634  2.410550
   C (  7)  2.482074  2.763736  2.396270  2.397183  1.387642  1.384623
   H (  8)  4.673463  1.077913  2.149783  2.128997  3.389869  3.368786
   H (  9)  2.731678  2.143974  1.072872  3.381258  2.131961  3.847492
   H ( 10)  5.362396  2.144898  3.387616  1.081633  3.866635  2.141999
   H ( 11)  4.623372  3.379489  3.856498  2.142804  3.388308  1.081322
   H ( 12)  1.091328  4.507426  3.381198  4.721422  2.109062  3.914772
   H ( 13)  1.091827  4.197062  2.950360  4.717758  2.105517  4.241506
   H ( 14)  2.680511  3.843736  3.380768  3.368395  2.146990  2.127097
   H ( 15)  1.100000  4.179480  2.828313  4.889209  2.213159  4.562430
             C (  7)   H (  8)   H (  9)   H ( 10)   H ( 11)   H ( 12)
   H (  8)  3.841560
   H (  9)  3.365893  2.485900
   H ( 10)  3.377847  2.453062  4.277287
   H ( 11)  2.141622  4.261287  4.928770  2.468401
   H ( 12)  2.538866  5.471462  3.739321  5.779207  4.580951
   H ( 13)  3.010290  5.018773  3.047722  5.776755  5.074454  1.758049
   H ( 14)  1.080190  4.921484  4.265503  4.259063  2.446562  2.296178
   H ( 15)  3.369136  4.908745  2.662281  5.955262  5.473546  1.776748
             H ( 13)   H ( 14)
   H ( 14)  3.154288
   H ( 15)  1.782437  3.640911
 
 A cutoff of  1.0D-14 yielded   8371 shell pairs
 There are     54521 function pairs (     69475 Cartesian)
 Smallest overlap matrix eigenvalue = 5.47E-07
 Linear dependence detected in AO basis
 Tighter screening thresholds may be required for diffuse basis sets
 Use S2THRESH > 14 and THRESH = 14 in case of SCF convergence issues
 Number of orthogonalized atomic orbitals = 330
 Maximum deviation from orthogonality = 2.040E-10

 Scale SEOQF with 1.000000e-01/1.000000e-01/1.000000e-01

 Standard Electronic Orientation quadrupole field applied
 Nucleus-field energy     =     0.0000000035 hartrees
 Guess from superposition of atomic densities
 Warning:  Energy on first SCF cycle will be non-variational
 SAD guess density has 49.913408 electrons

 -----------------------------------------------------------------------
  General SCF calculation program by
  Eric Jon Sundstrom, Paul Horn, Yuezhi Mao, Dmitri Zuev, Alec White,
  David Stuck, Shaama M.S., Shane Yost, Joonho Lee, David Small,
  Daniel Levine, Susi Lehtola, Hugh Burton, Evgeny Epifanovsky
 -----------------------------------------------------------------------
 Exchange:     0.1670 Hartree-Fock + 1.0000 wB97X-V + LR-HF
 Correlation:  1.0000 wB97X-V
 Using Euler-Maclaurin-Lebedev (99,590) quadrature formula
 Nonlocal Correlation:  VV10 with C = 0.0100 and b = 6.00 and scale = 1.00000
 Grid used for NLC:  SG-1 standard quadrature
Energy prior to optimization (guess energy) = -271.517599125955
Begin Timing: Total SCF Calculation
begin iterations for algorithm: DIIS         
the SCF tolerance is set to 1.00e-08
    1    -271.5175991260      2.00e-03     00000 
    2    -271.5573291064      1.29e-03     00000 
    3    -271.5802885367      1.40e-04     00000 
    4    -271.5807032020      4.96e-05     00000 
    5    -271.5807390314      1.64e-05     00000 
    6    -271.5807436926      4.22e-06     00000 
    7    -271.5807440373      1.92e-06     00000 
    8    -271.5807441005      3.49e-07     00000 
    9    -271.5807441038      6.76e-08     00000 
   10    -271.5807441039      3.82e-08     00000 
   11    -271.5807441040      8.68e-09     00000 Convergence criterion met
Timing for Total SCF: 1270.00s (wall), 2525.90s (cpu)

************** Final PCM Free Energy Summary **************
 G_electrostatic  =      -0.00242689 hartree =      -1.52289608 kcal/mol
 G_cavitation     =       0.00000000 hartree =       0.00000000 kcal/mol
 G_dispersion     =       0.00000000 hartree =       0.00000000 kcal/mol
 G_repulsion      =       0.00000000 hartree =       0.00000000 kcal/mol
 --------------------------------------------------
 Non-electrostatic Free Energy =       0.00000000 hartree =       0.00000000 kcal/mol
 Total                         =      -0.00242689 hartree =      -1.52289608 kcal/mol
 --------------------------------------------------
 SCF Energy (H0 + V/2)                       =    -271.58074410 
 Solute Internal Energy (H0)                 =    -271.57831721 
 Total Free Energy (H0 + V/2 + non-elec)     =    -271.58074410 hartree
                                             = -170419.48906646 kcal/mol
***********************************************************

E_pcm = -0.0024268894
Multipole orders to be included
        2
        3
computing dipole RHS
computing quadrupole RHS
total number of RHS in solve_reponses: 8
RHS batch sizes
        8
Beginning Block Conjugate Gradient Iterations. Batch Number: 0
computing hessian-vector products by finite difference
              1      5.70e-01     00000 Conjugate Gradient Iteration
computing hessian-vector products by finite difference
              2      1.84e-01     00000 Conjugate Gradient Iteration
computing hessian-vector products by finite difference
              3      4.30e-02     00000 Conjugate Gradient Iteration
computing hessian-vector products by finite difference
              4      1.00e-02     00000 Conjugate Gradient Iteration
computing hessian-vector products by finite difference
              5      2.05e-03     00000 Conjugate Gradient Iteration
computing hessian-vector products by finite difference
              6      6.02e-04     00000 Conjugate Gradient Iteration
computing hessian-vector products by finite difference
              7      1.45e-04     00000 Conjugate Gradient Iteration
computing hessian-vector products by finite difference
              8      2.21e-05     00000 Conjugate Gradient Iteration
computing hessian-vector products by finite difference
              9      3.67e-06     00000 Conjugate Gradient Iteration
computing hessian-vector products by finite difference
             10      5.29e-07     00000 Conjugate Gradient Iteration
computing hessian-vector products by finite difference
             11      8.08e-08     00000 Conjugate Gradient Iteration
computing hessian-vector products by finite difference
             12      1.31e-08     00000 Conjugate Gradient Iteration
computing hessian-vector products by finite difference
             13      2.82e-09     00000 CG Converged
batch 0 complete
Done Calculating Responses
TESTING ORTHOGONALIZATION OF MULTIPOLE BASIS
Multipole virts passed orthogonality test
Virts Per Order
           75
          125
 
 --------------------------------------------------------------
 
                    Orbital Energies (a.u.)
 --------------------------------------------------------------
 
 Alpha MOs
 -- Occupied --
-10.2805 -10.2720 -10.2710 -10.2684 -10.2683 -10.2671 -10.2621  -1.0002
 -0.9094  -0.8807  -0.8142  -0.7319  -0.7064  -0.6319  -0.5756  -0.5677
 -0.5365  -0.5311  -0.5160  -0.4875  -0.4741  -0.4423  -0.4416  -0.3503
 -0.3380
 -- Virtual --
  0.0629   0.0642   0.0696   0.0790   0.0843   0.1044   0.1103   0.1136
  0.1350   0.1513   0.1650   0.1680   0.1864   0.1895   0.1946   0.2002
  0.2211   0.2288   0.2347   0.2402   0.2436   0.2585   0.2599   0.2696
  0.2753   0.2801   0.2826   0.2918   0.2946   0.3021   0.3054   0.3126
  0.3232   0.3244   0.3303   0.3349   0.3485   0.3544   0.3674   0.3718
  0.3773   0.3824   0.3829   0.3889   0.3917   0.3975   0.4037   0.4077
  0.4126   0.4259   0.4315   0.4352   0.4442   0.4469   0.4518   0.4589
  0.4662   0.4707   0.4753   0.4821   0.4903   0.4979   0.5113   0.5156
  0.5190   0.5247   0.5328   0.5361   0.5428   0.5477   0.5499   0.5682
  0.5826   0.5862   0.5910   0.6004   0.6048   0.6212   0.6426   0.6497
  0.6660   0.6751   0.6771   0.6806   0.6883   0.7013   0.7197   0.7230
  0.7256   0.7297   0.7423   0.7622   0.7634   0.7684   0.7759   0.7847
  0.7918   0.7972   0.7996   0.8001   0.8096   0.8226   0.8243   0.8331
  0.8353   0.8373   0.8490   0.8574   0.8605   0.8716   0.8820   0.8886
  0.9162   0.9246   0.9354   0.9481   0.9491   0.9992   1.0192   1.0431
  1.0461   1.0622   1.0714   1.0772   1.0854   1.0958   1.1038   1.1481
  1.1686   1.1720   1.2458   1.2841   1.2993   1.3214   1.3490   1.3517
  1.3845   1.4375   1.4463   1.4640   1.4700   1.4762   1.5291   1.5413
  1.6000   1.6029   1.6195   1.6228   1.6666   1.6789   1.7390   1.7805
  1.7843   1.7953   1.8036   1.8178   1.8345   1.8628   1.8740   1.9067
  1.9202   1.9333   1.9533   1.9661   1.9838   2.0005   2.0151   2.0256
  2.0374   2.0445   2.0683   2.0957   2.1125   2.1241   2.1703   2.1830
  2.2002   2.2196   2.2558   2.2659   2.2901   2.3156   2.3858   2.4047
  2.4123   2.4147   2.4718   2.5009   2.5477   2.5514   2.5731   2.5946
  2.6342   2.6443   2.6464   2.6816   2.7054   2.7142   2.7614   2.7763
  2.7898   2.8163   2.8265   2.8457   2.8624   2.9040   2.9090   2.9146
  2.9277   2.9435   2.9633   2.9872   2.9940   3.0146   3.0206   3.0560
  3.0657   3.0824   3.0995   3.1511   3.1714   3.1850   3.1993   3.2173
  3.2278   3.2516   3.2873   3.3084   3.3407   3.3531   3.3652   3.3807
  3.4026   3.4352   3.4402   3.4528   3.4600   3.4844   3.4941   3.5039
  3.5106   3.5367   3.5401   3.5522   3.5606   3.5735   3.5810   3.6059
  3.6250   3.6372   3.6663   3.6968   3.7213   3.7499   3.7787   3.8235
  3.8362   3.9048   3.9127   3.9597   3.9690   3.9832   4.0416   4.0725
  4.1236   4.2047   4.2707   4.2841   4.2997   4.3155   4.3265   4.3440
  4.3624   4.3799   4.3962   4.4224   4.4529   4.4571   4.4912   4.5453
  4.6123   4.6489   4.7641   4.7724   4.8367   4.8846   4.9123   4.9534
  5.0369   5.0501   5.1799   5.2765   5.3922   5.4040   5.4997   5.5355
  5.6816   5.8516  22.5749  22.6798  22.9054  22.9186  23.0385  23.1024
 23.4538
 --------------------------------------------------------------
 
          Ground-State Mulliken Net Atomic Charges

     Atom                 Charge (a.u.)
  ----------------------------------------
      1 C                    -1.056150
      2 C                    -0.443391
      3 C                    -0.393524
      4 C                    -0.464259
      5 C                     0.898575
      6 C                    -0.531095
      7 C                    -0.350790
      8 H                     0.315241
      9 H                     0.345638
     10 H                     0.326888
     11 H                     0.306474
     12 H                     0.270584
     13 H                     0.209413
     14 H                     0.290115
     15 H                     0.276281
  ----------------------------------------
  Sum of atomic charges =     0.000000

 -----------------------------------------------------------------
                    Cartesian Multipole Moments
 -----------------------------------------------------------------
    Charge (ESU x 10^10)
                 0.0000
    Dipole Moment (Debye)
         X      -0.0105      Y      -0.4115      Z       0.2866
       Tot       0.5015
    Quadrupole Moments (Debye-Ang)
        XX     -44.3656     XY      -2.7978     YY     -37.8664
        XZ      -2.0987     YZ      -1.1121     ZZ     -39.7391
    Octopole Moments (Debye-Ang^2)
       XXX    -146.4015    XXY      63.6483    XYY     -36.5789
       YYY     188.7793    XXZ      46.5249    XYZ       5.2994
       YYZ      45.4862    XZZ     -35.8721    YZZ      67.5448
       ZZZ     134.0371
    Hexadecapole Moments (Debye-Ang^3)
      XXXX    -453.9643   XXXY     265.4271   XXYY    -237.4024
      XYYY     232.8935   YYYY   -1071.2709   XXXZ     195.5559
      XXYZ     -32.8630   XYYZ      46.9271   YYYZ    -125.8576
      XXZZ    -177.8805   XYZZ      71.2474   YYZZ    -301.3625
      XZZZ     153.1039   YZZZ    -138.4099   ZZZZ    -680.7504
 -----------------------------------------------------------------
Archival summary:
1\1\nid00543\SP\ProcedureUnspecified\BasisUnspecified\78\meili\SunSep2621:01:412021SunSep2621:01:412021\0\\#,ProcedureUnspecified,BasisUnspecified,\\0,1\C\C,1,1.38764\H,2,1.08019,1,120.404\C,2,1.38462,1,120.807,3,-179.784,0\H,4,1.08132,2,120.064,1,179.223,0\C,4,1.38563,2,119.841,1,-1.68213,0\H,6,1.08163,4,119.989,2,-179.418,0\C,6,1.38631,4,119.802,2,1.21321,0\H,8,1.07791,6,118.999,4,179.198,0\C,8,1.38902,6,120.268,4,-0.894319,0\H,10,1.07287,8,120.578,6,177.949,0\C,1,1.49668,2,118.706,3,-1.02315,0\H,12,1.09133,1,108.141,2,19.7533,0\H,12,1.09183,1,107.837,2,-95.9484,0\H,12,1.1,1,116.089,2,141.711,0\\\@

 Total job time:  28650.56s(wall), 56613.38s(cpu) 
 Sun Sep 26 21:01:45 2021

        *************************************************************
        *                                                           *
        *  Thank you very much for using Q-Chem.  Have a nice day.  *
        *                                                           *
        *************************************************************


Done Job For Fragment 1
calling putenv with: QCSCRATCH=/global/cscratch1/sd/meili 
calling putenv with: QCLOCALSCR=/tmp 
calling putenv with: QCTHREADS=32 
Doing General SCFMI
 Exchange:     0.1670 Hartree-Fock + 1.0000 wB97X-V + LR-HF
 Correlation:  1.0000 wB97X-V
 Using Euler-Maclaurin-Lebedev (99,590) quadrature formula
 Nonlocal Correlation:  VV10 with C = 0.0100 and b = 6.00 and scale = 1.00000
 Grid used for NLC:  SG-1 standard quadrature
performing fock build before subrot guess so that all methods have access
Printing subrot_rss_gen Method Specification:
Occupied Subspace Method is 0
Virtual Subspace Method is 0
Energy of the unrelaxed supersystem initial determinant -520.121297338452
performing fock build before subrot guess so that all methods have access
Printing subrot_rss_gen Method Specification:
Occupied Subspace Method is 0
Virtual Subspace Method is 0
Energy of the unrelaxed supersystem initial determinant w/ solvent -520.134709876512
write pseudocanon occs and virts to disk
write pseudocanon orbital energies to disk
Tolerance of ortho_decomp_scf: 1.00e-06
GDM subspace size: 20
Beginning the Orthogonal Decomposition of the Initial Supersystem Wavefunction
    1    -520.1019508016      2.66e-02     ortho_decomp Preconditoned Steepest Descent
    2    -520.1042471225      7.34e-04     ortho_decomp BFGS Step
    3    -520.1042558091      5.38e-05     ortho_decomp BFGS Step
    4    -520.1042558216      2.12e-06     ortho_decomp BFGS Step
    5    -520.1042558216      7.56e-08     ortho_decomp 00000 Convergence criterion met
 Hartree-Fock
 Hartree-Fock
 Hartree-Fock
Doing General SCFMI
 Exchange:     0.1670 Hartree-Fock + 1.0000 wB97X-V + LR-HF
 Correlation:  1.0000 wB97X-V
 Using Euler-Maclaurin-Lebedev (99,590) quadrature formula
 Nonlocal Correlation:  VV10 with C = 0.0100 and b = 6.00 and scale = 1.00000
 Grid used for NLC:  SG-1 standard quadrature
performing fock build at end of subrot_r(subrot) constructor so that all methods have access
<S^2> of initial wavefunction before polarization iterations 0.0000000000
Beginning iterations for the determination of the polarized wavefunction
Energy prior to optimization (guess energy) = -520.134709876512
Begin Timing: Total SCF Calculation
begin iterations for algorithm: DIIS         
the SCF tolerance is set to 1.00e-08
    1    -520.1347098765      6.13e-05     00000 
    2    -520.1350372975      2.49e-05     00000 
    3    -520.1350642596      1.71e-05     00000 
    4    -520.1350754120      5.97e-06     00000 
    5    -520.1350772103      2.33e-06     00000 
    6    -520.1350776619      9.90e-07     00000 
    7    -520.1350777462      3.69e-07     00000 
    8    -520.1350777561      1.75e-07     00000 
    9    -520.1350777578      6.25e-08     00000 
   10    -520.1350777580      2.51e-08     00000 
   11    -520.1350777580      1.21e-08     00000 
   12    -520.1350777581      4.58e-09     00000 Convergence criterion met
write pseudocanon occs and virts to disk
write pseudocanon orbital energies to disk
Timing for Total SCF: 6962.00s (wall), 13849.13s (cpu)
<S^2> of polarized wavefunction after polarization iterations 0.0000000000
relaxing scfmi constraint to allow all rotations in the entire AO span
Doing General SCFMI
 Exchange:     0.1670 Hartree-Fock + 1.0000 wB97X-V + LR-HF
 Correlation:  1.0000 wB97X-V
 Using Euler-Maclaurin-Lebedev (99,590) quadrature formula
 Nonlocal Correlation:  VV10 with C = 0.0100 and b = 6.00 and scale = 1.00000
 Grid used for NLC:  SG-1 standard quadrature
performing fock build at end of subrot_r(subrot) constructor so that all methods have access
<S^2> of polarized wavefunction before ct-allowed iterations 0.0000000000
Beginning iterations for the determination of the CT-Allowed wavefunction
Energy prior to optimization (guess energy) = -520.135077758054
Begin Timing: Total SCF Calculation
begin iterations for algorithm: DIIS         
the SCF tolerance is set to 1.00e-08
    1    -520.1350777581      8.16e-05     00000 
    2    -520.1361764208      8.86e-06     00000 
    3    -520.1362071159      1.69e-06     00000 
    4    -520.1362077132      1.68e-06     00000 
    5    -520.1362080374      1.84e-07     00000 
    6    -520.1362080443      9.94e-08     00000 
    7    -520.1362080461      1.66e-08     00000 
    8    -520.1362080462      7.45e-09     00000 Convergence criterion met
write pseudocanon occs and virts to disk
write pseudocanon orbital energies to disk
Timing for Total SCF: 4454.00s (wall), 8864.19s (cpu)
<S^2> of ct_allowed wavefunction after ct-allowed iterations 0.0000000000

================================
        Results of EDA2         
================================
Basic EDA Quantities
--------------------
Fragment Energies (Ha):
1 -248.5536399352
2 -271.5807441040
--------------------
  E_prp (kJ/mol) = 0.0000
  E_sol (kJ/mol) = 0.5640
  E_frz (kJ/mol) = -1.4195
  E_pol (kJ/mol) = -0.9659
  E_vct (kJ/mol) = -2.9676
  E_int (kJ/mol) = -4.7890
--------------------


Initial Wavefunction Decomposition
--------------------
  --------------------
  Orthogonal Fragment Subspace Decomposition:
  --------------------
     E_elec   (ELEC)   (kJ/mol) = -19.7670
     E_pauli  (PAULI)  (kJ/mol) = 33.5840
     E_disp   (DISP)   (kJ/mol) = -15.2365
     --------------------
     Terms summing to E_pauli:
     --------------------
        E_kep_pauli       (kJ/mol) = 43.3236
        E_disp_free_pauli (kJ/mol) = -9.7396
  --------------------
  Classical Frozen Decomposition:
  --------------------
     E_cls_elec  (CLS ELEC)  (kJ/mol) = -6.0545
     E_cls_pauli (CLS PAULI) (kJ/mol) = 4.6350
    [E_mod_pauli (MOD PAULI) (kJ/mol) = 19.8714 (CLS PAULI - DISP from orthogonal decomposition) ]
  --------------------
--------------------

Simplified EDA Summary (kJ/mol)
--------------------
 PREPARATION     0.0000
 SOLVATION       0.5640
 FROZEN          13.8170      (does not include dispersion)
[PAULI           33.5840]     (if this is negligible, then frozen describes electrostatics)
 DISPERSION      -15.2365
 POLARIZATION    -0.9659
 CHARGE TRANSFER -2.9676
 TOTAL           -4.7890     (PRP + SOL + FRZ + DISP + POL + CT)
--------------------
 
 --------------------------------------------------------------
 
                    Orbital Energies (a.u.)
 --------------------------------------------------------------
 
 Alpha MOs
 -- Occupied --
-19.1803 -14.4370 -10.3767 -10.2807 -10.2768 -10.2710 -10.2707 -10.2686
-10.2680 -10.2670 -10.2622 -10.2566  -1.1741  -1.0479  -1.0001  -0.9161
 -0.9092  -0.8807  -0.8142  -0.7855  -0.7320  -0.7085  -0.7047  -0.6587
 -0.6327  -0.6068  -0.5812  -0.5753  -0.5689  -0.5397  -0.5366  -0.5286
 -0.5190  -0.5132  -0.4876  -0.4841  -0.4772  -0.4736  -0.4430  -0.4413
 -0.4333  -0.3846  -0.3704  -0.3500  -0.3379
 -- Virtual --
  0.0552   0.0622   0.0671   0.0700   0.0740   0.0820   0.0879   0.0916
  0.1018   0.1061   0.1175   0.1204   0.1251   0.1276   0.1362   0.1438
  0.1513   0.1579   0.1634   0.1705   0.1710   0.1819   0.1867   0.1918
  0.1979   0.2048   0.2116   0.2136   0.2186   0.2244   0.2266   0.2332
  0.2362   0.2432   0.2437   0.2496   0.2543   0.2574   0.2650   0.2692
  0.2726   0.2761   0.2775   0.2841   0.2871   0.2890   0.2948   0.2970
  0.3019   0.3056   0.3084   0.3132   0.3230   0.3259   0.3282   0.3344
  0.3388   0.3408   0.3428   0.3462   0.3492   0.3515   0.3548   0.3587
  0.3609   0.3632   0.3690   0.3733   0.3780   0.3791   0.3831   0.3874
  0.3900   0.3957   0.3971   0.3996   0.4055   0.4071   0.4116   0.4171
  0.4215   0.4304   0.4327   0.4366   0.4369   0.4427   0.4438   0.4490
  0.4537   0.4584   0.4618   0.4653   0.4670   0.4728   0.4775   0.4804
  0.4859   0.4891   0.4940   0.4991   0.4997   0.5025   0.5136   0.5167
  0.5178   0.5244   0.5288   0.5302   0.5338   0.5357   0.5392   0.5431
  0.5490   0.5544   0.5562   0.5592   0.5621   0.5729   0.5757   0.5793
  0.5837   0.5922   0.5944   0.5990   0.6074   0.6109   0.6158   0.6236
  0.6299   0.6421   0.6447   0.6465   0.6541   0.6652   0.6697   0.6754
  0.6802   0.6846   0.6875   0.6933   0.6992   0.7046   0.7083   0.7102
  0.7181   0.7276   0.7293   0.7380   0.7395   0.7449   0.7465   0.7510
  0.7546   0.7635   0.7701   0.7740   0.7749   0.7813   0.7840   0.7843
  0.7953   0.8002   0.8013   0.8064   0.8086   0.8143   0.8180   0.8226
  0.8295   0.8316   0.8365   0.8426   0.8442   0.8497   0.8538   0.8587
  0.8626   0.8684   0.8699   0.8725   0.8777   0.8858   0.8898   0.8961
  0.9050   0.9142   0.9173   0.9272   0.9334   0.9406   0.9445   0.9507
  0.9694   0.9766   0.9874   0.9927   1.0017   1.0024   1.0105   1.0178
  1.0260   1.0461   1.0478   1.0624   1.0689   1.0714   1.0809   1.0945
  1.1000   1.1053   1.1190   1.1232   1.1284   1.1381   1.1394   1.1436
  1.1518   1.1630   1.1685   1.1732   1.1987   1.2116   1.2318   1.2379
  1.2686   1.2759   1.2809   1.3079   1.3185   1.3248   1.3346   1.3446
  1.3540   1.3679   1.3775   1.3931   1.3964   1.4128   1.4194   1.4600
  1.4726   1.4785   1.4871   1.4965   1.5018   1.5187   1.5347   1.5405
  1.5514   1.5668   1.5834   1.5949   1.6092   1.6418   1.6453   1.6596
  1.6861   1.6975   1.7021   1.7144   1.7313   1.7930   1.7983   1.8075
  1.8170   1.8217   1.8436   1.8649   1.8797   1.8895   1.8949   1.8990
  1.9269   1.9311   1.9455   1.9481   1.9582   1.9668   1.9728   1.9828
  1.9885   1.9935   2.0009   2.0044   2.0243   2.0339   2.0444   2.0467
  2.0538   2.0573   2.0704   2.0820   2.0983   2.1133   2.1257   2.1297
  2.1411   2.1533   2.1635   2.1798   2.1897   2.1978   2.2111   2.2304
  2.2384   2.2574   2.2655   2.2730   2.2858   2.2926   2.2970   2.3237
  2.3403   2.3491   2.3621   2.3984   2.4065   2.4208   2.4310   2.4372
  2.4377   2.4423   2.4668   2.4982   2.5048   2.5287   2.5387   2.5631
  2.5682   2.5745   2.6017   2.6025   2.6223   2.6363   2.6439   2.6629
  2.6690   2.6888   2.7027   2.7225   2.7251   2.7405   2.7653   2.7733
  2.7827   2.7855   2.7910   2.7996   2.8121   2.8251   2.8435   2.8535
  2.8693   2.8757   2.8895   2.8986   2.9151   2.9238   2.9267   2.9370
  2.9415   2.9487   2.9624   2.9762   2.9825   3.0077   3.0181   3.0268
  3.0358   3.0543   3.0590   3.0781   3.0953   3.1066   3.1136   3.1226
  3.1503   3.1566   3.1741   3.1870   3.2019   3.2081   3.2226   3.2281
  3.2411   3.2485   3.2599   3.2676   3.2735   3.2954   3.3024   3.3128
  3.3282   3.3415   3.3659   3.3678   3.3782   3.3807   3.3943   3.3977
  3.4065   3.4192   3.4405   3.4519   3.4591   3.4700   3.4800   3.4823
  3.4931   3.4999   3.5181   3.5216   3.5331   3.5422   3.5476   3.5533
  3.5658   3.5715   3.5735   3.5794   3.5858   3.6002   3.6203   3.6259
  3.6384   3.6478   3.6580   3.6798   3.6898   3.7041   3.7174   3.7317
  3.7426   3.7527   3.7866   3.7955   3.8260   3.8326   3.8412   3.8546
  3.9037   3.9186   3.9284   3.9686   3.9706   3.9978   4.0037   4.0359
  4.0507   4.0815   4.0940   4.1327   4.1512   4.1879   4.1920   4.2294
  4.2644   4.2902   4.2993   4.3105   4.3200   4.3370   4.3466   4.3534
  4.3653   4.3723   4.3856   4.4113   4.4297   4.4393   4.4694   4.4784
  4.5091   4.5425   4.5588   4.5792   4.6300   4.6423   4.6578   4.6683
  4.7722   4.7837   4.7839   4.8413   4.8458   4.8765   4.8940   4.9029
  4.9381   4.9454   4.9837   5.0058   5.0515   5.0793   5.0914   5.1954
  5.2138   5.2273   5.2901   5.3037   5.3734   5.3817   5.3965   5.4132
  5.4293   5.4413   5.5077   5.5363   5.5678   5.5807   5.7081   5.7923
  5.8318   5.9306   6.1581   6.2742   6.5536   6.7034   6.7838   6.8688
  7.0238   7.2619   7.3489  22.6479  22.6978  22.7140  22.8186  22.9421
 22.9562  23.0649  23.1322  23.4781  23.6547  32.5361  44.4674
 --------------------------------------------------------------
 
          Ground-State Mulliken Net Atomic Charges

     Atom                 Charge (a.u.)
  ----------------------------------------
      1 C                     0.090613
      2 C                    -0.984768
      3 C                     0.177729
      4 O                    -0.597844
      5 N                    -0.242535
      6 H                     0.269942
      7 H                     0.134029
      8 H                     0.251105
      9 H                     0.261844
     10 H                     0.239042
     11 H                     0.204457
     12 H                     0.220316
     13 C                    -1.097007
     14 C                     0.011342
     15 C                    -0.242115
     16 C                    -0.594277
     17 C                     0.316923
     18 C                    -0.416164
     19 C                    -0.387942
     20 H                     0.265860
     21 H                     0.345173
     22 H                     0.355654
     23 H                     0.324619
     24 H                     0.284600
     25 H                     0.217541
     26 H                     0.314501
     27 H                     0.277364
  ----------------------------------------
  Sum of atomic charges =     0.000000

 -----------------------------------------------------------------
                    Cartesian Multipole Moments
 -----------------------------------------------------------------
    Charge (ESU x 10^10)
                -0.0000
    Dipole Moment (Debye)
         X       3.4699      Y       2.0144      Z       3.0865
       Tot       5.0621
    Quadrupole Moments (Debye-Ang)
        XX     -85.0285     XY       3.5311     YY     -54.4422
        XZ      -2.7767     YZ       5.6859     ZZ     -64.7372
    Octopole Moments (Debye-Ang^2)
       XXX       6.3989    XXY     -14.1899    XYY      19.2684
       YYY      79.5188    XXZ      -1.4839    XYZ       5.9907
       YYZ      16.2132    XZZ       5.6252    YZZ      21.0664
       ZZZ       2.3230
    Hexadecapole Moments (Debye-Ang^3)
      XXXX   -1001.4284   XXXY     518.7309   XXYY    -512.1173
      XYYY     463.5761   YYYY   -1683.5655   XXXZ     405.6003
      XXYZ    -101.9909   XYYZ     128.4355   YYYZ    -283.0215
      XXZZ    -371.7988   XYZZ     142.9590   YYZZ    -525.8552
      XZZZ     357.4994   YZZZ    -328.4003   ZZZZ   -1318.1918
 -----------------------------------------------------------------
Archival summary:
1\1\nid00543\SP\ProcedureUnspecified\BasisUnspecified\111015\meili\MonSep2702:43:282021MonSep2702:43:282021\0\\#,ProcedureUnspecified,BasisUnspecified,\\0,1\O\C,1,1.23162\N,2,1.32197,1,121.876\H,3,1.00982,2,117.72,1,-2.56605,0\H,3,1.01603,2,122.929,1,179.487,0\C,2,1.51649,1,121.401,3,-178.913,0\H,6,1.08329,2,109.009,1,86.8295,0\H,6,1.09092,2,109.47,1,-156.65,0\C,6,1.51611,2,111.144,1,-36.3416,0\H,9,1.07714,6,112.445,2,28.9954,0\H,9,1.09149,6,103.293,2,-73.8041,0\H,9,1.1,6,115.628,2,171.526,0\H,7,2.07025,6,139.585,2,-78.7567,0\C,13,1.07287,7,126.952,6,106.774,0\C,14,1.38902,13,120.578,7,-27.784,0\H,15,1.07791,14,120.733,13,-2.14454,0\C,15,1.38631,14,120.268,13,177.949,0\H,17,1.08163,15,120.206,14,179.739,0\C,17,1.38563,15,119.802,14,-0.894319,0\H,19,1.08132,17,120.09,15,-179.692,0\C,19,1.38462,17,119.841,15,1.21321,0\H,21,1.08019,19,118.789,17,178.531,0\C,21,1.38764,19,120.807,17,-1.68213,0\C,23,1.49668,21,118.706,19,179.193,0\H,24,1.09133,23,108.141,21,19.7533,0\H,24,1.09183,23,107.837,21,-95.9484,0\H,24,1.1,23,116.089,21,141.711,0\\\@

 Total job time:  61709.03s(wall), 40831.88s(cpu) 
 Mon Sep 27 02:43:31 2021

        *************************************************************
        *                                                           *
        *  Thank you very much for using Q-Chem.  Have a nice day.  *
        *                                                           *
        *************************************************************


