                  Welcome to Q-Chem
     A Quantum Leap Into The Future Of Chemistry


 Q-Chem 5.2 (devel), Q-Chem, Inc., Pleasanton, CA (2019)

 Yihan Shao,  Zhengting Gan,  E. Epifanovsky,  A. T. B. Gilbert,  M. Wormit,  
 J. Kussmann,  A. W. Lange,  A. Behn,  Jia Deng,  Xintian Feng,  D. Ghosh,  
 M. Goldey,  P. R. Horn,  L. D. Jacobson,  I. Kaliman,  T. Kus,  A. Landau,  
 Jie Liu,  E. I. Proynov,  R. M. Richard,  R. P. Steele,  E. J. Sundstrom,  
 H. L. Woodcock III,  P. M. Zimmerman,  D. Zuev,  B. Albrecht,  E. Alguire,  
 S. A. Baeppler,  D. Barton,  Z. Benda,  Y. A. Bernard,  E. J. Berquist,  
 K. B. Bravaya,  H. Burton,  D. Casanova,  Chun-Min Chang,  Yunqing Chen,  
 A. Chien,  K. D. Closser,  M. P. Coons,  S. Coriani,  S. Dasgupta,  
 A. L. Dempwolff,  M. Diedenhofen,  Hainam Do,  R. G. Edgar,  Po-Tung Fang,  
 S. Faraji,  S. Fatehi,  Qingguo Feng,  K. D. Fenk,  J. Fosso-Tande,  
 J. Gayvert,  Qinghui Ge,  A. Ghysels,  G. Gidofalvi,  J. Gomes,  
 J. Gonthier,  A. Gunina,  D. Hait,  M. W. D. Hanson-Heine,  
 P. H. P. Harbach,  A. W. Hauser,  M. F. Herbst,  J. E. Herr,  
 E. G. Hohenstein,  Z. C. Holden,  Kerwin Hui,  B. C. Huynh,  T.-C. Jagau,  
 Hyunjun Ji,  B. Kaduk,  K. Khistyaev,  Jaehoon Kim,  P. Klunzinger,  K. Koh,  
 D. Kosenkov,  L. Koulias,  T. Kowalczyk,  C. M. Krauter,  A. Kunitsa,  
 Ka Un Lao,  A. Laurent,  K. V. Lawler,  Joonho Lee,  D. Lefrancois,  
 S. Lehtola,  D. S. Levine,  Yi-Pei Li,  You-Sheng Lin,  Fenglai Liu,  
 E. Livshits,  A. Luenser,  P. Manohar,  E. Mansoor,  S. F. Manzer,  
 Shan-Ping Mao,  Yuezhi Mao,  N. Mardirossian,  A. V. Marenich,  
 T. Markovich,  L. A. Martinez-Martinez,  S. A. Maurer,  N. J. Mayhall,  
 S. C. McKenzie,  J.-M. Mewes,  P. Morgante,  A. F. Morrison,  
 J. W. Mullinax,  K. Nanda,  T. S. Nguyen-Beck,  R. Olivares-Amaya,  
 J. A. Parkhill,  Zheng Pei,  T. M. Perrine,  F. Plasser,  P. Pokhilko,  
 S. Prager,  A. Prociuk,  E. Ramos,  D. R. Rehn,  F. Rob,  M. Scheurer,  
 M. Schneider,  N. Sergueev,  S. M. Sharada,  S. Sharma,  D. W. Small,  
 T. Stauch,  T. Stein,  Yu-Chuan Su,  A. J. W. Thom,  A. Tkatchenko,  
 T. Tsuchimochi,  N. M. Tubman,  L. Vogt,  M. L. Vidal,  O. Vydrov,  
 M. A. Watson,  J. Wenzel,  M. de Wergifosse,  T. A. Wesolowski,  A. White,  
 J. Witte,  A. Yamada,  Jun Yang,  K. Yao,  S. Yeganeh,  S. R. Yost,  
 Zhi-Qiang You,  A. Zech,  Igor Ying Zhang,  Xing Zhang,  Yan Zhao,  
 Ying Zhu,  B. R. Brooks,  G. K. L. Chan,  C. J. Cramer,  M. S. Gordon,  
 W. J. Hehre,  A. Klamt,  M. W. Schmidt,  C. D. Sherrill,  D. G. Truhlar,  
 A. Aspuru-Guzik,  R. Baer,  A. T. Bell,  N. A. Besley,  Jeng-Da Chai,  
 A. E. DePrince, III,  R. A. DiStasio Jr.,  A. Dreuw,  B. D. Dunietz,  
 T. R. Furlani,  Chao-Ping Hsu,  Yousung Jung,  Jing Kong,  D. S. Lambrecht,  
 WanZhen Liang,  C. Ochsenfeld,  V. A. Rassolov,  L. V. Slipchenko,  
 J. E. Subotnik,  T. Van Voorhis,  J. M. Herbert,  A. I. Krylov,  
 P. M. W. Gill,  M. Head-Gordon

 Contributors to earlier versions of Q-Chem not listed above: 
 R. D. Adamson,  B. Austin,  J. Baker,  G. J. O. Beran,  K. Brandhorst,  
 S. T. Brown,  E. F. C. Byrd,  A. K. Chakraborty,  C.-L. Cheng,  
 Siu Hung Chien,  D. M. Chipman,  D. L. Crittenden,  H. Dachsel,  
 R. J. Doerksen,  A. D. Dutoi,  L. Fusti-Molnar,  W. A. Goddard III,  
 A. Golubeva-Zadorozhnaya,  S. R. Gwaltney,  G. Hawkins,  A. Heyden,  
 S. Hirata,  G. Kedziora,  F. J. Keil,  C. Kelley,  Jihan Kim,  R. A. King,  
 R. Z. Khaliullin,  P. P. Korambath,  W. Kurlancheek,  A. M. Lee,  M. S. Lee,  
 S. V. Levchenko,  Ching Yeh Lin,  D. Liotard,  R. C. Lochan,  I. Lotan,  
 P. E. Maslen,  N. Nair,  D. P. O'Neill,  D. Neuhauser,  E. Neuscamman,  
 C. M. Oana,  R. Olson,  B. Peters,  R. Peverati,  P. A. Pieniazek,  
 Y. M. Rhee,  J. Ritchie,  M. A. Rohrdanz,  E. Rosta,  N. J. Russ,  
 H. F. Schaefer III,  N. E. Schultz,  N. Shenvi,  A. C. Simmonett,  A. Sodt,  
 D. Stuck,  K. S. Thanthiriwatte,  V. Vanovschi,  Tao Wang,  A. Warshel,  
 C. F. Williams,  Q. Wu,  X. Xu,  W. Zhang

 Please cite Q-Chem as follows:
 Y. Shao et al., Mol. Phys. 113, 184-215 (2015)
 DOI: 10.1080/00268976.2014.952696

 Q-Chem 5.2.1 for Intel X86 EM64T Linux

 Parts of Q-Chem use Armadillo 8.300.2 (Tropical Shenanigans).
 http://arma.sourceforge.net/

 Q-Chem begins on Tue Sep 28 22:13:00 2021  

compute-0-0.local
Host: 0

     Scratch files written to /home/meili/scratch/qchem52513//
NAlpha2: 120
NElect   120
Mult     1
Symmetry turned off for PCM/SM12/SMD calculation

 Q-Chem warning in module libgen/rem_setup.C, line 2813:

 Neither GIA nor STOLL is specified by user. Use STOLL as the default


Checking the input file for inconsistencies... 	...done.

--------------------------------------------------------------
User input:
--------------------------------------------------------------
$comment
SSI-032TRP-073PHE-1.pdb
$end

$molecule
0 1
--
0 1
C    1.143914032639    3.585653403536    0.064902700754
C    1.577914032639    0.997653403536    0.260902700754
C    1.820914032639    2.305653403536   -0.283097299246
C    2.437914032639    0.094653403536   -0.431097299246
C    2.777914032639    2.144653403536   -1.232097299246
C    0.718914032639    0.496653403536    1.241902700754
C    2.459914032639   -1.272346596464   -0.171097299246
C    0.748914032639   -0.869346596464    1.505902700754
C    1.615914032639   -1.744346596464    0.820902700754
N    3.166914032639    0.829653403536   -1.331097299246
H    0.010914032639    1.146653403536    1.721902700754
H    0.115914032639    3.343653403536    0.335902700754
H    1.072914032639    4.174653403536   -0.851097299246
H    3.137914032639    2.947653403536   -1.862097299246
H    3.737914032639    0.433653403536   -2.073097299246
H    3.112914032639   -1.934346596464   -0.718097299246
H    0.085914032639   -1.277346596464    2.239902700754
H    1.603914032639   -2.798346596464    1.043902700754
H    1.560344032639    4.238082403536    0.846522700754
--
0 1
C   -2.308085967361   -3.216346596464    0.948902700754
C   -1.833085967361   -0.097346596464   -1.175097299246
C   -1.665085967361   -1.392346596464   -0.674097299246
C   -2.856085967361    0.734653403536   -0.756097299246
C   -2.525085967361   -1.874346596464    0.315902700754
C   -3.737085967361    0.245653403536    0.202902700754
C   -3.573085967361   -1.037346596464    0.732902700754
H   -1.119085967361    0.276653403536   -1.893097299246
H   -0.829085967361   -1.989346596464   -1.010097299246
H   -2.959085967361    1.735653403536   -1.143097299246
H   -4.528085967361    0.878653403536    0.569902700754
H   -2.724085967361   -3.184346596464    1.956902700754
H   -1.234085967361   -3.357346596464    1.053902700754
H   -4.253085967361   -1.379346596464    1.500902700754
H   -2.747478967361   -4.083550596464    0.434222700754
$end

$rem
JOBTYPE			EDA
EDA2			1
method			wB97X-V
BASIS			def2-TZVPD
XC_GRID			000099000590
NL_GRID			1
UNRESTRICTED		FALSE
MAX_SCF_CYCLES		200
SYMMETRY		FALSE
SYM_IGNORE		TRUE
MEM_STATIC		2000
BASIS_LIN_DEP_THRESH 	6
THRESH 			14
SCF_CONVERGENCE 	8
SCF_PRINT_FRGM 		TRUE
SOLVENT_METHOD          SMD
$end

$SMX
SOLVENT			WATER
$END
--------------------------------------------------------------
 ----------------------------------------------------------------
             Standard Nuclear Orientation (Angstroms)
    I     Atom           X                Y                Z
 ----------------------------------------------------------------
    1      C       1.1439140326     3.5856534035     0.0649027008
    2      C       1.5779140326     0.9976534035     0.2609027008
    3      C       1.8209140326     2.3056534035    -0.2830972992
    4      C       2.4379140326     0.0946534035    -0.4310972992
    5      C       2.7779140326     2.1446534035    -1.2320972992
    6      C       0.7189140326     0.4966534035     1.2419027008
    7      C       2.4599140326    -1.2723465965    -0.1710972992
    8      C       0.7489140326    -0.8693465965     1.5059027008
    9      C       1.6159140326    -1.7443465965     0.8209027008
   10      N       3.1669140326     0.8296534035    -1.3310972992
   11      H       0.0109140326     1.1466534035     1.7219027008
   12      H       0.1159140326     3.3436534035     0.3359027008
   13      H       1.0729140326     4.1746534035    -0.8510972992
   14      H       3.1379140326     2.9476534035    -1.8620972992
   15      H       3.7379140326     0.4336534035    -2.0730972992
   16      H       3.1129140326    -1.9343465965    -0.7180972992
   17      H       0.0859140326    -1.2773465965     2.2399027008
   18      H       1.6039140326    -2.7983465965     1.0439027008
   19      H       1.5603440326     4.2380824035     0.8465227008
   20      C      -2.3080859674    -3.2163465965     0.9489027008
   21      C      -1.8330859674    -0.0973465965    -1.1750972992
   22      C      -1.6650859674    -1.3923465965    -0.6740972992
   23      C      -2.8560859674     0.7346534035    -0.7560972992
   24      C      -2.5250859674    -1.8743465965     0.3159027008
   25      C      -3.7370859674     0.2456534035     0.2029027008
   26      C      -3.5730859674    -1.0373465965     0.7329027008
   27      H      -1.1190859674     0.2766534035    -1.8930972992
   28      H      -0.8290859674    -1.9893465965    -1.0100972992
   29      H      -2.9590859674     1.7356534035    -1.1430972992
   30      H      -4.5280859674     0.8786534035     0.5699027008
   31      H      -2.7240859674    -3.1843465965     1.9569027008
   32      H      -1.2340859674    -3.3573465965     1.0539027008
   33      H      -4.2530859674    -1.3793465965     1.5009027008
   34      H      -2.7474789674    -4.0835505965     0.4342227008
 ----------------------------------------------------------------
 Nuclear Repulsion Energy =        1112.18892415 hartrees
 There are       60 alpha and       60 beta electrons
 Requested basis set is def2-TZVPD
 There are 306 shells and 782 basis functions

 Total QAlloc Memory Limit   2000 MB
 Mega-Array Size      1956 MB
 MEM_STATIC part      2000 MB

 Citation of the SMD model:
 Marenich, A.V.; Cramer, C.J.; Truhlar, D.G.
 J. Phys. Chem. B 2009, 113, 6378-6396.
 iSolventCode=           1
 Solvent: water                                                           

 vradii
            1           2           3           4           5           6
    1   1.8500000   1.8500000   1.8500000   1.8500000   1.8500000   1.8500000
            7           8           9          10          11          12
    1   1.8500000   1.8500000   1.8500000   1.8900000   1.2000000   1.2000000
           13          14          15          16          17          18
    1   1.2000000   1.2000000   1.2000000   1.2000000   1.2000000   1.2000000
           19          20          21          22          23          24
    1   1.2000000   1.8500000   1.8500000   1.8500000   1.8500000   1.8500000
           25          26          27          28          29          30
    1   1.8500000   1.8500000   1.2000000   1.2000000   1.2000000   1.2000000
           31          32          33          34
    1   1.2000000   1.2000000   1.2000000   1.2000000
 Changing PCM_VDW_RADII to SMD_RADIUS
 Discretize the solute cavity surface with Lebedev spheres
	Using 110 Lebedev grid points for each H atom
	Using 194 Lebedev grid points for other atoms
	Atomic van der Waals radii will be scaled by 1.20
 Remove points where switching function is < 1.0e-08
 Keep 2418 surface tesserae and discard 2750 interior tesserae
 Molecular Surface Area = 289.989 Angst**2
 A cutoff of  1.0D-14 yielded  40493 shell pairs
 There are    266983 function pairs (    339253 Cartesian)
 Smallest overlap matrix eigenvalue = 3.76E-07
 Linear dependence detected in AO basis
 Tighter screening thresholds may be required for diffuse basis sets
 Use S2THRESH > 14 and THRESH = 14 in case of SCF convergence issues
 Number of orthogonalized atomic orbitals = 776
 Maximum deviation from orthogonality = 1.841E-10

 Scale SEOQF with 1.000000e-01/1.000000e-01/1.000000e-01

 Standard Electronic Orientation quadrupole field applied
 Nucleus-field energy     =     0.0000000415 hartrees

 -----------------------------------------------------------------------
  General SCF calculation program by
  Eric Jon Sundstrom, Paul Horn, Yuezhi Mao, Dmitri Zuev, Alec White,
  David Stuck, Shaama M.S., Shane Yost, Joonho Lee, David Small,
  Daniel Levine, Susi Lehtola, Hugh Burton, Evgeny Epifanovsky,
  Bang C. Huynh
 -----------------------------------------------------------------------
================================================================
                 ALMO-EDA with the EDA2 driver                  
================================================================
 The second-generation ALMO-EDA (for DFT):                      
 P. R. Horn, Y. Mao and M. Head-Gordon, PCCP, 18, 23067 (2016)  
 Decomposition of the frozen energy:                            
 P. R. Horn, Y. Mao and M. Head-Gordon, JCP, 144, 114107 (2016) 
 FERF model for polarization:                                   
 P. R. Horn and M. Head-Gordon, JCP, 143, 114111 (2015)         
Using eda2 option set 1
Option set summary: Frozen orbital wavefunction, initial wavefunction decomposition, and nDQ polarization.
--------------------------------
Printing EDA Options
--------------------------------
eda_child_super_basis      0
fragmo_guess_mode          0
child_mp                   1
child_mp_orders            232
cls_elec                   1
cls_disp                   0
scfmi_mode                 1
scfmi_occs                 0
scfmi_virts                0
frz_relax                  0
frz_relax_method           0
dc_pen_start               0
dc_pen_conv                0
dc_pen_increment           0
dc_pen_steps               0
dc_pen_thresh_factor       0
dc_pen_pre_newton_thresh   0
frz_ortho_decomp           1
frz_ortho_decomp_conv      6
frgm_method                2
scfmi_freeze_ss            0
separate_rehyb             0
plot_diff_den              0
eda_nocv                   0
eda_vct_relax              1
disp_free_x                0
disp_free_c                0
eda_bsse                   0
eda_pct_a                  0
eda_covp                   0
--------------------------------
Attempting to make child job directory: /home/meili/scratch/qchem52513//Frg1/
Attempting to make child job directory: /home/meili/scratch/qchem52513//Frg2/
Creating input file /home/meili/scratch/qchem52513/Frg1.input
using default PutDataFrgm: nothing
calling putenv with: QCSCRATCH=/home/meili/scratch/qchem52513/ 
Spawning Job For Fragment 0
                  Welcome to Q-Chem
     A Quantum Leap Into The Future Of Chemistry


 Q-Chem 5.2 (devel), Q-Chem, Inc., Pleasanton, CA (2019)

 Yihan Shao,  Zhengting Gan,  E. Epifanovsky,  A. T. B. Gilbert,  M. Wormit,  
 J. Kussmann,  A. W. Lange,  A. Behn,  Jia Deng,  Xintian Feng,  D. Ghosh,  
 M. Goldey,  P. R. Horn,  L. D. Jacobson,  I. Kaliman,  T. Kus,  A. Landau,  
 Jie Liu,  E. I. Proynov,  R. M. Richard,  R. P. Steele,  E. J. Sundstrom,  
 H. L. Woodcock III,  P. M. Zimmerman,  D. Zuev,  B. Albrecht,  E. Alguire,  
 S. A. Baeppler,  D. Barton,  Z. Benda,  Y. A. Bernard,  E. J. Berquist,  
 K. B. Bravaya,  H. Burton,  D. Casanova,  Chun-Min Chang,  Yunqing Chen,  
 A. Chien,  K. D. Closser,  M. P. Coons,  S. Coriani,  S. Dasgupta,  
 A. L. Dempwolff,  M. Diedenhofen,  Hainam Do,  R. G. Edgar,  Po-Tung Fang,  
 S. Faraji,  S. Fatehi,  Qingguo Feng,  K. D. Fenk,  J. Fosso-Tande,  
 J. Gayvert,  Qinghui Ge,  A. Ghysels,  G. Gidofalvi,  J. Gomes,  
 J. Gonthier,  A. Gunina,  D. Hait,  M. W. D. Hanson-Heine,  
 P. H. P. Harbach,  A. W. Hauser,  M. F. Herbst,  J. E. Herr,  
 E. G. Hohenstein,  Z. C. Holden,  Kerwin Hui,  B. C. Huynh,  T.-C. Jagau,  
 Hyunjun Ji,  B. Kaduk,  K. Khistyaev,  Jaehoon Kim,  P. Klunzinger,  K. Koh,  
 D. Kosenkov,  L. Koulias,  T. Kowalczyk,  C. M. Krauter,  A. Kunitsa,  
 Ka Un Lao,  A. Laurent,  K. V. Lawler,  Joonho Lee,  D. Lefrancois,  
 S. Lehtola,  D. S. Levine,  Yi-Pei Li,  You-Sheng Lin,  Fenglai Liu,  
 E. Livshits,  A. Luenser,  P. Manohar,  E. Mansoor,  S. F. Manzer,  
 Shan-Ping Mao,  Yuezhi Mao,  N. Mardirossian,  A. V. Marenich,  
 T. Markovich,  L. A. Martinez-Martinez,  S. A. Maurer,  N. J. Mayhall,  
 S. C. McKenzie,  J.-M. Mewes,  P. Morgante,  A. F. Morrison,  
 J. W. Mullinax,  K. Nanda,  T. S. Nguyen-Beck,  R. Olivares-Amaya,  
 J. A. Parkhill,  Zheng Pei,  T. M. Perrine,  F. Plasser,  P. Pokhilko,  
 S. Prager,  A. Prociuk,  E. Ramos,  D. R. Rehn,  F. Rob,  M. Scheurer,  
 M. Schneider,  N. Sergueev,  S. M. Sharada,  S. Sharma,  D. W. Small,  
 T. Stauch,  T. Stein,  Yu-Chuan Su,  A. J. W. Thom,  A. Tkatchenko,  
 T. Tsuchimochi,  N. M. Tubman,  L. Vogt,  M. L. Vidal,  O. Vydrov,  
 M. A. Watson,  J. Wenzel,  M. de Wergifosse,  T. A. Wesolowski,  A. White,  
 J. Witte,  A. Yamada,  Jun Yang,  K. Yao,  S. Yeganeh,  S. R. Yost,  
 Zhi-Qiang You,  A. Zech,  Igor Ying Zhang,  Xing Zhang,  Yan Zhao,  
 Ying Zhu,  B. R. Brooks,  G. K. L. Chan,  C. J. Cramer,  M. S. Gordon,  
 W. J. Hehre,  A. Klamt,  M. W. Schmidt,  C. D. Sherrill,  D. G. Truhlar,  
 A. Aspuru-Guzik,  R. Baer,  A. T. Bell,  N. A. Besley,  Jeng-Da Chai,  
 A. E. DePrince, III,  R. A. DiStasio Jr.,  A. Dreuw,  B. D. Dunietz,  
 T. R. Furlani,  Chao-Ping Hsu,  Yousung Jung,  Jing Kong,  D. S. Lambrecht,  
 WanZhen Liang,  C. Ochsenfeld,  V. A. Rassolov,  L. V. Slipchenko,  
 J. E. Subotnik,  T. Van Voorhis,  J. M. Herbert,  A. I. Krylov,  
 P. M. W. Gill,  M. Head-Gordon

 Contributors to earlier versions of Q-Chem not listed above: 
 R. D. Adamson,  B. Austin,  J. Baker,  G. J. O. Beran,  K. Brandhorst,  
 S. T. Brown,  E. F. C. Byrd,  A. K. Chakraborty,  C.-L. Cheng,  
 Siu Hung Chien,  D. M. Chipman,  D. L. Crittenden,  H. Dachsel,  
 R. J. Doerksen,  A. D. Dutoi,  L. Fusti-Molnar,  W. A. Goddard III,  
 A. Golubeva-Zadorozhnaya,  S. R. Gwaltney,  G. Hawkins,  A. Heyden,  
 S. Hirata,  G. Kedziora,  F. J. Keil,  C. Kelley,  Jihan Kim,  R. A. King,  
 R. Z. Khaliullin,  P. P. Korambath,  W. Kurlancheek,  A. M. Lee,  M. S. Lee,  
 S. V. Levchenko,  Ching Yeh Lin,  D. Liotard,  R. C. Lochan,  I. Lotan,  
 P. E. Maslen,  N. Nair,  D. P. O'Neill,  D. Neuhauser,  E. Neuscamman,  
 C. M. Oana,  R. Olson,  B. Peters,  R. Peverati,  P. A. Pieniazek,  
 Y. M. Rhee,  J. Ritchie,  M. A. Rohrdanz,  E. Rosta,  N. J. Russ,  
 H. F. Schaefer III,  N. E. Schultz,  N. Shenvi,  A. C. Simmonett,  A. Sodt,  
 D. Stuck,  K. S. Thanthiriwatte,  V. Vanovschi,  Tao Wang,  A. Warshel,  
 C. F. Williams,  Q. Wu,  X. Xu,  W. Zhang

 Please cite Q-Chem as follows:
 Y. Shao et al., Mol. Phys. 113, 184-215 (2015)
 DOI: 10.1080/00268976.2014.952696

 Q-Chem 5.2.1 for Intel X86 EM64T Linux

 Parts of Q-Chem use Armadillo 8.300.2 (Tropical Shenanigans).
 http://arma.sourceforge.net/

 Q-Chem begins on Tue Sep 28 22:13:08 2021  

compute-0-0.local
Host: 0

     Scratch files written to /home/meili/scratch/qchem52513//Frg1//
NAlpha2: 70
NElect   70
Mult     1
Symmetry turned off for PCM/SM12/SMD calculation

Checking the input file for inconsistencies... 	...done.

--------------------------------------------------------------
User input:
--------------------------------------------------------------
$molecule
0 1
 6	1.1439140326	3.5856534035	0.0649027008
 6	1.5779140326	0.9976534035	0.2609027008
 6	1.8209140326	2.3056534035	-0.2830972992
 6	2.4379140326	0.0946534035	-0.4310972992
 6	2.7779140326	2.1446534035	-1.2320972992
 6	0.7189140326	0.4966534035	1.2419027008
 6	2.4599140326	-1.2723465965	-0.1710972992
 6	0.7489140326	-0.8693465965	1.5059027008
 6	1.6159140326	-1.7443465965	0.8209027008
 7	3.1669140326	0.8296534035	-1.3310972992
 1	0.0109140326	1.1466534035	1.7219027008
 1	0.1159140326	3.3436534035	0.3359027008
 1	1.0729140326	4.1746534035	-0.8510972992
 1	3.1379140326	2.9476534035	-1.8620972992
 1	3.7379140326	0.4336534035	-2.0730972992
 1	3.1129140326	-1.9343465965	-0.7180972992
 1	0.0859140326	-1.2773465965	2.2399027008
 1	1.6039140326	-2.7983465965	1.0439027008
 1	1.5603440326	4.2380824035	0.8465227008
$end
$rem
EDA2		1
METHOD		WB97X-V
BASIS		DEF2-TZVPD
XC_GRID		000099000590
NL_GRID		1
UNRESTRICTED		FALSE
MAX_SCF_CYCLES		200
SYMMETRY		FALSE
SYM_IGNORE		TRUE
BASIS_LIN_DEP_THRESH		6
THRESH		14
SCF_CONVERGENCE		8
SCF_PRINT_FRGM		TRUE
SOLVENT_METHOD		SMD
!required keywords
JOBTYPE		SP
SYM_IGNORE		TRUE
SUBSYSTEM		TRUE
GEN_SCFMAN		TRUE
CHILD_INSTRUCTION		2
SYM_IGNORE		TRUE
SCFMI		0
RI_K 0		
PARI_K 0		
MIN_PARI_K 0		
IARI_K 0		
OCC_RI_K 0		
PURECART		1111
MEM_STATIC		2000
MEM_TOTAL		2000
GUI		0
CHILD_MP		1
CHILD_MP_ORDERS		232
FRZ_RELAX		0
FRZ_RELAX_METHOD		0
EDA_CLS_ELEC		1
EDA_CLS_DISP		0
FRZ_ORTHO_DECOMP		1
EDA2		FALSE
FRGM_METHOD		FALSE
CIS_N_ROOTS  0
LOCAL_CIS    0
CIS_RLX_DNS  1
$end
$smx
SOLVENT			WATER
$end
--------------------------------------------------------------
 ----------------------------------------------------------------
             Standard Nuclear Orientation (Angstroms)
    I     Atom           X                Y                Z
 ----------------------------------------------------------------
    1      C       1.1439140326     3.5856534035     0.0649027008
    2      C       1.5779140326     0.9976534035     0.2609027008
    3      C       1.8209140326     2.3056534035    -0.2830972992
    4      C       2.4379140326     0.0946534035    -0.4310972992
    5      C       2.7779140326     2.1446534035    -1.2320972992
    6      C       0.7189140326     0.4966534035     1.2419027008
    7      C       2.4599140326    -1.2723465965    -0.1710972992
    8      C       0.7489140326    -0.8693465965     1.5059027008
    9      C       1.6159140326    -1.7443465965     0.8209027008
   10      N       3.1669140326     0.8296534035    -1.3310972992
   11      H       0.0109140326     1.1466534035     1.7219027008
   12      H       0.1159140326     3.3436534035     0.3359027008
   13      H       1.0729140326     4.1746534035    -0.8510972992
   14      H       3.1379140326     2.9476534035    -1.8620972992
   15      H       3.7379140326     0.4336534035    -2.0730972992
   16      H       3.1129140326    -1.9343465965    -0.7180972992
   17      H       0.0859140326    -1.2773465965     2.2399027008
   18      H       1.6039140326    -2.7983465965     1.0439027008
   19      H       1.5603440326     4.2380824035     0.8465227008
 ----------------------------------------------------------------
 Nuclear Repulsion Energy =         484.92136815 hartrees
 There are       35 alpha and       35 beta electrons
 Requested basis set is def2-TZVPD
 There are 175 shells and 451 basis functions

 Total QAlloc Memory Limit   2000 MB
 Mega-Array Size      1956 MB
 MEM_STATIC part      2000 MB

 Citation of the SMD model:
 Marenich, A.V.; Cramer, C.J.; Truhlar, D.G.
 J. Phys. Chem. B 2009, 113, 6378-6396.
 iSolventCode=           1
 Solvent: water                                                           

 vradii
            1           2           3           4           5           6
    1   1.8500000   1.8500000   1.8500000   1.8500000   1.8500000   1.8500000
            7           8           9          10          11          12
    1   1.8500000   1.8500000   1.8500000   1.8900000   1.2000000   1.2000000
           13          14          15          16          17          18
    1   1.2000000   1.2000000   1.2000000   1.2000000   1.2000000   1.2000000
           19
    1   1.2000000
 Changing PCM_VDW_RADII to SMD_RADIUS
 Discretize the solute cavity surface with Lebedev spheres
	Using 110 Lebedev grid points for each H atom
	Using 194 Lebedev grid points for other atoms
	Atomic van der Waals radii will be scaled by 1.20
 Remove points where switching function is < 1.0e-08
 Keep 1337 surface tesserae and discard 1593 interior tesserae
 Molecular Surface Area = 164.856 Angst**2
 A cutoff of  1.0D-14 yielded  14464 shell pairs
 There are     98248 function pairs (    126419 Cartesian)
 Smallest overlap matrix eigenvalue = 5.41E-07
 Linear dependence detected in AO basis
 Tighter screening thresholds may be required for diffuse basis sets
 Use S2THRESH > 14 and THRESH = 14 in case of SCF convergence issues
 Number of orthogonalized atomic orbitals = 448
 Maximum deviation from orthogonality = 1.418E-10

 Scale SEOQF with 1.000000e-01/1.000000e-01/1.000000e-01

 Standard Electronic Orientation quadrupole field applied
 Nucleus-field energy     =     0.0000000210 hartrees
 Guess from superposition of atomic densities
 Warning:  Energy on first SCF cycle will be non-variational
 SAD guess density has 70.000000 electrons

 -----------------------------------------------------------------------
  General SCF calculation program by
  Eric Jon Sundstrom, Paul Horn, Yuezhi Mao, Dmitri Zuev, Alec White,
  David Stuck, Shaama M.S., Shane Yost, Joonho Lee, David Small,
  Daniel Levine, Susi Lehtola, Hugh Burton, Evgeny Epifanovsky,
  Bang C. Huynh
 -----------------------------------------------------------------------
 Exchange:     0.1670 Hartree-Fock + 1.0000 wB97X-V + LR-HF
 Correlation:  1.0000 wB97X-V
 Using Euler-Maclaurin-Lebedev (99,590) quadrature formula
 Nonlocal Correlation:  VV10 with C = 0.0100 and b = 6.00 and scale = 1.00000
 Grid used for NLC:  SG-1 standard quadrature
Energy prior to optimization (guess energy) = -403.078454612272
Begin Timing: Total SCF Calculation
begin iterations for algorithm: DIIS         
the SCF tolerance is set to 1.00e-08
    1    -403.0784546123      1.67e-03     00000 
    2    -403.1314388468      1.21e-03     00000 
    3    -403.1716110130      2.53e-04     00000 
    4    -403.1735317211      1.19e-04     00000 
    5    -403.1739944659      3.87e-05     00000 
    6    -403.1740425546      1.21e-05     00000 
    7    -403.1740470328      4.32e-06     00000 
    8    -403.1740479776      9.81e-07     00000 
    9    -403.1740480806      4.44e-07     00000 
   10    -403.1740481023      2.27e-07     00000 
   11    -403.1740481088      7.26e-08     00000 
   12    -403.1740481097      2.91e-08     00000 
   13    -403.1740481098      1.15e-08     00000 
   14    -403.1740481098      3.45e-09     00000 Convergence criterion met
Timing for Total SCF: 1393.00s (wall), 10170.98s (cpu)
(3)  G-ENP(liq) elect-nuc-pol free energy of system     -403.174048110 a.u.
(4)  G-CDS(liq) cavity-dispersion-solvent structure 
     free energy                                                3.7926 kcal/mol
(6)  G-S(liq) free energy of system                     -403.168004166 a.u.
E_pcm = -0.0163159450
E_cds = 0.0060439435
Multipole orders to be included
        2
        3
computing dipole RHS
computing quadrupole RHS
total number of RHS in solve_reponses: 8
RHS batch sizes
        8
Beginning Block Conjugate Gradient Iterations. Batch Number: 0
computing hessian-vector products by finite difference
              1      6.24e-01     00000 Conjugate Gradient Iteration
computing hessian-vector products by finite difference
              2      1.95e-01     00000 Conjugate Gradient Iteration
computing hessian-vector products by finite difference
              3      5.48e-02     00000 Conjugate Gradient Iteration
computing hessian-vector products by finite difference
              4      1.92e-02     00000 Conjugate Gradient Iteration
computing hessian-vector products by finite difference
              5      6.86e-03     00000 Conjugate Gradient Iteration
computing hessian-vector products by finite difference
              6      2.31e-03     00000 Conjugate Gradient Iteration
computing hessian-vector products by finite difference
              7      5.28e-04     00000 Conjugate Gradient Iteration
computing hessian-vector products by finite difference
              8      1.03e-04     00000 Conjugate Gradient Iteration
computing hessian-vector products by finite difference
              9      1.96e-05     00000 Conjugate Gradient Iteration
computing hessian-vector products by finite difference
             10      5.11e-06     00000 Conjugate Gradient Iteration
computing hessian-vector products by finite difference
             11      1.10e-06     00000 Conjugate Gradient Iteration
computing hessian-vector products by finite difference
             12      2.14e-07     00000 Conjugate Gradient Iteration
computing hessian-vector products by finite difference
             13      6.38e-08     00000 Conjugate Gradient Iteration
computing hessian-vector products by finite difference
             14      1.33e-08     00000 Conjugate Gradient Iteration
computing hessian-vector products by finite difference
             15      2.86e-09     00000 CG Converged
batch 0 complete
Done Calculating Responses
TESTING ORTHOGONALIZATION OF MULTIPOLE BASIS
Multipole virts passed orthogonality test
Virts Per Order
          105
          175

 --------------------------------------------------------------

                    Orbital Energies (a.u.)
 --------------------------------------------------------------

 Alpha MOs
 -- Occupied --
-14.4434 -10.2988 -10.2891 -10.2677 -10.2666 -10.2648 -10.2647 -10.2603
-10.2572 -10.2538  -1.1108  -0.9756  -0.9290  -0.8661  -0.8567  -0.8121
 -0.7407  -0.7105  -0.6735  -0.6471  -0.5952  -0.5778  -0.5519  -0.5474
 -0.5349  -0.5111  -0.5045  -0.4896  -0.4747  -0.4501  -0.4460  -0.4296
 -0.3776  -0.3127  -0.2899
 -- Virtual --
  0.0567   0.0647   0.0800   0.0824   0.0918   0.1023   0.1044   0.1114
  0.1306   0.1345   0.1410   0.1515   0.1614   0.1686   0.1763   0.1841
  0.1885   0.2011   0.2028   0.2126   0.2139   0.2269   0.2332   0.2467
  0.2537   0.2569   0.2627   0.2659   0.2724   0.2774   0.2811   0.2817
  0.2838   0.2896   0.2946   0.2960   0.3070   0.3117   0.3166   0.3241
  0.3314   0.3326   0.3391   0.3426   0.3438   0.3494   0.3530   0.3558
  0.3588   0.3702   0.3777   0.3794   0.3817   0.3904   0.3948   0.3997
  0.4008   0.4110   0.4170   0.4184   0.4223   0.4256   0.4304   0.4411
  0.4436   0.4482   0.4540   0.4574   0.4615   0.4629   0.4671   0.4714
  0.4908   0.4962   0.5010   0.5029   0.5040   0.5191   0.5223   0.5265
  0.5370   0.5409   0.5452   0.5496   0.5515   0.5553   0.5608   0.5669
  0.5747   0.5827   0.5858   0.5999   0.6048   0.6138   0.6227   0.6246
  0.6339   0.6439   0.6496   0.6538   0.6585   0.6755   0.6805   0.6847
  0.6914   0.6963   0.7026   0.7083   0.7119   0.7211   0.7280   0.7351
  0.7422   0.7469   0.7526   0.7555   0.7622   0.7659   0.7751   0.7785
  0.7838   0.7892   0.7904   0.7943   0.7981   0.8041   0.8098   0.8160
  0.8221   0.8303   0.8375   0.8407   0.8466   0.8515   0.8616   0.8644
  0.8698   0.8774   0.8883   0.8950   0.8994   0.9131   0.9194   0.9382
  0.9403   0.9593   0.9622   0.9724   0.9896   1.0030   1.0140   1.0180
  1.0419   1.0442   1.0536   1.0632   1.0731   1.0825   1.0959   1.1020
  1.1192   1.1257   1.1317   1.1551   1.1634   1.1770   1.2048   1.2169
  1.2244   1.2450   1.2602   1.2841   1.3022   1.3172   1.3429   1.3503
  1.3757   1.4001   1.4064   1.4156   1.4339   1.4515   1.4624   1.4711
  1.5125   1.5528   1.5608   1.5710   1.5866   1.5978   1.6260   1.6317
  1.6497   1.6582   1.7006   1.7053   1.7284   1.7466   1.7550   1.7717
  1.8021   1.8227   1.8397   1.8480   1.8655   1.8710   1.8895   1.8952
  1.9066   1.9242   1.9364   1.9394   1.9571   1.9695   1.9768   1.9883
  1.9971   2.0048   2.0100   2.0295   2.0378   2.0604   2.0655   2.0875
  2.0990   2.1291   2.1486   2.1769   2.1894   2.1964   2.2162   2.2231
  2.2574   2.2804   2.2994   2.3130   2.3282   2.3549   2.3624   2.3871
  2.4023   2.4287   2.4445   2.4560   2.4854   2.4971   2.5178   2.5423
  2.5583   2.5739   2.6075   2.6182   2.6336   2.6424   2.6752   2.6807
  2.6989   2.7289   2.7547   2.7606   2.7677   2.7763   2.7932   2.8078
  2.8191   2.8359   2.8552   2.8657   2.8789   2.8902   2.8998   2.9190
  2.9290   2.9440   2.9650   2.9727   2.9827   3.0095   3.0312   3.0412
  3.0480   3.0794   3.0831   3.0974   3.1041   3.1277   3.1500   3.1661
  3.1724   3.1993   3.2088   3.2218   3.2288   3.2539   3.2673   3.2792
  3.2914   3.2957   3.3042   3.3281   3.3578   3.3680   3.3793   3.3932
  3.4044   3.4145   3.4313   3.4364   3.4464   3.4512   3.4675   3.4811
  3.4910   3.4976   3.5151   3.5208   3.5336   3.5379   3.5519   3.5742
  3.5904   3.5946   3.6108   3.6314   3.6435   3.6524   3.6681   3.6892
  3.7002   3.7149   3.7235   3.7368   3.7526   3.7594   3.7858   3.7912
  3.8278   3.8490   3.8835   3.9255   3.9326   3.9493   3.9806   4.0286
  4.0379   4.0705   4.1051   4.1619   4.1983   4.2053   4.2124   4.2352
  4.2516   4.2750   4.2829   4.2939   4.3230   4.3496   4.3558   4.3627
  4.4031   4.4166   4.4296   4.4653   4.4890   4.5274   4.5477   4.5957
  4.6280   4.6516   4.6736   4.7598   4.8003   4.8081   4.8628   4.8927
  4.9310   4.9678   4.9807   4.9904   4.9990   5.0633   5.0683   5.1226
  5.1521   5.1674   5.2099   5.2288   5.2850   5.3874   5.4146   5.4657
  5.5014   5.5478   5.5980   5.6403   5.7037   5.8037   5.8186   5.9357
  5.9704   6.2597   6.3433  22.6616  22.7579  22.9266  22.9491  22.9809
 23.2002  23.2709  23.4668  23.7768  32.8320
 --------------------------------------------------------------

          Ground-State Mulliken Net Atomic Charges

     Atom                 Charge (a.u.)
  ----------------------------------------
      1 C                    -1.081335
      2 C                     0.293060
      3 C                     0.692234
      4 C                     0.000769
      5 C                    -0.687282
      6 C                    -0.535936
      7 C                    -0.725799
      8 C                    -0.621108
      9 C                    -0.489811
     10 N                     0.104958
     11 H                     0.418251
     12 H                     0.282057
     13 H                     0.278314
     14 H                     0.317218
     15 H                     0.253669
     16 H                     0.416124
     17 H                     0.429189
     18 H                     0.407550
     19 H                     0.247877
  ----------------------------------------
  Sum of atomic charges =     0.000000

 -----------------------------------------------------------------
                    Cartesian Multipole Moments
 -----------------------------------------------------------------
    Charge (ESU x 10^10)
                 0.0000
    Dipole Moment (Debye)
         X       1.5387      Y       0.5342      Z      -2.5975
       Tot       3.0659
    Quadrupole Moments (Debye-Ang)
        XX     -50.6956     XY      -0.2043     YY     -52.0592
        XZ     -13.8894     YZ      -2.2542     ZZ     -54.5900
    Octopole Moments (Debye-Ang^2)
       XXX    -286.0156    XXY     -42.6835    XYY     -92.4316
       YYY    -114.5198    XXZ     -53.2652    XYZ      -7.4316
       YYZ      -7.7210    XZZ     -90.1365    YZZ     -36.4785
       ZZZ     -25.3688
    Hexadecapole Moments (Debye-Ang^3)
      XXXX   -1370.1797   XXXY    -226.1551   XXYY    -437.6817
      XYYY    -196.9918   YYYY   -1221.8926   XXXZ     -65.6172
      XXYZ      13.0368   XYYZ       8.5230   YYYZ      78.2112
      XXZZ    -234.7653   XYZZ     -49.3030   YYZZ    -261.8899
      XZZZ      46.0564   YZZZ      95.1935   ZZZZ    -382.9429
 -----------------------------------------------------------------
Archival summary:
1\1\compute-0-0.local\SP\ProcedureUnspecified\BasisUnspecified\199\meili\WedSep2905:51:432021WedSep2905:51:432021\0\\#,ProcedureUnspecified,BasisUnspecified,\\0,1\C\C,1,1.39687\H,2,1.07432,1,120.135\C,2,1.3916,1,118.166,3,175.745,0\H,4,1.06995,2,119.413,1,-178.817,0\C,4,1.40945,2,122.036,1,0.248945,0\H,6,1.0774,4,119.992,2,-179.311,0\C,6,1.38535,4,120.748,2,-1.34219,0\H,8,1.07882,6,121.518,4,-178.645,0\C,8,1.39168,6,117.311,4,1.67829,0\N,10,1.37174,8,129.828,6,179.088,0\H,11,1.01657,10,124.658,8,11.335,0\C,11,1.3749,10,108.353,8,179.14,0\H,13,1.08227,11,125.002,10,-176.075,0\C,13,1.35734,11,111.301,10,0.596798,0\C,15,1.48924,13,125.862,11,-178.18,0\H,16,1.09032,15,107.213,13,145.613,0\H,16,1.09134,15,107.297,13,32.7021,0\H,16,1.1,15,120.247,13,-90.42,0\\\@

 Total job time:  27515.61s(wall), 200998.93s(cpu) 
 Wed Sep 29 05:51:43 2021

        *************************************************************
        *                                                           *
        *  Thank you very much for using Q-Chem.  Have a nice day.  *
        *                                                           *
        *************************************************************


Done Job For Fragment 0
calling putenv with: QCSCRATCH=/home/meili/scratch 
calling putenv with: QCTHREADS=8 
Creating input file /home/meili/scratch/qchem52513/Frg2.input
using default PutDataFrgm: nothing
calling putenv with: QCSCRATCH=/home/meili/scratch/qchem52513/ 
Spawning Job For Fragment 1
                  Welcome to Q-Chem
     A Quantum Leap Into The Future Of Chemistry


 Q-Chem 5.2 (devel), Q-Chem, Inc., Pleasanton, CA (2019)

 Yihan Shao,  Zhengting Gan,  E. Epifanovsky,  A. T. B. Gilbert,  M. Wormit,  
 J. Kussmann,  A. W. Lange,  A. Behn,  Jia Deng,  Xintian Feng,  D. Ghosh,  
 M. Goldey,  P. R. Horn,  L. D. Jacobson,  I. Kaliman,  T. Kus,  A. Landau,  
 Jie Liu,  E. I. Proynov,  R. M. Richard,  R. P. Steele,  E. J. Sundstrom,  
 H. L. Woodcock III,  P. M. Zimmerman,  D. Zuev,  B. Albrecht,  E. Alguire,  
 S. A. Baeppler,  D. Barton,  Z. Benda,  Y. A. Bernard,  E. J. Berquist,  
 K. B. Bravaya,  H. Burton,  D. Casanova,  Chun-Min Chang,  Yunqing Chen,  
 A. Chien,  K. D. Closser,  M. P. Coons,  S. Coriani,  S. Dasgupta,  
 A. L. Dempwolff,  M. Diedenhofen,  Hainam Do,  R. G. Edgar,  Po-Tung Fang,  
 S. Faraji,  S. Fatehi,  Qingguo Feng,  K. D. Fenk,  J. Fosso-Tande,  
 J. Gayvert,  Qinghui Ge,  A. Ghysels,  G. Gidofalvi,  J. Gomes,  
 J. Gonthier,  A. Gunina,  D. Hait,  M. W. D. Hanson-Heine,  
 P. H. P. Harbach,  A. W. Hauser,  M. F. Herbst,  J. E. Herr,  
 E. G. Hohenstein,  Z. C. Holden,  Kerwin Hui,  B. C. Huynh,  T.-C. Jagau,  
 Hyunjun Ji,  B. Kaduk,  K. Khistyaev,  Jaehoon Kim,  P. Klunzinger,  K. Koh,  
 D. Kosenkov,  L. Koulias,  T. Kowalczyk,  C. M. Krauter,  A. Kunitsa,  
 Ka Un Lao,  A. Laurent,  K. V. Lawler,  Joonho Lee,  D. Lefrancois,  
 S. Lehtola,  D. S. Levine,  Yi-Pei Li,  You-Sheng Lin,  Fenglai Liu,  
 E. Livshits,  A. Luenser,  P. Manohar,  E. Mansoor,  S. F. Manzer,  
 Shan-Ping Mao,  Yuezhi Mao,  N. Mardirossian,  A. V. Marenich,  
 T. Markovich,  L. A. Martinez-Martinez,  S. A. Maurer,  N. J. Mayhall,  
 S. C. McKenzie,  J.-M. Mewes,  P. Morgante,  A. F. Morrison,  
 J. W. Mullinax,  K. Nanda,  T. S. Nguyen-Beck,  R. Olivares-Amaya,  
 J. A. Parkhill,  Zheng Pei,  T. M. Perrine,  F. Plasser,  P. Pokhilko,  
 S. Prager,  A. Prociuk,  E. Ramos,  D. R. Rehn,  F. Rob,  M. Scheurer,  
 M. Schneider,  N. Sergueev,  S. M. Sharada,  S. Sharma,  D. W. Small,  
 T. Stauch,  T. Stein,  Yu-Chuan Su,  A. J. W. Thom,  A. Tkatchenko,  
 T. Tsuchimochi,  N. M. Tubman,  L. Vogt,  M. L. Vidal,  O. Vydrov,  
 M. A. Watson,  J. Wenzel,  M. de Wergifosse,  T. A. Wesolowski,  A. White,  
 J. Witte,  A. Yamada,  Jun Yang,  K. Yao,  S. Yeganeh,  S. R. Yost,  
 Zhi-Qiang You,  A. Zech,  Igor Ying Zhang,  Xing Zhang,  Yan Zhao,  
 Ying Zhu,  B. R. Brooks,  G. K. L. Chan,  C. J. Cramer,  M. S. Gordon,  
 W. J. Hehre,  A. Klamt,  M. W. Schmidt,  C. D. Sherrill,  D. G. Truhlar,  
 A. Aspuru-Guzik,  R. Baer,  A. T. Bell,  N. A. Besley,  Jeng-Da Chai,  
 A. E. DePrince, III,  R. A. DiStasio Jr.,  A. Dreuw,  B. D. Dunietz,  
 T. R. Furlani,  Chao-Ping Hsu,  Yousung Jung,  Jing Kong,  D. S. Lambrecht,  
 WanZhen Liang,  C. Ochsenfeld,  V. A. Rassolov,  L. V. Slipchenko,  
 J. E. Subotnik,  T. Van Voorhis,  J. M. Herbert,  A. I. Krylov,  
 P. M. W. Gill,  M. Head-Gordon

 Contributors to earlier versions of Q-Chem not listed above: 
 R. D. Adamson,  B. Austin,  J. Baker,  G. J. O. Beran,  K. Brandhorst,  
 S. T. Brown,  E. F. C. Byrd,  A. K. Chakraborty,  C.-L. Cheng,  
 Siu Hung Chien,  D. M. Chipman,  D. L. Crittenden,  H. Dachsel,  
 R. J. Doerksen,  A. D. Dutoi,  L. Fusti-Molnar,  W. A. Goddard III,  
 A. Golubeva-Zadorozhnaya,  S. R. Gwaltney,  G. Hawkins,  A. Heyden,  
 S. Hirata,  G. Kedziora,  F. J. Keil,  C. Kelley,  Jihan Kim,  R. A. King,  
 R. Z. Khaliullin,  P. P. Korambath,  W. Kurlancheek,  A. M. Lee,  M. S. Lee,  
 S. V. Levchenko,  Ching Yeh Lin,  D. Liotard,  R. C. Lochan,  I. Lotan,  
 P. E. Maslen,  N. Nair,  D. P. O'Neill,  D. Neuhauser,  E. Neuscamman,  
 C. M. Oana,  R. Olson,  B. Peters,  R. Peverati,  P. A. Pieniazek,  
 Y. M. Rhee,  J. Ritchie,  M. A. Rohrdanz,  E. Rosta,  N. J. Russ,  
 H. F. Schaefer III,  N. E. Schultz,  N. Shenvi,  A. C. Simmonett,  A. Sodt,  
 D. Stuck,  K. S. Thanthiriwatte,  V. Vanovschi,  Tao Wang,  A. Warshel,  
 C. F. Williams,  Q. Wu,  X. Xu,  W. Zhang

 Please cite Q-Chem as follows:
 Y. Shao et al., Mol. Phys. 113, 184-215 (2015)
 DOI: 10.1080/00268976.2014.952696

 Q-Chem 5.2.1 for Intel X86 EM64T Linux

 Parts of Q-Chem use Armadillo 8.300.2 (Tropical Shenanigans).
 http://arma.sourceforge.net/

 Q-Chem begins on Wed Sep 29 05:51:44 2021  

compute-0-0.local
Host: 0

     Scratch files written to /home/meili/scratch/qchem52513//Frg2//
NAlpha2: 50
NElect   50
Mult     1
Symmetry turned off for PCM/SM12/SMD calculation

Checking the input file for inconsistencies... 	...done.

--------------------------------------------------------------
User input:
--------------------------------------------------------------
$molecule
0 1
 6	-2.3080859674	-3.2163465965	0.9489027008
 6	-1.8330859674	-0.0973465965	-1.1750972992
 6	-1.6650859674	-1.3923465965	-0.6740972992
 6	-2.8560859674	0.7346534035	-0.7560972992
 6	-2.5250859674	-1.8743465965	0.3159027008
 6	-3.7370859674	0.2456534035	0.2029027008
 6	-3.5730859674	-1.0373465965	0.7329027008
 1	-1.1190859674	0.2766534035	-1.8930972992
 1	-0.8290859674	-1.9893465965	-1.0100972992
 1	-2.9590859674	1.7356534035	-1.1430972992
 1	-4.5280859674	0.8786534035	0.5699027008
 1	-2.7240859674	-3.1843465965	1.9569027008
 1	-1.2340859674	-3.3573465965	1.0539027008
 1	-4.2530859674	-1.3793465965	1.5009027008
 1	-2.7474789674	-4.0835505965	0.4342227008
$end
$rem
EDA2		1
METHOD		WB97X-V
BASIS		DEF2-TZVPD
XC_GRID		000099000590
NL_GRID		1
UNRESTRICTED		FALSE
MAX_SCF_CYCLES		200
SYMMETRY		FALSE
SYM_IGNORE		TRUE
BASIS_LIN_DEP_THRESH		6
THRESH		14
SCF_CONVERGENCE		8
SCF_PRINT_FRGM		TRUE
SOLVENT_METHOD		SMD
!required keywords
JOBTYPE		SP
SYM_IGNORE		TRUE
SUBSYSTEM		TRUE
GEN_SCFMAN		TRUE
CHILD_INSTRUCTION		2
SYM_IGNORE		TRUE
SCFMI		0
RI_K 0		
PARI_K 0		
MIN_PARI_K 0		
IARI_K 0		
OCC_RI_K 0		
PURECART		1111
MEM_STATIC		2000
MEM_TOTAL		2000
GUI		0
CHILD_MP		1
CHILD_MP_ORDERS		232
FRZ_RELAX		0
FRZ_RELAX_METHOD		0
EDA_CLS_ELEC		1
EDA_CLS_DISP		0
FRZ_ORTHO_DECOMP		1
EDA2		FALSE
FRGM_METHOD		FALSE
CIS_N_ROOTS  0
LOCAL_CIS    0
CIS_RLX_DNS  1
$end
$smx
SOLVENT			WATER
$end
--------------------------------------------------------------
 ----------------------------------------------------------------
             Standard Nuclear Orientation (Angstroms)
    I     Atom           X                Y                Z
 ----------------------------------------------------------------
    1      C      -2.3080859674    -3.2163465965     0.9489027008
    2      C      -1.8330859674    -0.0973465965    -1.1750972992
    3      C      -1.6650859674    -1.3923465965    -0.6740972992
    4      C      -2.8560859674     0.7346534035    -0.7560972992
    5      C      -2.5250859674    -1.8743465965     0.3159027008
    6      C      -3.7370859674     0.2456534035     0.2029027008
    7      C      -3.5730859674    -1.0373465965     0.7329027008
    8      H      -1.1190859674     0.2766534035    -1.8930972992
    9      H      -0.8290859674    -1.9893465965    -1.0100972992
   10      H      -2.9590859674     1.7356534035    -1.1430972992
   11      H      -4.5280859674     0.8786534035     0.5699027008
   12      H      -2.7240859674    -3.1843465965     1.9569027008
   13      H      -1.2340859674    -3.3573465965     1.0539027008
   14      H      -4.2530859674    -1.3793465965     1.5009027008
   15      H      -2.7474789674    -4.0835505965     0.4342227008
 ----------------------------------------------------------------
 Nuclear Repulsion Energy =         269.45196348 hartrees
 There are       25 alpha and       25 beta electrons
 Requested basis set is def2-TZVPD
 There are 131 shells and 331 basis functions

 Total QAlloc Memory Limit   2000 MB
 Mega-Array Size      1956 MB
 MEM_STATIC part      2000 MB

 Citation of the SMD model:
 Marenich, A.V.; Cramer, C.J.; Truhlar, D.G.
 J. Phys. Chem. B 2009, 113, 6378-6396.
 iSolventCode=           1
 Solvent: water                                                           

 vradii
            1           2           3           4           5           6
    1   1.8500000   1.8500000   1.8500000   1.8500000   1.8500000   1.8500000
            7           8           9          10          11          12
    1   1.8500000   1.2000000   1.2000000   1.2000000   1.2000000   1.2000000
           13          14          15
    1   1.2000000   1.2000000   1.2000000
 Changing PCM_VDW_RADII to SMD_RADIUS
 Discretize the solute cavity surface with Lebedev spheres
	Using 110 Lebedev grid points for each H atom
	Using 194 Lebedev grid points for other atoms
	Atomic van der Waals radii will be scaled by 1.20
 Remove points where switching function is < 1.0e-08
 Keep 1089 surface tesserae and discard 1149 interior tesserae
 Molecular Surface Area = 132.324 Angst**2

                       Distance Matrix (Angstroms)
             C (  1)   C (  2)   C (  3)   C (  4)   C (  5)   C (  6)
   C (  2)  3.803309
   C (  3)  2.524788  1.398660
   C (  4)  4.337941  1.383587  2.439126
   C (  5)  1.499581  2.420676  1.397149  2.840005
   C (  6)  3.818900  2.375237  2.783048  1.391029  2.444609
   C (  7)  2.528818  2.748029  2.397110  2.423055  1.404550  1.397814
   H (  8)  4.657439  1.079442  2.137671  2.125959  3.388704  3.353819
   H (  9)  2.744203  2.148233  1.080833  3.404911  2.155903  3.863037
   H ( 10)  5.415032  2.151462  3.417423  1.078137  3.917797  2.153393
   H ( 11)  4.673443  3.355686  3.860278  2.138831  3.414020  1.077524
   H ( 12)  1.090937  4.486967  3.354833  4.768265  2.109166  3.983414
   H ( 13)  1.088293  3.994351  2.651975  4.759354  2.100146  4.468872
   H ( 14)  2.731721  3.828955  3.380612  3.393325  2.152959  2.142822
   H ( 15)  1.100002  4.394980  3.105242  4.964247  2.223520  4.446891
             C (  7)   H (  8)   H (  9)   H ( 10)   H ( 11)   H ( 12)
   H (  8)  3.826825
   H (  9)  3.387313  2.449193
   H ( 10)  3.403807  2.465113  4.293043
   H ( 11)  2.147010  4.248536  4.940084  2.476001
   H ( 12)  2.613156  5.420060  3.717814  5.819933  4.656839
   H ( 13)  3.310040  4.680170  2.509092  5.808708  5.387800  1.750839
   H ( 14)  1.081290  4.907497  4.289638  4.285837  2.457834  2.409108
   H ( 15)  3.170204  5.203793  3.186218  6.032897  5.273750  1.768522
             H ( 13)   H ( 14)
   H ( 14)  3.636847
   H ( 15)  1.789339  3.273741

 A cutoff of  1.0D-14 yielded   8358 shell pairs
 There are     54492 function pairs (     69441 Cartesian)
 Smallest overlap matrix eigenvalue = 5.92E-07
 Linear dependence detected in AO basis
 Tighter screening thresholds may be required for diffuse basis sets
 Use S2THRESH > 14 and THRESH = 14 in case of SCF convergence issues
 Number of orthogonalized atomic orbitals = 330
 Maximum deviation from orthogonality = 9.833E-11

 Scale SEOQF with 1.000000e-01/1.000000e-01/1.000000e-01

 Standard Electronic Orientation quadrupole field applied
 Nucleus-field energy     =     0.0000000205 hartrees
 Guess from superposition of atomic densities
 Warning:  Energy on first SCF cycle will be non-variational
 SAD guess density has 50.000000 electrons

 -----------------------------------------------------------------------
  General SCF calculation program by
  Eric Jon Sundstrom, Paul Horn, Yuezhi Mao, Dmitri Zuev, Alec White,
  David Stuck, Shaama M.S., Shane Yost, Joonho Lee, David Small,
  Daniel Levine, Susi Lehtola, Hugh Burton, Evgeny Epifanovsky,
  Bang C. Huynh
 -----------------------------------------------------------------------
 Exchange:     0.1670 Hartree-Fock + 1.0000 wB97X-V + LR-HF
 Correlation:  1.0000 wB97X-V
 Using Euler-Maclaurin-Lebedev (99,590) quadrature formula
 Nonlocal Correlation:  VV10 with C = 0.0100 and b = 6.00 and scale = 1.00000
 Grid used for NLC:  SG-1 standard quadrature
Energy prior to optimization (guess energy) = -271.526323860543
Begin Timing: Total SCF Calculation
begin iterations for algorithm: DIIS         
the SCF tolerance is set to 1.00e-08
    1    -271.5263238605      1.82e-03     00000 
    2    -271.5639365496      1.15e-03     00000 
    3    -271.5833522189      1.56e-04     00000 
    4    -271.5840303851      4.72e-05     00000 
    5    -271.5840777822      2.59e-05     00000 
    6    -271.5840885790      6.08e-06     00000 
    7    -271.5840894415      2.23e-06     00000 
    8    -271.5840895274      3.45e-07     00000 
    9    -271.5840895324      9.25e-08     00000 
   10    -271.5840895327      3.50e-08     00000 
   11    -271.5840895328      1.69e-08     00000 
   12    -271.5840895328      4.78e-09     00000 Convergence criterion met
Timing for Total SCF: 471.00s (wall), 3360.01s (cpu)
(3)  G-ENP(liq) elect-nuc-pol free energy of system     -271.584089533 a.u.
(4)  G-CDS(liq) cavity-dispersion-solvent structure 
     free energy                                                3.1849 kcal/mol
(6)  G-S(liq) free energy of system                     -271.579014095 a.u.
E_pcm = -0.0075467509
E_cds = 0.0050754380
Multipole orders to be included
        2
        3
computing dipole RHS
computing quadrupole RHS
total number of RHS in solve_reponses: 8
RHS batch sizes
        8
Beginning Block Conjugate Gradient Iterations. Batch Number: 0
computing hessian-vector products by finite difference
              1      6.16e-01     00000 Conjugate Gradient Iteration
computing hessian-vector products by finite difference
              2      1.82e-01     00000 Conjugate Gradient Iteration
computing hessian-vector products by finite difference
              3      4.36e-02     00000 Conjugate Gradient Iteration
computing hessian-vector products by finite difference
              4      1.11e-02     00000 Conjugate Gradient Iteration
computing hessian-vector products by finite difference
              5      2.02e-03     00000 Conjugate Gradient Iteration
computing hessian-vector products by finite difference
              6      5.21e-04     00000 Conjugate Gradient Iteration
computing hessian-vector products by finite difference
              7      1.48e-04     00000 Conjugate Gradient Iteration
computing hessian-vector products by finite difference
              8      2.61e-05     00000 Conjugate Gradient Iteration
computing hessian-vector products by finite difference
              9      3.54e-06     00000 Conjugate Gradient Iteration
computing hessian-vector products by finite difference
             10      5.67e-07     00000 Conjugate Gradient Iteration
computing hessian-vector products by finite difference
             11      8.96e-08     00000 Conjugate Gradient Iteration
computing hessian-vector products by finite difference
             12      1.59e-08     00000 Conjugate Gradient Iteration
computing hessian-vector products by finite difference
             13      2.47e-09     00000 CG Converged
batch 0 complete
Done Calculating Responses
TESTING ORTHOGONALIZATION OF MULTIPOLE BASIS
Multipole virts passed orthogonality test
Virts Per Order
           75
          125

 --------------------------------------------------------------

                    Orbital Energies (a.u.)
 --------------------------------------------------------------

 Alpha MOs
 -- Occupied --
-10.2798 -10.2681 -10.2671 -10.2658 -10.2654 -10.2646 -10.2539  -0.9921
 -0.9035  -0.8719  -0.8091  -0.7243  -0.7000  -0.6248  -0.5683  -0.5604
 -0.5294  -0.5194  -0.5123  -0.4799  -0.4693  -0.4385  -0.4314  -0.3445
 -0.3358
 -- Virtual --
  0.0666   0.0684   0.0705   0.0845   0.0900   0.1095   0.1159   0.1187
  0.1402   0.1587   0.1706   0.1735   0.1928   0.1964   0.2003   0.2065
  0.2260   0.2280   0.2393   0.2422   0.2574   0.2648   0.2663   0.2781
  0.2837   0.2871   0.2891   0.2978   0.3007   0.3057   0.3068   0.3128
  0.3215   0.3305   0.3344   0.3395   0.3547   0.3570   0.3694   0.3819
  0.3847   0.3876   0.3889   0.3936   0.3940   0.4038   0.4082   0.4138
  0.4162   0.4339   0.4361   0.4400   0.4469   0.4498   0.4531   0.4573
  0.4698   0.4736   0.4747   0.4870   0.4988   0.5010   0.5161   0.5206
  0.5234   0.5284   0.5342   0.5450   0.5500   0.5526   0.5579   0.5680
  0.5881   0.5893   0.5973   0.6074   0.6161   0.6238   0.6439   0.6484
  0.6627   0.6773   0.6831   0.6840   0.6922   0.6970   0.7276   0.7303
  0.7361   0.7396   0.7462   0.7618   0.7693   0.7724   0.7819   0.7924
  0.7943   0.7964   0.7977   0.8101   0.8125   0.8261   0.8302   0.8386
  0.8401   0.8430   0.8471   0.8510   0.8601   0.8791   0.8918   0.8976
  0.9106   0.9128   0.9368   0.9416   0.9587   1.0175   1.0274   1.0430
  1.0506   1.0568   1.0736   1.0869   1.0879   1.1022   1.1085   1.1402
  1.1701   1.1789   1.2533   1.2826   1.3035   1.3304   1.3548   1.3607
  1.3833   1.4380   1.4467   1.4601   1.4653   1.4831   1.5232   1.5488
  1.6026   1.6106   1.6209   1.6318   1.6689   1.6956   1.7443   1.7859
  1.7935   1.7997   1.8083   1.8179   1.8353   1.8725   1.8897   1.9160
  1.9225   1.9331   1.9544   1.9639   1.9842   1.9958   2.0173   2.0271
  2.0382   2.0507   2.0775   2.1046   2.1215   2.1278   2.1730   2.1784
  2.2045   2.2374   2.2440   2.2828   2.2916   2.3148   2.3880   2.3952
  2.4060   2.4182   2.4865   2.5114   2.5358   2.5555   2.5718   2.6151
  2.6191   2.6383   2.6771   2.6876   2.6992   2.7043   2.7640   2.7798
  2.7852   2.8141   2.8213   2.8512   2.8625   2.9037   2.9069   2.9208
  2.9387   2.9462   2.9662   2.9747   3.0002   3.0189   3.0301   3.0511
  3.0667   3.0927   3.1090   3.1113   3.1887   3.1986   3.2040   3.2251
  3.2347   3.2426   3.2928   3.3059   3.3353   3.3580   3.3626   3.3817
  3.4063   3.4364   3.4502   3.4578   3.4609   3.4747   3.4923   3.4976
  3.5038   3.5364   3.5428   3.5477   3.5671   3.5758   3.6028   3.6129
  3.6269   3.6353   3.6546   3.6998   3.7019   3.7555   3.7742   3.8025
  3.8381   3.8900   3.9200   3.9414   3.9471   4.0018   4.0513   4.0536
  4.1270   4.1968   4.2712   4.2855   4.2964   4.3113   4.3242   4.3324
  4.3490   4.3741   4.3887   4.4096   4.4210   4.4657   4.4775   4.5354
  4.5981   4.6373   4.7457   4.7529   4.8380   4.8834   4.9165   4.9316
  5.0257   5.0451   5.1713   5.2688   5.3610   5.3851   5.4925   5.5274
  5.6725   5.8432  22.5877  22.6726  22.8963  22.9035  23.0018  23.0779
 23.4043
 --------------------------------------------------------------

          Ground-State Mulliken Net Atomic Charges

     Atom                 Charge (a.u.)
  ----------------------------------------
      1 C                    -1.072624
      2 C                    -0.480188
      3 C                    -0.419496
      4 C                    -0.601820
      5 C                     0.764502
      6 C                    -0.550703
      7 C                    -0.385512
      8 H                     0.372555
      9 H                     0.392137
     10 H                     0.401527
     11 H                     0.375431
     12 H                     0.290232
     13 H                     0.277235
     14 H                     0.384274
     15 H                     0.252451
  ----------------------------------------
  Sum of atomic charges =     0.000000

 -----------------------------------------------------------------
                    Cartesian Multipole Moments
 -----------------------------------------------------------------
    Charge (ESU x 10^10)
                 0.0000
    Dipole Moment (Debye)
         X       0.1999      Y      -0.4149      Z       0.3790
       Tot       0.5964
    Quadrupole Moments (Debye-Ang)
        XX     -41.8075     XY      -1.0984     YY     -37.2575
        XZ      -4.6562     YZ      -2.8891     ZZ     -42.3964
    Octopole Moments (Debye-Ang^2)
       XXX     327.3862    XXY      49.8527    XYY      99.4171
       YYY     117.3910    XXZ      23.6237    XYZ       9.7462
       YYZ       2.9885    XZZ     112.9380    YZZ      43.0715
       ZZZ       5.5279
    Hexadecapole Moments (Debye-Ang^3)
      XXXX   -1946.1569   XXXY    -325.7950   XXYY    -428.5876
      XYYY    -265.8863   YYYY    -755.9117   XXXZ     -63.9097
      XXYZ      -0.8077   XYYZ       2.6620   YYYZ      81.2867
      XXZZ    -369.8436   XYZZ     -93.8207   YYZZ    -169.2256
      XZZZ      20.9857   YZZZ      81.4046   ZZZZ    -236.2125
 -----------------------------------------------------------------
Archival summary:
1\1\compute-0-0.local\SP\ProcedureUnspecified\BasisUnspecified\78\meili\WedSep2908:43:172021WedSep2908:43:172021\0\\#,ProcedureUnspecified,BasisUnspecified,\\0,1\C\C,1,1.39715\H,2,1.08083,1,120.386\C,2,1.39866,1,119.954,3,-175.932,0\H,4,1.07944,2,118.66,1,176.119,0\C,4,1.38359,2,122.487,1,-1.94535,0\H,6,1.07814,4,121.349,2,179.006,0\C,6,1.39103,4,117.754,2,0.174338,0\H,8,1.07752,6,119.553,4,178.322,0\C,8,1.39781,6,120.648,4,0.922655,0\H,10,1.08129,8,119.067,6,177.979,0\C,1,1.49958,2,121.25,3,0.705128,0\H,12,1.08829,1,107.426,2,37.1949,0\H,12,1.09094,1,107.975,2,152.184,0\H,12,1.1,1,116.757,2,-86.4517,0\\\@

 Total job time:  10293.37s(wall), 72935.52s(cpu) 
 Wed Sep 29 08:43:17 2021

        *************************************************************
        *                                                           *
        *  Thank you very much for using Q-Chem.  Have a nice day.  *
        *                                                           *
        *************************************************************


Done Job For Fragment 1
calling putenv with: QCSCRATCH=/home/meili/scratch 
calling putenv with: QCTHREADS=8 
Doing General SCFMI
 Exchange:     0.1670 Hartree-Fock + 1.0000 wB97X-V + LR-HF
 Correlation:  1.0000 wB97X-V
 Using Euler-Maclaurin-Lebedev (99,590) quadrature formula
 Nonlocal Correlation:  VV10 with C = 0.0100 and b = 6.00 and scale = 1.00000
 Grid used for NLC:  SG-1 standard quadrature
performing fock build before subrot guess so that all methods have access
Printing subrot_rss_gen Method Specification:
Occupied Subspace Method is 0
Virtual Subspace Method is 0
Energy of the unrelaxed supersystem initial determinant -674.737646648460
performing fock build before subrot guess so that all methods have access
Printing subrot_rss_gen Method Specification:
Occupied Subspace Method is 0
Virtual Subspace Method is 0
Energy of the unrelaxed supersystem initial determinant w/ solvent -674.761247824703
write pseudocanon occs and virts to disk
write pseudocanon orbital energies to disk
Tolerance of ortho_decomp_scf: 1.00e-06
GDM subspace size: 20
Beginning the Orthogonal Decomposition of the Initial Supersystem Wavefunction
    1    -674.7098323602      2.00e-02     ortho_decomp Preconditoned Steepest Descent
    2    -674.7123244253      5.24e-04     ortho_decomp BFGS Step
    3    -674.7123334013      4.41e-05     ortho_decomp BFGS Step
    4    -674.7123334206      1.82e-06     ortho_decomp BFGS Step
    5    -674.7123334206      4.86e-08     ortho_decomp 00000 Convergence criterion met
 Hartree-Fock
 Hartree-Fock
 Hartree-Fock
Doing General SCFMI
 Exchange:     0.1670 Hartree-Fock + 1.0000 wB97X-V + LR-HF
 Correlation:  1.0000 wB97X-V
 Using Euler-Maclaurin-Lebedev (99,590) quadrature formula
 Nonlocal Correlation:  VV10 with C = 0.0100 and b = 6.00 and scale = 1.00000
 Grid used for NLC:  SG-1 standard quadrature
performing fock build at end of subrot_r(subrot) constructor so that all methods have access
<S^2> of initial wavefunction before polarization iterations 0.0000000000
Beginning iterations for the determination of the polarized wavefunction
Energy prior to optimization (guess energy) = -674.761247824703
Begin Timing: Total SCF Calculation
begin iterations for algorithm: DIIS         
the SCF tolerance is set to 1.00e-08
    1    -674.7612478247      4.42e-05     00000 
    2    -674.7615008618      2.56e-05     00000 
    3    -674.7615543600      8.64e-06     00000 
    4    -674.7615651302      3.29e-06     00000 
    5    -674.7615665949      1.55e-06     00000 
    6    -674.7615669328      6.62e-07     00000 
    7    -674.7615669668      3.19e-07     00000 
    8    -674.7615669735      1.19e-07     00000 
    9    -674.7615669745      4.71e-08     00000 
   10    -674.7615669748      2.14e-08     00000 
   11    -674.7615669749      6.31e-09     00000 Convergence criterion met
write pseudocanon occs and virts to disk
write pseudocanon orbital energies to disk
Timing for Total SCF: 5962.00s (wall), 43949.89s (cpu)
<S^2> of polarized wavefunction after polarization iterations 0.0000000000
relaxing scfmi constraint to allow all rotations in the entire AO span
Doing General SCFMI
 Exchange:     0.1670 Hartree-Fock + 1.0000 wB97X-V + LR-HF
 Correlation:  1.0000 wB97X-V
 Using Euler-Maclaurin-Lebedev (99,590) quadrature formula
 Nonlocal Correlation:  VV10 with C = 0.0100 and b = 6.00 and scale = 1.00000
 Grid used for NLC:  SG-1 standard quadrature
performing fock build at end of subrot_r(subrot) constructor so that all methods have access
<S^2> of polarized wavefunction before ct-allowed iterations 0.0000000000
Beginning iterations for the determination of the CT-Allowed wavefunction
Energy prior to optimization (guess energy) = -674.761566974853
Begin Timing: Total SCF Calculation
begin iterations for algorithm: DIIS         
the SCF tolerance is set to 1.00e-08
    1    -674.7615669749      5.37e-05     00000 
    2    -674.7625091509      5.79e-06     00000 
    3    -674.7625499334      1.19e-06     00000 
    4    -674.7625522231      2.78e-07     00000 
    5    -674.7625522764      1.51e-07     00000 
    6    -674.7625522876      3.06e-08     00000 
    7    -674.7625522883      1.43e-08     00000 
    8    -674.7625522884      4.93e-09     00000 Convergence criterion met
write pseudocanon occs and virts to disk
write pseudocanon orbital energies to disk
Timing for Total SCF: 4210.00s (wall), 30855.12s (cpu)
<S^2> of ct_allowed wavefunction after ct-allowed iterations 0.0000000000

================================
        Results of EDA2         
================================
Basic EDA Quantities
--------------------
Fragment Energies (Ha):
1 -403.1680041663
2 -271.5790140948
--------------------
  E_prp (kJ/mol) = 0.0000
  E_sol (kJ/mol) = -2.2195
  E_frz (kJ/mol) = -8.8525
  E_pol (kJ/mol) = -0.8379
  E_vct (kJ/mol) = -2.5870
  E_int (kJ/mol) = -14.4969
--------------------


Initial Wavefunction Decomposition
--------------------
  --------------------
  Orthogonal Fragment Subspace Decomposition:
  --------------------
     E_elec   (ELEC)   (kJ/mol) = -25.6241
     E_pauli  (PAULI)  (kJ/mol) = 44.5333
     E_disp   (DISP)   (kJ/mol) = -27.7617
     --------------------
     Terms summing to E_pauli:
     --------------------
        E_kep_pauli       (kJ/mol) = 57.6082
        E_disp_free_pauli (kJ/mol) = -13.0748
  --------------------
  Classical Frozen Decomposition:
  --------------------
     E_cls_elec  (CLS ELEC)  (kJ/mol) = -6.9263
     E_cls_pauli (CLS PAULI) (kJ/mol) = -1.9262
    [E_mod_pauli (MOD PAULI) (kJ/mol) = 25.8355 (CLS PAULI - DISP from orthogonal decomposition) ]
  --------------------
--------------------

Simplified EDA Summary (kJ/mol)
--------------------
 PREPARATION     0.0000
 SOLVATION       -2.2195
 FROZEN          18.9092      (does not include dispersion)
[PAULI           44.5333]     (if this is negligible, then frozen describes electrostatics)
 DISPERSION      -27.7617
 POLARIZATION    -0.8379
 CHARGE TRANSFER -2.5870
 TOTAL           -14.4969     (PRP + SOL + FRZ + DISP + POL + CT)
--------------------

 --------------------------------------------------------------

                    Orbital Energies (a.u.)
 --------------------------------------------------------------

 Alpha MOs
 -- Occupied --
-14.4433 -10.2985 -10.2890 -10.2783 -10.2674 -10.2673 -10.2656 -10.2652
-10.2652 -10.2642 -10.2641 -10.2640 -10.2639 -10.2590 -10.2571 -10.2539
-10.2536  -1.1106  -0.9912  -0.9747  -0.9287  -0.9028  -0.8710  -0.8653
 -0.8562  -0.8120  -0.8084  -0.7403  -0.7233  -0.7100  -0.6992  -0.6731
 -0.6468  -0.6242  -0.5948  -0.5780  -0.5671  -0.5598  -0.5521  -0.5471
 -0.5347  -0.5288  -0.5187  -0.5116  -0.5107  -0.5043  -0.4894  -0.4794
 -0.4742  -0.4706  -0.4481  -0.4453  -0.4371  -0.4303  -0.4291  -0.3773
 -0.3427  -0.3359  -0.3097  -0.2891
 -- Virtual --
  0.0539   0.0621   0.0676   0.0684   0.0730   0.0764   0.0868   0.0915
  0.0923   0.0953   0.1007   0.1079   0.1142   0.1159   0.1195   0.1240
  0.1302   0.1350   0.1414   0.1447   0.1464   0.1572   0.1579   0.1737
  0.1756   0.1783   0.1855   0.1862   0.1927   0.1968   0.2041   0.2084
  0.2132   0.2153   0.2188   0.2226   0.2294   0.2358   0.2407   0.2435
  0.2461   0.2485   0.2551   0.2596   0.2621   0.2652   0.2700   0.2720
  0.2729   0.2744   0.2778   0.2829   0.2871   0.2891   0.2924   0.2930
  0.2989   0.3007   0.3023   0.3079   0.3086   0.3131   0.3163   0.3200
  0.3251   0.3265   0.3273   0.3332   0.3360   0.3377   0.3383   0.3451
  0.3471   0.3509   0.3540   0.3560   0.3594   0.3608   0.3627   0.3671
  0.3698   0.3729   0.3755   0.3798   0.3807   0.3837   0.3848   0.3870
  0.3921   0.3945   0.3954   0.4022   0.4039   0.4064   0.4099   0.4132
  0.4158   0.4193   0.4205   0.4233   0.4249   0.4294   0.4377   0.4403
  0.4420   0.4452   0.4460   0.4488   0.4514   0.4544   0.4593   0.4604
  0.4624   0.4643   0.4681   0.4699   0.4744   0.4784   0.4814   0.4841
  0.4879   0.4906   0.4958   0.4984   0.5013   0.5023   0.5061   0.5078
  0.5122   0.5168   0.5191   0.5215   0.5260   0.5273   0.5326   0.5382
  0.5456   0.5493   0.5497   0.5534   0.5558   0.5593   0.5608   0.5657
  0.5672   0.5712   0.5766   0.5803   0.5872   0.5904   0.5939   0.5950
  0.6011   0.6081   0.6119   0.6158   0.6218   0.6223   0.6249   0.6288
  0.6328   0.6405   0.6415   0.6434   0.6486   0.6529   0.6593   0.6626
  0.6642   0.6686   0.6709   0.6729   0.6759   0.6863   0.6912   0.6934
  0.6950   0.6979   0.7009   0.7075   0.7122   0.7143   0.7177   0.7213
  0.7303   0.7311   0.7380   0.7427   0.7475   0.7493   0.7522   0.7570
  0.7573   0.7615   0.7634   0.7657   0.7692   0.7724   0.7741   0.7783
  0.7832   0.7843   0.7884   0.7894   0.7971   0.7985   0.8021   0.8033
  0.8084   0.8092   0.8124   0.8162   0.8186   0.8205   0.8243   0.8266
  0.8291   0.8338   0.8381   0.8405   0.8415   0.8447   0.8469   0.8489
  0.8505   0.8610   0.8643   0.8664   0.8677   0.8725   0.8774   0.8813
  0.8842   0.8878   0.8936   0.9002   0.9012   0.9041   0.9062   0.9091
  0.9157   0.9213   0.9263   0.9340   0.9348   0.9434   0.9504   0.9547
  0.9585   0.9651   0.9691   0.9728   0.9748   0.9762   0.9918   0.9949
  0.9996   1.0033   1.0158   1.0164   1.0218   1.0234   1.0292   1.0373
  1.0479   1.0551   1.0585   1.0625   1.0745   1.0787   1.0846   1.0961
  1.1015   1.1021   1.1132   1.1206   1.1285   1.1374   1.1396   1.1441
  1.1503   1.1673   1.1815   1.1843   1.1916   1.1956   1.2000   1.2088
  1.2124   1.2267   1.2421   1.2453   1.2498   1.2547   1.2789   1.2875
  1.2962   1.3110   1.3224   1.3350   1.3406   1.3518   1.3626   1.3706
  1.3779   1.3876   1.3947   1.4058   1.4160   1.4220   1.4271   1.4417
  1.4504   1.4628   1.4732   1.4770   1.4817   1.4901   1.4980   1.5058
  1.5200   1.5240   1.5300   1.5496   1.5514   1.5624   1.5760   1.5838
  1.5880   1.6066   1.6135   1.6219   1.6317   1.6386   1.6498   1.6562
  1.6589   1.6731   1.6788   1.6813   1.7006   1.7107   1.7265   1.7353
  1.7433   1.7731   1.7854   1.8025   1.8102   1.8186   1.8217   1.8274
  1.8293   1.8433   1.8569   1.8611   1.8761   1.8918   1.9019   1.9034
  1.9231   1.9259   1.9327   1.9467   1.9470   1.9499   1.9556   1.9633
  1.9669   1.9737   1.9855   1.9900   1.9950   2.0049   2.0111   2.0188
  2.0209   2.0354   2.0415   2.0472   2.0499   2.0643   2.0678   2.0750
  2.0800   2.0902   2.0925   2.1053   2.1234   2.1313   2.1347   2.1458
  2.1591   2.1603   2.1669   2.1803   2.1936   2.1980   2.2011   2.2214
  2.2303   2.2373   2.2467   2.2574   2.2684   2.2786   2.2855   2.2922
  2.3043   2.3140   2.3216   2.3398   2.3454   2.3524   2.3661   2.3705
  2.3721   2.3857   2.4078   2.4094   2.4221   2.4302   2.4452   2.4572
  2.4646   2.4678   2.4816   2.4923   2.5063   2.5209   2.5278   2.5542
  2.5564   2.5706   2.5722   2.5809   2.5867   2.6131   2.6203   2.6313
  2.6366   2.6473   2.6604   2.6671   2.6849   2.6875   2.7002   2.7045
  2.7140   2.7229   2.7347   2.7391   2.7488   2.7499   2.7741   2.7790
  2.7836   2.7952   2.7966   2.8009   2.8129   2.8203   2.8298   2.8388
  2.8501   2.8516   2.8627   2.8720   2.8759   2.8817   2.8979   2.8984
  2.9092   2.9201   2.9325   2.9387   2.9513   2.9600   2.9668   2.9751
  2.9858   2.9875   2.9902   3.0003   3.0013   3.0215   3.0265   3.0290
  3.0329   3.0470   3.0521   3.0603   3.0694   3.0760   3.0836   3.0935
  3.0956   3.1056   3.1188   3.1214   3.1296   3.1365   3.1417   3.1542
  3.1753   3.1852   3.2048   3.2208   3.2304   3.2323   3.2385   3.2528
  3.2625   3.2676   3.2774   3.2873   3.2965   3.3060   3.3106   3.3167
  3.3230   3.3356   3.3442   3.3526   3.3716   3.3805   3.3878   3.3919
  3.4011   3.4060   3.4154   3.4202   3.4218   3.4269   3.4321   3.4462
  3.4503   3.4561   3.4719   3.4727   3.4773   3.4806   3.4816   3.4884
  3.5047   3.5055   3.5119   3.5152   3.5291   3.5301   3.5408   3.5420
  3.5473   3.5502   3.5523   3.5581   3.5650   3.5705   3.5748   3.5961
  3.5994   3.6068   3.6088   3.6162   3.6200   3.6221   3.6320   3.6383
  3.6517   3.6547   3.6579   3.6629   3.6810   3.6916   3.6946   3.7001
  3.7073   3.7156   3.7185   3.7282   3.7323   3.7400   3.7422   3.7588
  3.7736   3.7813   3.8028   3.8123   3.8233   3.8331   3.8441   3.8558
  3.8641   3.9055   3.9183   3.9270   3.9449   3.9511   3.9621   3.9653
  3.9763   3.9971   4.0365   4.0436   4.0562   4.0708   4.0863   4.0959
  4.1163   4.1492   4.1812   4.2091   4.2126   4.2211   4.2247   4.2437
  4.2647   4.2817   4.2919   4.2964   4.3068   4.3200   4.3227   4.3302
  4.3363   4.3432   4.3615   4.3662   4.3716   4.3800   4.3869   4.3982
  4.4112   4.4202   4.4252   4.4321   4.4380   4.4453   4.4834   4.4932
  4.5023   4.5105   4.5377   4.5593   4.5705   4.6079   4.6292   4.6437
  4.6649   4.6673   4.6876   4.7574   4.7695   4.7778   4.8150   4.8192
  4.8466   4.8773   4.9013   4.9054   4.9407   4.9475   4.9622   4.9726
  4.9990   5.0094   5.0192   5.0444   5.0654   5.0709   5.0837   5.1320
  5.1726   5.1777   5.1922   5.2200   5.2423   5.2837   5.2967   5.3689
  5.3869   5.3994   5.4215   5.4811   5.5053   5.5114   5.5375   5.5483
  5.6071   5.6507   5.6941   5.7110   5.8059   5.8177   5.8242   5.9434
  5.9735   6.2678   6.3397  22.6508  22.6864  22.7329  22.8331  22.9421
 22.9451  22.9727  23.0066  23.0361  23.0608  23.1182  23.2230  23.2909
 23.4268  23.4761  23.7811  32.8636
 --------------------------------------------------------------

          Ground-State Mulliken Net Atomic Charges

     Atom                 Charge (a.u.)
  ----------------------------------------
      1 C                    -1.109098
      2 C                     0.235718
      3 C                     0.597208
      4 C                    -0.078234
      5 C                    -0.578342
      6 C                    -0.461170
      7 C                    -0.679515
      8 C                    -0.690303
      9 C                    -0.456924
     10 N                     0.099398
     11 H                     0.468242
     12 H                     0.262111
     13 H                     0.282500
     14 H                     0.324376
     15 H                     0.247534
     16 H                     0.407158
     17 H                     0.441715
     18 H                     0.420881
     19 H                     0.271749
     20 C                    -1.168744
     21 C                    -0.554755
     22 C                    -0.327178
     23 C                    -0.561937
     24 C                     0.696211
     25 C                    -0.511624
     26 C                    -0.424925
     27 H                     0.379322
     28 H                     0.436120
     29 H                     0.455049
     30 H                     0.382680
     31 H                     0.289230
     32 H                     0.185391
     33 H                     0.417043
     34 H                     0.303111
  ----------------------------------------
  Sum of atomic charges =     0.000000

 -----------------------------------------------------------------
                    Cartesian Multipole Moments
 -----------------------------------------------------------------
    Charge (ESU x 10^10)
                -0.0000
    Dipole Moment (Debye)
         X       1.7736      Y       0.0529      Z      -2.1983
       Tot       2.8251
    Quadrupole Moments (Debye-Ang)
        XX     -93.3708     XY      -1.2870     YY     -89.5919
        XZ     -18.7090     YZ      -5.1593     ZZ     -97.4987
    Octopole Moments (Debye-Ang^2)
       XXX      43.0965    XXY       7.5665    XYY       7.3007
       YYY       3.3105    XXZ     -29.6967    XYZ       2.4953
       YYZ      -4.7614    XZZ      22.8949    YZZ       6.7723
       ZZZ     -20.1381
    Hexadecapole Moments (Debye-Ang^3)
      XXXX   -3329.5677   XXXY    -552.8298   XXYY    -869.0608
      XYYY    -463.6246   YYYY   -1981.4648   XXXZ    -130.1940
      XXYZ      12.3926   XYYZ      11.0103   YYYZ     160.0299
      XXZZ    -607.4889   XYZZ    -143.3317   YYZZ    -432.4990
      XZZZ      65.8338   YZZZ     176.9429   ZZZZ    -623.2508
 -----------------------------------------------------------------
Archival summary:
1\1\compute-0-0.local\SP\ProcedureUnspecified\BasisUnspecified\11617\meili\WedSep2913:59:132021WedSep2913:59:132021\0\\#,ProcedureUnspecified,BasisUnspecified,\\0,1\C\C,1,1.39687\H,2,1.07432,1,120.135\C,2,1.3916,1,118.166,3,175.745,0\H,4,1.06995,2,119.413,1,-178.817,0\C,4,1.40945,2,122.036,1,0.248945,0\H,6,1.0774,4,119.992,2,-179.311,0\C,6,1.38535,4,120.748,2,-1.34219,0\H,8,1.07882,6,121.518,4,-178.645,0\C,8,1.39168,6,117.311,4,1.67829,0\N,10,1.37174,8,129.828,6,179.088,0\H,11,1.01657,10,124.658,8,11.335,0\C,11,1.3749,10,108.353,8,179.14,0\H,13,1.08227,11,125.002,10,-176.075,0\C,13,1.35734,11,111.301,10,0.596798,0\C,15,1.48924,13,125.862,11,-178.18,0\H,16,1.09032,15,107.213,13,145.613,0\H,16,1.09134,15,107.297,13,32.7021,0\H,16,1.1,15,120.247,13,-90.42,0\H,5,2.73412,4,106.959,2,127.811,0\C,20,1.08829,5,114.818,4,-115.481,0\H,21,1.09094,20,106.916,5,-65.4247,0\H,21,1.1,20,109.707,5,178.121,0\C,21,1.49958,20,107.426,5,50.2671,0\C,24,1.39715,21,121.25,20,37.1949,0\H,25,1.08083,24,120.386,21,0.705128,0\C,25,1.39866,24,119.954,21,-175.227,0\H,27,1.07944,25,118.66,24,176.119,0\C,27,1.38359,25,122.487,24,-1.94535,0\H,29,1.07814,27,121.349,25,179.006,0\C,29,1.39103,27,117.754,25,0.174338,0\H,31,1.07752,29,119.553,27,178.322,0\C,31,1.39781,29,120.648,27,0.922655,0\H,33,1.08129,31,119.067,29,177.979,0\\\@

 Total job time:  56772.74s(wall), 142942.38s(cpu) 
 Wed Sep 29 13:59:13 2021

        *************************************************************
        *                                                           *
        *  Thank you very much for using Q-Chem.  Have a nice day.  *
        *                                                           *
        *************************************************************


