
Running Job 1 of 1 SSI-013ASP-016GLU-1_SMD_TZVPD.in
qchem SSI-013ASP-016GLU-1_SMD_TZVPD.in_55175.0 /tmp/qchem55175/ 0
/global/common/cori/software/qchem/5.2/exe/qcprog.exe_s SSI-013ASP-016GLU-1_SMD_TZVPD.in_55175.0 /tmp/qchem55175/
                  Welcome to Q-Chem
     A Quantum Leap Into The Future Of Chemistry


 Q-Chem 5.2, Q-Chem, Inc., Pleasanton, CA (2019)

 License issued to: National Energy Research Scientific Computing Center

 Yihan Shao,  Zhengting Gan,  E. Epifanovsky,  A. T. B. Gilbert,  M. Wormit,  
 J. Kussmann,  A. W. Lange,  A. Behn,  Jia Deng,  Xintian Feng,  D. Ghosh,  
 M. Goldey,  P. R. Horn,  L. D. Jacobson,  I. Kaliman,  T. Kus,  A. Landau,  
 Jie Liu,  E. I. Proynov,  R. M. Richard,  R. P. Steele,  E. J. Sundstrom,  
 H. L. Woodcock III,  P. M. Zimmerman,  D. Zuev,  B. Albrecht,  E. Alguire,  
 S. A. Baeppler,  D. Barton,  Z. Benda,  Y. A. Bernard,  E. J. Berquist,  
 K. B. Bravaya,  H. Burton,  D. Casanova,  Chun-Min Chang,  Yunqing Chen,  
 A. Chien,  K. D. Closser,  M. P. Coons,  S. Coriani,  S. Dasgupta,  
 A. L. Dempwolff,  M. Diedenhofen,  Hainam Do,  R. G. Edgar,  Po-Tung Fang,  
 S. Faraji,  S. Fatehi,  Qingguo Feng,  K. D. Fenk,  J. Fosso-Tande,  
 J. Gayvert,  Qinghui Ge,  A. Ghysels,  G. Gidofalvi,  J. Gomes,  
 J. Gonthier,  A. Gunina,  D. Hait,  M. W. D. Hanson-Heine,  
 P. H. P. Harbach,  A. W. Hauser,  M. F. Herbst,  J. E. Herr,  
 E. G. Hohenstein,  Z. C. Holden,  Kerwin Hui,  B. C. Huynh,  T.-C. Jagau,  
 Hyunjun Ji,  B. Kaduk,  K. Khistyaev,  Jaehoon Kim,  P. Klunzinger,  K. Koh,  
 D. Kosenkov,  L. Koulias,  T. Kowalczyk,  C. M. Krauter,  A. Kunitsa,  
 Ka Un Lao,  A. Laurent,  K. V. Lawler,  Joonho Lee,  D. Lefrancois,  
 S. Lehtola,  D. S. Levine,  Yi-Pei Li,  You-Sheng Lin,  Fenglai Liu,  
 E. Livshits,  A. Luenser,  P. Manohar,  E. Mansoor,  S. F. Manzer,  
 Shan-Ping Mao,  Yuezhi Mao,  N. Mardirossian,  A. V. Marenich,  
 T. Markovich,  L. A. Martinez-Martinez,  S. A. Maurer,  N. J. Mayhall,  
 S. C. McKenzie,  J.-M. Mewes,  P. Morgante,  A. F. Morrison,  
 J. W. Mullinax,  K. Nanda,  T. S. Nguyen-Beck,  R. Olivares-Amaya,  
 J. A. Parkhill,  Zheng Pei,  T. M. Perrine,  F. Plasser,  P. Pokhilko,  
 S. Prager,  A. Prociuk,  E. Ramos,  D. R. Rehn,  F. Rob,  M. Scheurer,  
 M. Schneider,  N. Sergueev,  S. M. Sharada,  S. Sharma,  D. W. Small,  
 T. Stauch,  T. Stein,  Yu-Chuan Su,  A. J. W. Thom,  A. Tkatchenko,  
 T. Tsuchimochi,  N. M. Tubman,  L. Vogt,  M. L. Vidal,  O. Vydrov,  
 M. A. Watson,  J. Wenzel,  M. de Wergifosse,  T. A. Wesolowski,  A. White,  
 J. Witte,  A. Yamada,  Jun Yang,  K. Yao,  S. Yeganeh,  S. R. Yost,  
 Zhi-Qiang You,  A. Zech,  Igor Ying Zhang,  Xing Zhang,  Yan Zhao,  
 Ying Zhu,  B. R. Brooks,  G. K. L. Chan,  C. J. Cramer,  M. S. Gordon,  
 W. J. Hehre,  A. Klamt,  M. W. Schmidt,  C. D. Sherrill,  D. G. Truhlar,  
 A. Aspuru-Guzik,  R. Baer,  A. T. Bell,  N. A. Besley,  Jeng-Da Chai,  
 A. E. DePrince, III,  R. A. DiStasio Jr.,  A. Dreuw,  B. D. Dunietz,  
 T. R. Furlani,  Chao-Ping Hsu,  Yousung Jung,  Jing Kong,  D. S. Lambrecht,  
 WanZhen Liang,  C. Ochsenfeld,  V. A. Rassolov,  L. V. Slipchenko,  
 J. E. Subotnik,  T. Van Voorhis,  J. M. Herbert,  A. I. Krylov,  
 P. M. W. Gill,  M. Head-Gordon

 Contributors to earlier versions of Q-Chem not listed above: 
 R. D. Adamson,  B. Austin,  J. Baker,  G. J. O. Beran,  K. Brandhorst,  
 S. T. Brown,  E. F. C. Byrd,  A. K. Chakraborty,  C.-L. Cheng,  
 Siu Hung Chien,  D. M. Chipman,  D. L. Crittenden,  H. Dachsel,  
 R. J. Doerksen,  A. D. Dutoi,  L. Fusti-Molnar,  W. A. Goddard III,  
 A. Golubeva-Zadorozhnaya,  S. R. Gwaltney,  G. Hawkins,  A. Heyden,  
 S. Hirata,  G. Kedziora,  F. J. Keil,  C. Kelley,  Jihan Kim,  R. A. King,  
 R. Z. Khaliullin,  P. P. Korambath,  W. Kurlancheek,  A. M. Lee,  M. S. Lee,  
 S. V. Levchenko,  Ching Yeh Lin,  D. Liotard,  R. C. Lochan,  I. Lotan,  
 P. E. Maslen,  N. Nair,  D. P. O'Neill,  D. Neuhauser,  E. Neuscamman,  
 C. M. Oana,  R. Olson,  B. Peters,  R. Peverati,  P. A. Pieniazek,  
 Y. M. Rhee,  J. Ritchie,  M. A. Rohrdanz,  E. Rosta,  N. J. Russ,  
 H. F. Schaefer III,  N. E. Schultz,  N. Shenvi,  A. C. Simmonett,  A. Sodt,  
 D. Stuck,  K. S. Thanthiriwatte,  V. Vanovschi,  Tao Wang,  A. Warshel,  
 C. F. Williams,  Q. Wu,  X. Xu,  W. Zhang

 Please cite Q-Chem as follows:
 Y. Shao et al., Mol. Phys. 113, 184-215 (2015)
 DOI: 10.1080/00268976.2014.952696

 Q-Chem 5.2.0 for Intel X86 EM64T Linux

 Parts of Q-Chem use Armadillo 8.300.2 (Tropical Shenanigans).
 http://arma.sourceforge.net/

 Q-Chem begins on Sun Sep 26 03:00:05 2021  

Host: cori01
0

     Scratch files written to /tmp/qchem55175//
 May1019 |scratch|qcdevops|jenkins|workspace|build_RNUM -1
Processing $rem in /global/common/cori/software/qchem/5.2/config/preferences:
	 MEM_TOTAL  96000 
NAlpha2: 72
NElect   72
Mult     1
Symmetry turned off for PCM/SM12/SMD calculation

 Q-Chem warning in module libgen/rem_setup.C, line 2803:

 Neither GIA nor STOLL is specified by user. Use STOLL as the default


Checking the input file for inconsistencies... 	...done.

--------------------------------------------------------------
User input:
--------------------------------------------------------------
$comment
SSI-013ASP-016GLU-1.pdb
$end

$molecule
-2 1
--
-1 1
C    2.510341909338   -0.885241963098   -2.159598793618
C    1.728341909338   -1.293241963098   -0.879598793618
O    0.483341909338   -1.349241963098   -0.867598793618
O    2.377341909338   -1.589241963098    0.147401206382
H    3.158341909338   -1.714241963098   -2.450598793618
H    3.166341909338   -0.044241963098   -1.922598793618
H    1.870841909338   -0.617711963098   -3.013690793618
--
-1 1
C   -1.728658090662    0.017758036902    0.905401206382
C   -2.625658090662   -0.151241963098   -0.312598793618
C   -1.106658090662    1.396758036902    1.029401206382
O   -1.497658090662    2.318758036902    0.277401206382
O   -0.214658090662    1.545758036902    1.913401206382
H   -2.363658090662   -0.131241963098    1.783401206382
H   -0.965658090662   -0.752241963098    0.968401206382
H   -2.047658090662    0.058758036902   -1.211598793618
H   -3.443658090662    0.566758036902   -0.243598793618
H   -3.046718090662   -1.165391963098   -0.377377793618
$end

$rem
JOBTYPE			EDA
EDA2			1
method			wB97X-V
BASIS			def2-TZVPD
XC_GRID			000099000590
NL_GRID			1
UNRESTRICTED		FALSE
MAX_SCF_CYCLES		200
SYMMETRY		FALSE
SYM_IGNORE		TRUE
MEM_STATIC		2000
BASIS_LIN_DEP_THRESH 	6
THRESH 			14
SCF_CONVERGENCE 	8
SCF_PRINT_FRGM 		TRUE
SOLVENT_METHOD          SMD
$end

$SMX
SOLVENT			WATER
$END
--------------------------------------------------------------
 ----------------------------------------------------------------
             Standard Nuclear Orientation (Angstroms)
    I     Atom           X                Y                Z
 ----------------------------------------------------------------
    1      C       2.5103419093    -0.8852419631    -2.1595987936
    2      C       1.7283419093    -1.2932419631    -0.8795987936
    3      O       0.4833419093    -1.3492419631    -0.8675987936
    4      O       2.3773419093    -1.5892419631     0.1474012064
    5      H       3.1583419093    -1.7142419631    -2.4505987936
    6      H       3.1663419093    -0.0442419631    -1.9225987936
    7      H       1.8708419093    -0.6177119631    -3.0136907936
    8      C      -1.7286580907     0.0177580369     0.9054012064
    9      C      -2.6256580907    -0.1512419631    -0.3125987936
   10      C      -1.1066580907     1.3967580369     1.0294012064
   11      O      -1.4976580907     2.3187580369     0.2774012064
   12      O      -0.2146580907     1.5457580369     1.9134012064
   13      H      -2.3636580907    -0.1312419631     1.7834012064
   14      H      -0.9656580907    -0.7522419631     0.9684012064
   15      H      -2.0476580907     0.0587580369    -1.2115987936
   16      H      -3.4436580907     0.5667580369    -0.2435987936
   17      H      -3.0467180907    -1.1653919631    -0.3773777936
 ----------------------------------------------------------------
 Nuclear Repulsion Energy =         421.29883435 hartrees
 There are       36 alpha and       36 beta electrons
 Requested basis set is def2-TZVPD
 There are 161 shells and 417 basis functions

 Total QAlloc Memory Limit  96000 MB
 Mega-Array Size      1956 MB
 MEM_STATIC part      2000 MB
 
 Citation of the SMD model:
 Marenich, A.V.; Cramer, C.J.; Truhlar, D.G.
 J. Phys. Chem. B 2009, 113, 6378-6396.
 iSolventCode=           1
 Solvent: water                                                           
 
 vradii
            1           2           3           4           5           6
    1   1.8500000   1.8500000   1.5200000   1.5200000   1.2000000   1.2000000
            7           8           9          10          11          12
    1   1.2000000   1.8500000   1.8500000   1.8500000   1.5200000   1.5200000
           13          14          15          16          17
    1   1.2000000   1.2000000   1.2000000   1.2000000   1.2000000
 Changing PCM_VDW_RADII to SMD_RADIUS
 Discretize the solute cavity surface with Lebedev spheres
	Using 110 Lebedev grid points for each H atom
	Using 194 Lebedev grid points for other atoms
	Atomic van der Waals radii will be scaled by 1.20
 Remove points where switching function is < 1.0e-08
 Keep 1482 surface tesserae and discard 1144 interior tesserae
 Molecular Surface Area = 176.456 Angst**2
 A cutoff of  1.0D-14 yielded  11614 shell pairs
 There are     78402 function pairs (     99409 Cartesian)
 Smallest overlap matrix eigenvalue = 6.39E-06

 Scale SEOQF with 1.000000e-01/1.000000e-01/1.000000e-01

 Standard Electronic Orientation quadrupole field applied
 Nucleus-field energy     =     0.0000000066 hartrees

 -----------------------------------------------------------------------
  General SCF calculation program by
  Eric Jon Sundstrom, Paul Horn, Yuezhi Mao, Dmitri Zuev, Alec White,
  David Stuck, Shaama M.S., Shane Yost, Joonho Lee, David Small,
  Daniel Levine, Susi Lehtola, Hugh Burton, Evgeny Epifanovsky
 -----------------------------------------------------------------------
================================================================
                 ALMO-EDA with the EDA2 driver                  
================================================================
 The second-generation ALMO-EDA (for DFT):                      
 P. R. Horn, Y. Mao and M. Head-Gordon, PCCP, 18, 23067 (2016)  
 Decomposition of the frozen energy:                            
 P. R. Horn, Y. Mao and M. Head-Gordon, JCP, 144, 114107 (2016) 
 FERF model for polarization:                                   
 P. R. Horn and M. Head-Gordon, JCP, 143, 114111 (2015)         
Using eda2 option set 1
Option set summary: Frozen orbital wavefunction, initial wavefunction decomposition, and nDQ polarization.
--------------------------------
Printing EDA Options
--------------------------------
eda_child_super_basis      0
fragmo_guess_mode          0
child_mp                   1
child_mp_orders            232
cls_elec                   1
cls_disp                   0
scfmi_mode                 1
scfmi_occs                 0
scfmi_virts                0
frz_relax                  0
frz_relax_method           0
dc_pen_start               0
dc_pen_conv                0
dc_pen_increment           0
dc_pen_steps               0
dc_pen_thresh_factor       0
dc_pen_pre_newton_thresh   0
frz_ortho_decomp           1
frz_ortho_decomp_conv      6
frgm_method                2
scfmi_freeze_ss            0
separate_rehyb             0
plot_diff_den              0
eda_nocv                   0
eda_vct_relax              1
disp_free_x                0
disp_free_c                0
eda_bsse                   0
eda_pct_a                  0
eda_covp                   0
--------------------------------
Attempting to make child job directory: /tmp/qchem55175//Frg1/
Attempting to make child job directory: /tmp/qchem55175//Frg2/
Creating input file /tmp/qchem55175/Frg1.input
using default PutDataFrgm: nothing
calling putenv with: QCSCRATCH=/tmp/qchem55175/ 
calling putenv with: QCLOCALSCR=/tmp/qchem55175/ 
Spawning Job For Fragment 0
                  Welcome to Q-Chem
     A Quantum Leap Into The Future Of Chemistry


 Q-Chem 5.2, Q-Chem, Inc., Pleasanton, CA (2019)

 License issued to: National Energy Research Scientific Computing Center

 Yihan Shao,  Zhengting Gan,  E. Epifanovsky,  A. T. B. Gilbert,  M. Wormit,  
 J. Kussmann,  A. W. Lange,  A. Behn,  Jia Deng,  Xintian Feng,  D. Ghosh,  
 M. Goldey,  P. R. Horn,  L. D. Jacobson,  I. Kaliman,  T. Kus,  A. Landau,  
 Jie Liu,  E. I. Proynov,  R. M. Richard,  R. P. Steele,  E. J. Sundstrom,  
 H. L. Woodcock III,  P. M. Zimmerman,  D. Zuev,  B. Albrecht,  E. Alguire,  
 S. A. Baeppler,  D. Barton,  Z. Benda,  Y. A. Bernard,  E. J. Berquist,  
 K. B. Bravaya,  H. Burton,  D. Casanova,  Chun-Min Chang,  Yunqing Chen,  
 A. Chien,  K. D. Closser,  M. P. Coons,  S. Coriani,  S. Dasgupta,  
 A. L. Dempwolff,  M. Diedenhofen,  Hainam Do,  R. G. Edgar,  Po-Tung Fang,  
 S. Faraji,  S. Fatehi,  Qingguo Feng,  K. D. Fenk,  J. Fosso-Tande,  
 J. Gayvert,  Qinghui Ge,  A. Ghysels,  G. Gidofalvi,  J. Gomes,  
 J. Gonthier,  A. Gunina,  D. Hait,  M. W. D. Hanson-Heine,  
 P. H. P. Harbach,  A. W. Hauser,  M. F. Herbst,  J. E. Herr,  
 E. G. Hohenstein,  Z. C. Holden,  Kerwin Hui,  B. C. Huynh,  T.-C. Jagau,  
 Hyunjun Ji,  B. Kaduk,  K. Khistyaev,  Jaehoon Kim,  P. Klunzinger,  K. Koh,  
 D. Kosenkov,  L. Koulias,  T. Kowalczyk,  C. M. Krauter,  A. Kunitsa,  
 Ka Un Lao,  A. Laurent,  K. V. Lawler,  Joonho Lee,  D. Lefrancois,  
 S. Lehtola,  D. S. Levine,  Yi-Pei Li,  You-Sheng Lin,  Fenglai Liu,  
 E. Livshits,  A. Luenser,  P. Manohar,  E. Mansoor,  S. F. Manzer,  
 Shan-Ping Mao,  Yuezhi Mao,  N. Mardirossian,  A. V. Marenich,  
 T. Markovich,  L. A. Martinez-Martinez,  S. A. Maurer,  N. J. Mayhall,  
 S. C. McKenzie,  J.-M. Mewes,  P. Morgante,  A. F. Morrison,  
 J. W. Mullinax,  K. Nanda,  T. S. Nguyen-Beck,  R. Olivares-Amaya,  
 J. A. Parkhill,  Zheng Pei,  T. M. Perrine,  F. Plasser,  P. Pokhilko,  
 S. Prager,  A. Prociuk,  E. Ramos,  D. R. Rehn,  F. Rob,  M. Scheurer,  
 M. Schneider,  N. Sergueev,  S. M. Sharada,  S. Sharma,  D. W. Small,  
 T. Stauch,  T. Stein,  Yu-Chuan Su,  A. J. W. Thom,  A. Tkatchenko,  
 T. Tsuchimochi,  N. M. Tubman,  L. Vogt,  M. L. Vidal,  O. Vydrov,  
 M. A. Watson,  J. Wenzel,  M. de Wergifosse,  T. A. Wesolowski,  A. White,  
 J. Witte,  A. Yamada,  Jun Yang,  K. Yao,  S. Yeganeh,  S. R. Yost,  
 Zhi-Qiang You,  A. Zech,  Igor Ying Zhang,  Xing Zhang,  Yan Zhao,  
 Ying Zhu,  B. R. Brooks,  G. K. L. Chan,  C. J. Cramer,  M. S. Gordon,  
 W. J. Hehre,  A. Klamt,  M. W. Schmidt,  C. D. Sherrill,  D. G. Truhlar,  
 A. Aspuru-Guzik,  R. Baer,  A. T. Bell,  N. A. Besley,  Jeng-Da Chai,  
 A. E. DePrince, III,  R. A. DiStasio Jr.,  A. Dreuw,  B. D. Dunietz,  
 T. R. Furlani,  Chao-Ping Hsu,  Yousung Jung,  Jing Kong,  D. S. Lambrecht,  
 WanZhen Liang,  C. Ochsenfeld,  V. A. Rassolov,  L. V. Slipchenko,  
 J. E. Subotnik,  T. Van Voorhis,  J. M. Herbert,  A. I. Krylov,  
 P. M. W. Gill,  M. Head-Gordon

 Contributors to earlier versions of Q-Chem not listed above: 
 R. D. Adamson,  B. Austin,  J. Baker,  G. J. O. Beran,  K. Brandhorst,  
 S. T. Brown,  E. F. C. Byrd,  A. K. Chakraborty,  C.-L. Cheng,  
 Siu Hung Chien,  D. M. Chipman,  D. L. Crittenden,  H. Dachsel,  
 R. J. Doerksen,  A. D. Dutoi,  L. Fusti-Molnar,  W. A. Goddard III,  
 A. Golubeva-Zadorozhnaya,  S. R. Gwaltney,  G. Hawkins,  A. Heyden,  
 S. Hirata,  G. Kedziora,  F. J. Keil,  C. Kelley,  Jihan Kim,  R. A. King,  
 R. Z. Khaliullin,  P. P. Korambath,  W. Kurlancheek,  A. M. Lee,  M. S. Lee,  
 S. V. Levchenko,  Ching Yeh Lin,  D. Liotard,  R. C. Lochan,  I. Lotan,  
 P. E. Maslen,  N. Nair,  D. P. O'Neill,  D. Neuhauser,  E. Neuscamman,  
 C. M. Oana,  R. Olson,  B. Peters,  R. Peverati,  P. A. Pieniazek,  
 Y. M. Rhee,  J. Ritchie,  M. A. Rohrdanz,  E. Rosta,  N. J. Russ,  
 H. F. Schaefer III,  N. E. Schultz,  N. Shenvi,  A. C. Simmonett,  A. Sodt,  
 D. Stuck,  K. S. Thanthiriwatte,  V. Vanovschi,  Tao Wang,  A. Warshel,  
 C. F. Williams,  Q. Wu,  X. Xu,  W. Zhang

 Please cite Q-Chem as follows:
 Y. Shao et al., Mol. Phys. 113, 184-215 (2015)
 DOI: 10.1080/00268976.2014.952696

 Q-Chem 5.2.0 for Intel X86 EM64T Linux

 Parts of Q-Chem use Armadillo 8.300.2 (Tropical Shenanigans).
 http://arma.sourceforge.net/

 Q-Chem begins on Sun Sep 26 03:00:10 2021  

Host: cori01
0

     Scratch files written to /tmp/qchem55175//Frg1//
 May1019 |scratch|qcdevops|jenkins|workspace|build_RNUM -1
Processing $rem in /global/common/cori/software/qchem/5.2/config/preferences:
	 MEM_TOTAL  96000 
NAlpha2: 32
NElect   32
Mult     1
Symmetry turned off for PCM/SM12/SMD calculation

Checking the input file for inconsistencies... 	...done.

--------------------------------------------------------------
User input:
--------------------------------------------------------------
$molecule
-1 1
 6	2.5103419093	-0.8852419631	-2.1595987936
 6	1.7283419093	-1.2932419631	-0.8795987936
 8	0.4833419093	-1.3492419631	-0.8675987936
 8	2.3773419093	-1.5892419631	0.1474012064
 1	3.1583419093	-1.7142419631	-2.4505987936
 1	3.1663419093	-0.0442419631	-1.9225987936
 1	1.8708419093	-0.6177119631	-3.0136907936
$end
$rem
EDA2		1
METHOD		WB97X-V
BASIS		DEF2-TZVPD
XC_GRID		000099000590
NL_GRID		1
UNRESTRICTED		FALSE
MAX_SCF_CYCLES		200
SYMMETRY		FALSE
SYM_IGNORE		TRUE
BASIS_LIN_DEP_THRESH		6
THRESH		14
SCF_CONVERGENCE		8
SCF_PRINT_FRGM		TRUE
SOLVENT_METHOD		SMD
!required keywords
JOBTYPE		SP
SYM_IGNORE		TRUE
SUBSYSTEM		TRUE
GEN_SCFMAN		TRUE
CHILD_INSTRUCTION		2
SYM_IGNORE		TRUE
SCFMI		0
RI_K 0		
PARI_K 0		
MIN_PARI_K 0		
IARI_K 0		
OCC_RI_K 0		
PURECART		1111
MEM_STATIC		2000
MEM_TOTAL		96000
GUI		0
CHILD_MP		1
CHILD_MP_ORDERS		232
FRZ_RELAX		0
FRZ_RELAX_METHOD		0
EDA_CLS_ELEC		1
EDA_CLS_DISP		0
FRZ_ORTHO_DECOMP		1
EDA2		FALSE
FRGM_METHOD		FALSE
CIS_N_ROOTS  0
LOCAL_CIS    0
CIS_RLX_DNS  1
$end
$smx
SOLVENT			WATER
$end
--------------------------------------------------------------
 ----------------------------------------------------------------
             Standard Nuclear Orientation (Angstroms)
    I     Atom           X                Y                Z
 ----------------------------------------------------------------
    1      C       2.5103419093    -0.8852419631    -2.1595987936
    2      C       1.7283419093    -1.2932419631    -0.8795987936
    3      O       0.4833419093    -1.3492419631    -0.8675987936
    4      O       2.3773419093    -1.5892419631     0.1474012064
    5      H       3.1583419093    -1.7142419631    -2.4505987936
    6      H       3.1663419093    -0.0442419631    -1.9225987936
    7      H       1.8708419093    -0.6177119631    -3.0136907936
 ----------------------------------------------------------------
 Nuclear Repulsion Energy =         112.11713636 hartrees
 There are       16 alpha and       16 beta electrons
 Requested basis set is def2-TZVPD
 There are 69 shells and 181 basis functions

 Total QAlloc Memory Limit  96000 MB
 Mega-Array Size      1956 MB
 MEM_STATIC part      2000 MB
 
 Citation of the SMD model:
 Marenich, A.V.; Cramer, C.J.; Truhlar, D.G.
 J. Phys. Chem. B 2009, 113, 6378-6396.
 iSolventCode=           1
 Solvent: water                                                           
 
 vradii
            1           2           3           4           5           6
    1   1.8500000   1.8500000   1.5200000   1.5200000   1.2000000   1.2000000
            7
    1   1.2000000
 Changing PCM_VDW_RADII to SMD_RADIUS
 Discretize the solute cavity surface with Lebedev spheres
	Using 110 Lebedev grid points for each H atom
	Using 194 Lebedev grid points for other atoms
	Atomic van der Waals radii will be scaled by 1.20
 Remove points where switching function is < 1.0e-08
 Keep 648 surface tesserae and discard 458 interior tesserae
 Molecular Surface Area = 80.501 Angst**2

                       Distance Matrix (Angstroms)
             C (  1)   C (  2)   O (  3)   O (  4)   H (  5)   H (  6)
   C (  2)  1.554474
   O (  3)  2.448119  1.246317
   O (  4)  2.415689  1.250418  2.162189
   H (  5)  1.091708  2.165683  3.129655  2.715730
   H (  6)  1.092605  2.171565  3.164576  2.700823  1.751499
   H (  7)  1.100003  2.242988  2.658195  3.345581  1.782444  1.788203

 
 A cutoff of  1.0D-14 yielded   2392 shell pairs
 There are     16704 function pairs (     21502 Cartesian)
 Smallest overlap matrix eigenvalue = 1.76E-05

 Scale SEOQF with 1.000000e-01/1.000000e-01/1.000000e-01

 Standard Electronic Orientation quadrupole field applied
 Nucleus-field energy     =     0.0000000021 hartrees
 Guess from superposition of atomic densities
 Warning:  Energy on first SCF cycle will be non-variational
 SAD guess density has 30.625312 electrons

 -----------------------------------------------------------------------
  General SCF calculation program by
  Eric Jon Sundstrom, Paul Horn, Yuezhi Mao, Dmitri Zuev, Alec White,
  David Stuck, Shaama M.S., Shane Yost, Joonho Lee, David Small,
  Daniel Levine, Susi Lehtola, Hugh Burton, Evgeny Epifanovsky
 -----------------------------------------------------------------------
 Exchange:     0.1670 Hartree-Fock + 1.0000 wB97X-V + LR-HF
 Correlation:  1.0000 wB97X-V
 Using Euler-Maclaurin-Lebedev (99,590) quadrature formula
 Nonlocal Correlation:  VV10 with C = 0.0100 and b = 6.00 and scale = 1.00000
 Grid used for NLC:  SG-1 standard quadrature
Energy prior to optimization (guess energy) = -227.754322268044
Begin Timing: Total SCF Calculation
begin iterations for algorithm: DIIS         
the SCF tolerance is set to 1.00e-08
    1    -227.7543222680      1.67e-02     00000 
    2    -225.5758042944      2.52e-02     00000 
    3    -228.6039187596      4.08e-03     00000 
    4    -228.6571040311      1.39e-03     00000 
    5    -228.6632498342      2.36e-04     00000 
    6    -228.6635171041      1.38e-04     00000 
    7    -228.6635658779      6.02e-05     00000 
    8    -228.6635780234      1.46e-05     00000 
    9    -228.6635793489      4.52e-06     00000 
   10    -228.6635794973      1.21e-06     00000 
   11    -228.6635795111      2.56e-07     00000 
   12    -228.6635795116      5.66e-08     00000 
   13    -228.6635795117      1.50e-08     00000 
   14    -228.6635795117      3.87e-09     00000 Convergence criterion met
Timing for Total SCF: 328.00s (wall), 549.58s (cpu)
(3)  G-ENP(liq) elect-nuc-pol free energy of system     -228.663579512 a.u.
(4)  G-CDS(liq) cavity-dispersion-solvent structure 
     free energy                                                3.9660 kcal/mol
(6)  G-S(liq) free energy of system                     -228.657259302 a.u.
E_pcm = -0.1322944553
E_cds = 0.0063202093
Multipole orders to be included
        2
        3
computing dipole RHS
computing quadrupole RHS
total number of RHS in solve_reponses: 8
RHS batch sizes
        8
Beginning Block Conjugate Gradient Iterations. Batch Number: 0
computing hessian-vector products by finite difference
              1      7.29e-01     00000 Conjugate Gradient Iteration
computing hessian-vector products by finite difference
              2      2.33e-01     00000 Conjugate Gradient Iteration
computing hessian-vector products by finite difference
              3      6.47e-02     00000 Conjugate Gradient Iteration
computing hessian-vector products by finite difference
              4      1.72e-02     00000 Conjugate Gradient Iteration
computing hessian-vector products by finite difference
              5      2.45e-03     00000 Conjugate Gradient Iteration
computing hessian-vector products by finite difference
              6      6.20e-04     00000 Conjugate Gradient Iteration
computing hessian-vector products by finite difference
              7      8.71e-05     00000 Conjugate Gradient Iteration
computing hessian-vector products by finite difference
              8      1.05e-05     00000 Conjugate Gradient Iteration
computing hessian-vector products by finite difference
              9      1.61e-06     00000 Conjugate Gradient Iteration
computing hessian-vector products by finite difference
             10      1.66e-07     00000 Conjugate Gradient Iteration
computing hessian-vector products by finite difference
             11      2.12e-08     00000 Conjugate Gradient Iteration
computing hessian-vector products by finite difference
             12      5.02e-09     00000 CG Converged
batch 0 complete
Done Calculating Responses
TESTING ORTHOGONALIZATION OF MULTIPOLE BASIS
Multipole virts passed orthogonality test
Virts Per Order
        48
        80
 
 --------------------------------------------------------------
 
                    Orbital Energies (a.u.)
 --------------------------------------------------------------
 
 Alpha MOs
 -- Occupied --
-19.1530 -19.1505 -10.3561 -10.2515  -1.1683  -1.0624  -0.8372  -0.6175
 -0.5471  -0.5444  -0.5395  -0.4838  -0.4647  -0.3639  -0.3604  -0.3416
 -- Virtual --
  0.0672   0.0997   0.1002   0.1081   0.1346   0.1445   0.1455   0.1501
  0.1570   0.1903   0.2015   0.2275   0.2302   0.2366   0.2614   0.2631
  0.2988   0.3144   0.3326   0.3480   0.3502   0.3617   0.3668   0.3841
  0.3859   0.3902   0.4169   0.4232   0.4239   0.4544   0.4680   0.4715
  0.4820   0.4863   0.5054   0.5099   0.5441   0.5622   0.5859   0.6001
  0.6118   0.6203   0.6258   0.6506   0.6552   0.6603   0.6778   0.6990
  0.7012   0.7274   0.7653   0.7893   0.8093   0.8102   0.8327   0.8475
  0.8609   0.9583   0.9647   0.9801   0.9824   1.0335   1.0371   1.1094
  1.1491   1.1700   1.2361   1.2673   1.2785   1.3004   1.3218   1.3293
  1.4392   1.5426   1.5838   1.7340   1.8006   1.8408   1.8557   1.8989
  1.9028   1.9335   1.9468   1.9555   2.0102   2.0820   2.1125   2.1438
  2.1893   2.1949   2.2990   2.3072   2.3906   2.4107   2.4592   2.4908
  2.5580   2.5836   2.5936   2.6660   2.7552   2.8045   2.8659   2.9235
  2.9478   2.9675   3.0011   3.1685   3.1745   3.2209   3.2688   3.2989
  3.3126   3.3364   3.3725   3.3943   3.4173   3.5131   3.5259   3.5503
  3.5845   3.6209   3.6809   3.7338   3.7432   3.8585   3.9061   4.0001
  4.0454   4.1552   4.3263   4.5383   4.5770   4.6275   4.7741   4.7946
  4.9716   5.2983   5.3204   5.3332   5.3378   5.4455   5.6667   5.7781
  5.7876   6.0301   6.1771   6.3290   6.3319   6.5744   6.5956   6.7068
  6.7157   6.7262   6.9109   6.9547   7.0004   7.2250   7.2754   7.3680
  7.3825  22.5561  23.6979  44.1927  44.3096
 --------------------------------------------------------------
 
          Ground-State Mulliken Net Atomic Charges

     Atom                 Charge (a.u.)
  ----------------------------------------
      1 C                    -0.604187
      2 C                     0.511598
      3 O                    -0.764458
      4 O                    -0.780254
      5 H                     0.203397
      6 H                     0.208380
      7 H                     0.225524
  ----------------------------------------
  Sum of atomic charges =    -1.000000

 -----------------------------------------------------------------
                    Cartesian Multipole Moments
 -----------------------------------------------------------------
    Charge (ESU x 10^10)
                -4.8032
    Dipole Moment (Debye)
         X      -5.6948      Y       7.7033      Z      -0.2632
       Tot       9.5834
    Quadrupole Moments (Debye-Ang)
        XX     -39.3930     XY      10.5554     YY     -37.3313
        XZ      -5.9236     YZ       0.4621     ZZ     -25.7529
    Octopole Moments (Debye-Ang^2)
       XXX    -177.9476    XXY      57.7271    XYY     -63.3259
       YYY     114.3135    XXZ      10.8486    XYZ       8.3047
       YYZ      24.0845    XZZ     -41.5363    YZZ      32.7549
       ZZZ      75.1180
    Hexadecapole Moments (Debye-Ang^3)
      XXXX    -758.7049   XXXY     239.4261   XXYY    -195.9282
      XYYY     196.8219   YYYY    -314.9386   XXXZ     116.5014
      XXYZ      -4.5419   XYYZ      35.5827   YYYZ     -72.9730
      XXZZ    -148.1752   XYZZ      48.8414   YYZZ    -100.4974
      XZZZ     143.8405   YZZZ     -76.6139   ZZZZ    -305.5741
 -----------------------------------------------------------------
Archival summary:
1\1\nid00530\SP\ProcedureUnspecified\BasisUnspecified\223(1-,1)\meili\SunSep2604:19:182021SunSep2604:19:182021\0\\#,ProcedureUnspecified,BasisUnspecified,\\-1,1\C\O,1,1.24632\O,1,1.25042,2,119.996\C,1,1.55447,2,121.484,3,178.861,0\H,4,1.09171,1,108.589,2,-119.246,0\H,4,1.09261,1,108.993,2,124.981,0\H,4,1.1,1,114.25,2,2.42431,0\\\@

 Total job time:  4748.79s(wall), 8928.37s(cpu) 
 Sun Sep 26 04:19:19 2021

        *************************************************************
        *                                                           *
        *  Thank you very much for using Q-Chem.  Have a nice day.  *
        *                                                           *
        *************************************************************


Done Job For Fragment 0
calling putenv with: QCSCRATCH=/global/cscratch1/sd/meili 
calling putenv with: QCLOCALSCR=/tmp 
calling putenv with: QCTHREADS=32 
Creating input file /tmp/qchem55175/Frg2.input
using default PutDataFrgm: nothing
calling putenv with: QCSCRATCH=/tmp/qchem55175/ 
calling putenv with: QCLOCALSCR=/tmp/qchem55175/ 
Spawning Job For Fragment 1
                  Welcome to Q-Chem
     A Quantum Leap Into The Future Of Chemistry


 Q-Chem 5.2, Q-Chem, Inc., Pleasanton, CA (2019)

 License issued to: National Energy Research Scientific Computing Center

 Yihan Shao,  Zhengting Gan,  E. Epifanovsky,  A. T. B. Gilbert,  M. Wormit,  
 J. Kussmann,  A. W. Lange,  A. Behn,  Jia Deng,  Xintian Feng,  D. Ghosh,  
 M. Goldey,  P. R. Horn,  L. D. Jacobson,  I. Kaliman,  T. Kus,  A. Landau,  
 Jie Liu,  E. I. Proynov,  R. M. Richard,  R. P. Steele,  E. J. Sundstrom,  
 H. L. Woodcock III,  P. M. Zimmerman,  D. Zuev,  B. Albrecht,  E. Alguire,  
 S. A. Baeppler,  D. Barton,  Z. Benda,  Y. A. Bernard,  E. J. Berquist,  
 K. B. Bravaya,  H. Burton,  D. Casanova,  Chun-Min Chang,  Yunqing Chen,  
 A. Chien,  K. D. Closser,  M. P. Coons,  S. Coriani,  S. Dasgupta,  
 A. L. Dempwolff,  M. Diedenhofen,  Hainam Do,  R. G. Edgar,  Po-Tung Fang,  
 S. Faraji,  S. Fatehi,  Qingguo Feng,  K. D. Fenk,  J. Fosso-Tande,  
 J. Gayvert,  Qinghui Ge,  A. Ghysels,  G. Gidofalvi,  J. Gomes,  
 J. Gonthier,  A. Gunina,  D. Hait,  M. W. D. Hanson-Heine,  
 P. H. P. Harbach,  A. W. Hauser,  M. F. Herbst,  J. E. Herr,  
 E. G. Hohenstein,  Z. C. Holden,  Kerwin Hui,  B. C. Huynh,  T.-C. Jagau,  
 Hyunjun Ji,  B. Kaduk,  K. Khistyaev,  Jaehoon Kim,  P. Klunzinger,  K. Koh,  
 D. Kosenkov,  L. Koulias,  T. Kowalczyk,  C. M. Krauter,  A. Kunitsa,  
 Ka Un Lao,  A. Laurent,  K. V. Lawler,  Joonho Lee,  D. Lefrancois,  
 S. Lehtola,  D. S. Levine,  Yi-Pei Li,  You-Sheng Lin,  Fenglai Liu,  
 E. Livshits,  A. Luenser,  P. Manohar,  E. Mansoor,  S. F. Manzer,  
 Shan-Ping Mao,  Yuezhi Mao,  N. Mardirossian,  A. V. Marenich,  
 T. Markovich,  L. A. Martinez-Martinez,  S. A. Maurer,  N. J. Mayhall,  
 S. C. McKenzie,  J.-M. Mewes,  P. Morgante,  A. F. Morrison,  
 J. W. Mullinax,  K. Nanda,  T. S. Nguyen-Beck,  R. Olivares-Amaya,  
 J. A. Parkhill,  Zheng Pei,  T. M. Perrine,  F. Plasser,  P. Pokhilko,  
 S. Prager,  A. Prociuk,  E. Ramos,  D. R. Rehn,  F. Rob,  M. Scheurer,  
 M. Schneider,  N. Sergueev,  S. M. Sharada,  S. Sharma,  D. W. Small,  
 T. Stauch,  T. Stein,  Yu-Chuan Su,  A. J. W. Thom,  A. Tkatchenko,  
 T. Tsuchimochi,  N. M. Tubman,  L. Vogt,  M. L. Vidal,  O. Vydrov,  
 M. A. Watson,  J. Wenzel,  M. de Wergifosse,  T. A. Wesolowski,  A. White,  
 J. Witte,  A. Yamada,  Jun Yang,  K. Yao,  S. Yeganeh,  S. R. Yost,  
 Zhi-Qiang You,  A. Zech,  Igor Ying Zhang,  Xing Zhang,  Yan Zhao,  
 Ying Zhu,  B. R. Brooks,  G. K. L. Chan,  C. J. Cramer,  M. S. Gordon,  
 W. J. Hehre,  A. Klamt,  M. W. Schmidt,  C. D. Sherrill,  D. G. Truhlar,  
 A. Aspuru-Guzik,  R. Baer,  A. T. Bell,  N. A. Besley,  Jeng-Da Chai,  
 A. E. DePrince, III,  R. A. DiStasio Jr.,  A. Dreuw,  B. D. Dunietz,  
 T. R. Furlani,  Chao-Ping Hsu,  Yousung Jung,  Jing Kong,  D. S. Lambrecht,  
 WanZhen Liang,  C. Ochsenfeld,  V. A. Rassolov,  L. V. Slipchenko,  
 J. E. Subotnik,  T. Van Voorhis,  J. M. Herbert,  A. I. Krylov,  
 P. M. W. Gill,  M. Head-Gordon

 Contributors to earlier versions of Q-Chem not listed above: 
 R. D. Adamson,  B. Austin,  J. Baker,  G. J. O. Beran,  K. Brandhorst,  
 S. T. Brown,  E. F. C. Byrd,  A. K. Chakraborty,  C.-L. Cheng,  
 Siu Hung Chien,  D. M. Chipman,  D. L. Crittenden,  H. Dachsel,  
 R. J. Doerksen,  A. D. Dutoi,  L. Fusti-Molnar,  W. A. Goddard III,  
 A. Golubeva-Zadorozhnaya,  S. R. Gwaltney,  G. Hawkins,  A. Heyden,  
 S. Hirata,  G. Kedziora,  F. J. Keil,  C. Kelley,  Jihan Kim,  R. A. King,  
 R. Z. Khaliullin,  P. P. Korambath,  W. Kurlancheek,  A. M. Lee,  M. S. Lee,  
 S. V. Levchenko,  Ching Yeh Lin,  D. Liotard,  R. C. Lochan,  I. Lotan,  
 P. E. Maslen,  N. Nair,  D. P. O'Neill,  D. Neuhauser,  E. Neuscamman,  
 C. M. Oana,  R. Olson,  B. Peters,  R. Peverati,  P. A. Pieniazek,  
 Y. M. Rhee,  J. Ritchie,  M. A. Rohrdanz,  E. Rosta,  N. J. Russ,  
 H. F. Schaefer III,  N. E. Schultz,  N. Shenvi,  A. C. Simmonett,  A. Sodt,  
 D. Stuck,  K. S. Thanthiriwatte,  V. Vanovschi,  Tao Wang,  A. Warshel,  
 C. F. Williams,  Q. Wu,  X. Xu,  W. Zhang

 Please cite Q-Chem as follows:
 Y. Shao et al., Mol. Phys. 113, 184-215 (2015)
 DOI: 10.1080/00268976.2014.952696

 Q-Chem 5.2.0 for Intel X86 EM64T Linux

 Parts of Q-Chem use Armadillo 8.300.2 (Tropical Shenanigans).
 http://arma.sourceforge.net/

 Q-Chem begins on Sun Sep 26 04:19:20 2021  

Host: cori01
0

     Scratch files written to /tmp/qchem55175//Frg2//
 May1019 |scratch|qcdevops|jenkins|workspace|build_RNUM -1
Processing $rem in /global/common/cori/software/qchem/5.2/config/preferences:
	 MEM_TOTAL  96000 
NAlpha2: 40
NElect   40
Mult     1
Symmetry turned off for PCM/SM12/SMD calculation

Checking the input file for inconsistencies... 	...done.

--------------------------------------------------------------
User input:
--------------------------------------------------------------
$molecule
-1 1
 6	-1.7286580907	0.0177580369	0.9054012064
 6	-2.6256580907	-0.1512419631	-0.3125987936
 6	-1.1066580907	1.3967580369	1.0294012064
 8	-1.4976580907	2.3187580369	0.2774012064
 8	-0.2146580907	1.5457580369	1.9134012064
 1	-2.3636580907	-0.1312419631	1.7834012064
 1	-0.9656580907	-0.7522419631	0.9684012064
 1	-2.0476580907	0.0587580369	-1.2115987936
 1	-3.4436580907	0.5667580369	-0.2435987936
 1	-3.0467180907	-1.1653919631	-0.3773777936
$end
$rem
EDA2		1
METHOD		WB97X-V
BASIS		DEF2-TZVPD
XC_GRID		000099000590
NL_GRID		1
UNRESTRICTED		FALSE
MAX_SCF_CYCLES		200
SYMMETRY		FALSE
SYM_IGNORE		TRUE
BASIS_LIN_DEP_THRESH		6
THRESH		14
SCF_CONVERGENCE		8
SCF_PRINT_FRGM		TRUE
SOLVENT_METHOD		SMD
!required keywords
JOBTYPE		SP
SYM_IGNORE		TRUE
SUBSYSTEM		TRUE
GEN_SCFMAN		TRUE
CHILD_INSTRUCTION		2
SYM_IGNORE		TRUE
SCFMI		0
RI_K 0		
PARI_K 0		
MIN_PARI_K 0		
IARI_K 0		
OCC_RI_K 0		
PURECART		1111
MEM_STATIC		2000
MEM_TOTAL		96000
GUI		0
CHILD_MP		1
CHILD_MP_ORDERS		232
FRZ_RELAX		0
FRZ_RELAX_METHOD		0
EDA_CLS_ELEC		1
EDA_CLS_DISP		0
FRZ_ORTHO_DECOMP		1
EDA2		FALSE
FRGM_METHOD		FALSE
CIS_N_ROOTS  0
LOCAL_CIS    0
CIS_RLX_DNS  1
$end
$smx
SOLVENT			WATER
$end
--------------------------------------------------------------
 ----------------------------------------------------------------
             Standard Nuclear Orientation (Angstroms)
    I     Atom           X                Y                Z
 ----------------------------------------------------------------
    1      C      -1.7286580907     0.0177580369     0.9054012064
    2      C      -2.6256580907    -0.1512419631    -0.3125987936
    3      C      -1.1066580907     1.3967580369     1.0294012064
    4      O      -1.4976580907     2.3187580369     0.2774012064
    5      O      -0.2146580907     1.5457580369     1.9134012064
    6      H      -2.3636580907    -0.1312419631     1.7834012064
    7      H      -0.9656580907    -0.7522419631     0.9684012064
    8      H      -2.0476580907     0.0587580369    -1.2115987936
    9      H      -3.4436580907     0.5667580369    -0.2435987936
   10      H      -3.0467180907    -1.1653919631    -0.3773777936
 ----------------------------------------------------------------
 Nuclear Repulsion Energy =         169.15785102 hartrees
 There are       20 alpha and       20 beta electrons
 Requested basis set is def2-TZVPD
 There are 92 shells and 236 basis functions

 Total QAlloc Memory Limit  96000 MB
 Mega-Array Size      1956 MB
 MEM_STATIC part      2000 MB
 
 Citation of the SMD model:
 Marenich, A.V.; Cramer, C.J.; Truhlar, D.G.
 J. Phys. Chem. B 2009, 113, 6378-6396.
 iSolventCode=           1
 Solvent: water                                                           
 
 vradii
            1           2           3           4           5           6
    1   1.8500000   1.8500000   1.8500000   1.5200000   1.5200000   1.2000000
            7           8           9          10
    1   1.2000000   1.2000000   1.2000000   1.2000000
 Changing PCM_VDW_RADII to SMD_RADIUS
 Discretize the solute cavity surface with Lebedev spheres
	Using 110 Lebedev grid points for each H atom
	Using 194 Lebedev grid points for other atoms
	Atomic van der Waals radii will be scaled by 1.20
 Remove points where switching function is < 1.0e-08
 Keep 838 surface tesserae and discard 682 interior tesserae
 Molecular Surface Area = 99.599 Angst**2

                       Distance Matrix (Angstroms)
             C (  1)   C (  2)   C (  3)   O (  4)   O (  5)   H (  6)
   C (  2)  1.522069
   C (  3)  1.517861  2.550417
   O (  4)  2.396319  2.778738  1.252385
   O (  5)  2.375509  3.694294  1.264643  2.218133
   H (  6)  1.093760  2.112406  2.117392  3.003413  2.728998
   H (  7)  1.085835  2.181229  2.154484  3.192420  2.595733  1.733283
   H (  8)  2.141292  1.089213  2.774492  2.761742  3.916208  3.017612
   H (  9)  2.136077  1.090600  2.787651  2.669805  4.004689  2.400486
   H ( 10)  2.186927  1.099995  3.508201  3.868801  4.540767  2.490984
             H (  7)   H (  8)   H (  9)
   H (  8)  2.565316
   H (  9)  3.057644  1.773106
   H ( 10)  2.512494  1.786782  1.782078
 
 A cutoff of  1.0D-14 yielded   4188 shell pairs
 There are     28000 function pairs (     35676 Cartesian)
 Smallest overlap matrix eigenvalue = 8.39E-06

 Scale SEOQF with 1.000000e-01/1.000000e-01/1.000000e-01

 Standard Electronic Orientation quadrupole field applied
 Nucleus-field energy     =     0.0000000045 hartrees
 Guess from superposition of atomic densities
 Warning:  Energy on first SCF cycle will be non-variational
 SAD guess density has 38.612942 electrons

 -----------------------------------------------------------------------
  General SCF calculation program by
  Eric Jon Sundstrom, Paul Horn, Yuezhi Mao, Dmitri Zuev, Alec White,
  David Stuck, Shaama M.S., Shane Yost, Joonho Lee, David Small,
  Daniel Levine, Susi Lehtola, Hugh Burton, Evgeny Epifanovsky
 -----------------------------------------------------------------------
 Exchange:     0.1670 Hartree-Fock + 1.0000 wB97X-V + LR-HF
 Correlation:  1.0000 wB97X-V
 Using Euler-Maclaurin-Lebedev (99,590) quadrature formula
 Nonlocal Correlation:  VV10 with C = 0.0100 and b = 6.00 and scale = 1.00000
 Grid used for NLC:  SG-1 standard quadrature
Energy prior to optimization (guess energy) = -267.068146232433
Begin Timing: Total SCF Calculation
begin iterations for algorithm: DIIS         
the SCF tolerance is set to 1.00e-08
    1    -267.0681462324      1.28e-02     00000 
    2    -263.3022401623      2.02e-02     00000 
    3    -267.8351588656      5.00e-03     00000 
    4    -267.9548597368      2.22e-03     00000 
    5    -267.9795415176      6.00e-04     00000 
    6    -267.9813298694      3.06e-04     00000 
    7    -267.9818083173      5.24e-05     00000 
    8    -267.9818280960      1.46e-05     00000 
    9    -267.9818300446      5.47e-06     00000 
   10    -267.9818303325      2.03e-06     00000 
   11    -267.9818303921      2.74e-07     00000 
   12    -267.9818303943      7.16e-08     00000 
   13    -267.9818303944      2.96e-08     00000 
   14    -267.9818303944      9.04e-09     00000 Convergence criterion met
Timing for Total SCF: 584.00s (wall), 1157.63s (cpu)
(3)  G-ENP(liq) elect-nuc-pol free energy of system     -267.981830394 a.u.
(4)  G-CDS(liq) cavity-dispersion-solvent structure 
     free energy                                                3.9744 kcal/mol
(6)  G-S(liq) free energy of system                     -267.975496771 a.u.
E_pcm = -0.1306617070
E_cds = 0.0063336236
Multipole orders to be included
        2
        3
computing dipole RHS
computing quadrupole RHS
total number of RHS in solve_reponses: 8
RHS batch sizes
        8
Beginning Block Conjugate Gradient Iterations. Batch Number: 0
computing hessian-vector products by finite difference
              1      6.27e-01     00000 Conjugate Gradient Iteration
computing hessian-vector products by finite difference
              2      1.96e-01     00000 Conjugate Gradient Iteration
computing hessian-vector products by finite difference
              3      5.00e-02     00000 Conjugate Gradient Iteration
computing hessian-vector products by finite difference
              4      1.31e-02     00000 Conjugate Gradient Iteration
computing hessian-vector products by finite difference
              5      2.03e-03     00000 Conjugate Gradient Iteration
computing hessian-vector products by finite difference
              6      4.76e-04     00000 Conjugate Gradient Iteration
computing hessian-vector products by finite difference
              7      6.85e-05     00000 Conjugate Gradient Iteration
computing hessian-vector products by finite difference
              8      1.09e-05     00000 Conjugate Gradient Iteration
computing hessian-vector products by finite difference
              9      1.79e-06     00000 Conjugate Gradient Iteration
computing hessian-vector products by finite difference
             10      2.94e-07     00000 Conjugate Gradient Iteration
computing hessian-vector products by finite difference
             11      3.92e-08     00000 Conjugate Gradient Iteration
computing hessian-vector products by finite difference
             12      8.02e-09     00000 CG Converged
batch 0 complete
Done Calculating Responses
TESTING ORTHOGONALIZATION OF MULTIPOLE BASIS
Multipole virts passed orthogonality test
Virts Per Order
           60
          100
 
 --------------------------------------------------------------
 
                    Orbital Energies (a.u.)
 --------------------------------------------------------------
 
 Alpha MOs
 -- Occupied --
-19.1556 -19.1516 -10.3531 -10.2500 -10.2429  -1.1614  -1.0635  -0.8895
 -0.7516  -0.6164  -0.5659  -0.5614  -0.5319  -0.4956  -0.4801  -0.4485
 -0.4305  -0.3643  -0.3549  -0.3456
 -- Virtual --
  0.0673   0.0878   0.0962   0.1049   0.1226   0.1349   0.1402   0.1451
  0.1554   0.1678   0.1779   0.1994   0.2078   0.2117   0.2283   0.2350
  0.2498   0.2620   0.2741   0.2868   0.2988   0.3126   0.3172   0.3233
  0.3362   0.3446   0.3648   0.3685   0.3741   0.3863   0.3904   0.3948
  0.4032   0.4063   0.4167   0.4179   0.4264   0.4523   0.4593   0.4669
  0.4761   0.4872   0.4962   0.5042   0.5128   0.5144   0.5284   0.5362
  0.5432   0.5549   0.5705   0.5796   0.6040   0.6167   0.6234   0.6339
  0.6543   0.6652   0.6856   0.6905   0.6998   0.7019   0.7190   0.7428
  0.7636   0.7788   0.7875   0.7922   0.7977   0.8070   0.8092   0.8193
  0.8261   0.8485   0.8586   0.8879   0.9048   0.9556   0.9831   1.0027
  1.0101   1.0335   1.0648   1.0846   1.1084   1.1352   1.1480   1.1910
  1.2254   1.2827   1.2861   1.3099   1.3356   1.3788   1.3927   1.3991
  1.4136   1.4456   1.4835   1.5945   1.6776   1.7474   1.8170   1.8745
  1.8895   1.9110   1.9152   1.9346   1.9363   1.9691   1.9711   1.9911
  2.0097   2.0324   2.0864   2.1438   2.1692   2.1823   2.2112   2.2189
  2.2545   2.3024   2.3457   2.3906   2.4455   2.4654   2.4734   2.5379
  2.5594   2.5959   2.6145   2.6698   2.6890   2.7198   2.7730   2.7951
  2.8313   2.8410   2.8756   2.8954   2.9267   2.9974   3.0247   3.0477
  3.1030   3.1715   3.2377   3.2559   3.2924   3.3232   3.3284   3.3536
  3.3588   3.3920   3.4389   3.4523   3.4648   3.4762   3.5474   3.5593
  3.5850   3.5951   3.6364   3.6534   3.6752   3.6992   3.7403   3.7487
  3.7931   3.8029   3.9424   4.0556   4.1015   4.1228   4.1796   4.2234
  4.3209   4.4252   4.5500   4.5904   4.7026   4.7350   4.7799   4.8156
  4.8691   5.0467   5.1343   5.3018   5.3393   5.3446   5.3535   5.4743
  5.6953   5.7196   5.7761   5.9884   6.2070   6.3013   6.3274   6.5878
  6.6127   6.6877   6.7275   6.7487   6.9444   6.9502   7.0273   7.2387
  7.3422   7.3615   7.3864  22.6648  22.7906  23.7056  44.2338  44.3751
 --------------------------------------------------------------
 
          Ground-State Mulliken Net Atomic Charges

     Atom                 Charge (a.u.)
  ----------------------------------------
      1 C                    -0.033015
      2 C                    -0.830490
      3 C                     0.347442
      4 O                    -0.759577
      5 O                    -0.806599
      6 H                     0.173701
      7 H                     0.245741
      8 H                     0.213358
      9 H                     0.198817
     10 H                     0.250622
  ----------------------------------------
  Sum of atomic charges =    -1.000000

 -----------------------------------------------------------------
                    Cartesian Multipole Moments
 -----------------------------------------------------------------
    Charge (ESU x 10^10)
                -4.8032
    Dipole Moment (Debye)
         X       2.9984      Y     -11.3306      Z      -5.5364
       Tot      12.9624
    Quadrupole Moments (Debye-Ang)
        XX     -36.8483     XY      10.1105     YY     -57.9317
        XZ      -1.7632     YZ     -10.2876     ZZ     -44.7292
    Octopole Moments (Debye-Ang^2)
       XXX     152.1569    XXY     -46.1072    XYY      74.6066
       YYY    -153.4700    XXZ     -17.6842    XYZ       0.4905
       YYZ     -42.2638    XZZ      47.4032    YZZ     -50.2474
       ZZZ     -96.0891
    Hexadecapole Moments (Debye-Ang^3)
      XXXX    -628.7953   XXXY     109.2843   XXYY    -210.3511
      XYYY     155.8153   YYYY    -561.0569   XXXZ      29.8118
      XXYZ     -29.7361   XYYZ      19.0143   YYYZ    -131.3968
      XXZZ    -143.6576   XYZZ      28.1764   YYZZ    -148.2625
      XZZZ      41.3901   YZZZ    -133.6347   ZZZZ    -328.9106
 -----------------------------------------------------------------
Archival summary:
1\1\nid00530\SP\ProcedureUnspecified\BasisUnspecified\235(1-,1)\meili\SunSep2606:58:262021SunSep2606:58:262021\0\\#,ProcedureUnspecified,BasisUnspecified,\\-1,1\C\O,1,1.25239\O,1,1.26464,2,123.587\C,1,1.51786,2,119.463,3,179.373,0\H,4,1.08584,1,110.583,2,137.751,0\H,4,1.09376,1,107.223,2,-107.885,0\C,4,1.52207,1,114.063,2,9.8459,0\H,7,1.08921,4,109.047,1,57.9311,0\H,7,1.0906,4,108.56,1,-60.54,0\H,7,1.09999,4,112.029,1,179.189,0\\\@

 Total job time:  9547.14s(wall), 18923.70s(cpu) 
 Sun Sep 26 06:58:27 2021

        *************************************************************
        *                                                           *
        *  Thank you very much for using Q-Chem.  Have a nice day.  *
        *                                                           *
        *************************************************************


Done Job For Fragment 1
calling putenv with: QCSCRATCH=/global/cscratch1/sd/meili 
calling putenv with: QCLOCALSCR=/tmp 
calling putenv with: QCTHREADS=32 
Doing General SCFMI
 Exchange:     0.1670 Hartree-Fock + 1.0000 wB97X-V + LR-HF
 Correlation:  1.0000 wB97X-V
 Using Euler-Maclaurin-Lebedev (99,590) quadrature formula
 Nonlocal Correlation:  VV10 with C = 0.0100 and b = 6.00 and scale = 1.00000
 Grid used for NLC:  SG-1 standard quadrature
performing fock build before subrot guess so that all methods have access
Printing subrot_rss_gen Method Specification:
Occupied Subspace Method is 0
Virtual Subspace Method is 0
Energy of the unrelaxed supersystem initial determinant -496.274100940785
performing fock build before subrot guess so that all methods have access
Printing subrot_rss_gen Method Specification:
Occupied Subspace Method is 0
Virtual Subspace Method is 0
Energy of the unrelaxed supersystem initial determinant w/ solvent -496.642811724832
write pseudocanon occs and virts to disk
write pseudocanon orbital energies to disk
Tolerance of ortho_decomp_scf: 1.00e-06
GDM subspace size: 20
Beginning the Orthogonal Decomposition of the Initial Supersystem Wavefunction
    1    -496.3567131506      5.37e-02     ortho_decomp Preconditoned Steepest Descent
    2    -496.3623323423      1.71e-03     ortho_decomp BFGS Step
    3    -496.3623624977      1.42e-04     ortho_decomp BFGS Step
    4    -496.3623625453      6.24e-06     ortho_decomp BFGS Step
    5    -496.3623625456      2.32e-07     ortho_decomp 00000 Convergence criterion met
 Hartree-Fock
 Hartree-Fock
 Hartree-Fock
Doing General SCFMI
 Exchange:     0.1670 Hartree-Fock + 1.0000 wB97X-V + LR-HF
 Correlation:  1.0000 wB97X-V
 Using Euler-Maclaurin-Lebedev (99,590) quadrature formula
 Nonlocal Correlation:  VV10 with C = 0.0100 and b = 6.00 and scale = 1.00000
 Grid used for NLC:  SG-1 standard quadrature
performing fock build at end of subrot_r(subrot) constructor so that all methods have access
<S^2> of initial wavefunction before polarization iterations 0.0000000000
Beginning iterations for the determination of the polarized wavefunction
Energy prior to optimization (guess energy) = -496.642811724832
Begin Timing: Total SCF Calculation
begin iterations for algorithm: DIIS         
the SCF tolerance is set to 1.00e-08
    1    -496.6428117248      7.26e-05     00000 
    2    -496.6429735326      6.47e-05     00000 
    3    -496.6430480433      1.55e-05     00000 
    4    -496.6430586784      7.04e-06     00000 
    5    -496.6430609199      3.08e-06     00000 
    6    -496.6430615760      1.53e-06     00000 
    7    -496.6430616940      4.16e-07     00000 
    8    -496.6430617068      1.12e-07     00000 
    9    -496.6430617082      4.19e-08     00000 
   10    -496.6430617084      1.84e-08     00000 
   11    -496.6430617084      7.38e-09     00000 Convergence criterion met
write pseudocanon occs and virts to disk
write pseudocanon orbital energies to disk
Timing for Total SCF: 1955.00s (wall), 3887.64s (cpu)
<S^2> of polarized wavefunction after polarization iterations 0.0000000000
relaxing scfmi constraint to allow all rotations in the entire AO span
Doing General SCFMI
 Exchange:     0.1670 Hartree-Fock + 1.0000 wB97X-V + LR-HF
 Correlation:  1.0000 wB97X-V
 Using Euler-Maclaurin-Lebedev (99,590) quadrature formula
 Nonlocal Correlation:  VV10 with C = 0.0100 and b = 6.00 and scale = 1.00000
 Grid used for NLC:  SG-1 standard quadrature
performing fock build at end of subrot_r(subrot) constructor so that all methods have access
<S^2> of polarized wavefunction before ct-allowed iterations 0.0000000000
Beginning iterations for the determination of the CT-Allowed wavefunction
Energy prior to optimization (guess energy) = -496.643061708427
Begin Timing: Total SCF Calculation
begin iterations for algorithm: DIIS         
the SCF tolerance is set to 1.00e-08
    1    -496.6430617084      9.16e-05     00000 
    2    -496.6438061427      1.07e-05     00000 
    3    -496.6438307784      3.33e-06     00000 
    4    -496.6438315768      2.99e-06     00000 
    5    -496.6438321439      3.58e-07     00000 
    6    -496.6438321602      2.07e-07     00000 
    7    -496.6438321651      6.04e-08     00000 
    8    -496.6438321656      1.95e-08     00000 
    9    -496.6438321657      4.57e-09     00000 Convergence criterion met
write pseudocanon occs and virts to disk
write pseudocanon orbital energies to disk
Timing for Total SCF: 1579.00s (wall), 3138.01s (cpu)
<S^2> of ct_allowed wavefunction after ct-allowed iterations 0.0000000000

================================
        Results of EDA2         
================================
Basic EDA Quantities
--------------------
Fragment Energies (Ha):
1 -228.6572593024
2 -267.9754967708
--------------------
  E_prp (kJ/mol) = -0.0000
  E_sol (kJ/mol) = -280.0747
  E_frz (kJ/mol) = 284.4837
  E_pol (kJ/mol) = -0.6563
  E_vct (kJ/mol) = -2.0229
  E_int (kJ/mol) = 1.7298
--------------------


Initial Wavefunction Decomposition
--------------------
  --------------------
  Orthogonal Fragment Subspace Decomposition:
  --------------------
     E_elec   (ELEC)   (kJ/mol) = 256.5742
     E_pauli  (PAULI)  (kJ/mol) = 41.4610
     E_disp   (DISP)   (kJ/mol) = -13.5515
     --------------------
     Terms summing to E_pauli:
     --------------------
        E_kep_pauli       (kJ/mol) = 52.7501
        E_disp_free_pauli (kJ/mol) = -11.2891
  --------------------
  Classical Frozen Decomposition:
  --------------------
     E_cls_elec  (CLS ELEC)  (kJ/mol) = 278.3471
     E_cls_pauli (CLS PAULI) (kJ/mol) = 6.1366
    [E_mod_pauli (MOD PAULI) (kJ/mol) = 19.6881 (CLS PAULI - DISP from orthogonal decomposition) ]
  --------------------
--------------------

Simplified EDA Summary (kJ/mol)
--------------------
 PREPARATION     -0.0000
 SOLVATION       -280.0747
 FROZEN          298.0351      (does not include dispersion)
[PAULI           41.4610]     (if this is negligible, then frozen describes electrostatics)
 DISPERSION      -13.5515
 POLARIZATION    -0.6563
 CHARGE TRANSFER -2.0229
 TOTAL           1.7298     (PRP + SOL + FRZ + DISP + POL + CT)
--------------------
 
 --------------------------------------------------------------
 
                    Orbital Energies (a.u.)
 --------------------------------------------------------------
 
 Alpha MOs
 -- Occupied --
-19.1537 -19.1499 -19.1497 -19.1488 -10.3538 -10.3506 -10.2500 -10.2440
-10.2400  -1.1662  -1.1592  -1.0615  -1.0603  -0.8857  -0.8357  -0.7483
 -0.6179  -0.6122  -0.5655  -0.5590  -0.5448  -0.5421  -0.5352  -0.5297
 -0.4934  -0.4812  -0.4774  -0.4631  -0.4447  -0.4276  -0.3627  -0.3613
 -0.3572  -0.3519  -0.3436  -0.3389
 -- Virtual --
  0.0636   0.0811   0.0852   0.0918   0.1081   0.1127   0.1142   0.1238
  0.1322   0.1350   0.1406   0.1455   0.1557   0.1592   0.1605   0.1647
  0.1754   0.1852   0.1929   0.2022   0.2069   0.2127   0.2187   0.2218
  0.2309   0.2416   0.2444   0.2558   0.2630   0.2730   0.2757   0.2782
  0.2854   0.2907   0.3117   0.3142   0.3181   0.3194   0.3292   0.3329
  0.3392   0.3449   0.3496   0.3529   0.3603   0.3653   0.3714   0.3729
  0.3782   0.3805   0.3861   0.3893   0.3959   0.3999   0.4054   0.4109
  0.4161   0.4188   0.4299   0.4310   0.4408   0.4468   0.4558   0.4605
  0.4641   0.4690   0.4786   0.4795   0.4844   0.4900   0.4952   0.5010
  0.5106   0.5118   0.5190   0.5241   0.5303   0.5389   0.5442   0.5483
  0.5539   0.5592   0.5703   0.5743   0.5793   0.5898   0.6018   0.6067
  0.6130   0.6194   0.6268   0.6357   0.6426   0.6456   0.6588   0.6688
  0.6730   0.6820   0.6836   0.6939   0.6984   0.7034   0.7111   0.7139
  0.7281   0.7415   0.7433   0.7503   0.7543   0.7661   0.7798   0.7862
  0.7921   0.7952   0.7973   0.8062   0.8114   0.8158   0.8194   0.8337
  0.8367   0.8458   0.8471   0.8577   0.8619   0.8667   0.8749   0.8871
  0.9118   0.9339   0.9460   0.9491   0.9630   0.9683   0.9920   1.0028
  1.0174   1.0208   1.0363   1.0425   1.0588   1.0817   1.0903   1.1023
  1.1114   1.1150   1.1189   1.1431   1.1549   1.1808   1.1989   1.2069
  1.2270   1.2476   1.2634   1.2832   1.3093   1.3205   1.3321   1.3442
  1.3520   1.3628   1.3691   1.3906   1.3966   1.4103   1.4298   1.4360
  1.4629   1.4801   1.5112   1.5286   1.5914   1.6154   1.6315   1.6997
  1.7416   1.7741   1.8651   1.8799   1.8852   1.8996   1.9045   1.9193
  1.9273   1.9293   1.9418   1.9597   1.9678   1.9707   1.9836   1.9881
  2.0023   2.0156   2.0216   2.0409   2.0525   2.0591   2.0757   2.1065
  2.1299   2.1401   2.1578   2.1871   2.1960   2.2068   2.2415   2.2453
  2.2556   2.2595   2.2895   2.3122   2.3326   2.3379   2.3675   2.4192
  2.4394   2.4622   2.4676   2.4796   2.4947   2.5157   2.5475   2.5712
  2.5750   2.5862   2.6088   2.6302   2.6450   2.6756   2.6814   2.7055
  2.7243   2.7679   2.7884   2.7973   2.8170   2.8332   2.8544   2.8723
  2.8840   2.8976   2.9120   2.9496   2.9705   2.9836   2.9990   3.0230
  3.0634   3.0759   3.0981   3.1281   3.1898   3.1976   3.2224   3.2442
  3.2645   3.2734   3.2931   3.3146   3.3241   3.3396   3.3509   3.3586
  3.3915   3.3934   3.4052   3.4157   3.4212   3.4281   3.4440   3.4629
  3.4712   3.4951   3.5002   3.5383   3.5633   3.5697   3.5786   3.5965
  3.6053   3.6130   3.6417   3.6534   3.6698   3.6848   3.7028   3.7201
  3.7318   3.7507   3.7610   3.7760   3.7852   3.8138   3.8283   3.8816
  3.9182   3.9657   4.0140   4.0607   4.0731   4.1145   4.1486   4.1805
  4.1974   4.2453   4.3414   4.3559   4.4406   4.5656   4.5688   4.5974
  4.6226   4.6472   4.7155   4.7693   4.7956   4.8020   4.8272   4.8709
  4.8865   4.9919   5.0655   5.1480   5.3055   5.3064   5.3290   5.3408
  5.3447   5.3459   5.3511   5.3588   5.4576   5.4797   5.6741   5.6999
  5.7245   5.7791   5.7906   5.7933   5.9921   6.0498   6.2064   6.2184
  6.3070   6.3331   6.3502   6.3815   6.5957   6.6115   6.6235   6.6395
  6.6998   6.7290   6.7389   6.7456   6.7600   6.7726   6.9326   6.9512
  6.9588   6.9866   7.0306   7.0445   7.2417   7.2454   7.3019   7.3491
  7.3697   7.3900   7.4023   7.4202  22.5692  22.6963  22.8494  23.7235
 23.7318  44.2728  44.2853  44.3518  44.4162
 --------------------------------------------------------------
 
          Ground-State Mulliken Net Atomic Charges

     Atom                 Charge (a.u.)
  ----------------------------------------
      1 C                    -0.724433
      2 C                     0.537996
      3 O                    -0.718739
      4 O                    -0.796180
      5 H                     0.239161
      6 H                     0.234939
      7 H                     0.223256
      8 C                     0.103929
      9 C                    -0.899752
     10 C                     0.351192
     11 O                    -0.778737
     12 O                    -0.822403
     13 H                     0.226640
     14 H                     0.141757
     15 H                     0.190875
     16 H                     0.249050
     17 H                     0.241449
  ----------------------------------------
  Sum of atomic charges =    -2.000000

 -----------------------------------------------------------------
                    Cartesian Multipole Moments
 -----------------------------------------------------------------
    Charge (ESU x 10^10)
                -9.6064
    Dipole Moment (Debye)
         X      -2.6301      Y      -3.7214      Z      -5.8213
       Tot       7.3928
    Quadrupole Moments (Debye-Ang)
        XX     -76.9140     XY      20.8533     YY     -95.4334
        XZ      -7.4738     YZ      -9.9310     ZZ     -70.7719
    Octopole Moments (Debye-Ang^2)
       XXX     -24.6110    XXY      11.6561    XYY      11.2995
       YYY     -39.4648    XXZ      -6.9598    XYZ       8.7476
       YYZ     -18.1689    XZZ       6.0786    YZZ     -17.5092
       ZZZ     -21.0814
    Hexadecapole Moments (Debye-Ang^3)
      XXXX   -1395.4277   XXXY     349.8018   XXYY    -407.4543
      XYYY     353.6062   YYYY    -877.8621   XXXZ     147.8097
      XXYZ     -34.5569   XYYZ      54.8250   YYYZ    -204.9734
      XXZZ    -293.6733   XYZZ      77.3266   YYZZ    -249.3316
      XZZZ     186.4745   YZZZ    -210.7780   ZZZZ    -636.3561
 -----------------------------------------------------------------
Archival summary:
1\1\nid00530\SP\ProcedureUnspecified\BasisUnspecified\458(2-,1)\meili\SunSep2608:46:442021SunSep2608:46:442021\0\\#,ProcedureUnspecified,BasisUnspecified,\\-2,1\O\C,1,1.24632\O,2,1.25042,1,119.996\C,2,1.55447,1,121.484,3,178.861,0\H,4,1.09171,2,108.589,1,-119.246,0\H,4,1.09261,2,108.993,1,124.981,0\H,4,1.1,2,114.25,1,2.42431,0\H,1,2.4139,2,126.573,3,37.4084,0\C,8,1.08584,1,123.577,2,120.539,0\H,9,1.09376,8,105.354,1,165.819,0\C,9,1.51786,8,110.583,1,-78.6429,0\O,11,1.25239,9,119.463,8,137.751,0\O,11,1.26464,9,116.948,8,-42.8348,0\C,9,1.52207,8,112.446,1,50.1413,0\H,14,1.08921,9,109.047,8,-69.0147,0\H,14,1.0906,9,108.56,8,172.514,0\H,14,1.09999,9,112.029,8,52.2435,0\\\@

 Total job time:  20801.97s(wall), 12911.96s(cpu) 
 Sun Sep 26 08:46:46 2021

        *************************************************************
        *                                                           *
        *  Thank you very much for using Q-Chem.  Have a nice day.  *
        *                                                           *
        *************************************************************


