                  Welcome to Q-Chem
     A Quantum Leap Into The Future Of Chemistry


 Q-Chem 5.2 (devel), Q-Chem, Inc., Pleasanton, CA (2019)

 Yihan Shao,  Zhengting Gan,  E. Epifanovsky,  A. T. B. Gilbert,  M. Wormit,  
 J. Kussmann,  A. W. Lange,  A. Behn,  Jia Deng,  Xintian Feng,  D. Ghosh,  
 M. Goldey,  P. R. Horn,  L. D. Jacobson,  I. Kaliman,  T. Kus,  A. Landau,  
 Jie Liu,  E. I. Proynov,  R. M. Richard,  R. P. Steele,  E. J. Sundstrom,  
 H. L. Woodcock III,  P. M. Zimmerman,  D. Zuev,  B. Albrecht,  E. Alguire,  
 S. A. Baeppler,  D. Barton,  Z. Benda,  Y. A. Bernard,  E. J. Berquist,  
 K. B. Bravaya,  H. Burton,  D. Casanova,  Chun-Min Chang,  Yunqing Chen,  
 A. Chien,  K. D. Closser,  M. P. Coons,  S. Coriani,  S. Dasgupta,  
 A. L. Dempwolff,  M. Diedenhofen,  Hainam Do,  R. G. Edgar,  Po-Tung Fang,  
 S. Faraji,  S. Fatehi,  Qingguo Feng,  K. D. Fenk,  J. Fosso-Tande,  
 J. Gayvert,  Qinghui Ge,  A. Ghysels,  G. Gidofalvi,  J. Gomes,  
 J. Gonthier,  A. Gunina,  D. Hait,  M. W. D. Hanson-Heine,  
 P. H. P. Harbach,  A. W. Hauser,  M. F. Herbst,  J. E. Herr,  
 E. G. Hohenstein,  Z. C. Holden,  Kerwin Hui,  B. C. Huynh,  T.-C. Jagau,  
 Hyunjun Ji,  B. Kaduk,  K. Khistyaev,  Jaehoon Kim,  P. Klunzinger,  K. Koh,  
 D. Kosenkov,  L. Koulias,  T. Kowalczyk,  C. M. Krauter,  A. Kunitsa,  
 Ka Un Lao,  A. Laurent,  K. V. Lawler,  Joonho Lee,  D. Lefrancois,  
 S. Lehtola,  D. S. Levine,  Yi-Pei Li,  You-Sheng Lin,  Fenglai Liu,  
 E. Livshits,  A. Luenser,  P. Manohar,  E. Mansoor,  S. F. Manzer,  
 Shan-Ping Mao,  Yuezhi Mao,  N. Mardirossian,  A. V. Marenich,  
 T. Markovich,  L. A. Martinez-Martinez,  S. A. Maurer,  N. J. Mayhall,  
 S. C. McKenzie,  J.-M. Mewes,  P. Morgante,  A. F. Morrison,  
 J. W. Mullinax,  K. Nanda,  T. S. Nguyen-Beck,  R. Olivares-Amaya,  
 J. A. Parkhill,  Zheng Pei,  T. M. Perrine,  F. Plasser,  P. Pokhilko,  
 S. Prager,  A. Prociuk,  E. Ramos,  D. R. Rehn,  F. Rob,  M. Scheurer,  
 M. Schneider,  N. Sergueev,  S. M. Sharada,  S. Sharma,  D. W. Small,  
 T. Stauch,  T. Stein,  Yu-Chuan Su,  A. J. W. Thom,  A. Tkatchenko,  
 T. Tsuchimochi,  N. M. Tubman,  L. Vogt,  M. L. Vidal,  O. Vydrov,  
 M. A. Watson,  J. Wenzel,  M. de Wergifosse,  T. A. Wesolowski,  A. White,  
 J. Witte,  A. Yamada,  Jun Yang,  K. Yao,  S. Yeganeh,  S. R. Yost,  
 Zhi-Qiang You,  A. Zech,  Igor Ying Zhang,  Xing Zhang,  Yan Zhao,  
 Ying Zhu,  B. R. Brooks,  G. K. L. Chan,  C. J. Cramer,  M. S. Gordon,  
 W. J. Hehre,  A. Klamt,  M. W. Schmidt,  C. D. Sherrill,  D. G. Truhlar,  
 A. Aspuru-Guzik,  R. Baer,  A. T. Bell,  N. A. Besley,  Jeng-Da Chai,  
 A. E. DePrince, III,  R. A. DiStasio Jr.,  A. Dreuw,  B. D. Dunietz,  
 T. R. Furlani,  Chao-Ping Hsu,  Yousung Jung,  Jing Kong,  D. S. Lambrecht,  
 WanZhen Liang,  C. Ochsenfeld,  V. A. Rassolov,  L. V. Slipchenko,  
 J. E. Subotnik,  T. Van Voorhis,  J. M. Herbert,  A. I. Krylov,  
 P. M. W. Gill,  M. Head-Gordon

 Contributors to earlier versions of Q-Chem not listed above: 
 R. D. Adamson,  B. Austin,  J. Baker,  G. J. O. Beran,  K. Brandhorst,  
 S. T. Brown,  E. F. C. Byrd,  A. K. Chakraborty,  C.-L. Cheng,  
 Siu Hung Chien,  D. M. Chipman,  D. L. Crittenden,  H. Dachsel,  
 R. J. Doerksen,  A. D. Dutoi,  L. Fusti-Molnar,  W. A. Goddard III,  
 A. Golubeva-Zadorozhnaya,  S. R. Gwaltney,  G. Hawkins,  A. Heyden,  
 S. Hirata,  G. Kedziora,  F. J. Keil,  C. Kelley,  Jihan Kim,  R. A. King,  
 R. Z. Khaliullin,  P. P. Korambath,  W. Kurlancheek,  A. M. Lee,  M. S. Lee,  
 S. V. Levchenko,  Ching Yeh Lin,  D. Liotard,  R. C. Lochan,  I. Lotan,  
 P. E. Maslen,  N. Nair,  D. P. O'Neill,  D. Neuhauser,  E. Neuscamman,  
 C. M. Oana,  R. Olson,  B. Peters,  R. Peverati,  P. A. Pieniazek,  
 Y. M. Rhee,  J. Ritchie,  M. A. Rohrdanz,  E. Rosta,  N. J. Russ,  
 H. F. Schaefer III,  N. E. Schultz,  N. Shenvi,  A. C. Simmonett,  A. Sodt,  
 D. Stuck,  K. S. Thanthiriwatte,  V. Vanovschi,  Tao Wang,  A. Warshel,  
 C. F. Williams,  Q. Wu,  X. Xu,  W. Zhang

 Please cite Q-Chem as follows:
 Y. Shao et al., Mol. Phys. 113, 184-215 (2015)
 DOI: 10.1080/00268976.2014.952696

 Q-Chem 5.2.1 for Intel X86 EM64T Linux

 Parts of Q-Chem use Armadillo 8.300.2 (Tropical Shenanigans).
 http://arma.sourceforge.net/

 Q-Chem begins on Wed Sep 29 03:13:16 2021  

compute-0-13.local
Host: 0

     Scratch files written to /home/meili/scratch/qchem20420//
NAlpha2: 110
NElect   110
Mult     1
Symmetry turned off for PCM/SM12/SMD calculation

 Q-Chem warning in module libgen/rem_setup.C, line 2813:

 Neither GIA nor STOLL is specified by user. Use STOLL as the default


Checking the input file for inconsistencies... 	...done.

--------------------------------------------------------------
User input:
--------------------------------------------------------------
$comment
SSI-043TYR-185HIE-1.pdb
$end

$molecule
0 1
--
0 1
C   -0.265463487044    3.826470116890   -1.203589220204
C   -1.249463487044    0.686470116890    0.797410779796
C   -1.239463487044    1.698470116890   -0.197589220204
C   -0.243463487044    0.676470116890    1.786410779796
C   -0.248463487044    2.695470116890   -0.189589220204
C    0.748536512956    1.668470116890    1.771410779796
C    0.742536512956    2.663470116890    0.794410779796
O   -0.179463487044   -0.275529883110    2.776410779796
H   -2.018463487044   -0.075529883110    0.810410779796
H   -1.997463487044    1.710470116890   -0.971589220204
H   -0.892463487044   -0.931529883110    2.725410779796
H    1.523536512956    1.658470116890    2.525410779796
H   -0.495463487044    3.416470116890   -2.186589220204
H    0.720536512956    4.293470116890   -1.234589220204
H    1.510536512956    3.420470116890    0.794410779796
H   -1.011773487044    4.616340116890   -1.032899220204
--
0 1
C    1.664536512956   -0.741529883110   -0.889589220204
C    2.787536512956   -1.318529883110   -1.747589220204
C    0.461536512956   -1.625529883110   -0.787589220204
C    0.066536512956   -2.459529883110    0.211410779796
C   -1.511463487044   -2.437529883110   -1.328589220204
N   -0.543463487044   -1.636529883110   -1.744589220204
N   -1.168463487044   -2.942529883110   -0.143589220204
H    1.976536512956   -0.491529883110    0.121410779796
H    1.338536512956    0.168470116890   -1.397589220204
H    2.344536512956   -1.851529883110   -2.590589220204
H    0.545536512956   -2.741529883110    1.135410779796
H   -2.408463487044   -2.605529883110   -1.915589220204
H   -1.724463487044   -3.579529883110    0.409410779796
H    3.421326512956   -2.013589883110   -1.177329220204
H    3.400186512956   -0.492789883110   -2.138499220204
$end

$rem
JOBTYPE			EDA
EDA2			1
method			wB97X-V
BASIS			def2-TZVPD
XC_GRID			000099000590
NL_GRID			1
UNRESTRICTED		FALSE
MAX_SCF_CYCLES		200
SYMMETRY		FALSE
SYM_IGNORE		TRUE
MEM_STATIC		2000
BASIS_LIN_DEP_THRESH 	6
THRESH 			14
SCF_CONVERGENCE 	8
SCF_PRINT_FRGM 		TRUE
SOLVENT_METHOD          PCM
$end

$PCM
THEORY                  CPCM
METHOD                  SWIG
SOLVER                  INVERSION
RADII                   UFF
HPOINTS                 302
HEAVYPOINTS             302
PRINTLEVEL              0
$END

$SOLVENT
DIELECTRIC              78.390000 ! water
$END
--------------------------------------------------------------
 ----------------------------------------------------------------
             Standard Nuclear Orientation (Angstroms)
    I     Atom           X                Y                Z
 ----------------------------------------------------------------
    1      C      -0.2654634870     3.8264701169    -1.2035892202
    2      C      -1.2494634870     0.6864701169     0.7974107798
    3      C      -1.2394634870     1.6984701169    -0.1975892202
    4      C      -0.2434634870     0.6764701169     1.7864107798
    5      C      -0.2484634870     2.6954701169    -0.1895892202
    6      C       0.7485365130     1.6684701169     1.7714107798
    7      C       0.7425365130     2.6634701169     0.7944107798
    8      O      -0.1794634870    -0.2755298831     2.7764107798
    9      H      -2.0184634870    -0.0755298831     0.8104107798
   10      H      -1.9974634870     1.7104701169    -0.9715892202
   11      H      -0.8924634870    -0.9315298831     2.7254107798
   12      H       1.5235365130     1.6584701169     2.5254107798
   13      H      -0.4954634870     3.4164701169    -2.1865892202
   14      H       0.7205365130     4.2934701169    -1.2345892202
   15      H       1.5105365130     3.4204701169     0.7944107798
   16      H      -1.0117734870     4.6163401169    -1.0328992202
   17      C       1.6645365130    -0.7415298831    -0.8895892202
   18      C       2.7875365130    -1.3185298831    -1.7475892202
   19      C       0.4615365130    -1.6255298831    -0.7875892202
   20      C       0.0665365130    -2.4595298831     0.2114107798
   21      C      -1.5114634870    -2.4375298831    -1.3285892202
   22      N      -0.5434634870    -1.6365298831    -1.7445892202
   23      N      -1.1684634870    -2.9425298831    -0.1435892202
   24      H       1.9765365130    -0.4915298831     0.1214107798
   25      H       1.3385365130     0.1684701169    -1.3975892202
   26      H       2.3445365130    -1.8515298831    -2.5905892202
   27      H       0.5455365130    -2.7415298831     1.1354107798
   28      H      -2.4084634870    -2.6055298831    -1.9155892202
   29      H      -1.7244634870    -3.5795298831     0.4094107798
   30      H       3.4213265130    -2.0135898831    -1.1773292202
   31      H       3.4001865130    -0.4927898831    -2.1384992202
 ----------------------------------------------------------------
 Nuclear Repulsion Energy =         977.34567346 hartrees
 There are       55 alpha and       55 beta electrons
 Requested basis set is def2-TZVPD
 There are 276 shells and 702 basis functions

 Total QAlloc Memory Limit   2000 MB
 Mega-Array Size      1956 MB
 MEM_STATIC part      2000 MB
 Discretize the solute cavity surface with Lebedev spheres
	Using 302 Lebedev grid points for each H atom
	Using 302 Lebedev grid points for other atoms
	Atomic van der Waals radii will be scaled by 1.20
 Remove points where switching function is < 1.0e-08
 Keep 3211 surface tesserae and discard 6151 interior tesserae
 Molecular Surface Area = 313.518 Angst**2
 A cutoff of  1.0D-14 yielded  33751 shell pairs
 There are    221237 function pairs (    280546 Cartesian)
 Smallest overlap matrix eigenvalue = 4.67E-07
 Linear dependence detected in AO basis
 Tighter screening thresholds may be required for diffuse basis sets
 Use S2THRESH > 14 and THRESH = 14 in case of SCF convergence issues
 Number of orthogonalized atomic orbitals = 699
 Maximum deviation from orthogonality = 1.528E-10

 Scale SEOQF with 1.000000e-01/1.000000e-01/1.000000e-01

 Standard Electronic Orientation quadrupole field applied
 Nucleus-field energy     =     0.0000000185 hartrees

 -----------------------------------------------------------------------
  General SCF calculation program by
  Eric Jon Sundstrom, Paul Horn, Yuezhi Mao, Dmitri Zuev, Alec White,
  David Stuck, Shaama M.S., Shane Yost, Joonho Lee, David Small,
  Daniel Levine, Susi Lehtola, Hugh Burton, Evgeny Epifanovsky,
  Bang C. Huynh
 -----------------------------------------------------------------------
================================================================
                 ALMO-EDA with the EDA2 driver                  
================================================================
 The second-generation ALMO-EDA (for DFT):                      
 P. R. Horn, Y. Mao and M. Head-Gordon, PCCP, 18, 23067 (2016)  
 Decomposition of the frozen energy:                            
 P. R. Horn, Y. Mao and M. Head-Gordon, JCP, 144, 114107 (2016) 
 FERF model for polarization:                                   
 P. R. Horn and M. Head-Gordon, JCP, 143, 114111 (2015)         
Using eda2 option set 1
Option set summary: Frozen orbital wavefunction, initial wavefunction decomposition, and nDQ polarization.
--------------------------------
Printing EDA Options
--------------------------------
eda_child_super_basis      0
fragmo_guess_mode          0
child_mp                   1
child_mp_orders            232
cls_elec                   1
cls_disp                   0
scfmi_mode                 1
scfmi_occs                 0
scfmi_virts                0
frz_relax                  0
frz_relax_method           0
dc_pen_start               0
dc_pen_conv                0
dc_pen_increment           0
dc_pen_steps               0
dc_pen_thresh_factor       0
dc_pen_pre_newton_thresh   0
frz_ortho_decomp           1
frz_ortho_decomp_conv      6
frgm_method                2
scfmi_freeze_ss            0
separate_rehyb             0
plot_diff_den              0
eda_nocv                   0
eda_vct_relax              1
disp_free_x                0
disp_free_c                0
eda_bsse                   0
eda_pct_a                  0
eda_covp                   0
--------------------------------
Attempting to make child job directory: /home/meili/scratch/qchem20420//Frg1/
Attempting to make child job directory: /home/meili/scratch/qchem20420//Frg2/
Creating input file /home/meili/scratch/qchem20420/Frg1.input
using default PutDataFrgm: nothing
calling putenv with: QCSCRATCH=/home/meili/scratch/qchem20420/ 
Spawning Job For Fragment 0
                  Welcome to Q-Chem
     A Quantum Leap Into The Future Of Chemistry


 Q-Chem 5.2 (devel), Q-Chem, Inc., Pleasanton, CA (2019)

 Yihan Shao,  Zhengting Gan,  E. Epifanovsky,  A. T. B. Gilbert,  M. Wormit,  
 J. Kussmann,  A. W. Lange,  A. Behn,  Jia Deng,  Xintian Feng,  D. Ghosh,  
 M. Goldey,  P. R. Horn,  L. D. Jacobson,  I. Kaliman,  T. Kus,  A. Landau,  
 Jie Liu,  E. I. Proynov,  R. M. Richard,  R. P. Steele,  E. J. Sundstrom,  
 H. L. Woodcock III,  P. M. Zimmerman,  D. Zuev,  B. Albrecht,  E. Alguire,  
 S. A. Baeppler,  D. Barton,  Z. Benda,  Y. A. Bernard,  E. J. Berquist,  
 K. B. Bravaya,  H. Burton,  D. Casanova,  Chun-Min Chang,  Yunqing Chen,  
 A. Chien,  K. D. Closser,  M. P. Coons,  S. Coriani,  S. Dasgupta,  
 A. L. Dempwolff,  M. Diedenhofen,  Hainam Do,  R. G. Edgar,  Po-Tung Fang,  
 S. Faraji,  S. Fatehi,  Qingguo Feng,  K. D. Fenk,  J. Fosso-Tande,  
 J. Gayvert,  Qinghui Ge,  A. Ghysels,  G. Gidofalvi,  J. Gomes,  
 J. Gonthier,  A. Gunina,  D. Hait,  M. W. D. Hanson-Heine,  
 P. H. P. Harbach,  A. W. Hauser,  M. F. Herbst,  J. E. Herr,  
 E. G. Hohenstein,  Z. C. Holden,  Kerwin Hui,  B. C. Huynh,  T.-C. Jagau,  
 Hyunjun Ji,  B. Kaduk,  K. Khistyaev,  Jaehoon Kim,  P. Klunzinger,  K. Koh,  
 D. Kosenkov,  L. Koulias,  T. Kowalczyk,  C. M. Krauter,  A. Kunitsa,  
 Ka Un Lao,  A. Laurent,  K. V. Lawler,  Joonho Lee,  D. Lefrancois,  
 S. Lehtola,  D. S. Levine,  Yi-Pei Li,  You-Sheng Lin,  Fenglai Liu,  
 E. Livshits,  A. Luenser,  P. Manohar,  E. Mansoor,  S. F. Manzer,  
 Shan-Ping Mao,  Yuezhi Mao,  N. Mardirossian,  A. V. Marenich,  
 T. Markovich,  L. A. Martinez-Martinez,  S. A. Maurer,  N. J. Mayhall,  
 S. C. McKenzie,  J.-M. Mewes,  P. Morgante,  A. F. Morrison,  
 J. W. Mullinax,  K. Nanda,  T. S. Nguyen-Beck,  R. Olivares-Amaya,  
 J. A. Parkhill,  Zheng Pei,  T. M. Perrine,  F. Plasser,  P. Pokhilko,  
 S. Prager,  A. Prociuk,  E. Ramos,  D. R. Rehn,  F. Rob,  M. Scheurer,  
 M. Schneider,  N. Sergueev,  S. M. Sharada,  S. Sharma,  D. W. Small,  
 T. Stauch,  T. Stein,  Yu-Chuan Su,  A. J. W. Thom,  A. Tkatchenko,  
 T. Tsuchimochi,  N. M. Tubman,  L. Vogt,  M. L. Vidal,  O. Vydrov,  
 M. A. Watson,  J. Wenzel,  M. de Wergifosse,  T. A. Wesolowski,  A. White,  
 J. Witte,  A. Yamada,  Jun Yang,  K. Yao,  S. Yeganeh,  S. R. Yost,  
 Zhi-Qiang You,  A. Zech,  Igor Ying Zhang,  Xing Zhang,  Yan Zhao,  
 Ying Zhu,  B. R. Brooks,  G. K. L. Chan,  C. J. Cramer,  M. S. Gordon,  
 W. J. Hehre,  A. Klamt,  M. W. Schmidt,  C. D. Sherrill,  D. G. Truhlar,  
 A. Aspuru-Guzik,  R. Baer,  A. T. Bell,  N. A. Besley,  Jeng-Da Chai,  
 A. E. DePrince, III,  R. A. DiStasio Jr.,  A. Dreuw,  B. D. Dunietz,  
 T. R. Furlani,  Chao-Ping Hsu,  Yousung Jung,  Jing Kong,  D. S. Lambrecht,  
 WanZhen Liang,  C. Ochsenfeld,  V. A. Rassolov,  L. V. Slipchenko,  
 J. E. Subotnik,  T. Van Voorhis,  J. M. Herbert,  A. I. Krylov,  
 P. M. W. Gill,  M. Head-Gordon

 Contributors to earlier versions of Q-Chem not listed above: 
 R. D. Adamson,  B. Austin,  J. Baker,  G. J. O. Beran,  K. Brandhorst,  
 S. T. Brown,  E. F. C. Byrd,  A. K. Chakraborty,  C.-L. Cheng,  
 Siu Hung Chien,  D. M. Chipman,  D. L. Crittenden,  H. Dachsel,  
 R. J. Doerksen,  A. D. Dutoi,  L. Fusti-Molnar,  W. A. Goddard III,  
 A. Golubeva-Zadorozhnaya,  S. R. Gwaltney,  G. Hawkins,  A. Heyden,  
 S. Hirata,  G. Kedziora,  F. J. Keil,  C. Kelley,  Jihan Kim,  R. A. King,  
 R. Z. Khaliullin,  P. P. Korambath,  W. Kurlancheek,  A. M. Lee,  M. S. Lee,  
 S. V. Levchenko,  Ching Yeh Lin,  D. Liotard,  R. C. Lochan,  I. Lotan,  
 P. E. Maslen,  N. Nair,  D. P. O'Neill,  D. Neuhauser,  E. Neuscamman,  
 C. M. Oana,  R. Olson,  B. Peters,  R. Peverati,  P. A. Pieniazek,  
 Y. M. Rhee,  J. Ritchie,  M. A. Rohrdanz,  E. Rosta,  N. J. Russ,  
 H. F. Schaefer III,  N. E. Schultz,  N. Shenvi,  A. C. Simmonett,  A. Sodt,  
 D. Stuck,  K. S. Thanthiriwatte,  V. Vanovschi,  Tao Wang,  A. Warshel,  
 C. F. Williams,  Q. Wu,  X. Xu,  W. Zhang

 Please cite Q-Chem as follows:
 Y. Shao et al., Mol. Phys. 113, 184-215 (2015)
 DOI: 10.1080/00268976.2014.952696

 Q-Chem 5.2.1 for Intel X86 EM64T Linux

 Parts of Q-Chem use Armadillo 8.300.2 (Tropical Shenanigans).
 http://arma.sourceforge.net/

 Q-Chem begins on Wed Sep 29 03:13:24 2021  

compute-0-13.local
Host: 0

     Scratch files written to /home/meili/scratch/qchem20420//Frg1//
NAlpha2: 58
NElect   58
Mult     1
Symmetry turned off for PCM/SM12/SMD calculation

Checking the input file for inconsistencies... 	...done.

--------------------------------------------------------------
User input:
--------------------------------------------------------------
$molecule
0 1
 6	-0.2654634870	3.8264701169	-1.2035892202
 6	-1.2494634870	0.6864701169	0.7974107798
 6	-1.2394634870	1.6984701169	-0.1975892202
 6	-0.2434634870	0.6764701169	1.7864107798
 6	-0.2484634870	2.6954701169	-0.1895892202
 6	0.7485365130	1.6684701169	1.7714107798
 6	0.7425365130	2.6634701169	0.7944107798
 8	-0.1794634870	-0.2755298831	2.7764107798
 1	-2.0184634870	-0.0755298831	0.8104107798
 1	-1.9974634870	1.7104701169	-0.9715892202
 1	-0.8924634870	-0.9315298831	2.7254107798
 1	1.5235365130	1.6584701169	2.5254107798
 1	-0.4954634870	3.4164701169	-2.1865892202
 1	0.7205365130	4.2934701169	-1.2345892202
 1	1.5105365130	3.4204701169	0.7944107798
 1	-1.0117734870	4.6163401169	-1.0328992202
$end
$rem
EDA2		1
METHOD		WB97X-V
BASIS		DEF2-TZVPD
XC_GRID		000099000590
NL_GRID		1
UNRESTRICTED		FALSE
MAX_SCF_CYCLES		200
SYMMETRY		FALSE
SYM_IGNORE		TRUE
BASIS_LIN_DEP_THRESH		6
THRESH		14
SCF_CONVERGENCE		8
SCF_PRINT_FRGM		TRUE
SOLVENT_METHOD		PCM
!required keywords
JOBTYPE		SP
SYM_IGNORE		TRUE
SUBSYSTEM		TRUE
GEN_SCFMAN		TRUE
CHILD_INSTRUCTION		2
SYM_IGNORE		TRUE
SCFMI		0
RI_K 0		
PARI_K 0		
MIN_PARI_K 0		
IARI_K 0		
OCC_RI_K 0		
PURECART		1111
MEM_STATIC		2000
MEM_TOTAL		2000
GUI		0
CHILD_MP		1
CHILD_MP_ORDERS		232
FRZ_RELAX		0
FRZ_RELAX_METHOD		0
EDA_CLS_ELEC		1
EDA_CLS_DISP		0
FRZ_ORTHO_DECOMP		1
EDA2		FALSE
FRGM_METHOD		FALSE
CIS_N_ROOTS  0
LOCAL_CIS    0
CIS_RLX_DNS  1
$end
$pcm
THEORY                  CPCM
METHOD                  SWIG
SOLVER                  INVERSION
RADII                   UFF
HPOINTS                 302
HEAVYPOINTS             302
PRINTLEVEL              0
$end
$solvent
DIELECTRIC              78.390000 ! water
$end
--------------------------------------------------------------
 ----------------------------------------------------------------
             Standard Nuclear Orientation (Angstroms)
    I     Atom           X                Y                Z
 ----------------------------------------------------------------
    1      C      -0.2654634870     3.8264701169    -1.2035892202
    2      C      -1.2494634870     0.6864701169     0.7974107798
    3      C      -1.2394634870     1.6984701169    -0.1975892202
    4      C      -0.2434634870     0.6764701169     1.7864107798
    5      C      -0.2484634870     2.6954701169    -0.1895892202
    6      C       0.7485365130     1.6684701169     1.7714107798
    7      C       0.7425365130     2.6634701169     0.7944107798
    8      O      -0.1794634870    -0.2755298831     2.7764107798
    9      H      -2.0184634870    -0.0755298831     0.8104107798
   10      H      -1.9974634870     1.7104701169    -0.9715892202
   11      H      -0.8924634870    -0.9315298831     2.7254107798
   12      H       1.5235365130     1.6584701169     2.5254107798
   13      H      -0.4954634870     3.4164701169    -2.1865892202
   14      H       0.7205365130     4.2934701169    -1.2345892202
   15      H       1.5105365130     3.4204701169     0.7944107798
   16      H      -1.0117734870     4.6163401169    -1.0328992202
 ----------------------------------------------------------------
 Nuclear Repulsion Energy =         340.36120253 hartrees
 There are       29 alpha and       29 beta electrons
 Requested basis set is def2-TZVPD
 There are 145 shells and 371 basis functions

 Total QAlloc Memory Limit   2000 MB
 Mega-Array Size      1956 MB
 MEM_STATIC part      2000 MB
 Discretize the solute cavity surface with Lebedev spheres
	Using 302 Lebedev grid points for each H atom
	Using 302 Lebedev grid points for other atoms
	Atomic van der Waals radii will be scaled by 1.20
 Remove points where switching function is < 1.0e-08
 Keep 1829 surface tesserae and discard 3003 interior tesserae
 Molecular Surface Area = 191.309 Angst**2
 A cutoff of  1.0D-14 yielded  10033 shell pairs
 There are     66987 function pairs (     85656 Cartesian)
 Smallest overlap matrix eigenvalue = 6.25E-07
 Linear dependence detected in AO basis
 Tighter screening thresholds may be required for diffuse basis sets
 Use S2THRESH > 14 and THRESH = 14 in case of SCF convergence issues
 Number of orthogonalized atomic orbitals = 370
 Maximum deviation from orthogonality = 1.871E-10

 Scale SEOQF with 1.000000e-01/1.000000e-01/1.000000e-01

 Standard Electronic Orientation quadrupole field applied
 Nucleus-field energy     =     0.0000000068 hartrees
 Guess from superposition of atomic densities
 Warning:  Energy on first SCF cycle will be non-variational
 SAD guess density has 58.000000 electrons

 -----------------------------------------------------------------------
  General SCF calculation program by
  Eric Jon Sundstrom, Paul Horn, Yuezhi Mao, Dmitri Zuev, Alec White,
  David Stuck, Shaama M.S., Shane Yost, Joonho Lee, David Small,
  Daniel Levine, Susi Lehtola, Hugh Burton, Evgeny Epifanovsky,
  Bang C. Huynh
 -----------------------------------------------------------------------
 Exchange:     0.1670 Hartree-Fock + 1.0000 wB97X-V + LR-HF
 Correlation:  1.0000 wB97X-V
 Using Euler-Maclaurin-Lebedev (99,590) quadrature formula
 Nonlocal Correlation:  VV10 with C = 0.0100 and b = 6.00 and scale = 1.00000
 Grid used for NLC:  SG-1 standard quadrature
Energy prior to optimization (guess energy) = -346.732358914654
Begin Timing: Total SCF Calculation
begin iterations for algorithm: DIIS         
the SCF tolerance is set to 1.00e-08
    1    -346.7323589147      2.17e-03     00000 
    2    -346.7763191757      1.72e-03     00000 
    3    -346.8139144045      2.87e-04     00000 
    4    -346.8151035657      1.27e-04     00000 
    5    -346.8153820859      2.50e-05     00000 
    6    -346.8153947774      9.30e-06     00000 
    7    -346.8153966462      3.82e-06     00000 
    8    -346.8153969848      9.20e-07     00000 
    9    -346.8153970167      4.44e-07     00000 
   10    -346.8153970234      1.49e-07     00000 
   11    -346.8153970247      5.21e-08     00000 
   12    -346.8153970248      2.03e-08     00000 
   13    -346.8153970249      5.94e-09     00000 Convergence criterion met
Timing for Total SCF: 854.00s (wall), 4917.83s (cpu)

************** Final PCM Free Energy Summary **************
 G_electrostatic  =      -0.00579234 hartree =      -3.63474835 kcal/mol
 G_cavitation     =       0.00000000 hartree =       0.00000000 kcal/mol
 G_dispersion     =       0.00000000 hartree =       0.00000000 kcal/mol
 G_repulsion      =       0.00000000 hartree =       0.00000000 kcal/mol
 --------------------------------------------------
 Non-electrostatic Free Energy =       0.00000000 hartree =       0.00000000 kcal/mol
 Total                         =      -0.00579234 hartree =      -3.63474835 kcal/mol
 --------------------------------------------------
 SCF Energy (H0 + V/2)                       =    -346.81539702 
 Solute Internal Energy (H0)                 =    -346.80960468 
 Total Free Energy (H0 + V/2 + non-elec)     =    -346.81539702 hartree
                                             = -217629.94632173 kcal/mol
***********************************************************

E_pcm = -0.0057923402
Multipole orders to be included
        2
        3
computing dipole RHS
computing quadrupole RHS
total number of RHS in solve_reponses: 8
RHS batch sizes
        8
Beginning Block Conjugate Gradient Iterations. Batch Number: 0
computing hessian-vector products by finite difference
              1      5.70e-01     00000 Conjugate Gradient Iteration
computing hessian-vector products by finite difference
              2      1.74e-01     00000 Conjugate Gradient Iteration
computing hessian-vector products by finite difference
              3      4.53e-02     00000 Conjugate Gradient Iteration
computing hessian-vector products by finite difference
              4      1.29e-02     00000 Conjugate Gradient Iteration
computing hessian-vector products by finite difference
              5      3.90e-03     00000 Conjugate Gradient Iteration
computing hessian-vector products by finite difference
              6      1.43e-03     00000 Conjugate Gradient Iteration
computing hessian-vector products by finite difference
              7      3.51e-04     00000 Conjugate Gradient Iteration
computing hessian-vector products by finite difference
              8      6.66e-05     00000 Conjugate Gradient Iteration
computing hessian-vector products by finite difference
              9      1.20e-05     00000 Conjugate Gradient Iteration
computing hessian-vector products by finite difference
             10      1.58e-06     00000 Conjugate Gradient Iteration
computing hessian-vector products by finite difference
             11      2.59e-07     00000 Conjugate Gradient Iteration
computing hessian-vector products by finite difference
             12      6.05e-08     00000 Conjugate Gradient Iteration
computing hessian-vector products by finite difference
             13      1.06e-08     00000 Conjugate Gradient Iteration
computing hessian-vector products by finite difference
             14      1.50e-09     00000 CG Converged
batch 0 complete
Done Calculating Responses
TESTING ORTHOGONALIZATION OF MULTIPOLE BASIS
Multipole virts passed orthogonality test
Virts Per Order
           87
          145

 --------------------------------------------------------------

                    Orbital Energies (a.u.)
 --------------------------------------------------------------

 Alpha MOs
 -- Occupied --
-19.2474 -10.3415 -10.2812 -10.2804 -10.2802 -10.2756 -10.2736 -10.2628
 -1.1900  -0.9911  -0.8996  -0.8814  -0.8106  -0.7481  -0.7141  -0.6642
 -0.5992  -0.5811  -0.5534  -0.5362  -0.5330  -0.5165  -0.5109  -0.4795
 -0.4577  -0.4430  -0.4400  -0.3514  -0.3138
 -- Virtual --
  0.0556   0.0574   0.0678   0.0750   0.0831   0.0938   0.1085   0.1100
  0.1135   0.1306   0.1434   0.1515   0.1552   0.1698   0.1764   0.1919
  0.1953   0.2030   0.2137   0.2238   0.2334   0.2379   0.2482   0.2519
  0.2609   0.2660   0.2708   0.2740   0.2783   0.2925   0.2934   0.3019
  0.3038   0.3072   0.3098   0.3226   0.3324   0.3364   0.3410   0.3467
  0.3515   0.3547   0.3598   0.3694   0.3730   0.3783   0.3809   0.3876
  0.3918   0.3944   0.3982   0.4047   0.4082   0.4155   0.4243   0.4288
  0.4331   0.4496   0.4534   0.4619   0.4692   0.4698   0.4743   0.4791
  0.4826   0.4916   0.4940   0.4964   0.5074   0.5130   0.5247   0.5348
  0.5385   0.5424   0.5481   0.5532   0.5599   0.5684   0.5791   0.5903
  0.6001   0.6035   0.6129   0.6296   0.6362   0.6551   0.6620   0.6726
  0.6757   0.6849   0.6871   0.6898   0.6924   0.7005   0.7167   0.7250
  0.7279   0.7322   0.7452   0.7481   0.7575   0.7670   0.7772   0.7854
  0.7870   0.7888   0.7931   0.7960   0.8029   0.8111   0.8235   0.8322
  0.8381   0.8455   0.8506   0.8533   0.8637   0.8685   0.8805   0.8877
  0.8987   0.9111   0.9248   0.9452   0.9568   0.9762   0.9930   1.0106
  1.0127   1.0306   1.0342   1.0445   1.0544   1.0650   1.0704   1.0824
  1.0982   1.1105   1.1367   1.1699   1.1877   1.2304   1.2631   1.2901
  1.3023   1.3036   1.3252   1.3459   1.3599   1.3818   1.3922   1.4286
  1.4470   1.4563   1.4651   1.4787   1.5197   1.5529   1.5960   1.6176
  1.6245   1.6331   1.6809   1.6829   1.6918   1.7228   1.7730   1.7932
  1.8145   1.8206   1.8290   1.8535   1.8600   1.8738   1.9121   1.9186
  1.9297   1.9482   1.9629   1.9783   1.9891   2.0210   2.0431   2.0481
  2.0517   2.0696   2.0830   2.0985   2.1086   2.1628   2.1906   2.1939
  2.2105   2.2365   2.2577   2.2710   2.2864   2.3108   2.3404   2.3626
  2.3873   2.3923   2.4265   2.4498   2.4906   2.5003   2.5108   2.5450
  2.5615   2.5955   2.6180   2.6450   2.6504   2.6654   2.6821   2.7280
  2.7422   2.7494   2.7676   2.7824   2.8048   2.8241   2.8617   2.8699
  2.8927   2.9102   2.9302   2.9348   2.9537   2.9712   2.9720   2.9939
  3.0124   3.0292   3.0500   3.0636   3.0798   3.1120   3.1444   3.1554
  3.1691   3.1836   3.2039   3.2199   3.2455   3.2601   3.2825   3.2876
  3.3179   3.3372   3.3744   3.3807   3.3845   3.3874   3.4359   3.4466
  3.4570   3.4641   3.4780   3.4977   3.5099   3.5179   3.5258   3.5351
  3.5457   3.5625   3.5685   3.5865   3.5914   3.6137   3.6323   3.6624
  3.6707   3.6863   3.7289   3.7540   3.7948   3.8130   3.8316   3.8932
  3.9263   3.9455   3.9571   3.9728   4.0164   4.0687   4.1009   4.1219
  4.2295   4.2456   4.2752   4.2919   4.3027   4.3034   4.3156   4.3304
  4.3551   4.3576   4.4082   4.4368   4.4561   4.4928   4.5863   4.6098
  4.7040   4.7128   4.7617   4.7746   4.8491   4.9149   5.0017   5.0393
  5.0684   5.1296   5.1394   5.2776   5.2899   5.3675   5.4214   5.5257
  5.5981   5.6084   5.6805   5.7548   5.9189   6.1883   6.4398   6.5808
  6.6176   6.8636   6.9682   7.3058   7.4429  22.6537  22.6669  22.8963
 22.9317  22.9943  23.1181  23.4328  44.4042
 --------------------------------------------------------------

          Ground-State Mulliken Net Atomic Charges

     Atom                 Charge (a.u.)
  ----------------------------------------
      1 C                    -1.033653
      2 C                    -0.471510
      3 C                    -0.559491
      4 C                     0.740250
      5 C                     0.636002
      6 C                    -0.697798
      7 C                    -0.430009
      8 O                    -0.482563
      9 H                     0.277166
     10 H                     0.333587
     11 H                     0.306625
     12 H                     0.335465
     13 H                     0.261311
     14 H                     0.268366
     15 H                     0.300476
     16 H                     0.215777
  ----------------------------------------
  Sum of atomic charges =     0.000000

 -----------------------------------------------------------------
                    Cartesian Multipole Moments
 -----------------------------------------------------------------
    Charge (ESU x 10^10)
                 0.0000
    Dipole Moment (Debye)
         X      -1.3910      Y      -0.3199      Z      -0.9613
       Tot       1.7209
    Quadrupole Moments (Debye-Ang)
        XX     -44.4059     XY       4.2946     YY     -43.4483
        XZ      -0.6634     YZ      -4.6700     ZZ     -50.7743
    Octopole Moments (Debye-Ang^2)
       XXX      33.3854    XXY     -83.4319    XYY      17.8030
       YYY    -242.2073    XXZ     -30.7501    XYZ      12.8106
       YYZ     -38.6833    XZZ       5.7299    YZZ     -91.7696
       ZZZ    -118.8791
    Hexadecapole Moments (Debye-Ang^3)
      XXXX    -249.2099   XXXY      32.8781   XXYY    -271.8172
      XYYY      45.9465   YYYY   -1417.0573   XXXZ     -13.5098
      XXYZ       1.9482   XYYZ       5.7011   YYYZ      -9.4019
      XXZZ    -140.8903   XYZZ      27.0829   YYZZ    -357.8449
      XZZZ     -30.4383   YZZZ       1.6433   ZZZZ    -747.6976
 -----------------------------------------------------------------
Archival summary:
1\1\compute-0-13.local\SP\ProcedureUnspecified\BasisUnspecified\178\meili\WedSep2908:08:442021WedSep2908:08:442021\0\\#,ProcedureUnspecified,BasisUnspecified,\\0,1\C\O,1,1.37495\H,2,0.970209,1,113.334\C,1,1.40298,2,117.668,3,-179.765,0\H,4,1.08131,1,119.523,2,-0.0021417,0\C,4,1.39449,1,120.594,2,179.979,0\H,6,1.07837,4,119.856,1,179.968,0\C,6,1.39691,4,120.859,1,-0.0118221,0\C,8,1.40576,6,119.201,4,-0.782329,0\H,9,1.08341,8,119.303,6,-178.803,0\C,1,1.41076,2,122.879,3,-0.143143,0\H,11,1.08267,1,119.544,2,0.67922,0\C,8,1.51909,6,119.682,4,177.278,0\H,13,1.08963,8,108.929,6,138.55,0\H,13,1.09144,8,109.112,6,19.6259,0\H,13,1.1,8,116.016,6,-102.671,0\\\@

 Total job time:  17720.35s(wall), 101042.11s(cpu) 
 Wed Sep 29 08:08:44 2021

        *************************************************************
        *                                                           *
        *  Thank you very much for using Q-Chem.  Have a nice day.  *
        *                                                           *
        *************************************************************


Done Job For Fragment 0
calling putenv with: QCSCRATCH=/home/meili/scratch 
calling putenv with: QCTHREADS=8 
Creating input file /home/meili/scratch/qchem20420/Frg2.input
using default PutDataFrgm: nothing
calling putenv with: QCSCRATCH=/home/meili/scratch/qchem20420/ 
Spawning Job For Fragment 1
                  Welcome to Q-Chem
     A Quantum Leap Into The Future Of Chemistry


 Q-Chem 5.2 (devel), Q-Chem, Inc., Pleasanton, CA (2019)

 Yihan Shao,  Zhengting Gan,  E. Epifanovsky,  A. T. B. Gilbert,  M. Wormit,  
 J. Kussmann,  A. W. Lange,  A. Behn,  Jia Deng,  Xintian Feng,  D. Ghosh,  
 M. Goldey,  P. R. Horn,  L. D. Jacobson,  I. Kaliman,  T. Kus,  A. Landau,  
 Jie Liu,  E. I. Proynov,  R. M. Richard,  R. P. Steele,  E. J. Sundstrom,  
 H. L. Woodcock III,  P. M. Zimmerman,  D. Zuev,  B. Albrecht,  E. Alguire,  
 S. A. Baeppler,  D. Barton,  Z. Benda,  Y. A. Bernard,  E. J. Berquist,  
 K. B. Bravaya,  H. Burton,  D. Casanova,  Chun-Min Chang,  Yunqing Chen,  
 A. Chien,  K. D. Closser,  M. P. Coons,  S. Coriani,  S. Dasgupta,  
 A. L. Dempwolff,  M. Diedenhofen,  Hainam Do,  R. G. Edgar,  Po-Tung Fang,  
 S. Faraji,  S. Fatehi,  Qingguo Feng,  K. D. Fenk,  J. Fosso-Tande,  
 J. Gayvert,  Qinghui Ge,  A. Ghysels,  G. Gidofalvi,  J. Gomes,  
 J. Gonthier,  A. Gunina,  D. Hait,  M. W. D. Hanson-Heine,  
 P. H. P. Harbach,  A. W. Hauser,  M. F. Herbst,  J. E. Herr,  
 E. G. Hohenstein,  Z. C. Holden,  Kerwin Hui,  B. C. Huynh,  T.-C. Jagau,  
 Hyunjun Ji,  B. Kaduk,  K. Khistyaev,  Jaehoon Kim,  P. Klunzinger,  K. Koh,  
 D. Kosenkov,  L. Koulias,  T. Kowalczyk,  C. M. Krauter,  A. Kunitsa,  
 Ka Un Lao,  A. Laurent,  K. V. Lawler,  Joonho Lee,  D. Lefrancois,  
 S. Lehtola,  D. S. Levine,  Yi-Pei Li,  You-Sheng Lin,  Fenglai Liu,  
 E. Livshits,  A. Luenser,  P. Manohar,  E. Mansoor,  S. F. Manzer,  
 Shan-Ping Mao,  Yuezhi Mao,  N. Mardirossian,  A. V. Marenich,  
 T. Markovich,  L. A. Martinez-Martinez,  S. A. Maurer,  N. J. Mayhall,  
 S. C. McKenzie,  J.-M. Mewes,  P. Morgante,  A. F. Morrison,  
 J. W. Mullinax,  K. Nanda,  T. S. Nguyen-Beck,  R. Olivares-Amaya,  
 J. A. Parkhill,  Zheng Pei,  T. M. Perrine,  F. Plasser,  P. Pokhilko,  
 S. Prager,  A. Prociuk,  E. Ramos,  D. R. Rehn,  F. Rob,  M. Scheurer,  
 M. Schneider,  N. Sergueev,  S. M. Sharada,  S. Sharma,  D. W. Small,  
 T. Stauch,  T. Stein,  Yu-Chuan Su,  A. J. W. Thom,  A. Tkatchenko,  
 T. Tsuchimochi,  N. M. Tubman,  L. Vogt,  M. L. Vidal,  O. Vydrov,  
 M. A. Watson,  J. Wenzel,  M. de Wergifosse,  T. A. Wesolowski,  A. White,  
 J. Witte,  A. Yamada,  Jun Yang,  K. Yao,  S. Yeganeh,  S. R. Yost,  
 Zhi-Qiang You,  A. Zech,  Igor Ying Zhang,  Xing Zhang,  Yan Zhao,  
 Ying Zhu,  B. R. Brooks,  G. K. L. Chan,  C. J. Cramer,  M. S. Gordon,  
 W. J. Hehre,  A. Klamt,  M. W. Schmidt,  C. D. Sherrill,  D. G. Truhlar,  
 A. Aspuru-Guzik,  R. Baer,  A. T. Bell,  N. A. Besley,  Jeng-Da Chai,  
 A. E. DePrince, III,  R. A. DiStasio Jr.,  A. Dreuw,  B. D. Dunietz,  
 T. R. Furlani,  Chao-Ping Hsu,  Yousung Jung,  Jing Kong,  D. S. Lambrecht,  
 WanZhen Liang,  C. Ochsenfeld,  V. A. Rassolov,  L. V. Slipchenko,  
 J. E. Subotnik,  T. Van Voorhis,  J. M. Herbert,  A. I. Krylov,  
 P. M. W. Gill,  M. Head-Gordon

 Contributors to earlier versions of Q-Chem not listed above: 
 R. D. Adamson,  B. Austin,  J. Baker,  G. J. O. Beran,  K. Brandhorst,  
 S. T. Brown,  E. F. C. Byrd,  A. K. Chakraborty,  C.-L. Cheng,  
 Siu Hung Chien,  D. M. Chipman,  D. L. Crittenden,  H. Dachsel,  
 R. J. Doerksen,  A. D. Dutoi,  L. Fusti-Molnar,  W. A. Goddard III,  
 A. Golubeva-Zadorozhnaya,  S. R. Gwaltney,  G. Hawkins,  A. Heyden,  
 S. Hirata,  G. Kedziora,  F. J. Keil,  C. Kelley,  Jihan Kim,  R. A. King,  
 R. Z. Khaliullin,  P. P. Korambath,  W. Kurlancheek,  A. M. Lee,  M. S. Lee,  
 S. V. Levchenko,  Ching Yeh Lin,  D. Liotard,  R. C. Lochan,  I. Lotan,  
 P. E. Maslen,  N. Nair,  D. P. O'Neill,  D. Neuhauser,  E. Neuscamman,  
 C. M. Oana,  R. Olson,  B. Peters,  R. Peverati,  P. A. Pieniazek,  
 Y. M. Rhee,  J. Ritchie,  M. A. Rohrdanz,  E. Rosta,  N. J. Russ,  
 H. F. Schaefer III,  N. E. Schultz,  N. Shenvi,  A. C. Simmonett,  A. Sodt,  
 D. Stuck,  K. S. Thanthiriwatte,  V. Vanovschi,  Tao Wang,  A. Warshel,  
 C. F. Williams,  Q. Wu,  X. Xu,  W. Zhang

 Please cite Q-Chem as follows:
 Y. Shao et al., Mol. Phys. 113, 184-215 (2015)
 DOI: 10.1080/00268976.2014.952696

 Q-Chem 5.2.1 for Intel X86 EM64T Linux

 Parts of Q-Chem use Armadillo 8.300.2 (Tropical Shenanigans).
 http://arma.sourceforge.net/

 Q-Chem begins on Wed Sep 29 08:08:44 2021  

compute-0-13.local
Host: 0

     Scratch files written to /home/meili/scratch/qchem20420//Frg2//
NAlpha2: 52
NElect   52
Mult     1
Symmetry turned off for PCM/SM12/SMD calculation

Checking the input file for inconsistencies... 	...done.

--------------------------------------------------------------
User input:
--------------------------------------------------------------
$molecule
0 1
 6	1.6645365130	-0.7415298831	-0.8895892202
 6	2.7875365130	-1.3185298831	-1.7475892202
 6	0.4615365130	-1.6255298831	-0.7875892202
 6	0.0665365130	-2.4595298831	0.2114107798
 6	-1.5114634870	-2.4375298831	-1.3285892202
 7	-0.5434634870	-1.6365298831	-1.7445892202
 7	-1.1684634870	-2.9425298831	-0.1435892202
 1	1.9765365130	-0.4915298831	0.1214107798
 1	1.3385365130	0.1684701169	-1.3975892202
 1	2.3445365130	-1.8515298831	-2.5905892202
 1	0.5455365130	-2.7415298831	1.1354107798
 1	-2.4084634870	-2.6055298831	-1.9155892202
 1	-1.7244634870	-3.5795298831	0.4094107798
 1	3.4213265130	-2.0135898831	-1.1773292202
 1	3.4001865130	-0.4927898831	-2.1384992202
$end
$rem
EDA2		1
METHOD		WB97X-V
BASIS		DEF2-TZVPD
XC_GRID		000099000590
NL_GRID		1
UNRESTRICTED		FALSE
MAX_SCF_CYCLES		200
SYMMETRY		FALSE
SYM_IGNORE		TRUE
BASIS_LIN_DEP_THRESH		6
THRESH		14
SCF_CONVERGENCE		8
SCF_PRINT_FRGM		TRUE
SOLVENT_METHOD		PCM
!required keywords
JOBTYPE		SP
SYM_IGNORE		TRUE
SUBSYSTEM		TRUE
GEN_SCFMAN		TRUE
CHILD_INSTRUCTION		2
SYM_IGNORE		TRUE
SCFMI		0
RI_K 0		
PARI_K 0		
MIN_PARI_K 0		
IARI_K 0		
OCC_RI_K 0		
PURECART		1111
MEM_STATIC		2000
MEM_TOTAL		2000
GUI		0
CHILD_MP		1
CHILD_MP_ORDERS		232
FRZ_RELAX		0
FRZ_RELAX_METHOD		0
EDA_CLS_ELEC		1
EDA_CLS_DISP		0
FRZ_ORTHO_DECOMP		1
EDA2		FALSE
FRGM_METHOD		FALSE
CIS_N_ROOTS  0
LOCAL_CIS    0
CIS_RLX_DNS  1
$end
$pcm
THEORY                  CPCM
METHOD                  SWIG
SOLVER                  INVERSION
RADII                   UFF
HPOINTS                 302
HEAVYPOINTS             302
PRINTLEVEL              0
$end
$solvent
DIELECTRIC              78.390000 ! water
$end
--------------------------------------------------------------
 ----------------------------------------------------------------
             Standard Nuclear Orientation (Angstroms)
    I     Atom           X                Y                Z
 ----------------------------------------------------------------
    1      C       1.6645365130    -0.7415298831    -0.8895892202
    2      C       2.7875365130    -1.3185298831    -1.7475892202
    3      C       0.4615365130    -1.6255298831    -0.7875892202
    4      C       0.0665365130    -2.4595298831     0.2114107798
    5      C      -1.5114634870    -2.4375298831    -1.3285892202
    6      N      -0.5434634870    -1.6365298831    -1.7445892202
    7      N      -1.1684634870    -2.9425298831    -0.1435892202
    8      H       1.9765365130    -0.4915298831     0.1214107798
    9      H       1.3385365130     0.1684701169    -1.3975892202
   10      H       2.3445365130    -1.8515298831    -2.5905892202
   11      H       0.5455365130    -2.7415298831     1.1354107798
   12      H      -2.4084634870    -2.6055298831    -1.9155892202
   13      H      -1.7244634870    -3.5795298831     0.4094107798
   14      H       3.4213265130    -2.0135898831    -1.1773292202
   15      H       3.4001865130    -0.4927898831    -2.1384992202
 ----------------------------------------------------------------
 Nuclear Repulsion Energy =         290.80467358 hartrees
 There are       26 alpha and       26 beta electrons
 Requested basis set is def2-TZVPD
 There are 131 shells and 331 basis functions

 Total QAlloc Memory Limit   2000 MB
 Mega-Array Size      1956 MB
 MEM_STATIC part      2000 MB
 Discretize the solute cavity surface with Lebedev spheres
	Using 302 Lebedev grid points for each H atom
	Using 302 Lebedev grid points for other atoms
	Atomic van der Waals radii will be scaled by 1.20
 Remove points where switching function is < 1.0e-08
 Keep 1816 surface tesserae and discard 2714 interior tesserae
 Molecular Surface Area = 181.453 Angst**2

                       Distance Matrix (Angstroms)
             C (  1)   C (  2)   C (  3)   C (  4)   C (  5)   N (  6)
   C (  2)  1.526506
   C (  3)  1.496352  2.534980
   C (  4)  2.591781  3.541667  1.359993
   C (  5)  3.627136  4.461964  2.201080  2.205032
   N (  6)  2.531267  3.346146  1.387802  2.208023  1.323511
   N (  7)  3.664261  4.567289  2.192288  1.372785  1.333004  2.158579
   H (  8)  1.087182  2.198820  2.099396  2.743943  4.249183  3.338170
   H (  9)  1.091989  2.105533  2.087981  3.333654  3.862447  2.630657
   H ( 10)  2.141939  1.091324  2.616787  3.661987  4.099363  3.017032
   H ( 11)  3.058232  3.919590  2.224959  1.078305  3.224122  3.271291
   H ( 12)  4.595269  5.355652  3.235689  3.266660  1.085082  2.108655
   H ( 13)  4.607273  5.488435  3.166942  2.121623  2.090497  3.132048
   H ( 14)  2.187977  1.099998  3.010456  3.658152  4.953284  4.022874
   H ( 15)  2.152703  1.099999  3.426911  4.528064  5.344368  4.125007
             N (  7)   H (  8)   H (  9)   H ( 10)   H ( 11)   H ( 12)
   H (  8)  3.996079
   H (  9)  4.187587  1.774825
   H ( 10)  4.418061  3.056136  2.552584
   H ( 11)  2.148031  2.852798  3.938659  4.232207
   H ( 12)  2.188870  5.276987  4.690779  4.859542  4.248907
   H ( 13)  1.010304  4.828674  5.166694  5.342541  2.526306  2.611926
   H ( 14)  4.795594  2.467957  3.024552  1.784109  3.761493  5.906088
   H ( 15)  5.554589  2.670950  2.288365  1.779033  4.891252  6.184964
             H ( 13)   H ( 14)
   H ( 14)  5.607947
   H ( 15)  6.502449  1.799202

 A cutoff of  1.0D-14 yielded   8273 shell pairs
 There are     53811 function pairs (     68522 Cartesian)
 Smallest overlap matrix eigenvalue = 1.22E-06

 Scale SEOQF with 1.000000e-01/1.000000e-01/1.000000e-01

 Standard Electronic Orientation quadrupole field applied
 Nucleus-field energy     =     0.0000000117 hartrees
 Guess from superposition of atomic densities
 Warning:  Energy on first SCF cycle will be non-variational
 SAD guess density has 52.000000 electrons

 -----------------------------------------------------------------------
  General SCF calculation program by
  Eric Jon Sundstrom, Paul Horn, Yuezhi Mao, Dmitri Zuev, Alec White,
  David Stuck, Shaama M.S., Shane Yost, Joonho Lee, David Small,
  Daniel Levine, Susi Lehtola, Hugh Burton, Evgeny Epifanovsky,
  Bang C. Huynh
 -----------------------------------------------------------------------
 Exchange:     0.1670 Hartree-Fock + 1.0000 wB97X-V + LR-HF
 Correlation:  1.0000 wB97X-V
 Using Euler-Maclaurin-Lebedev (99,590) quadrature formula
 Nonlocal Correlation:  VV10 with C = 0.0100 and b = 6.00 and scale = 1.00000
 Grid used for NLC:  SG-1 standard quadrature
Energy prior to optimization (guess energy) = -304.787966388002
Begin Timing: Total SCF Calculation
begin iterations for algorithm: DIIS         
the SCF tolerance is set to 1.00e-08
    1    -304.7879663880      2.36e-03     00000 
    2    -304.8042949327      2.43e-03     00000 
    3    -304.8770908307      3.69e-04     00000 
    4    -304.8790476804      1.40e-04     00000 
    5    -304.8794266021      4.85e-05     00000 
    6    -304.8794714401      1.78e-05     00000 
    7    -304.8794768526      6.95e-06     00000 
    8    -304.8794778385      1.31e-06     00000 
    9    -304.8794779162      5.80e-07     00000 
   10    -304.8794779243      1.95e-07     00000 
   11    -304.8794779254      5.49e-08     00000 
   12    -304.8794779254      2.21e-08     00000 
   13    -304.8794779255      5.60e-09     00000 Convergence criterion met
Timing for Total SCF: 762.00s (wall), 4192.24s (cpu)

************** Final PCM Free Energy Summary **************
 G_electrostatic  =      -0.01023045 hartree =      -6.41970520 kcal/mol
 G_cavitation     =       0.00000000 hartree =       0.00000000 kcal/mol
 G_dispersion     =       0.00000000 hartree =       0.00000000 kcal/mol
 G_repulsion      =       0.00000000 hartree =       0.00000000 kcal/mol
 --------------------------------------------------
 Non-electrostatic Free Energy =       0.00000000 hartree =       0.00000000 kcal/mol
 Total                         =      -0.01023045 hartree =      -6.41970520 kcal/mol
 --------------------------------------------------
 SCF Energy (H0 + V/2)                       =    -304.87947793 
 Solute Internal Energy (H0)                 =    -304.86924747 
 Total Free Energy (H0 + V/2 + non-elec)     =    -304.87947793 hartree
                                             = -191314.75991176 kcal/mol
***********************************************************

E_pcm = -0.0102304515
Multipole orders to be included
        2
        3
computing dipole RHS
computing quadrupole RHS
total number of RHS in solve_reponses: 8
RHS batch sizes
        8
Beginning Block Conjugate Gradient Iterations. Batch Number: 0
computing hessian-vector products by finite difference
              1      5.62e-01     00000 Conjugate Gradient Iteration
computing hessian-vector products by finite difference
              2      1.91e-01     00000 Conjugate Gradient Iteration
computing hessian-vector products by finite difference
              3      4.56e-02     00000 Conjugate Gradient Iteration
computing hessian-vector products by finite difference
              4      1.06e-02     00000 Conjugate Gradient Iteration
computing hessian-vector products by finite difference
              5      2.09e-03     00000 Conjugate Gradient Iteration
computing hessian-vector products by finite difference
              6      5.14e-04     00000 Conjugate Gradient Iteration
computing hessian-vector products by finite difference
              7      1.07e-04     00000 Conjugate Gradient Iteration
computing hessian-vector products by finite difference
              8      1.81e-05     00000 Conjugate Gradient Iteration
computing hessian-vector products by finite difference
              9      3.48e-06     00000 Conjugate Gradient Iteration
computing hessian-vector products by finite difference
             10      5.39e-07     00000 Conjugate Gradient Iteration
computing hessian-vector products by finite difference
             11      8.80e-08     00000 Conjugate Gradient Iteration
computing hessian-vector products by finite difference
             12      1.44e-08     00000 Conjugate Gradient Iteration
computing hessian-vector products by finite difference
             13      2.74e-09     00000 CG Converged
batch 0 complete
Done Calculating Responses
TESTING ORTHOGONALIZATION OF MULTIPOLE BASIS
Multipole virts passed orthogonality test
Virts Per Order
           78
          130

 --------------------------------------------------------------

                    Orbital Energies (a.u.)
 --------------------------------------------------------------

 Alpha MOs
 -- Occupied --
-14.4656 -14.3876 -10.3224 -10.2901 -10.2844 -10.2668 -10.2565  -1.1566
 -0.9984  -0.9181  -0.8623  -0.7628  -0.7278  -0.6916  -0.6604  -0.5746
 -0.5636  -0.5477  -0.5399  -0.5192  -0.4831  -0.4522  -0.4462  -0.3785
 -0.3759  -0.3249
 -- Virtual --
  0.0640   0.0803   0.0901   0.0912   0.1047   0.1133   0.1220   0.1340
  0.1421   0.1575   0.1597   0.1692   0.1764   0.1868   0.1969   0.2050
  0.2126   0.2253   0.2332   0.2417   0.2462   0.2579   0.2641   0.2741
  0.2820   0.2860   0.2910   0.2944   0.3062   0.3089   0.3113   0.3196
  0.3241   0.3289   0.3423   0.3473   0.3495   0.3512   0.3609   0.3672
  0.3734   0.3779   0.3860   0.3928   0.3976   0.4067   0.4088   0.4151
  0.4221   0.4276   0.4369   0.4473   0.4504   0.4557   0.4731   0.4769
  0.4811   0.4871   0.4938   0.5008   0.5064   0.5090   0.5124   0.5212
  0.5380   0.5423   0.5558   0.5654   0.5714   0.5776   0.5845   0.5949
  0.6025   0.6070   0.6105   0.6178   0.6260   0.6350   0.6525   0.6637
  0.6758   0.6854   0.6909   0.7008   0.7122   0.7297   0.7349   0.7435
  0.7526   0.7591   0.7766   0.7816   0.7843   0.7892   0.7925   0.7969
  0.8096   0.8160   0.8278   0.8320   0.8369   0.8391   0.8468   0.8723
  0.8818   0.8872   0.9014   0.9170   0.9400   0.9796   0.9844   0.9954
  1.0050   1.0187   1.0306   1.0427   1.0728   1.0951   1.1042   1.1168
  1.1213   1.1491   1.1705   1.1770   1.1983   1.2276   1.2411   1.2511
  1.2667   1.2933   1.3264   1.3470   1.3670   1.3813   1.4058   1.4318
  1.4543   1.4925   1.5157   1.5258   1.5513   1.5739   1.6135   1.6648
  1.6746   1.7068   1.7309   1.7600   1.8140   1.8496   1.8648   1.8773
  1.8849   1.8970   1.9114   1.9170   1.9373   1.9423   1.9773   1.9781
  1.9902   2.0029   2.0110   2.0192   2.0356   2.0470   2.0525   2.0779
  2.1213   2.1519   2.2033   2.2223   2.2590   2.2713   2.2837   2.3104
  2.3316   2.3914   2.3996   2.4188   2.4351   2.4932   2.4983   2.5078
  2.5441   2.5908   2.5970   2.6181   2.6356   2.6526   2.6713   2.6865
  2.7073   2.7321   2.7700   2.7730   2.7910   2.8047   2.8479   2.8657
  2.8842   2.9107   2.9216   2.9630   2.9807   3.0085   3.0522   3.0577
  3.0782   3.0821   3.1041   3.1234   3.1399   3.1683   3.1952   3.2203
  3.2339   3.2638   3.2710   3.3021   3.3142   3.3174   3.3356   3.3467
  3.3495   3.3959   3.4132   3.4172   3.4441   3.4539   3.4894   3.5036
  3.5264   3.5499   3.5818   3.5885   3.6171   3.6263   3.6560   3.6708
  3.6900   3.7081   3.7321   3.7597   3.7833   3.8077   3.8209   3.8815
  3.8927   3.9368   3.9939   4.0131   4.0521   4.0951   4.1155   4.1425
  4.1695   4.2556   4.3181   4.3443   4.4188   4.4432   4.5012   4.5569
  4.5814   4.6128   4.6741   4.7313   4.7429   4.8000   4.8469   4.8569
  4.8883   4.9627   4.9962   5.0120   5.0445   5.0579   5.0959   5.1391
  5.1627   5.2064   5.2447   5.3138   5.3837   5.4508   5.4871   5.5396
  5.5867   5.6104   5.6767   5.7062   5.7712   5.7972   5.8970   6.0680
  6.2442   6.2887  22.6302  22.7627  22.9176  23.1325  23.3990  32.6467
 32.8150
 --------------------------------------------------------------

          Ground-State Mulliken Net Atomic Charges

     Atom                 Charge (a.u.)
  ----------------------------------------
      1 C                    -0.177267
      2 C                    -0.829165
      3 C                     0.381248
      4 C                    -0.453854
      5 C                    -0.280742
      6 N                    -0.482525
      7 N                     0.096695
      8 H                     0.199439
      9 H                     0.169016
     10 H                     0.255809
     11 H                     0.265458
     12 H                     0.283502
     13 H                     0.158440
     14 H                     0.208934
     15 H                     0.205012
  ----------------------------------------
  Sum of atomic charges =     0.000000

 -----------------------------------------------------------------
                    Cartesian Multipole Moments
 -----------------------------------------------------------------
    Charge (ESU x 10^10)
                -0.0000
    Dipole Moment (Debye)
         X      -1.2381      Y      -2.5882      Z       3.3985
       Tot       4.4476
    Quadrupole Moments (Debye-Ang)
        XX     -36.2219     XY       8.6502     YY     -30.8156
        XZ       0.2202     YZ      -6.2986     ZZ     -48.5529
    Octopole Moments (Debye-Ang^2)
       XXX     -63.4233    XXY      58.1304    XYY     -48.8730
       YYY     192.6043    XXZ      36.9142    XYZ      -4.3422
       YYZ      55.6575    XZZ     -16.8720    YZZ      83.3584
       ZZZ     140.9557
    Hexadecapole Moments (Debye-Ang^3)
      XXXX    -676.9432   XXXY      29.0060   XXYY    -225.7880
      XYYY      93.3700   YYYY    -926.4828   XXXZ     112.0204
      XXYZ     -55.9082   XYYZ      37.4042   YYYZ    -234.6074
      XXZZ    -178.9067   XYZZ       5.7804   YYZZ    -249.9227
      XZZZ      91.6276   YZZZ    -210.4789   ZZZZ    -492.0261
 -----------------------------------------------------------------
Archival summary:
1\1\compute-0-13.local\SP\ProcedureUnspecified\BasisUnspecified\258\meili\WedSep2911:40:482021WedSep2911:40:482021\0\\#,ProcedureUnspecified,BasisUnspecified,\\0,1\N\C,1,1.32351\H,2,1.08508,1,121.889\N,2,1.333,1,108.693,3,179.928,0\H,4,1.0103,2,125.721,1,179.514,0\C,4,1.37279,2,109.152,1,-0.496107,0\H,6,1.0783,4,121.952,2,-179.673,0\C,6,1.35999,4,106.684,2,0.853314,0\C,8,1.49635,6,130.23,4,174.597,0\H,9,1.08718,8,107.649,6,-25.8851,0\H,9,1.09199,8,106.5,6,-142.741,0\C,9,1.52651,8,113.982,6,100.928,0\H,12,1.09132,9,108.672,8,36.8824,0\H,12,1.1,9,111.797,8,-83.4794,0\H,12,1.1,9,109.01,8,155.026,0\\\@

 Total job time:  12723.52s(wall), 72604.22s(cpu) 
 Wed Sep 29 11:40:48 2021

        *************************************************************
        *                                                           *
        *  Thank you very much for using Q-Chem.  Have a nice day.  *
        *                                                           *
        *************************************************************


Done Job For Fragment 1
calling putenv with: QCSCRATCH=/home/meili/scratch 
calling putenv with: QCTHREADS=8 
Doing General SCFMI
 Exchange:     0.1670 Hartree-Fock + 1.0000 wB97X-V + LR-HF
 Correlation:  1.0000 wB97X-V
 Using Euler-Maclaurin-Lebedev (99,590) quadrature formula
 Nonlocal Correlation:  VV10 with C = 0.0100 and b = 6.00 and scale = 1.00000
 Grid used for NLC:  SG-1 standard quadrature
performing fock build before subrot guess so that all methods have access
Printing subrot_rss_gen Method Specification:
Occupied Subspace Method is 0
Virtual Subspace Method is 0
Energy of the unrelaxed supersystem initial determinant -651.682294610358
performing fock build before subrot guess so that all methods have access
Printing subrot_rss_gen Method Specification:
Occupied Subspace Method is 0
Virtual Subspace Method is 0
Energy of the unrelaxed supersystem initial determinant w/ solvent -651.698298002287
write pseudocanon occs and virts to disk
write pseudocanon orbital energies to disk
Tolerance of ortho_decomp_scf: 1.00e-06
GDM subspace size: 20
Beginning the Orthogonal Decomposition of the Initial Supersystem Wavefunction
    1    -651.6449680943      2.70e-02     ortho_decomp Preconditoned Steepest Descent
    2    -651.6486763803      7.10e-04     ortho_decomp BFGS Step
    3    -651.6486893428      5.41e-05     ortho_decomp BFGS Step
    4    -651.6486893657      2.24e-06     ortho_decomp BFGS Step
    5    -651.6486893657      8.00e-08     ortho_decomp 00000 Convergence criterion met
 Hartree-Fock
 Hartree-Fock
 Hartree-Fock
Doing General SCFMI
 Exchange:     0.1670 Hartree-Fock + 1.0000 wB97X-V + LR-HF
 Correlation:  1.0000 wB97X-V
 Using Euler-Maclaurin-Lebedev (99,590) quadrature formula
 Nonlocal Correlation:  VV10 with C = 0.0100 and b = 6.00 and scale = 1.00000
 Grid used for NLC:  SG-1 standard quadrature
performing fock build at end of subrot_r(subrot) constructor so that all methods have access
<S^2> of initial wavefunction before polarization iterations 0.0000000000
Beginning iterations for the determination of the polarized wavefunction
Energy prior to optimization (guess energy) = -651.698298002287
Begin Timing: Total SCF Calculation
begin iterations for algorithm: DIIS         
the SCF tolerance is set to 1.00e-08
    1    -651.6982980023      7.47e-05     00000 
    2    -651.6987651666      5.27e-05     00000 
    3    -651.6989312040      1.53e-05     00000 
    4    -651.6989510869      7.85e-06     00000 
    5    -651.6989555450      3.50e-06     00000 
    6    -651.6989565402      2.12e-06     00000 
    7    -651.6989568233      1.18e-06     00000 
    8    -651.6989568960      6.13e-07     00000 
    9    -651.6989569129      3.27e-07     00000 
   10    -651.6989569187      1.79e-07     00000 
   11    -651.6989569211      8.92e-08     00000 
   12    -651.6989569217      4.30e-08     00000 
   13    -651.6989569219      2.00e-08     00000 
   14    -651.6989569219      9.64e-09     00000 Convergence criterion met
write pseudocanon occs and virts to disk
write pseudocanon orbital energies to disk
Timing for Total SCF: 7197.00s (wall), 44838.08s (cpu)
<S^2> of polarized wavefunction after polarization iterations 0.0000000000
relaxing scfmi constraint to allow all rotations in the entire AO span
Doing General SCFMI
 Exchange:     0.1670 Hartree-Fock + 1.0000 wB97X-V + LR-HF
 Correlation:  1.0000 wB97X-V
 Using Euler-Maclaurin-Lebedev (99,590) quadrature formula
 Nonlocal Correlation:  VV10 with C = 0.0100 and b = 6.00 and scale = 1.00000
 Grid used for NLC:  SG-1 standard quadrature
performing fock build at end of subrot_r(subrot) constructor so that all methods have access
<S^2> of polarized wavefunction before ct-allowed iterations 0.0000000000
Beginning iterations for the determination of the CT-Allowed wavefunction
Energy prior to optimization (guess energy) = -651.698956921877
Begin Timing: Total SCF Calculation
begin iterations for algorithm: DIIS         
the SCF tolerance is set to 1.00e-08
    1    -651.6989569219      7.49e-05     00000 
    2    -651.7002795295      7.62e-06     00000 
    3    -651.7003306531      1.59e-06     00000 
    4    -651.7003334366      7.39e-07     00000 
    5    -651.7003336001      2.02e-07     00000 
    6    -651.7003336213      7.90e-08     00000 
    7    -651.7003336230      1.87e-08     00000 
    8    -651.7003336232      8.51e-09     00000 Convergence criterion met
write pseudocanon occs and virts to disk
write pseudocanon orbital energies to disk
Timing for Total SCF: 3982.00s (wall), 24475.56s (cpu)
<S^2> of ct_allowed wavefunction after ct-allowed iterations 0.0000000000

================================
        Results of EDA2         
================================
Basic EDA Quantities
--------------------
Fragment Energies (Ha):
1 -346.8153970249
2 -304.8794779255
--------------------
  E_prp (kJ/mol) = 0.0000
  E_sol (kJ/mol) = 0.0509
  E_frz (kJ/mol) = -9.0383
  E_pol (kJ/mol) = -1.7300
  E_vct (kJ/mol) = -3.6146
  E_int (kJ/mol) = -14.3319
--------------------


Initial Wavefunction Decomposition
--------------------
  --------------------
  Orthogonal Fragment Subspace Decomposition:
  --------------------
     E_elec   (ELEC)   (kJ/mol) = -35.6005
     E_pauli  (PAULI)  (kJ/mol) = 60.9858
     E_disp   (DISP)   (kJ/mol) = -34.4236
     --------------------
     Terms summing to E_pauli:
     --------------------
        E_kep_pauli       (kJ/mol) = 79.1934
        E_disp_free_pauli (kJ/mol) = -18.2076
  --------------------
  Classical Frozen Decomposition:
  --------------------
     E_cls_elec  (CLS ELEC)  (kJ/mol) = -9.9319
     E_cls_pauli (CLS PAULI) (kJ/mol) = 0.8936
    [E_mod_pauli (MOD PAULI) (kJ/mol) = 35.3172 (CLS PAULI - DISP from orthogonal decomposition) ]
  --------------------
--------------------

Simplified EDA Summary (kJ/mol)
--------------------
 PREPARATION     0.0000
 SOLVATION       0.0509
 FROZEN          25.3853      (does not include dispersion)
[PAULI           60.9858]     (if this is negligible, then frozen describes electrostatics)
 DISPERSION      -34.4236
 POLARIZATION    -1.7300
 CHARGE TRANSFER -3.6146
 TOTAL           -14.3319     (PRP + SOL + FRZ + DISP + POL + CT)
--------------------

 --------------------------------------------------------------

                    Orbital Energies (a.u.)
 --------------------------------------------------------------

 Alpha MOs
 -- Occupied --
-19.2454 -14.4646 -14.3855 -10.3375 -10.3209 -10.2874 -10.2816 -10.2775
-10.2771 -10.2765 -10.2723 -10.2706 -10.2618 -10.2616 -10.2546  -1.1875
 -1.1549  -0.9965  -0.9876  -0.9149  -0.8969  -0.8778  -0.8601  -0.8083
 -0.7601  -0.7449  -0.7260  -0.7114  -0.6900  -0.6613  -0.6578  -0.5965
 -0.5794  -0.5719  -0.5635  -0.5507  -0.5464  -0.5380  -0.5324  -0.5288
 -0.5174  -0.5138  -0.5090  -0.4797  -0.4775  -0.4551  -0.4499  -0.4438
 -0.4394  -0.4346  -0.3774  -0.3740  -0.3468  -0.3220  -0.3088
 -- Virtual --
  0.0546   0.0579   0.0642   0.0702   0.0739   0.0818   0.0889   0.0927
  0.0996   0.1023   0.1061   0.1106   0.1195   0.1234   0.1243   0.1266
  0.1356   0.1440   0.1446   0.1501   0.1570   0.1604   0.1713   0.1755
  0.1770   0.1798   0.1897   0.1954   0.1996   0.2028   0.2072   0.2096
  0.2219   0.2234   0.2270   0.2311   0.2337   0.2426   0.2454   0.2498
  0.2563   0.2565   0.2612   0.2663   0.2671   0.2746   0.2819   0.2835
  0.2840   0.2893   0.2922   0.2977   0.2995   0.3029   0.3088   0.3094
  0.3105   0.3126   0.3157   0.3196   0.3228   0.3233   0.3290   0.3329
  0.3358   0.3400   0.3437   0.3459   0.3499   0.3523   0.3550   0.3568
  0.3598   0.3657   0.3680   0.3723   0.3732   0.3777   0.3836   0.3867
  0.3883   0.3890   0.3956   0.3981   0.3998   0.4028   0.4049   0.4077
  0.4130   0.4164   0.4192   0.4240   0.4291   0.4310   0.4330   0.4376
  0.4413   0.4478   0.4501   0.4561   0.4569   0.4597   0.4637   0.4695
  0.4717   0.4737   0.4775   0.4800   0.4804   0.4842   0.4883   0.4910
  0.4946   0.4957   0.4996   0.5055   0.5086   0.5101   0.5124   0.5185
  0.5218   0.5257   0.5281   0.5351   0.5376   0.5411   0.5441   0.5504
  0.5531   0.5581   0.5669   0.5677   0.5723   0.5773   0.5884   0.5919
  0.5943   0.5985   0.6022   0.6055   0.6097   0.6116   0.6183   0.6204
  0.6255   0.6295   0.6312   0.6329   0.6369   0.6465   0.6498   0.6587
  0.6641   0.6671   0.6674   0.6773   0.6820   0.6868   0.6895   0.6909
  0.6969   0.7005   0.7107   0.7154   0.7201   0.7245   0.7266   0.7308
  0.7325   0.7361   0.7419   0.7457   0.7485   0.7596   0.7600   0.7665
  0.7709   0.7725   0.7772   0.7793   0.7845   0.7853   0.7868   0.7932
  0.7945   0.7970   0.8011   0.8071   0.8124   0.8147   0.8189   0.8228
  0.8248   0.8266   0.8283   0.8351   0.8396   0.8442   0.8492   0.8554
  0.8558   0.8608   0.8669   0.8729   0.8766   0.8803   0.8857   0.8884
  0.8919   0.8963   0.8978   0.9074   0.9115   0.9137   0.9190   0.9263
  0.9322   0.9407   0.9445   0.9499   0.9522   0.9594   0.9682   0.9708
  0.9772   0.9886   0.9896   0.9985   1.0074   1.0125   1.0276   1.0306
  1.0353   1.0393   1.0446   1.0520   1.0634   1.0729   1.0754   1.0843
  1.1011   1.1044   1.1064   1.1124   1.1157   1.1361   1.1412   1.1451
  1.1482   1.1624   1.1642   1.1828   1.1945   1.2019   1.2085   1.2120
  1.2250   1.2310   1.2436   1.2479   1.2563   1.2736   1.2766   1.2952
  1.3074   1.3118   1.3229   1.3366   1.3396   1.3495   1.3622   1.3704
  1.3779   1.3854   1.3914   1.3975   1.4047   1.4246   1.4391   1.4436
  1.4493   1.4528   1.4779   1.4851   1.4892   1.4957   1.5088   1.5168
  1.5324   1.5487   1.5566   1.5604   1.5727   1.5812   1.5894   1.6029
  1.6080   1.6290   1.6310   1.6437   1.6520   1.6666   1.6855   1.7039
  1.7110   1.7178   1.7269   1.7612   1.7691   1.7777   1.7857   1.8085
  1.8205   1.8366   1.8547   1.8702   1.8766   1.8859   1.8940   1.9088
  1.9110   1.9212   1.9343   1.9393   1.9503   1.9575   1.9652   1.9737
  1.9791   1.9803   1.9851   1.9913   1.9952   2.0083   2.0145   2.0205
  2.0337   2.0388   2.0480   2.0523   2.0598   2.0661   2.0809   2.0867
  2.1013   2.1066   2.1168   2.1226   2.1280   2.1393   2.1453   2.1556
  2.1732   2.1983   2.2076   2.2141   2.2269   2.2357   2.2495   2.2619
  2.2697   2.2839   2.2899   2.3000   2.3119   2.3221   2.3274   2.3399
  2.3579   2.3634   2.3653   2.3811   2.3858   2.4025   2.4111   2.4244
  2.4382   2.4497   2.4624   2.4698   2.4792   2.4955   2.5027   2.5270
  2.5374   2.5403   2.5623   2.5669   2.5758   2.5970   2.6024   2.6193
  2.6345   2.6425   2.6481   2.6523   2.6654   2.6806   2.6856   2.6936
  2.7032   2.7201   2.7356   2.7384   2.7632   2.7674   2.7703   2.7760
  2.7879   2.7901   2.8082   2.8184   2.8343   2.8499   2.8516   2.8638
  2.8746   2.8774   2.8932   2.8980   2.9192   2.9362   2.9394   2.9506
  2.9558   2.9626   2.9671   2.9752   2.9931   2.9999   3.0051   3.0196
  3.0321   3.0371   3.0539   3.0730   3.0736   3.0814   3.0857   3.0977
  3.1017   3.1109   3.1215   3.1335   3.1382   3.1463   3.1632   3.1812
  3.1869   3.1936   3.2064   3.2249   3.2291   3.2350   3.2407   3.2506
  3.2710   3.2795   3.2889   3.3002   3.3135   3.3187   3.3248   3.3352
  3.3408   3.3523   3.3605   3.3697   3.3742   3.3877   3.3964   3.4091
  3.4108   3.4233   3.4290   3.4351   3.4554   3.4585   3.4608   3.4717
  3.4771   3.4899   3.4952   3.5037   3.5057   3.5192   3.5220   3.5334
  3.5471   3.5545   3.5566   3.5602   3.5759   3.5832   3.5878   3.5982
  3.6022   3.6026   3.6100   3.6244   3.6315   3.6372   3.6426   3.6559
  3.6612   3.6845   3.6914   3.6948   3.7077   3.7192   3.7224   3.7231
  3.7427   3.7533   3.7550   3.7859   3.7939   3.8015   3.8065   3.8249
  3.8459   3.8500   3.8596   3.8665   3.9078   3.9201   3.9388   3.9534
  3.9660   3.9675   3.9809   3.9984   4.0369   4.0453   4.0525   4.0863
  4.0945   4.1200   4.1391   4.1438   4.1687   4.1776   4.2128   4.2561
  4.2749   4.2897   4.2999   4.3158   4.3242   4.3266   4.3357   4.3522
  4.3565   4.3703   4.3805   4.3923   4.4372   4.4566   4.4578   4.4651
  4.4828   4.5100   4.5306   4.5902   4.6057   4.6193   4.6324   4.6630
  4.6969   4.7189   4.7371   4.7668   4.7741   4.7851   4.7922   4.8204
  4.8648   4.8733   4.9015   4.9201   4.9496   4.9926   5.0194   5.0339
  5.0437   5.0537   5.0650   5.0945   5.1039   5.1303   5.1493   5.1721
  5.1857   5.2025   5.2554   5.2844   5.2909   5.3025   5.3466   5.3852
  5.4090   5.4353   5.4809   5.5080   5.5385   5.5595   5.6051   5.6172
  5.6259   5.6387   5.6838   5.7058   5.7254   5.7617   5.7993   5.8713
  5.9264   5.9486   6.0927   6.2083   6.2525   6.3096   6.4408   6.6008
  6.6795   6.9096   7.0039   7.3360   7.4640  22.6737  22.6810  22.7714
 22.9180  22.9677  22.9719  23.0317  23.0581  23.1574  23.1828  23.4515
 23.4537  32.7436  32.9167  44.5313
 --------------------------------------------------------------

          Ground-State Mulliken Net Atomic Charges

     Atom                 Charge (a.u.)
  ----------------------------------------
      1 C                    -1.280409
      2 C                    -0.202316
      3 C                    -0.485997
      4 C                     0.432372
      5 C                     0.619762
      6 C                    -0.587093
      7 C                    -0.356868
      8 O                    -0.537574
      9 H                     0.250512
     10 H                     0.316707
     11 H                     0.350644
     12 H                     0.344647
     13 H                     0.262198
     14 H                     0.280647
     15 H                     0.314035
     16 H                     0.254069
     17 C                     0.464421
     18 C                    -1.123098
     19 C                     0.124391
     20 C                    -0.311106
     21 C                    -0.292760
     22 N                    -0.425943
     23 N                     0.130811
     24 H                     0.130990
     25 H                    -0.113969
     26 H                     0.277126
     27 H                     0.238261
     28 H                     0.269108
     29 H                     0.173326
     30 H                     0.234241
     31 H                     0.248864
  ----------------------------------------
  Sum of atomic charges =     0.000000

 -----------------------------------------------------------------
                    Cartesian Multipole Moments
 -----------------------------------------------------------------
    Charge (ESU x 10^10)
                -0.0000
    Dipole Moment (Debye)
         X      -2.6230      Y      -2.9417      Z       2.3309
       Tot       4.5790
    Quadrupole Moments (Debye-Ang)
        XX     -81.4816     XY      13.0043     YY     -75.9743
        XZ      -0.2228     YZ     -11.2759     ZZ    -100.1958
    Octopole Moments (Debye-Ang^2)
       XXX     -30.4136    XXY     -24.8906    XYY     -30.9225
       YYY     -50.6182    XXZ       6.5627    XYZ       8.1091
       YYZ      16.9708    XZZ     -11.4100    YZZ      -8.5399
       ZZZ      21.5083
    Hexadecapole Moments (Debye-Ang^3)
      XXXX    -935.2814   XXXY      63.3605   XXYY    -502.6303
      XYYY     139.1047   YYYY   -2367.3721   XXXZ     100.7363
      XXYZ     -55.4683   XYYZ      43.2519   YYYZ    -245.4641
      XXZZ    -323.1303   XYZZ      33.1765   YYZZ    -612.9742
      XZZZ      62.2976   YZZZ    -211.0974   ZZZZ   -1248.8674
 -----------------------------------------------------------------
Archival summary:
1\1\compute-0-13.local\SP\ProcedureUnspecified\BasisUnspecified\121216\meili\WedSep2916:55:172021WedSep2916:55:172021\0\\#,ProcedureUnspecified,BasisUnspecified,\\0,1\N\C,1,1.32351\H,2,1.08508,1,121.889\N,2,1.333,1,108.693,3,179.928,0\H,4,1.0103,2,125.721,1,179.514,0\C,4,1.37279,2,109.152,1,-0.496107,0\H,6,1.0783,4,121.952,2,-179.673,0\C,6,1.35999,4,106.684,2,0.853314,0\C,8,1.49635,6,130.23,4,174.597,0\H,9,1.08718,8,107.649,6,-25.8851,0\H,9,1.09199,8,106.5,6,-142.741,0\C,9,1.52651,8,113.982,6,100.928,0\H,12,1.09132,9,108.672,8,36.8824,0\H,12,1.1,9,111.797,8,-83.4794,0\H,12,1.1,9,109.01,8,155.026,0\H,7,2.80572,6,95.1189,4,-80.8233,0\O,16,0.970209,7,95.1248,6,-100.848,0\C,17,1.37495,16,113.334,7,91.6983,0\C,18,1.40298,17,117.668,16,-179.765,0\H,19,1.08131,18,119.523,17,-0.0021417,0\C,19,1.39449,18,120.594,17,179.979,0\H,21,1.07837,19,119.856,18,179.968,0\C,21,1.39691,19,120.859,18,-0.0118221,0\C,23,1.40576,21,119.201,19,-0.782329,0\H,24,1.08341,23,119.303,21,-178.803,0\C,18,1.41076,17,122.879,16,-0.143143,0\H,26,1.08267,18,119.544,17,0.67922,0\C,23,1.51909,21,119.682,19,177.278,0\H,28,1.08963,23,108.929,21,138.55,0\H,28,1.09144,23,109.112,21,19.6259,0\H,28,1.1,23,116.016,21,-102.671,0\\\@

 Total job time:  49321.56s(wall), 120453.24s(cpu) 
 Wed Sep 29 16:55:17 2021

        *************************************************************
        *                                                           *
        *  Thank you very much for using Q-Chem.  Have a nice day.  *
        *                                                           *
        *************************************************************


