
Running Job 1 of 1 SSI-035PHE-128PHE-1_SMD_TZVPD.in
qchem SSI-035PHE-128PHE-1_SMD_TZVPD.in_59946.0 /tmp/qchem59946/ 0
/global/common/cori/software/qchem/5.2/exe/qcprog.exe_s SSI-035PHE-128PHE-1_SMD_TZVPD.in_59946.0 /tmp/qchem59946/
                  Welcome to Q-Chem
     A Quantum Leap Into The Future Of Chemistry


 Q-Chem 5.2, Q-Chem, Inc., Pleasanton, CA (2019)

 License issued to: National Energy Research Scientific Computing Center

 Yihan Shao,  Zhengting Gan,  E. Epifanovsky,  A. T. B. Gilbert,  M. Wormit,  
 J. Kussmann,  A. W. Lange,  A. Behn,  Jia Deng,  Xintian Feng,  D. Ghosh,  
 M. Goldey,  P. R. Horn,  L. D. Jacobson,  I. Kaliman,  T. Kus,  A. Landau,  
 Jie Liu,  E. I. Proynov,  R. M. Richard,  R. P. Steele,  E. J. Sundstrom,  
 H. L. Woodcock III,  P. M. Zimmerman,  D. Zuev,  B. Albrecht,  E. Alguire,  
 S. A. Baeppler,  D. Barton,  Z. Benda,  Y. A. Bernard,  E. J. Berquist,  
 K. B. Bravaya,  H. Burton,  D. Casanova,  Chun-Min Chang,  Yunqing Chen,  
 A. Chien,  K. D. Closser,  M. P. Coons,  S. Coriani,  S. Dasgupta,  
 A. L. Dempwolff,  M. Diedenhofen,  Hainam Do,  R. G. Edgar,  Po-Tung Fang,  
 S. Faraji,  S. Fatehi,  Qingguo Feng,  K. D. Fenk,  J. Fosso-Tande,  
 J. Gayvert,  Qinghui Ge,  A. Ghysels,  G. Gidofalvi,  J. Gomes,  
 J. Gonthier,  A. Gunina,  D. Hait,  M. W. D. Hanson-Heine,  
 P. H. P. Harbach,  A. W. Hauser,  M. F. Herbst,  J. E. Herr,  
 E. G. Hohenstein,  Z. C. Holden,  Kerwin Hui,  B. C. Huynh,  T.-C. Jagau,  
 Hyunjun Ji,  B. Kaduk,  K. Khistyaev,  Jaehoon Kim,  P. Klunzinger,  K. Koh,  
 D. Kosenkov,  L. Koulias,  T. Kowalczyk,  C. M. Krauter,  A. Kunitsa,  
 Ka Un Lao,  A. Laurent,  K. V. Lawler,  Joonho Lee,  D. Lefrancois,  
 S. Lehtola,  D. S. Levine,  Yi-Pei Li,  You-Sheng Lin,  Fenglai Liu,  
 E. Livshits,  A. Luenser,  P. Manohar,  E. Mansoor,  S. F. Manzer,  
 Shan-Ping Mao,  Yuezhi Mao,  N. Mardirossian,  A. V. Marenich,  
 T. Markovich,  L. A. Martinez-Martinez,  S. A. Maurer,  N. J. Mayhall,  
 S. C. McKenzie,  J.-M. Mewes,  P. Morgante,  A. F. Morrison,  
 J. W. Mullinax,  K. Nanda,  T. S. Nguyen-Beck,  R. Olivares-Amaya,  
 J. A. Parkhill,  Zheng Pei,  T. M. Perrine,  F. Plasser,  P. Pokhilko,  
 S. Prager,  A. Prociuk,  E. Ramos,  D. R. Rehn,  F. Rob,  M. Scheurer,  
 M. Schneider,  N. Sergueev,  S. M. Sharada,  S. Sharma,  D. W. Small,  
 T. Stauch,  T. Stein,  Yu-Chuan Su,  A. J. W. Thom,  A. Tkatchenko,  
 T. Tsuchimochi,  N. M. Tubman,  L. Vogt,  M. L. Vidal,  O. Vydrov,  
 M. A. Watson,  J. Wenzel,  M. de Wergifosse,  T. A. Wesolowski,  A. White,  
 J. Witte,  A. Yamada,  Jun Yang,  K. Yao,  S. Yeganeh,  S. R. Yost,  
 Zhi-Qiang You,  A. Zech,  Igor Ying Zhang,  Xing Zhang,  Yan Zhao,  
 Ying Zhu,  B. R. Brooks,  G. K. L. Chan,  C. J. Cramer,  M. S. Gordon,  
 W. J. Hehre,  A. Klamt,  M. W. Schmidt,  C. D. Sherrill,  D. G. Truhlar,  
 A. Aspuru-Guzik,  R. Baer,  A. T. Bell,  N. A. Besley,  Jeng-Da Chai,  
 A. E. DePrince, III,  R. A. DiStasio Jr.,  A. Dreuw,  B. D. Dunietz,  
 T. R. Furlani,  Chao-Ping Hsu,  Yousung Jung,  Jing Kong,  D. S. Lambrecht,  
 WanZhen Liang,  C. Ochsenfeld,  V. A. Rassolov,  L. V. Slipchenko,  
 J. E. Subotnik,  T. Van Voorhis,  J. M. Herbert,  A. I. Krylov,  
 P. M. W. Gill,  M. Head-Gordon

 Contributors to earlier versions of Q-Chem not listed above: 
 R. D. Adamson,  B. Austin,  J. Baker,  G. J. O. Beran,  K. Brandhorst,  
 S. T. Brown,  E. F. C. Byrd,  A. K. Chakraborty,  C.-L. Cheng,  
 Siu Hung Chien,  D. M. Chipman,  D. L. Crittenden,  H. Dachsel,  
 R. J. Doerksen,  A. D. Dutoi,  L. Fusti-Molnar,  W. A. Goddard III,  
 A. Golubeva-Zadorozhnaya,  S. R. Gwaltney,  G. Hawkins,  A. Heyden,  
 S. Hirata,  G. Kedziora,  F. J. Keil,  C. Kelley,  Jihan Kim,  R. A. King,  
 R. Z. Khaliullin,  P. P. Korambath,  W. Kurlancheek,  A. M. Lee,  M. S. Lee,  
 S. V. Levchenko,  Ching Yeh Lin,  D. Liotard,  R. C. Lochan,  I. Lotan,  
 P. E. Maslen,  N. Nair,  D. P. O'Neill,  D. Neuhauser,  E. Neuscamman,  
 C. M. Oana,  R. Olson,  B. Peters,  R. Peverati,  P. A. Pieniazek,  
 Y. M. Rhee,  J. Ritchie,  M. A. Rohrdanz,  E. Rosta,  N. J. Russ,  
 H. F. Schaefer III,  N. E. Schultz,  N. Shenvi,  A. C. Simmonett,  A. Sodt,  
 D. Stuck,  K. S. Thanthiriwatte,  V. Vanovschi,  Tao Wang,  A. Warshel,  
 C. F. Williams,  Q. Wu,  X. Xu,  W. Zhang

 Please cite Q-Chem as follows:
 Y. Shao et al., Mol. Phys. 113, 184-215 (2015)
 DOI: 10.1080/00268976.2014.952696

 Q-Chem 5.2.0 for Intel X86 EM64T Linux

 Parts of Q-Chem use Armadillo 8.300.2 (Tropical Shenanigans).
 http://arma.sourceforge.net/

 Q-Chem begins on Sun Sep 26 05:43:07 2021  

Host: cori01
0

     Scratch files written to /tmp/qchem59946//
 May1019 |scratch|qcdevops|jenkins|workspace|build_RNUM -1
Processing $rem in /global/common/cori/software/qchem/5.2/config/preferences:
	 MEM_TOTAL  96000 
NAlpha2: 108
NElect   108
Mult     1
Symmetry turned off for PCM/SM12/SMD calculation

 Q-Chem warning in module libgen/rem_setup.C, line 2803:

 Neither GIA nor STOLL is specified by user. Use STOLL as the default


Checking the input file for inconsistencies... 	...done.

--------------------------------------------------------------
User input:
--------------------------------------------------------------
$comment
SSI-035PHE-128PHE-1.pdb
$end

$molecule
0 1
--
0 1
C    1.462324693083    1.182555582979    1.670763826040
C    2.053324693083    2.300555582979    2.516763826040
C    0.069324693083    0.768555582979    2.079763826040
C   -1.026675306917    1.380555582979    1.494763826040
C   -0.141675306917   -0.262444417021    2.987763826040
C   -2.309675306917    0.981555582979    1.822763826040
C   -1.428675306917   -0.646444417021    3.329763826040
C   -2.512675306917   -0.034444417021    2.736763826040
H    1.421324693083    1.515555582979    0.630763826040
H    2.119324693083    0.311555582979    1.698763826040
H    1.314324693083    3.100555582979    2.599763826040
H   -0.886675306917    2.174555582979    0.774763826040
H    0.699324693083   -0.751444417021    3.451763826040
H   -3.158675306917    1.453555582979    1.360763826040
H   -1.587675306917   -1.437444417021    4.048763826040
H   -3.515675306917   -0.352444417021    2.980763826040
H    2.950674693083    2.687835582979    2.012003826040
H    2.279774693083    1.938235582979    3.530393826040
--
0 1
C    2.223324693083   -1.994444417021   -3.959236173960
C    0.148324693083   -0.723444417021   -1.048236173960
C   -0.829675306917    0.013555582979   -1.715236173960
C    1.136324693083   -1.368444417021   -1.788236173960
C    1.143324693083   -1.293444417021   -3.175236173960
C   -0.831675306917    0.077555582979   -3.101236173960
C    0.157324693083   -0.560444417021   -3.828236173960
H    0.126324693083   -0.818444417021    0.025763826040
H   -1.604675306917    0.515555582979   -1.152236173960
H    1.895324693083   -1.940444417021   -1.272236173960
H   -1.592675306917    0.658555582979   -3.599236173960
H    3.121324693083   -2.047444417021   -3.341236173960
H    2.477324693083   -1.391444417021   -4.832236173960
H    0.168324693083   -0.481444417021   -4.905236173960
H    1.954214693083   -3.008056417021   -4.291158173960
$end

$rem
JOBTYPE			EDA
EDA2			1
method			wB97X-V
BASIS			def2-TZVPD
XC_GRID			000099000590
NL_GRID			1
UNRESTRICTED		FALSE
MAX_SCF_CYCLES		200
SYMMETRY		FALSE
SYM_IGNORE		TRUE
MEM_STATIC		2000
BASIS_LIN_DEP_THRESH 	6
THRESH 			14
SCF_CONVERGENCE 	8
SCF_PRINT_FRGM 		TRUE
SOLVENT_METHOD          SMD
$end

$SMX
SOLVENT			WATER
$END
--------------------------------------------------------------
 ----------------------------------------------------------------
             Standard Nuclear Orientation (Angstroms)
    I     Atom           X                Y                Z
 ----------------------------------------------------------------
    1      C       1.4623246931     1.1825555830     1.6707638260
    2      C       2.0533246931     2.3005555830     2.5167638260
    3      C       0.0693246931     0.7685555830     2.0797638260
    4      C      -1.0266753069     1.3805555830     1.4947638260
    5      C      -0.1416753069    -0.2624444170     2.9877638260
    6      C      -2.3096753069     0.9815555830     1.8227638260
    7      C      -1.4286753069    -0.6464444170     3.3297638260
    8      C      -2.5126753069    -0.0344444170     2.7367638260
    9      H       1.4213246931     1.5155555830     0.6307638260
   10      H       2.1193246931     0.3115555830     1.6987638260
   11      H       1.3143246931     3.1005555830     2.5997638260
   12      H      -0.8866753069     2.1745555830     0.7747638260
   13      H       0.6993246931    -0.7514444170     3.4517638260
   14      H      -3.1586753069     1.4535555830     1.3607638260
   15      H      -1.5876753069    -1.4374444170     4.0487638260
   16      H      -3.5156753069    -0.3524444170     2.9807638260
   17      H       2.9506746931     2.6878355830     2.0120038260
   18      H       2.2797746931     1.9382355830     3.5303938260
   19      C       2.2233246931    -1.9944444170    -3.9592361740
   20      C       0.1483246931    -0.7234444170    -1.0482361740
   21      C      -0.8296753069     0.0135555830    -1.7152361740
   22      C       1.1363246931    -1.3684444170    -1.7882361740
   23      C       1.1433246931    -1.2934444170    -3.1752361740
   24      C      -0.8316753069     0.0775555830    -3.1012361740
   25      C       0.1573246931    -0.5604444170    -3.8282361740
   26      H       0.1263246931    -0.8184444170     0.0257638260
   27      H      -1.6046753069     0.5155555830    -1.1522361740
   28      H       1.8953246931    -1.9404444170    -1.2722361740
   29      H      -1.5926753069     0.6585555830    -3.5992361740
   30      H       3.1213246931    -2.0474444170    -3.3412361740
   31      H       2.4773246931    -1.3914444170    -4.8322361740
   32      H       0.1683246931    -0.4814444170    -4.9052361740
   33      H       1.9542146931    -3.0080564170    -4.2911581740
 ----------------------------------------------------------------
 Nuclear Repulsion Energy =         890.48418639 hartrees
 There are       54 alpha and       54 beta electrons
 Requested basis set is def2-TZVPD
 There are 285 shells and 717 basis functions

 Total QAlloc Memory Limit  96000 MB
 Mega-Array Size      1956 MB
 MEM_STATIC part      2000 MB
 
 Citation of the SMD model:
 Marenich, A.V.; Cramer, C.J.; Truhlar, D.G.
 J. Phys. Chem. B 2009, 113, 6378-6396.
 iSolventCode=           1
 Solvent: water                                                           
 
 vradii
            1           2           3           4           5           6
    1   1.8500000   1.8500000   1.8500000   1.8500000   1.8500000   1.8500000
            7           8           9          10          11          12
    1   1.8500000   1.8500000   1.2000000   1.2000000   1.2000000   1.2000000
           13          14          15          16          17          18
    1   1.2000000   1.2000000   1.2000000   1.2000000   1.2000000   1.2000000
           19          20          21          22          23          24
    1   1.8500000   1.8500000   1.8500000   1.8500000   1.8500000   1.8500000
           25          26          27          28          29          30
    1   1.8500000   1.2000000   1.2000000   1.2000000   1.2000000   1.2000000
           31          32          33
    1   1.2000000   1.2000000   1.2000000
 Changing PCM_VDW_RADII to SMD_RADIUS
 Discretize the solute cavity surface with Lebedev spheres
	Using 110 Lebedev grid points for each H atom
	Using 194 Lebedev grid points for other atoms
	Atomic van der Waals radii will be scaled by 1.20
 Remove points where switching function is < 1.0e-08
 Keep 2357 surface tesserae and discard 2533 interior tesserae
 Molecular Surface Area = 274.231 Angst**2
 A cutoff of  1.0D-14 yielded  34530 shell pairs
 There are    219602 function pairs (    276264 Cartesian)
 Smallest overlap matrix eigenvalue = 3.83E-07
 Linear dependence detected in AO basis
 Tighter screening thresholds may be required for diffuse basis sets
 Use S2THRESH > 14 and THRESH = 14 in case of SCF convergence issues
 Number of orthogonalized atomic orbitals = 713
 Maximum deviation from orthogonality = 1.589E-10

 Scale SEOQF with 1.000000e-01/1.000000e-01/1.000000e-01

 Standard Electronic Orientation quadrupole field applied
 Nucleus-field energy     =    -0.0000000626 hartrees

 -----------------------------------------------------------------------
  General SCF calculation program by
  Eric Jon Sundstrom, Paul Horn, Yuezhi Mao, Dmitri Zuev, Alec White,
  David Stuck, Shaama M.S., Shane Yost, Joonho Lee, David Small,
  Daniel Levine, Susi Lehtola, Hugh Burton, Evgeny Epifanovsky
 -----------------------------------------------------------------------
================================================================
                 ALMO-EDA with the EDA2 driver                  
================================================================
 The second-generation ALMO-EDA (for DFT):                      
 P. R. Horn, Y. Mao and M. Head-Gordon, PCCP, 18, 23067 (2016)  
 Decomposition of the frozen energy:                            
 P. R. Horn, Y. Mao and M. Head-Gordon, JCP, 144, 114107 (2016) 
 FERF model for polarization:                                   
 P. R. Horn and M. Head-Gordon, JCP, 143, 114111 (2015)         
Using eda2 option set 1
Option set summary: Frozen orbital wavefunction, initial wavefunction decomposition, and nDQ polarization.
--------------------------------
Printing EDA Options
--------------------------------
eda_child_super_basis      0
fragmo_guess_mode          0
child_mp                   1
child_mp_orders            232
cls_elec                   1
cls_disp                   0
scfmi_mode                 1
scfmi_occs                 0
scfmi_virts                0
frz_relax                  0
frz_relax_method           0
dc_pen_start               0
dc_pen_conv                0
dc_pen_increment           0
dc_pen_steps               0
dc_pen_thresh_factor       0
dc_pen_pre_newton_thresh   0
frz_ortho_decomp           1
frz_ortho_decomp_conv      6
frgm_method                2
scfmi_freeze_ss            0
separate_rehyb             0
plot_diff_den              0
eda_nocv                   0
eda_vct_relax              1
disp_free_x                0
disp_free_c                0
eda_bsse                   0
eda_pct_a                  0
eda_covp                   0
--------------------------------
Attempting to make child job directory: /tmp/qchem59946//Frg1/
Attempting to make child job directory: /tmp/qchem59946//Frg2/
Creating input file /tmp/qchem59946/Frg1.input
using default PutDataFrgm: nothing
calling putenv with: QCSCRATCH=/tmp/qchem59946/ 
calling putenv with: QCLOCALSCR=/tmp/qchem59946/ 
Spawning Job For Fragment 0
                  Welcome to Q-Chem
     A Quantum Leap Into The Future Of Chemistry


 Q-Chem 5.2, Q-Chem, Inc., Pleasanton, CA (2019)

 License issued to: National Energy Research Scientific Computing Center

 Yihan Shao,  Zhengting Gan,  E. Epifanovsky,  A. T. B. Gilbert,  M. Wormit,  
 J. Kussmann,  A. W. Lange,  A. Behn,  Jia Deng,  Xintian Feng,  D. Ghosh,  
 M. Goldey,  P. R. Horn,  L. D. Jacobson,  I. Kaliman,  T. Kus,  A. Landau,  
 Jie Liu,  E. I. Proynov,  R. M. Richard,  R. P. Steele,  E. J. Sundstrom,  
 H. L. Woodcock III,  P. M. Zimmerman,  D. Zuev,  B. Albrecht,  E. Alguire,  
 S. A. Baeppler,  D. Barton,  Z. Benda,  Y. A. Bernard,  E. J. Berquist,  
 K. B. Bravaya,  H. Burton,  D. Casanova,  Chun-Min Chang,  Yunqing Chen,  
 A. Chien,  K. D. Closser,  M. P. Coons,  S. Coriani,  S. Dasgupta,  
 A. L. Dempwolff,  M. Diedenhofen,  Hainam Do,  R. G. Edgar,  Po-Tung Fang,  
 S. Faraji,  S. Fatehi,  Qingguo Feng,  K. D. Fenk,  J. Fosso-Tande,  
 J. Gayvert,  Qinghui Ge,  A. Ghysels,  G. Gidofalvi,  J. Gomes,  
 J. Gonthier,  A. Gunina,  D. Hait,  M. W. D. Hanson-Heine,  
 P. H. P. Harbach,  A. W. Hauser,  M. F. Herbst,  J. E. Herr,  
 E. G. Hohenstein,  Z. C. Holden,  Kerwin Hui,  B. C. Huynh,  T.-C. Jagau,  
 Hyunjun Ji,  B. Kaduk,  K. Khistyaev,  Jaehoon Kim,  P. Klunzinger,  K. Koh,  
 D. Kosenkov,  L. Koulias,  T. Kowalczyk,  C. M. Krauter,  A. Kunitsa,  
 Ka Un Lao,  A. Laurent,  K. V. Lawler,  Joonho Lee,  D. Lefrancois,  
 S. Lehtola,  D. S. Levine,  Yi-Pei Li,  You-Sheng Lin,  Fenglai Liu,  
 E. Livshits,  A. Luenser,  P. Manohar,  E. Mansoor,  S. F. Manzer,  
 Shan-Ping Mao,  Yuezhi Mao,  N. Mardirossian,  A. V. Marenich,  
 T. Markovich,  L. A. Martinez-Martinez,  S. A. Maurer,  N. J. Mayhall,  
 S. C. McKenzie,  J.-M. Mewes,  P. Morgante,  A. F. Morrison,  
 J. W. Mullinax,  K. Nanda,  T. S. Nguyen-Beck,  R. Olivares-Amaya,  
 J. A. Parkhill,  Zheng Pei,  T. M. Perrine,  F. Plasser,  P. Pokhilko,  
 S. Prager,  A. Prociuk,  E. Ramos,  D. R. Rehn,  F. Rob,  M. Scheurer,  
 M. Schneider,  N. Sergueev,  S. M. Sharada,  S. Sharma,  D. W. Small,  
 T. Stauch,  T. Stein,  Yu-Chuan Su,  A. J. W. Thom,  A. Tkatchenko,  
 T. Tsuchimochi,  N. M. Tubman,  L. Vogt,  M. L. Vidal,  O. Vydrov,  
 M. A. Watson,  J. Wenzel,  M. de Wergifosse,  T. A. Wesolowski,  A. White,  
 J. Witte,  A. Yamada,  Jun Yang,  K. Yao,  S. Yeganeh,  S. R. Yost,  
 Zhi-Qiang You,  A. Zech,  Igor Ying Zhang,  Xing Zhang,  Yan Zhao,  
 Ying Zhu,  B. R. Brooks,  G. K. L. Chan,  C. J. Cramer,  M. S. Gordon,  
 W. J. Hehre,  A. Klamt,  M. W. Schmidt,  C. D. Sherrill,  D. G. Truhlar,  
 A. Aspuru-Guzik,  R. Baer,  A. T. Bell,  N. A. Besley,  Jeng-Da Chai,  
 A. E. DePrince, III,  R. A. DiStasio Jr.,  A. Dreuw,  B. D. Dunietz,  
 T. R. Furlani,  Chao-Ping Hsu,  Yousung Jung,  Jing Kong,  D. S. Lambrecht,  
 WanZhen Liang,  C. Ochsenfeld,  V. A. Rassolov,  L. V. Slipchenko,  
 J. E. Subotnik,  T. Van Voorhis,  J. M. Herbert,  A. I. Krylov,  
 P. M. W. Gill,  M. Head-Gordon

 Contributors to earlier versions of Q-Chem not listed above: 
 R. D. Adamson,  B. Austin,  J. Baker,  G. J. O. Beran,  K. Brandhorst,  
 S. T. Brown,  E. F. C. Byrd,  A. K. Chakraborty,  C.-L. Cheng,  
 Siu Hung Chien,  D. M. Chipman,  D. L. Crittenden,  H. Dachsel,  
 R. J. Doerksen,  A. D. Dutoi,  L. Fusti-Molnar,  W. A. Goddard III,  
 A. Golubeva-Zadorozhnaya,  S. R. Gwaltney,  G. Hawkins,  A. Heyden,  
 S. Hirata,  G. Kedziora,  F. J. Keil,  C. Kelley,  Jihan Kim,  R. A. King,  
 R. Z. Khaliullin,  P. P. Korambath,  W. Kurlancheek,  A. M. Lee,  M. S. Lee,  
 S. V. Levchenko,  Ching Yeh Lin,  D. Liotard,  R. C. Lochan,  I. Lotan,  
 P. E. Maslen,  N. Nair,  D. P. O'Neill,  D. Neuhauser,  E. Neuscamman,  
 C. M. Oana,  R. Olson,  B. Peters,  R. Peverati,  P. A. Pieniazek,  
 Y. M. Rhee,  J. Ritchie,  M. A. Rohrdanz,  E. Rosta,  N. J. Russ,  
 H. F. Schaefer III,  N. E. Schultz,  N. Shenvi,  A. C. Simmonett,  A. Sodt,  
 D. Stuck,  K. S. Thanthiriwatte,  V. Vanovschi,  Tao Wang,  A. Warshel,  
 C. F. Williams,  Q. Wu,  X. Xu,  W. Zhang

 Please cite Q-Chem as follows:
 Y. Shao et al., Mol. Phys. 113, 184-215 (2015)
 DOI: 10.1080/00268976.2014.952696

 Q-Chem 5.2.0 for Intel X86 EM64T Linux

 Parts of Q-Chem use Armadillo 8.300.2 (Tropical Shenanigans).
 http://arma.sourceforge.net/

 Q-Chem begins on Sun Sep 26 05:43:15 2021  

Host: cori01
0

     Scratch files written to /tmp/qchem59946//Frg1//
 May1019 |scratch|qcdevops|jenkins|workspace|build_RNUM -1
Processing $rem in /global/common/cori/software/qchem/5.2/config/preferences:
	 MEM_TOTAL  96000 
NAlpha2: 58
NElect   58
Mult     1
Symmetry turned off for PCM/SM12/SMD calculation

Checking the input file for inconsistencies... 	...done.

--------------------------------------------------------------
User input:
--------------------------------------------------------------
$molecule
0 1
 6	1.4623246931	1.1825555830	1.6707638260
 6	2.0533246931	2.3005555830	2.5167638260
 6	0.0693246931	0.7685555830	2.0797638260
 6	-1.0266753069	1.3805555830	1.4947638260
 6	-0.1416753069	-0.2624444170	2.9877638260
 6	-2.3096753069	0.9815555830	1.8227638260
 6	-1.4286753069	-0.6464444170	3.3297638260
 6	-2.5126753069	-0.0344444170	2.7367638260
 1	1.4213246931	1.5155555830	0.6307638260
 1	2.1193246931	0.3115555830	1.6987638260
 1	1.3143246931	3.1005555830	2.5997638260
 1	-0.8866753069	2.1745555830	0.7747638260
 1	0.6993246931	-0.7514444170	3.4517638260
 1	-3.1586753069	1.4535555830	1.3607638260
 1	-1.5876753069	-1.4374444170	4.0487638260
 1	-3.5156753069	-0.3524444170	2.9807638260
 1	2.9506746931	2.6878355830	2.0120038260
 1	2.2797746931	1.9382355830	3.5303938260
$end
$rem
EDA2		1
METHOD		WB97X-V
BASIS		DEF2-TZVPD
XC_GRID		000099000590
NL_GRID		1
UNRESTRICTED		FALSE
MAX_SCF_CYCLES		200
SYMMETRY		FALSE
SYM_IGNORE		TRUE
BASIS_LIN_DEP_THRESH		6
THRESH		14
SCF_CONVERGENCE		8
SCF_PRINT_FRGM		TRUE
SOLVENT_METHOD		SMD
!required keywords
JOBTYPE		SP
SYM_IGNORE		TRUE
SUBSYSTEM		TRUE
GEN_SCFMAN		TRUE
CHILD_INSTRUCTION		2
SYM_IGNORE		TRUE
SCFMI		0
RI_K 0		
PARI_K 0		
MIN_PARI_K 0		
IARI_K 0		
OCC_RI_K 0		
PURECART		1111
MEM_STATIC		2000
MEM_TOTAL		96000
GUI		0
CHILD_MP		1
CHILD_MP_ORDERS		232
FRZ_RELAX		0
FRZ_RELAX_METHOD		0
EDA_CLS_ELEC		1
EDA_CLS_DISP		0
FRZ_ORTHO_DECOMP		1
EDA2		FALSE
FRGM_METHOD		FALSE
CIS_N_ROOTS  0
LOCAL_CIS    0
CIS_RLX_DNS  1
$end
$smx
SOLVENT			WATER
$end
--------------------------------------------------------------
 ----------------------------------------------------------------
             Standard Nuclear Orientation (Angstroms)
    I     Atom           X                Y                Z
 ----------------------------------------------------------------
    1      C       1.4623246931     1.1825555830     1.6707638260
    2      C       2.0533246931     2.3005555830     2.5167638260
    3      C       0.0693246931     0.7685555830     2.0797638260
    4      C      -1.0266753069     1.3805555830     1.4947638260
    5      C      -0.1416753069    -0.2624444170     2.9877638260
    6      C      -2.3096753069     0.9815555830     1.8227638260
    7      C      -1.4286753069    -0.6464444170     3.3297638260
    8      C      -2.5126753069    -0.0344444170     2.7367638260
    9      H       1.4213246931     1.5155555830     0.6307638260
   10      H       2.1193246931     0.3115555830     1.6987638260
   11      H       1.3143246931     3.1005555830     2.5997638260
   12      H      -0.8866753069     2.1745555830     0.7747638260
   13      H       0.6993246931    -0.7514444170     3.4517638260
   14      H      -3.1586753069     1.4535555830     1.3607638260
   15      H      -1.5876753069    -1.4374444170     4.0487638260
   16      H      -3.5156753069    -0.3524444170     2.9807638260
   17      H       2.9506746931     2.6878355830     2.0120038260
   18      H       2.2797746931     1.9382355830     3.5303938260
 ----------------------------------------------------------------
 Nuclear Repulsion Energy =         341.77057131 hartrees
 There are       29 alpha and       29 beta electrons
 Requested basis set is def2-TZVPD
 There are 154 shells and 386 basis functions

 Total QAlloc Memory Limit  96000 MB
 Mega-Array Size      1956 MB
 MEM_STATIC part      2000 MB
 
 Citation of the SMD model:
 Marenich, A.V.; Cramer, C.J.; Truhlar, D.G.
 J. Phys. Chem. B 2009, 113, 6378-6396.
 iSolventCode=           1
 Solvent: water                                                           
 
 vradii
            1           2           3           4           5           6
    1   1.8500000   1.8500000   1.8500000   1.8500000   1.8500000   1.8500000
            7           8           9          10          11          12
    1   1.8500000   1.8500000   1.2000000   1.2000000   1.2000000   1.2000000
           13          14          15          16          17          18
    1   1.2000000   1.2000000   1.2000000   1.2000000   1.2000000   1.2000000
 Changing PCM_VDW_RADII to SMD_RADIUS
 Discretize the solute cavity surface with Lebedev spheres
	Using 110 Lebedev grid points for each H atom
	Using 194 Lebedev grid points for other atoms
	Atomic van der Waals radii will be scaled by 1.20
 Remove points where switching function is < 1.0e-08
 Keep 1287 surface tesserae and discard 1365 interior tesserae
 Molecular Surface Area = 152.059 Angst**2
 A cutoff of  1.0D-14 yielded  11352 shell pairs
 There are     72702 function pairs (     92114 Cartesian)
 Smallest overlap matrix eigenvalue = 4.80E-07
 Linear dependence detected in AO basis
 Tighter screening thresholds may be required for diffuse basis sets
 Use S2THRESH > 14 and THRESH = 14 in case of SCF convergence issues
 Number of orthogonalized atomic orbitals = 384
 Maximum deviation from orthogonality = 2.211E-10

 Scale SEOQF with 1.000000e-01/1.000000e-01/1.000000e-01

 Standard Electronic Orientation quadrupole field applied
 Nucleus-field energy     =    -0.0000000239 hartrees
 Guess from superposition of atomic densities
 Warning:  Energy on first SCF cycle will be non-variational
 SAD guess density has 57.901037 electrons

 -----------------------------------------------------------------------
  General SCF calculation program by
  Eric Jon Sundstrom, Paul Horn, Yuezhi Mao, Dmitri Zuev, Alec White,
  David Stuck, Shaama M.S., Shane Yost, Joonho Lee, David Small,
  Daniel Levine, Susi Lehtola, Hugh Burton, Evgeny Epifanovsky
 -----------------------------------------------------------------------
 Exchange:     0.1670 Hartree-Fock + 1.0000 wB97X-V + LR-HF
 Correlation:  1.0000 wB97X-V
 Using Euler-Maclaurin-Lebedev (99,590) quadrature formula
 Nonlocal Correlation:  VV10 with C = 0.0100 and b = 6.00 and scale = 1.00000
 Grid used for NLC:  SG-1 standard quadrature
Energy prior to optimization (guess energy) = -310.825865923496
Begin Timing: Total SCF Calculation
begin iterations for algorithm: DIIS         
the SCF tolerance is set to 1.00e-08
    1    -310.8258659235      1.84e-03     00000 
    2    -310.8728879170      1.20e-03     00000 
    3    -310.9010309525      1.37e-04     00000 
    4    -310.9017550559      3.82e-05     00000 
    5    -310.9018028449      1.80e-05     00000 
    6    -310.9018098142      5.08e-06     00000 
    7    -310.9018105894      1.43e-06     00000 
    8    -310.9018106434      4.64e-07     00000 
    9    -310.9018106504      9.61e-08     00000 
   10    -310.9018106510      3.93e-08     00000 
   11    -310.9018106510      1.79e-08     00000 
   12    -310.9018106511      5.26e-09     00000 Convergence criterion met
Timing for Total SCF: 2263.00s (wall), 4500.42s (cpu)
(3)  G-ENP(liq) elect-nuc-pol free energy of system     -310.901810651 a.u.
(4)  G-CDS(liq) cavity-dispersion-solvent structure 
     free energy                                                3.4587 kcal/mol
(6)  G-S(liq) free energy of system                     -310.896298847 a.u.
E_pcm = -0.0075296202
E_cds = 0.0055118043
Multipole orders to be included
        2
        3
computing dipole RHS
computing quadrupole RHS
total number of RHS in solve_reponses: 8
RHS batch sizes
        8
Beginning Block Conjugate Gradient Iterations. Batch Number: 0
computing hessian-vector products by finite difference
              1      5.95e-01     00000 Conjugate Gradient Iteration
computing hessian-vector products by finite difference
              2      1.81e-01     00000 Conjugate Gradient Iteration
computing hessian-vector products by finite difference
              3      4.69e-02     00000 Conjugate Gradient Iteration
computing hessian-vector products by finite difference
              4      1.22e-02     00000 Conjugate Gradient Iteration
computing hessian-vector products by finite difference
              5      2.34e-03     00000 Conjugate Gradient Iteration
computing hessian-vector products by finite difference
              6      5.31e-04     00000 Conjugate Gradient Iteration
computing hessian-vector products by finite difference
              7      1.38e-04     00000 Conjugate Gradient Iteration
computing hessian-vector products by finite difference
              8      2.52e-05     00000 Conjugate Gradient Iteration
computing hessian-vector products by finite difference
              9      4.03e-06     00000 Conjugate Gradient Iteration
computing hessian-vector products by finite difference
             10      6.12e-07     00000 Conjugate Gradient Iteration
computing hessian-vector products by finite difference
             11      9.23e-08     00000 Conjugate Gradient Iteration
computing hessian-vector products by finite difference
             12      1.44e-08     00000 Conjugate Gradient Iteration
computing hessian-vector products by finite difference
             13      2.51e-09     00000 CG Converged
batch 0 complete
Done Calculating Responses
TESTING ORTHOGONALIZATION OF MULTIPOLE BASIS
Multipole virts passed orthogonality test
Virts Per Order
           87
          145
 
 --------------------------------------------------------------
 
                    Orbital Energies (a.u.)
 --------------------------------------------------------------
 
 Alpha MOs
 -- Occupied --
-10.2722 -10.2648 -10.2639 -10.2624 -10.2616 -10.2615 -10.2573 -10.2501
 -0.9976  -0.9179  -0.8760  -0.8504  -0.7505  -0.7261  -0.6921  -0.6254
 -0.5777  -0.5640  -0.5357  -0.5286  -0.5192  -0.5023  -0.4766  -0.4579
 -0.4465  -0.4265  -0.4218  -0.3468  -0.3359
 -- Virtual --
  0.0653   0.0702   0.0734   0.0875   0.0891   0.0957   0.1101   0.1143
  0.1181   0.1375   0.1623   0.1693   0.1725   0.1766   0.1931   0.1947
  0.1986   0.2049   0.2195   0.2235   0.2268   0.2381   0.2488   0.2592
  0.2699   0.2737   0.2758   0.2799   0.2846   0.2889   0.2936   0.2978
  0.3006   0.3045   0.3097   0.3137   0.3250   0.3321   0.3364   0.3399
  0.3505   0.3555   0.3596   0.3599   0.3684   0.3716   0.3779   0.3839
  0.3877   0.3913   0.3976   0.4006   0.4028   0.4117   0.4189   0.4284
  0.4293   0.4401   0.4428   0.4453   0.4541   0.4566   0.4625   0.4694
  0.4714   0.4741   0.4803   0.4887   0.4951   0.4978   0.5039   0.5063
  0.5154   0.5271   0.5283   0.5307   0.5359   0.5385   0.5496   0.5512
  0.5590   0.5699   0.5777   0.5800   0.5839   0.5960   0.6037   0.6103
  0.6178   0.6250   0.6420   0.6476   0.6544   0.6716   0.6727   0.6840
  0.6903   0.6957   0.7099   0.7145   0.7206   0.7271   0.7302   0.7338
  0.7533   0.7602   0.7647   0.7745   0.7780   0.7880   0.7911   0.7934
  0.7965   0.8028   0.8082   0.8092   0.8168   0.8215   0.8256   0.8351
  0.8425   0.8496   0.8538   0.8569   0.8623   0.8742   0.8832   0.8884
  0.8978   0.8995   0.9215   0.9355   0.9434   0.9527   0.9647   0.9840
  0.9996   1.0320   1.0542   1.0565   1.0714   1.0811   1.0932   1.0970
  1.1049   1.1136   1.1321   1.1714   1.1922   1.2031   1.2192   1.2373
  1.2970   1.3017   1.3212   1.3388   1.3660   1.3921   1.4062   1.4158
  1.4305   1.4545   1.4666   1.4897   1.5050   1.5333   1.5389   1.5551
  1.5737   1.6146   1.6361   1.6382   1.6500   1.6966   1.7091   1.7435
  1.7812   1.8105   1.8125   1.8190   1.8389   1.8468   1.8911   1.9003
  1.9174   1.9241   1.9341   1.9398   1.9610   1.9897   1.9959   2.0023
  2.0100   2.0244   2.0399   2.0424   2.0565   2.0743   2.0847   2.1006
  2.1110   2.1520   2.1611   2.1848   2.2012   2.2205   2.2265   2.2466
  2.2658   2.3002   2.3228   2.3266   2.3896   2.4140   2.4231   2.4426
  2.4830   2.5099   2.5398   2.5511   2.5647   2.6004   2.6023   2.6051
  2.6237   2.6626   2.6714   2.6970   2.7066   2.7382   2.7562   2.7694
  2.7886   2.8092   2.8193   2.8325   2.8400   2.8670   2.8823   2.8949
  2.9161   2.9259   2.9318   2.9382   2.9615   2.9692   2.9755   3.0089
  3.0155   3.0253   3.0378   3.0522   3.0695   3.0874   3.0907   3.1198
  3.1712   3.1795   3.2073   3.2177   3.2384   3.2531   3.2591   3.2973
  3.3098   3.3414   3.3484   3.3849   3.3911   3.4139   3.4206   3.4384
  3.4501   3.4681   3.4826   3.4899   3.5032   3.5082   3.5133   3.5288
  3.5376   3.5481   3.5537   3.5654   3.5776   3.5898   3.6235   3.6343
  3.6426   3.6543   3.6715   3.7003   3.7126   3.7160   3.7268   3.7423
  3.7834   3.7905   3.8532   3.8646   3.8847   3.9327   3.9741   3.9894
  4.0165   4.0516   4.0676   4.1241   4.1516   4.1938   4.2048   4.2296
  4.2916   4.3135   4.3266   4.3578   4.3588   4.3769   4.3988   4.4062
  4.4250   4.4610   4.4774   4.4873   4.5251   4.5769   4.6088   4.6564
  4.7064   4.7408   4.7825   4.8312   4.8901   4.9296   4.9326   4.9707
  5.0300   5.0583   5.1213   5.2039   5.3361   5.4132   5.4222   5.5302
  5.5403   5.7355   5.8312  22.6425  22.6566  22.8034  22.9318  22.9697
 23.0663  23.1324  23.4945
 --------------------------------------------------------------
 
          Ground-State Mulliken Net Atomic Charges

     Atom                 Charge (a.u.)
  ----------------------------------------
      1 C                    -0.592049
      2 C                    -0.906287
      3 C                     0.415069
      4 C                    -0.364650
      5 C                    -0.362839
      6 C                    -0.535966
      7 C                    -0.522323
      8 C                    -0.449273
      9 H                     0.282290
     10 H                     0.278511
     11 H                     0.288828
     12 H                     0.401901
     13 H                     0.419908
     14 H                     0.376878
     15 H                     0.370532
     16 H                     0.405782
     17 H                     0.228753
     18 H                     0.264937
  ----------------------------------------
  Sum of atomic charges =     0.000000

 -----------------------------------------------------------------
                    Cartesian Multipole Moments
 -----------------------------------------------------------------
    Charge (ESU x 10^10)
                -0.0000
    Dipole Moment (Debye)
         X       0.4958      Y       0.1430      Z      -0.2136
       Tot       0.5585
    Quadrupole Moments (Debye-Ang)
        XX     -44.6575     XY       0.2267     YY     -48.3678
        XZ       1.0176     YZ      -4.6821     ZZ     -50.0797
    Octopole Moments (Debye-Ang^2)
       XXX      41.1488    XXY     -36.7337    XYY      17.8374
       YYY    -112.3618    XXZ    -105.3740    XYZ       4.8871
       YYZ    -117.4563    XZZ      22.0695    YZZ     -60.5000
       ZZZ    -347.2668
    Hexadecapole Moments (Debye-Ang^3)
      XXXX    -855.2554   XXXY    -100.4755   XXYY    -241.9641
      XYYY    -101.9814   YYYY    -541.7438   XXXZ     112.3768
      XXYZ     -84.7403   XYYZ      47.1198   YYYZ    -214.9777
      XXZZ    -437.3468   XYZZ      -8.7260   YYZZ    -399.1471
      XZZZ     164.5708   YZZZ    -290.6686   ZZZZ   -1827.9359
 -----------------------------------------------------------------
Archival summary:
1\1\nid00525\SP\ProcedureUnspecified\BasisUnspecified\810\meili\SunSep2618:55:222021SunSep2618:55:222021\0\\#,ProcedureUnspecified,BasisUnspecified,\\0,1\C\C,1,1.38491\H,2,1.08094,1,120.229\C,2,1.38307,1,120.429,3,179.874,0\H,4,1.07565,2,120.247,1,-179.511,0\C,4,1.38162,2,120.353,1,-0.110713,0\H,6,1.08012,4,120.158,2,-179.185,0\C,6,1.37886,4,119.695,2,0.405049,0\H,8,1.0807,6,119.691,4,179.663,0\C,8,1.38593,6,120.062,4,-1.38448,0\H,10,1.07782,8,119.515,6,-179.581,0\C,1,1.50968,2,119.643,3,-2.14719,0\H,12,1.09136,1,109.248,2,-145.58,0\H,12,1.09278,1,107.865,2,-29.7629,0\C,12,1.52149,1,114.16,2,91.0933,0\H,15,1.09225,12,108.52,1,-48.4327,0\H,15,1.1,12,110.506,1,69.921,0\H,15,1.1,12,108.689,1,-167.087,0\\\@

 Total job time:  47532.82s(wall), 94491.37s(cpu) 
 Sun Sep 26 18:55:28 2021

        *************************************************************
        *                                                           *
        *  Thank you very much for using Q-Chem.  Have a nice day.  *
        *                                                           *
        *************************************************************


Done Job For Fragment 0
calling putenv with: QCSCRATCH=/global/cscratch1/sd/meili 
calling putenv with: QCLOCALSCR=/tmp 
calling putenv with: QCTHREADS=32 
Creating input file /tmp/qchem59946/Frg2.input
using default PutDataFrgm: nothing
calling putenv with: QCSCRATCH=/tmp/qchem59946/ 
calling putenv with: QCLOCALSCR=/tmp/qchem59946/ 
Spawning Job For Fragment 1
                  Welcome to Q-Chem
     A Quantum Leap Into The Future Of Chemistry


 Q-Chem 5.2, Q-Chem, Inc., Pleasanton, CA (2019)

 License issued to: National Energy Research Scientific Computing Center

 Yihan Shao,  Zhengting Gan,  E. Epifanovsky,  A. T. B. Gilbert,  M. Wormit,  
 J. Kussmann,  A. W. Lange,  A. Behn,  Jia Deng,  Xintian Feng,  D. Ghosh,  
 M. Goldey,  P. R. Horn,  L. D. Jacobson,  I. Kaliman,  T. Kus,  A. Landau,  
 Jie Liu,  E. I. Proynov,  R. M. Richard,  R. P. Steele,  E. J. Sundstrom,  
 H. L. Woodcock III,  P. M. Zimmerman,  D. Zuev,  B. Albrecht,  E. Alguire,  
 S. A. Baeppler,  D. Barton,  Z. Benda,  Y. A. Bernard,  E. J. Berquist,  
 K. B. Bravaya,  H. Burton,  D. Casanova,  Chun-Min Chang,  Yunqing Chen,  
 A. Chien,  K. D. Closser,  M. P. Coons,  S. Coriani,  S. Dasgupta,  
 A. L. Dempwolff,  M. Diedenhofen,  Hainam Do,  R. G. Edgar,  Po-Tung Fang,  
 S. Faraji,  S. Fatehi,  Qingguo Feng,  K. D. Fenk,  J. Fosso-Tande,  
 J. Gayvert,  Qinghui Ge,  A. Ghysels,  G. Gidofalvi,  J. Gomes,  
 J. Gonthier,  A. Gunina,  D. Hait,  M. W. D. Hanson-Heine,  
 P. H. P. Harbach,  A. W. Hauser,  M. F. Herbst,  J. E. Herr,  
 E. G. Hohenstein,  Z. C. Holden,  Kerwin Hui,  B. C. Huynh,  T.-C. Jagau,  
 Hyunjun Ji,  B. Kaduk,  K. Khistyaev,  Jaehoon Kim,  P. Klunzinger,  K. Koh,  
 D. Kosenkov,  L. Koulias,  T. Kowalczyk,  C. M. Krauter,  A. Kunitsa,  
 Ka Un Lao,  A. Laurent,  K. V. Lawler,  Joonho Lee,  D. Lefrancois,  
 S. Lehtola,  D. S. Levine,  Yi-Pei Li,  You-Sheng Lin,  Fenglai Liu,  
 E. Livshits,  A. Luenser,  P. Manohar,  E. Mansoor,  S. F. Manzer,  
 Shan-Ping Mao,  Yuezhi Mao,  N. Mardirossian,  A. V. Marenich,  
 T. Markovich,  L. A. Martinez-Martinez,  S. A. Maurer,  N. J. Mayhall,  
 S. C. McKenzie,  J.-M. Mewes,  P. Morgante,  A. F. Morrison,  
 J. W. Mullinax,  K. Nanda,  T. S. Nguyen-Beck,  R. Olivares-Amaya,  
 J. A. Parkhill,  Zheng Pei,  T. M. Perrine,  F. Plasser,  P. Pokhilko,  
 S. Prager,  A. Prociuk,  E. Ramos,  D. R. Rehn,  F. Rob,  M. Scheurer,  
 M. Schneider,  N. Sergueev,  S. M. Sharada,  S. Sharma,  D. W. Small,  
 T. Stauch,  T. Stein,  Yu-Chuan Su,  A. J. W. Thom,  A. Tkatchenko,  
 T. Tsuchimochi,  N. M. Tubman,  L. Vogt,  M. L. Vidal,  O. Vydrov,  
 M. A. Watson,  J. Wenzel,  M. de Wergifosse,  T. A. Wesolowski,  A. White,  
 J. Witte,  A. Yamada,  Jun Yang,  K. Yao,  S. Yeganeh,  S. R. Yost,  
 Zhi-Qiang You,  A. Zech,  Igor Ying Zhang,  Xing Zhang,  Yan Zhao,  
 Ying Zhu,  B. R. Brooks,  G. K. L. Chan,  C. J. Cramer,  M. S. Gordon,  
 W. J. Hehre,  A. Klamt,  M. W. Schmidt,  C. D. Sherrill,  D. G. Truhlar,  
 A. Aspuru-Guzik,  R. Baer,  A. T. Bell,  N. A. Besley,  Jeng-Da Chai,  
 A. E. DePrince, III,  R. A. DiStasio Jr.,  A. Dreuw,  B. D. Dunietz,  
 T. R. Furlani,  Chao-Ping Hsu,  Yousung Jung,  Jing Kong,  D. S. Lambrecht,  
 WanZhen Liang,  C. Ochsenfeld,  V. A. Rassolov,  L. V. Slipchenko,  
 J. E. Subotnik,  T. Van Voorhis,  J. M. Herbert,  A. I. Krylov,  
 P. M. W. Gill,  M. Head-Gordon

 Contributors to earlier versions of Q-Chem not listed above: 
 R. D. Adamson,  B. Austin,  J. Baker,  G. J. O. Beran,  K. Brandhorst,  
 S. T. Brown,  E. F. C. Byrd,  A. K. Chakraborty,  C.-L. Cheng,  
 Siu Hung Chien,  D. M. Chipman,  D. L. Crittenden,  H. Dachsel,  
 R. J. Doerksen,  A. D. Dutoi,  L. Fusti-Molnar,  W. A. Goddard III,  
 A. Golubeva-Zadorozhnaya,  S. R. Gwaltney,  G. Hawkins,  A. Heyden,  
 S. Hirata,  G. Kedziora,  F. J. Keil,  C. Kelley,  Jihan Kim,  R. A. King,  
 R. Z. Khaliullin,  P. P. Korambath,  W. Kurlancheek,  A. M. Lee,  M. S. Lee,  
 S. V. Levchenko,  Ching Yeh Lin,  D. Liotard,  R. C. Lochan,  I. Lotan,  
 P. E. Maslen,  N. Nair,  D. P. O'Neill,  D. Neuhauser,  E. Neuscamman,  
 C. M. Oana,  R. Olson,  B. Peters,  R. Peverati,  P. A. Pieniazek,  
 Y. M. Rhee,  J. Ritchie,  M. A. Rohrdanz,  E. Rosta,  N. J. Russ,  
 H. F. Schaefer III,  N. E. Schultz,  N. Shenvi,  A. C. Simmonett,  A. Sodt,  
 D. Stuck,  K. S. Thanthiriwatte,  V. Vanovschi,  Tao Wang,  A. Warshel,  
 C. F. Williams,  Q. Wu,  X. Xu,  W. Zhang

 Please cite Q-Chem as follows:
 Y. Shao et al., Mol. Phys. 113, 184-215 (2015)
 DOI: 10.1080/00268976.2014.952696

 Q-Chem 5.2.0 for Intel X86 EM64T Linux

 Parts of Q-Chem use Armadillo 8.300.2 (Tropical Shenanigans).
 http://arma.sourceforge.net/

 Q-Chem begins on Sun Sep 26 18:55:34 2021  

Host: cori01
0

     Scratch files written to /tmp/qchem59946//Frg2//
 May1019 |scratch|qcdevops|jenkins|workspace|build_RNUM -1
Processing $rem in /global/common/cori/software/qchem/5.2/config/preferences:
	 MEM_TOTAL  96000 
NAlpha2: 50
NElect   50
Mult     1
Symmetry turned off for PCM/SM12/SMD calculation

Checking the input file for inconsistencies... 	...done.

--------------------------------------------------------------
User input:
--------------------------------------------------------------
$molecule
0 1
 6	2.2233246931	-1.9944444170	-3.9592361740
 6	0.1483246931	-0.7234444170	-1.0482361740
 6	-0.8296753069	0.0135555830	-1.7152361740
 6	1.1363246931	-1.3684444170	-1.7882361740
 6	1.1433246931	-1.2934444170	-3.1752361740
 6	-0.8316753069	0.0775555830	-3.1012361740
 6	0.1573246931	-0.5604444170	-3.8282361740
 1	0.1263246931	-0.8184444170	0.0257638260
 1	-1.6046753069	0.5155555830	-1.1522361740
 1	1.8953246931	-1.9404444170	-1.2722361740
 1	-1.5926753069	0.6585555830	-3.5992361740
 1	3.1213246931	-2.0474444170	-3.3412361740
 1	2.4773246931	-1.3914444170	-4.8322361740
 1	0.1683246931	-0.4814444170	-4.9052361740
 1	1.9542146931	-3.0080564170	-4.2911581740
$end
$rem
EDA2		1
METHOD		WB97X-V
BASIS		DEF2-TZVPD
XC_GRID		000099000590
NL_GRID		1
UNRESTRICTED		FALSE
MAX_SCF_CYCLES		200
SYMMETRY		FALSE
SYM_IGNORE		TRUE
BASIS_LIN_DEP_THRESH		6
THRESH		14
SCF_CONVERGENCE		8
SCF_PRINT_FRGM		TRUE
SOLVENT_METHOD		SMD
!required keywords
JOBTYPE		SP
SYM_IGNORE		TRUE
SUBSYSTEM		TRUE
GEN_SCFMAN		TRUE
CHILD_INSTRUCTION		2
SYM_IGNORE		TRUE
SCFMI		0
RI_K 0		
PARI_K 0		
MIN_PARI_K 0		
IARI_K 0		
OCC_RI_K 0		
PURECART		1111
MEM_STATIC		2000
MEM_TOTAL		96000
GUI		0
CHILD_MP		1
CHILD_MP_ORDERS		232
FRZ_RELAX		0
FRZ_RELAX_METHOD		0
EDA_CLS_ELEC		1
EDA_CLS_DISP		0
FRZ_ORTHO_DECOMP		1
EDA2		FALSE
FRGM_METHOD		FALSE
CIS_N_ROOTS  0
LOCAL_CIS    0
CIS_RLX_DNS  1
$end
$smx
SOLVENT			WATER
$end
--------------------------------------------------------------
 ----------------------------------------------------------------
             Standard Nuclear Orientation (Angstroms)
    I     Atom           X                Y                Z
 ----------------------------------------------------------------
    1      C       2.2233246931    -1.9944444170    -3.9592361740
    2      C       0.1483246931    -0.7234444170    -1.0482361740
    3      C      -0.8296753069     0.0135555830    -1.7152361740
    4      C       1.1363246931    -1.3684444170    -1.7882361740
    5      C       1.1433246931    -1.2934444170    -3.1752361740
    6      C      -0.8316753069     0.0775555830    -3.1012361740
    7      C       0.1573246931    -0.5604444170    -3.8282361740
    8      H       0.1263246931    -0.8184444170     0.0257638260
    9      H      -1.6046753069     0.5155555830    -1.1522361740
   10      H       1.8953246931    -1.9404444170    -1.2722361740
   11      H      -1.5926753069     0.6585555830    -3.5992361740
   12      H       3.1213246931    -2.0474444170    -3.3412361740
   13      H       2.4773246931    -1.3914444170    -4.8322361740
   14      H       0.1683246931    -0.4814444170    -4.9052361740
   15      H       1.9542146931    -3.0080564170    -4.2911581740
 ----------------------------------------------------------------
 Nuclear Repulsion Energy =         270.25627200 hartrees
 There are       25 alpha and       25 beta electrons
 Requested basis set is def2-TZVPD
 There are 131 shells and 331 basis functions

 Total QAlloc Memory Limit  96000 MB
 Mega-Array Size      1956 MB
 MEM_STATIC part      2000 MB
 
 Citation of the SMD model:
 Marenich, A.V.; Cramer, C.J.; Truhlar, D.G.
 J. Phys. Chem. B 2009, 113, 6378-6396.
 iSolventCode=           1
 Solvent: water                                                           
 
 vradii
            1           2           3           4           5           6
    1   1.8500000   1.8500000   1.8500000   1.8500000   1.8500000   1.8500000
            7           8           9          10          11          12
    1   1.8500000   1.2000000   1.2000000   1.2000000   1.2000000   1.2000000
           13          14          15
    1   1.2000000   1.2000000   1.2000000
 Changing PCM_VDW_RADII to SMD_RADIUS
 Discretize the solute cavity surface with Lebedev spheres
	Using 110 Lebedev grid points for each H atom
	Using 194 Lebedev grid points for other atoms
	Atomic van der Waals radii will be scaled by 1.20
 Remove points where switching function is < 1.0e-08
 Keep 1078 surface tesserae and discard 1160 interior tesserae
 Molecular Surface Area = 132.060 Angst**2

                       Distance Matrix (Angstroms)
             C (  1)   C (  2)   C (  3)   C (  4)   C (  5)   C (  6)
   C (  2)  3.794073
   C (  3)  4.288171  1.394468
   C (  4)  2.507326  1.392756  2.404248
   C (  5)  1.507467  2.416413  2.780751  1.389044
   C (  6)  3.789772  2.411806  1.387478  2.772708  2.405357
   C (  7)  2.518308  2.784789  2.401752  2.402687  1.391364  1.383363
   H (  8)  4.654096  1.078418  2.153425  2.147835  3.392096  3.390975
   H (  9)  5.369631  2.149173  1.081480  3.386301  3.862190  2.141956
   H ( 10)  2.707484  2.140858  3.382305  1.081444  2.146048  3.854101
   H ( 11)  4.661530  3.383579  2.132522  3.851739  3.387591  1.079206
   H ( 12)  1.091392  3.981150  4.743627  2.610187  2.123336  4.494378
   H ( 13)  1.090988  4.493231  4.756676  3.326371  2.129509  4.012954
   H ( 14)  2.721601  3.864636  3.378924  3.382230  2.145430  2.137030
   H ( 15)  1.100001  4.358582  4.849284  3.101917  2.200618  4.324130
             C (  7)   H (  8)   H (  9)   H ( 10)   H ( 11)   H ( 12)
   H (  8)  3.862750
   H (  9)  3.379851  2.482660
   H ( 10)  3.384993  2.464356  4.277422
   H ( 11)  2.144971  4.275174  2.451204  4.933140
   H ( 12)  3.351661  4.670884  5.804805  2.407340  5.441580
   H ( 13)  2.661011  5.427310  5.817368  3.648798  4.720984  1.751614
   H ( 14)  1.079950  4.942681  4.268788  4.279007  2.471104  3.690347
   H ( 15)  3.071468  5.174108  5.910531  3.202679  5.148129  1.785294
             H ( 13)   H ( 14)
   H ( 14)  2.482924
   H ( 15)  1.783212  3.154404
 
 A cutoff of  1.0D-14 yielded   8361 shell pairs
 There are     54507 function pairs (     69462 Cartesian)
 Smallest overlap matrix eigenvalue = 5.55E-07
 Linear dependence detected in AO basis
 Tighter screening thresholds may be required for diffuse basis sets
 Use S2THRESH > 14 and THRESH = 14 in case of SCF convergence issues
 Number of orthogonalized atomic orbitals = 330
 Maximum deviation from orthogonality = 1.934E-10

 Scale SEOQF with 1.000000e-01/1.000000e-01/1.000000e-01

 Standard Electronic Orientation quadrupole field applied
 Nucleus-field energy     =    -0.0000000388 hartrees
 Guess from superposition of atomic densities
 Warning:  Energy on first SCF cycle will be non-variational
 SAD guess density has 49.913408 electrons

 -----------------------------------------------------------------------
  General SCF calculation program by
  Eric Jon Sundstrom, Paul Horn, Yuezhi Mao, Dmitri Zuev, Alec White,
  David Stuck, Shaama M.S., Shane Yost, Joonho Lee, David Small,
  Daniel Levine, Susi Lehtola, Hugh Burton, Evgeny Epifanovsky
 -----------------------------------------------------------------------
 Exchange:     0.1670 Hartree-Fock + 1.0000 wB97X-V + LR-HF
 Correlation:  1.0000 wB97X-V
 Using Euler-Maclaurin-Lebedev (99,590) quadrature formula
 Nonlocal Correlation:  VV10 with C = 0.0100 and b = 6.00 and scale = 1.00000
 Grid used for NLC:  SG-1 standard quadrature
Energy prior to optimization (guess energy) = -271.519279776549
Begin Timing: Total SCF Calculation
begin iterations for algorithm: DIIS         
the SCF tolerance is set to 1.00e-08
    1    -271.5192797765      1.98e-03     00000 
    2    -271.5604239264      1.29e-03     00000 
    3    -271.5846893407      1.55e-04     00000 
    4    -271.5853830601      4.71e-05     00000 
    5    -271.5854341827      2.18e-05     00000 
    6    -271.5854420488      5.36e-06     00000 
    7    -271.5854427573      1.40e-06     00000 
    8    -271.5854427960      4.64e-07     00000 
    9    -271.5854428011      8.33e-08     00000 
   10    -271.5854428013      3.78e-08     00000 
   11    -271.5854428014      1.37e-08     00000 
   12    -271.5854428014      5.25e-09     00000 Convergence criterion met
Timing for Total SCF: 1441.00s (wall), 2866.14s (cpu)
(3)  G-ENP(liq) elect-nuc-pol free energy of system     -271.585442801 a.u.
(4)  G-CDS(liq) cavity-dispersion-solvent structure 
     free energy                                                3.1616 kcal/mol
(6)  G-S(liq) free energy of system                     -271.580404547 a.u.
E_pcm = -0.0073604931
E_cds = 0.0050382545
Multipole orders to be included
        2
        3
computing dipole RHS
computing quadrupole RHS
total number of RHS in solve_reponses: 8
RHS batch sizes
        8
Beginning Block Conjugate Gradient Iterations. Batch Number: 0
computing hessian-vector products by finite difference
              1      6.32e-01     00000 Conjugate Gradient Iteration
computing hessian-vector products by finite difference
              2      1.97e-01     00000 Conjugate Gradient Iteration
computing hessian-vector products by finite difference
              3      4.70e-02     00000 Conjugate Gradient Iteration
computing hessian-vector products by finite difference
              4      1.16e-02     00000 Conjugate Gradient Iteration
computing hessian-vector products by finite difference
              5      2.07e-03     00000 Conjugate Gradient Iteration
computing hessian-vector products by finite difference
              6      5.65e-04     00000 Conjugate Gradient Iteration
computing hessian-vector products by finite difference
              7      1.55e-04     00000 Conjugate Gradient Iteration
computing hessian-vector products by finite difference
              8      2.51e-05     00000 Conjugate Gradient Iteration
computing hessian-vector products by finite difference
              9      3.27e-06     00000 Conjugate Gradient Iteration
computing hessian-vector products by finite difference
             10      5.91e-07     00000 Conjugate Gradient Iteration
computing hessian-vector products by finite difference
             11      9.40e-08     00000 Conjugate Gradient Iteration
computing hessian-vector products by finite difference
             12      1.56e-08     00000 Conjugate Gradient Iteration
computing hessian-vector products by finite difference
             13      3.77e-09     00000 CG Converged
batch 0 complete
Done Calculating Responses
TESTING ORTHOGONALIZATION OF MULTIPOLE BASIS
Multipole virts passed orthogonality test
Virts Per Order
           75
          125
 
 --------------------------------------------------------------
 
                    Orbital Energies (a.u.)
 --------------------------------------------------------------
 
 Alpha MOs
 -- Occupied --
-10.2762 -10.2679 -10.2661 -10.2645 -10.2635 -10.2630 -10.2535  -0.9945
 -0.9013  -0.8758  -0.8065  -0.7255  -0.7007  -0.6244  -0.5688  -0.5603
 -0.5291  -0.5254  -0.5069  -0.4785  -0.4702  -0.4358  -0.4340  -0.3473
 -0.3347
 -- Virtual --
  0.0675   0.0685   0.0722   0.0844   0.0899   0.1096   0.1160   0.1183
  0.1410   0.1599   0.1717   0.1738   0.1910   0.1936   0.2008   0.2079
  0.2271   0.2296   0.2404   0.2456   0.2571   0.2644   0.2667   0.2722
  0.2874   0.2880   0.2918   0.2964   0.2978   0.3060   0.3075   0.3152
  0.3219   0.3302   0.3393   0.3416   0.3561   0.3569   0.3719   0.3779
  0.3845   0.3873   0.3880   0.3938   0.3951   0.4070   0.4094   0.4134
  0.4169   0.4324   0.4345   0.4421   0.4473   0.4527   0.4554   0.4576
  0.4676   0.4737   0.4785   0.4871   0.5004   0.5019   0.5166   0.5224
  0.5241   0.5299   0.5383   0.5436   0.5461   0.5523   0.5553   0.5709
  0.5878   0.5924   0.5987   0.6060   0.6083   0.6257   0.6454   0.6515
  0.6640   0.6784   0.6886   0.6930   0.6932   0.6957   0.7244   0.7256
  0.7332   0.7367   0.7492   0.7611   0.7677   0.7706   0.7827   0.7921
  0.7959   0.7984   0.8023   0.8091   0.8122   0.8260   0.8307   0.8382
  0.8392   0.8414   0.8458   0.8582   0.8608   0.8822   0.8932   0.9017
  0.9124   0.9175   0.9383   0.9504   0.9571   1.0180   1.0269   1.0448
  1.0482   1.0655   1.0768   1.0856   1.0910   1.0995   1.1095   1.1459
  1.1698   1.1886   1.2545   1.2817   1.2989   1.3258   1.3514   1.3569
  1.3866   1.4399   1.4574   1.4648   1.4716   1.4927   1.5314   1.5436
  1.6036   1.6076   1.6213   1.6281   1.6707   1.6890   1.7402   1.7833
  1.7990   1.8079   1.8094   1.8205   1.8340   1.8773   1.8936   1.9176
  1.9264   1.9286   1.9602   1.9615   1.9892   2.0000   2.0195   2.0320
  2.0358   2.0523   2.0747   2.1013   2.1213   2.1287   2.1762   2.1817
  2.2018   2.2375   2.2442   2.2749   2.2933   2.3180   2.4023   2.4064
  2.4093   2.4111   2.4898   2.5124   2.5367   2.5584   2.5709   2.6142
  2.6221   2.6269   2.6735   2.6823   2.7040   2.7191   2.7625   2.7770
  2.7935   2.8195   2.8271   2.8527   2.8692   2.9088   2.9125   2.9219
  2.9425   2.9493   2.9646   2.9821   2.9951   3.0196   3.0286   3.0598
  3.0623   3.0959   3.1082   3.1315   3.1871   3.1944   3.2087   3.2279
  3.2372   3.2411   3.2935   3.3149   3.3297   3.3587   3.3692   3.3852
  3.4060   3.4496   3.4510   3.4580   3.4666   3.4747   3.4985   3.5080
  3.5141   3.5379   3.5452   3.5493   3.5668   3.5776   3.5953   3.6105
  3.6208   3.6436   3.6555   3.6949   3.7205   3.7590   3.7920   3.8203
  3.8447   3.8928   3.9149   3.9603   3.9699   4.0038   4.0426   4.0605
  4.1187   4.2089   4.2757   4.2879   4.3044   4.3298   4.3348   4.3390
  4.3609   4.3809   4.3921   4.4084   4.4473   4.4500   4.4898   4.5382
  4.6033   4.6352   4.7625   4.7630   4.8383   4.8995   4.9063   4.9556
  5.0340   5.0573   5.1763   5.2690   5.3846   5.3956   5.5102   5.5310
  5.6815   5.8561  22.5785  22.6714  22.8994  22.9110  23.0290  23.0919
 23.4382
 --------------------------------------------------------------
 
          Ground-State Mulliken Net Atomic Charges

     Atom                 Charge (a.u.)
  ----------------------------------------
      1 C                    -1.092154
      2 C                    -0.581557
      3 C                    -0.545023
      4 C                    -0.409595
      5 C                     0.857704
      6 C                    -0.552705
      7 C                    -0.421069
      8 H                     0.376775
      9 H                     0.390907
     10 H                     0.382285
     11 H                     0.374064
     12 H                     0.295340
     13 H                     0.290467
     14 H                     0.389693
     15 H                     0.244868
  ----------------------------------------
  Sum of atomic charges =     0.000000

 -----------------------------------------------------------------
                    Cartesian Multipole Moments
 -----------------------------------------------------------------
    Charge (ESU x 10^10)
                -0.0000
    Dipole Moment (Debye)
         X       0.3627      Y      -0.2493      Z      -0.2747
       Tot       0.5188
    Quadrupole Moments (Debye-Ang)
        XX     -40.1059     XY      -4.6306     YY     -42.9725
        XZ      -1.4873     YZ       0.4418     ZZ     -36.0384
    Octopole Moments (Debye-Ang^2)
       XXX     -60.7758    XXY      34.4335    XYY     -15.4036
       YYY     109.1904    XXZ     108.4952    XYZ      11.2562
       YYZ     114.5624    XZZ     -14.7357    YZZ      32.5901
       ZZZ     300.3980
    Hexadecapole Moments (Debye-Ang^3)
      XXXX    -442.6573   XXXY     151.7344   XXYY    -133.5311
      XYYY     156.4647   YYYY    -397.6754   XXXZ     228.9095
      XXYZ    -107.1638   XYYZ      64.6006   YYYZ    -320.4545
      XXZZ    -430.4230   XYZZ      20.5310   YYZZ    -435.9899
      XZZZ     203.8566   YZZZ    -308.0546   ZZZZ   -2007.4646
 -----------------------------------------------------------------
Archival summary:
1\1\nid00525\SP\ProcedureUnspecified\BasisUnspecified\78\meili\MonSep2702:39:552021MonSep2702:39:552021\0\\#,ProcedureUnspecified,BasisUnspecified,\\0,1\C\C,1,1.38904\H,2,1.08144,1,120.097\C,1,1.39136,2,119.571,3,179.651,0\H,4,1.07995,1,119.958,2,178.766,0\C,4,1.38336,1,120.196,2,-0.687801,0\H,6,1.07921,4,120.658,1,179.207,0\C,6,1.38748,4,120.177,1,1.3659,0\H,8,1.08148,6,119.84,4,179.912,0\C,2,1.39276,1,120.604,3,-179.295,0\H,10,1.07842,2,120.187,1,177.557,0\C,1,1.50747,2,119.856,3,-0.902752,0\H,12,1.09099,1,109.022,2,-144.532,0\H,12,1.09139,1,108.516,2,-28.6086,0\H,12,1.1,1,114.215,2,93.3437,0\\\@

 Total job time:  27864.79s(wall), 55451.29s(cpu) 
 Mon Sep 27 02:39:59 2021

        *************************************************************
        *                                                           *
        *  Thank you very much for using Q-Chem.  Have a nice day.  *
        *                                                           *
        *************************************************************


Done Job For Fragment 1
calling putenv with: QCSCRATCH=/global/cscratch1/sd/meili 
calling putenv with: QCLOCALSCR=/tmp 
calling putenv with: QCTHREADS=32 
Doing General SCFMI
 Exchange:     0.1670 Hartree-Fock + 1.0000 wB97X-V + LR-HF
 Correlation:  1.0000 wB97X-V
 Using Euler-Maclaurin-Lebedev (99,590) quadrature formula
 Nonlocal Correlation:  VV10 with C = 0.0100 and b = 6.00 and scale = 1.00000
 Grid used for NLC:  SG-1 standard quadrature
performing fock build before subrot guess so that all methods have access
Printing subrot_rss_gen Method Specification:
Occupied Subspace Method is 0
Virtual Subspace Method is 0
Energy of the unrelaxed supersystem initial determinant -582.474886340613
performing fock build before subrot guess so that all methods have access
Printing subrot_rss_gen Method Specification:
Occupied Subspace Method is 0
Virtual Subspace Method is 0
Energy of the unrelaxed supersystem initial determinant w/ solvent -582.488609811156
write pseudocanon occs and virts to disk
write pseudocanon orbital energies to disk
Tolerance of ortho_decomp_scf: 1.00e-06
GDM subspace size: 20
Beginning the Orthogonal Decomposition of the Initial Supersystem Wavefunction
    1    -582.4484737163      2.26e-02     ortho_decomp Preconditoned Steepest Descent
    2    -582.4511335319      6.06e-04     ortho_decomp BFGS Step
    3    -582.4511432997      5.06e-05     ortho_decomp BFGS Step
    4    -582.4511433224      2.30e-06     ortho_decomp BFGS Step
    5    -582.4511433225      8.56e-08     ortho_decomp 00000 Convergence criterion met
 Hartree-Fock
 Hartree-Fock
 Hartree-Fock
Doing General SCFMI
 Exchange:     0.1670 Hartree-Fock + 1.0000 wB97X-V + LR-HF
 Correlation:  1.0000 wB97X-V
 Using Euler-Maclaurin-Lebedev (99,590) quadrature formula
 Nonlocal Correlation:  VV10 with C = 0.0100 and b = 6.00 and scale = 1.00000
 Grid used for NLC:  SG-1 standard quadrature
performing fock build at end of subrot_r(subrot) constructor so that all methods have access
<S^2> of initial wavefunction before polarization iterations 0.0000000000
Beginning iterations for the determination of the polarized wavefunction
Energy prior to optimization (guess energy) = -582.488609811157
Begin Timing: Total SCF Calculation
begin iterations for algorithm: DIIS         
the SCF tolerance is set to 1.00e-08
    1    -582.4886098112      4.80e-05     00000 
    2    -582.4888726609      2.16e-05     00000 
    3    -582.4889072517      1.16e-05     00000 
    4    -582.4889197793      3.80e-06     00000 
    5    -582.4889216459      2.25e-06     00000 
    6    -582.4889222798      9.79e-07     00000 
    7    -582.4889223592      4.60e-07     00000 
    8    -582.4889223703      2.26e-07     00000 
    9    -582.4889223739      9.13e-08     00000 
   10    -582.4889223751      4.18e-08     00000 
   11    -582.4889223753      2.02e-08     00000 
   12    -582.4889223754      6.66e-09     00000 Convergence criterion met
write pseudocanon occs and virts to disk
write pseudocanon orbital energies to disk
Timing for Total SCF: 12987.00s (wall), 25876.73s (cpu)
<S^2> of polarized wavefunction after polarization iterations 0.0000000000
relaxing scfmi constraint to allow all rotations in the entire AO span
Doing General SCFMI
 Exchange:     0.1670 Hartree-Fock + 1.0000 wB97X-V + LR-HF
 Correlation:  1.0000 wB97X-V
 Using Euler-Maclaurin-Lebedev (99,590) quadrature formula
 Nonlocal Correlation:  VV10 with C = 0.0100 and b = 6.00 and scale = 1.00000
 Grid used for NLC:  SG-1 standard quadrature
performing fock build at end of subrot_r(subrot) constructor so that all methods have access
<S^2> of polarized wavefunction before ct-allowed iterations 0.0000000000
Beginning iterations for the determination of the CT-Allowed wavefunction
Energy prior to optimization (guess energy) = -582.488922375400
Begin Timing: Total SCF Calculation
begin iterations for algorithm: DIIS         
the SCF tolerance is set to 1.00e-08
    1    -582.4889223754      6.62e-05     00000 
    2    -582.4900936061      7.21e-06     00000 
    3    -582.4901313395      1.21e-06     00000 
    4    -582.4901326982      4.40e-07     00000 
    5    -582.4901327623      1.58e-07     00000 
    6    -582.4901327746      3.49e-08     00000 
    7    -582.4901327752      1.43e-08     00000 
    8    -582.4901327753      3.42e-09     00000 Convergence criterion met
write pseudocanon occs and virts to disk
write pseudocanon orbital energies to disk
Timing for Total SCF: 8573.00s (wall), 17076.66s (cpu)
<S^2> of ct_allowed wavefunction after ct-allowed iterations 0.0000000000

================================
        Results of EDA2         
================================
Basic EDA Quantities
--------------------
Fragment Energies (Ha):
1 -310.8962988468
2 -271.5804045469
--------------------
  E_prp (kJ/mol) = 0.0000
  E_sol (kJ/mol) = 0.9653
  E_frz (kJ/mol) = -6.6242
  E_pol (kJ/mol) = -0.8206
  E_vct (kJ/mol) = -3.1779
  E_int (kJ/mol) = -9.6575
--------------------


Initial Wavefunction Decomposition
--------------------
  --------------------
  Orthogonal Fragment Subspace Decomposition:
  --------------------
     E_elec   (ELEC)   (kJ/mol) = -28.2364
     E_pauli  (PAULI)  (kJ/mol) = 43.4005
     E_disp   (DISP)   (kJ/mol) = -21.7883
     --------------------
     Terms summing to E_pauli:
     --------------------
        E_kep_pauli       (kJ/mol) = 55.7138
        E_disp_free_pauli (kJ/mol) = -12.3133
  --------------------
  Classical Frozen Decomposition:
  --------------------
     E_cls_elec  (CLS ELEC)  (kJ/mol) = -12.7659
     E_cls_pauli (CLS PAULI) (kJ/mol) = 6.1417
    [E_mod_pauli (MOD PAULI) (kJ/mol) = 27.9300 (CLS PAULI - DISP from orthogonal decomposition) ]
  --------------------
--------------------

Simplified EDA Summary (kJ/mol)
--------------------
 PREPARATION     0.0000
 SOLVATION       0.9653
 FROZEN          15.1641      (does not include dispersion)
[PAULI           43.4005]     (if this is negligible, then frozen describes electrostatics)
 DISPERSION      -21.7883
 POLARIZATION    -0.8206
 CHARGE TRANSFER -3.1779
 TOTAL           -9.6575     (PRP + SOL + FRZ + DISP + POL + CT)
--------------------
 
 --------------------------------------------------------------
 
                    Orbital Energies (a.u.)
 --------------------------------------------------------------
 
 Alpha MOs
 -- Occupied --
-10.2758 -10.2716 -10.2662 -10.2657 -10.2647 -10.2638 -10.2633 -10.2629
-10.2626 -10.2623 -10.2616 -10.2611 -10.2572 -10.2533 -10.2501  -0.9978
 -0.9938  -0.9180  -0.9008  -0.8761  -0.8750  -0.8504  -0.8061  -0.7507
 -0.7266  -0.7244  -0.7002  -0.6921  -0.6261  -0.6237  -0.5777  -0.5685
 -0.5639  -0.5608  -0.5361  -0.5290  -0.5286  -0.5258  -0.5193  -0.5084
 -0.4978  -0.4782  -0.4762  -0.4702  -0.4576  -0.4465  -0.4348  -0.4335
 -0.4263  -0.4216  -0.3474  -0.3456  -0.3367  -0.3323
 -- Virtual --
  0.0584   0.0654   0.0687   0.0717   0.0750   0.0752   0.0806   0.0850
  0.0946   0.0967   0.1044   0.1097   0.1134   0.1200   0.1228   0.1306
  0.1340   0.1379   0.1511   0.1592   0.1627   0.1705   0.1749   0.1797
  0.1829   0.1845   0.1941   0.1947   0.2001   0.2104   0.2125   0.2149
  0.2234   0.2258   0.2279   0.2306   0.2373   0.2420   0.2465   0.2482
  0.2540   0.2585   0.2640   0.2668   0.2691   0.2732   0.2742   0.2768
  0.2831   0.2841   0.2864   0.2890   0.2941   0.2945   0.2957   0.3024
  0.3060   0.3078   0.3094   0.3140   0.3186   0.3199   0.3253   0.3277
  0.3297   0.3335   0.3358   0.3410   0.3429   0.3473   0.3502   0.3511
  0.3562   0.3591   0.3625   0.3660   0.3693   0.3702   0.3721   0.3787
  0.3811   0.3826   0.3838   0.3866   0.3895   0.3912   0.3959   0.3981
  0.4054   0.4059   0.4069   0.4102   0.4146   0.4175   0.4223   0.4279
  0.4293   0.4327   0.4346   0.4379   0.4415   0.4433   0.4457   0.4495
  0.4514   0.4571   0.4580   0.4629   0.4642   0.4655   0.4686   0.4704
  0.4751   0.4790   0.4801   0.4846   0.4874   0.4909   0.4923   0.4968
  0.5037   0.5054   0.5074   0.5101   0.5121   0.5155   0.5163   0.5245
  0.5275   0.5287   0.5342   0.5393   0.5421   0.5454   0.5473   0.5540
  0.5578   0.5611   0.5633   0.5677   0.5731   0.5747   0.5824   0.5840
  0.5868   0.5956   0.5983   0.6006   0.6044   0.6080   0.6143   0.6155
  0.6243   0.6250   0.6290   0.6341   0.6374   0.6388   0.6435   0.6506
  0.6587   0.6607   0.6645   0.6701   0.6725   0.6807   0.6836   0.6891
  0.6907   0.6948   0.7016   0.7048   0.7074   0.7140   0.7171   0.7223
  0.7286   0.7295   0.7335   0.7361   0.7375   0.7387   0.7484   0.7504
  0.7529   0.7565   0.7591   0.7602   0.7645   0.7695   0.7722   0.7768
  0.7820   0.7859   0.7877   0.7895   0.7928   0.7989   0.8013   0.8035
  0.8064   0.8088   0.8106   0.8140   0.8163   0.8241   0.8246   0.8276
  0.8332   0.8352   0.8421   0.8443   0.8477   0.8512   0.8523   0.8568
  0.8599   0.8634   0.8701   0.8750   0.8774   0.8817   0.8842   0.8891
  0.8908   0.8972   0.9018   0.9039   0.9083   0.9141   0.9193   0.9227
  0.9285   0.9305   0.9387   0.9487   0.9543   0.9562   0.9643   0.9704
  0.9773   0.9813   0.9905   0.9959   1.0005   1.0101   1.0189   1.0239
  1.0377   1.0421   1.0532   1.0581   1.0649   1.0670   1.0710   1.0848
  1.0851   1.0983   1.1024   1.1170   1.1184   1.1193   1.1259   1.1296
  1.1332   1.1487   1.1620   1.1647   1.1690   1.1779   1.1837   1.2005
  1.2095   1.2250   1.2286   1.2447   1.2583   1.2735   1.2799   1.2948
  1.3151   1.3243   1.3305   1.3330   1.3431   1.3563   1.3665   1.3726
  1.3826   1.4031   1.4068   1.4186   1.4272   1.4365   1.4404   1.4497
  1.4647   1.4725   1.4906   1.4957   1.5019   1.5119   1.5200   1.5226
  1.5375   1.5529   1.5617   1.5637   1.5752   1.5914   1.6123   1.6223
  1.6266   1.6359   1.6413   1.6628   1.6675   1.6744   1.6833   1.6897
  1.7042   1.7116   1.7336   1.7425   1.7776   1.7966   1.8019   1.8109
  1.8210   1.8261   1.8294   1.8375   1.8432   1.8492   1.8563   1.8899
  1.8930   1.9138   1.9230   1.9300   1.9341   1.9396   1.9428   1.9502
  1.9539   1.9614   1.9705   1.9796   1.9926   1.9951   1.9996   2.0079
  2.0167   2.0233   2.0277   2.0443   2.0468   2.0498   2.0569   2.0655
  2.0725   2.0787   2.0913   2.0987   2.1049   2.1086   2.1156   2.1325
  2.1394   2.1523   2.1633   2.1723   2.1787   2.1871   2.1987   2.2056
  2.2198   2.2279   2.2369   2.2403   2.2574   2.2660   2.2792   2.2912
  2.2945   2.3022   2.3205   2.3227   2.3418   2.3526   2.3671   2.3805
  2.3894   2.4075   2.4206   2.4302   2.4393   2.4450   2.4600   2.4696
  2.4968   2.4980   2.5185   2.5356   2.5523   2.5713   2.5828   2.5868
  2.6008   2.6078   2.6122   2.6268   2.6269   2.6290   2.6368   2.6432
  2.6527   2.6622   2.6964   2.7020   2.7035   2.7133   2.7248   2.7318
  2.7421   2.7499   2.7615   2.7668   2.7784   2.7951   2.8093   2.8181
  2.8226   2.8269   2.8419   2.8437   2.8508   2.8613   2.8766   2.8819
  2.8875   2.9020   2.9075   2.9123   2.9306   2.9361   2.9382   2.9496
  2.9516   2.9614   2.9709   2.9715   2.9760   2.9858   2.9985   3.0043
  3.0177   3.0204   3.0304   3.0335   3.0384   3.0472   3.0564   3.0646
  3.0723   3.0887   3.0947   3.0977   3.1118   3.1152   3.1280   3.1330
  3.1386   3.1515   3.1625   3.1969   3.2130   3.2195   3.2235   3.2354
  3.2395   3.2503   3.2598   3.2728   3.2841   3.2956   3.2983   3.3164
  3.3252   3.3338   3.3400   3.3536   3.3695   3.3748   3.3816   3.3904
  3.4041   3.4137   3.4231   3.4268   3.4309   3.4467   3.4508   3.4586
  3.4615   3.4658   3.4812   3.4867   3.4887   3.4913   3.4993   3.5111
  3.5220   3.5249   3.5308   3.5361   3.5444   3.5497   3.5540   3.5615
  3.5691   3.5708   3.5750   3.5773   3.5853   3.5865   3.5975   3.6012
  3.6153   3.6227   3.6265   3.6398   3.6416   3.6472   3.6548   3.6590
  3.6688   3.6727   3.6829   3.6878   3.7031   3.7142   3.7158   3.7319
  3.7346   3.7423   3.7472   3.7624   3.7776   3.8051   3.8078   3.8224
  3.8349   3.8533   3.8639   3.8828   3.9016   3.9242   3.9389   3.9628
  3.9816   3.9874   3.9952   4.0141   4.0251   4.0346   4.0651   4.0707
  4.0940   4.1023   4.1393   4.1521   4.1720   4.2065   4.2238   4.2467
  4.2529   4.3014   4.3054   4.3132   4.3221   4.3267   4.3362   4.3395
  4.3530   4.3597   4.3714   4.3785   4.3837   4.3907   4.4021   4.4061
  4.4091   4.4281   4.4361   4.4401   4.4656   4.4716   4.4899   4.4978
  4.5043   4.5224   4.5459   4.5660   4.5999   4.6238   4.6384   4.6428
  4.6715   4.7295   4.7499   4.7721   4.7781   4.7918   4.8467   4.8498
  4.9044   4.9090   4.9349   4.9516   4.9624   4.9836   4.9916   5.0619
  5.0692   5.0782   5.0944   5.1456   5.2017   5.2148   5.2941   5.3546
  5.4031   5.4069   5.4221   5.4282   5.5221   5.5321   5.5489   5.5550
  5.7089   5.7541   5.8336   5.8440  22.6598  22.6724  22.6847  22.7388
 22.8913  22.9396  22.9493  22.9745  23.0378  23.0597  23.1073  23.1299
 23.1715  23.4602  23.5120
 --------------------------------------------------------------
 
          Ground-State Mulliken Net Atomic Charges

     Atom                 Charge (a.u.)
  ----------------------------------------
      1 C                    -0.418743
      2 C                    -1.155309
      3 C                     0.197895
      4 C                    -0.297144
      5 C                    -0.239168
      6 C                    -0.501061
      7 C                    -0.570202
      8 C                    -0.491060
      9 H                     0.301600
     10 H                     0.314598
     11 H                     0.300329
     12 H                     0.412908
     13 H                     0.421822
     14 H                     0.384104
     15 H                     0.393577
     16 H                     0.424448
     17 H                     0.277470
     18 H                     0.277007
     19 C                    -1.141769
     20 C                    -0.348665
     21 C                    -0.329270
     22 C                    -0.769673
     23 C                     0.603356
     24 C                    -0.645414
     25 C                    -0.471405
     26 H                     0.505224
     27 H                     0.476741
     28 H                     0.412182
     29 H                     0.397427
     30 H                     0.305868
     31 H                     0.298772
     32 H                     0.424621
     33 H                     0.248935
  ----------------------------------------
  Sum of atomic charges =     0.000000

 -----------------------------------------------------------------
                    Cartesian Multipole Moments
 -----------------------------------------------------------------
    Charge (ESU x 10^10)
                 0.0000
    Dipole Moment (Debye)
         X       0.8423      Y      -0.0583      Z      -0.4401
       Tot       0.9521
    Quadrupole Moments (Debye-Ang)
        XX     -84.8753     XY      -4.3938     YY     -91.4868
        XZ      -0.4136     YZ      -4.3388     ZZ     -86.5777
    Octopole Moments (Debye-Ang^2)
       XXX     -19.6850    XXY      -2.1712    XYY       2.4359
       YYY      -3.0316    XXZ       3.2601    XYZ      16.0808
       YYZ      -2.8813    XZZ       7.3066    YZZ     -27.8466
       ZZZ     -46.1506
    Hexadecapole Moments (Debye-Ang^3)
      XXXX   -1299.0048   XXXY      51.3867   XXYY    -376.0217
      XYYY      54.6766   YYYY    -940.6590   XXXZ     341.5947
      XXYZ    -192.2353   XYYZ     112.0728   YYYZ    -536.0953
      XXZZ    -868.8073   XYZZ      12.1821   YYZZ    -836.3410
      XZZZ     369.1124   YZZZ    -600.0083   ZZZZ   -3842.9589
 -----------------------------------------------------------------
Archival summary:
1\1\nid00525\SP\ProcedureUnspecified\BasisUnspecified\1518\meili\MonSep2713:39:492021MonSep2713:39:492021\0\\#,ProcedureUnspecified,BasisUnspecified,\\0,1\C\C,1,1.38491\H,2,1.08094,1,120.229\C,2,1.38307,1,120.429,3,179.874,0\H,4,1.07565,2,120.247,1,-179.511,0\C,4,1.38162,2,120.353,1,-0.110713,0\H,6,1.08012,4,120.158,2,-179.185,0\C,6,1.37886,4,119.695,2,0.405049,0\H,8,1.0807,6,119.691,4,179.663,0\C,8,1.38593,6,120.062,4,-1.38448,0\H,10,1.07782,8,119.515,6,-179.581,0\C,1,1.50968,2,119.643,3,-2.14719,0\H,12,1.09136,1,109.248,2,-145.58,0\H,12,1.09278,1,107.865,2,-29.7629,0\C,12,1.52149,1,114.16,2,91.0933,0\H,15,1.09225,12,108.52,1,-48.4327,0\H,15,1.1,12,110.506,1,69.921,0\H,15,1.1,12,108.689,1,-167.087,0\H,1,2.59629,2,87.324,3,-86.1932,0\C,19,1.07842,1,137.264,2,52.8717,0\C,20,1.39276,19,120.187,1,126.593,0\H,21,1.08144,20,119.295,19,-1.74327,0\C,21,1.38904,20,120.604,19,177.557,0\C,23,1.39136,21,119.571,20,0.356147,0\H,24,1.07995,23,119.958,21,178.766,0\C,24,1.38336,23,120.196,21,-0.687801,0\H,26,1.07921,24,120.658,23,179.207,0\C,26,1.38748,24,120.177,23,1.3659,0\H,28,1.08148,26,119.84,24,179.912,0\C,23,1.50747,21,119.856,20,179.803,0\H,30,1.09099,23,109.022,21,-144.532,0\H,30,1.09139,23,108.516,21,-28.6086,0\H,30,1.1,23,114.215,21,93.3437,0\\\@

 Total job time:  115004.48s(wall), 78902.59s(cpu) 
 Mon Sep 27 13:39:52 2021

        *************************************************************
        *                                                           *
        *  Thank you very much for using Q-Chem.  Have a nice day.  *
        *                                                           *
        *************************************************************


