
Running Job 1 of 1 SSI-079TYR-167GLN-1_SMD_TZVPD.in
qchem SSI-079TYR-167GLN-1_SMD_TZVPD.in_37012.0 /tmp/qchem37012/ 0
/global/common/cori/software/qchem/5.2/exe/qcprog.exe_s SSI-079TYR-167GLN-1_SMD_TZVPD.in_37012.0 /tmp/qchem37012/
                  Welcome to Q-Chem
     A Quantum Leap Into The Future Of Chemistry


 Q-Chem 5.2, Q-Chem, Inc., Pleasanton, CA (2019)

 License issued to: National Energy Research Scientific Computing Center

 Yihan Shao,  Zhengting Gan,  E. Epifanovsky,  A. T. B. Gilbert,  M. Wormit,  
 J. Kussmann,  A. W. Lange,  A. Behn,  Jia Deng,  Xintian Feng,  D. Ghosh,  
 M. Goldey,  P. R. Horn,  L. D. Jacobson,  I. Kaliman,  T. Kus,  A. Landau,  
 Jie Liu,  E. I. Proynov,  R. M. Richard,  R. P. Steele,  E. J. Sundstrom,  
 H. L. Woodcock III,  P. M. Zimmerman,  D. Zuev,  B. Albrecht,  E. Alguire,  
 S. A. Baeppler,  D. Barton,  Z. Benda,  Y. A. Bernard,  E. J. Berquist,  
 K. B. Bravaya,  H. Burton,  D. Casanova,  Chun-Min Chang,  Yunqing Chen,  
 A. Chien,  K. D. Closser,  M. P. Coons,  S. Coriani,  S. Dasgupta,  
 A. L. Dempwolff,  M. Diedenhofen,  Hainam Do,  R. G. Edgar,  Po-Tung Fang,  
 S. Faraji,  S. Fatehi,  Qingguo Feng,  K. D. Fenk,  J. Fosso-Tande,  
 J. Gayvert,  Qinghui Ge,  A. Ghysels,  G. Gidofalvi,  J. Gomes,  
 J. Gonthier,  A. Gunina,  D. Hait,  M. W. D. Hanson-Heine,  
 P. H. P. Harbach,  A. W. Hauser,  M. F. Herbst,  J. E. Herr,  
 E. G. Hohenstein,  Z. C. Holden,  Kerwin Hui,  B. C. Huynh,  T.-C. Jagau,  
 Hyunjun Ji,  B. Kaduk,  K. Khistyaev,  Jaehoon Kim,  P. Klunzinger,  K. Koh,  
 D. Kosenkov,  L. Koulias,  T. Kowalczyk,  C. M. Krauter,  A. Kunitsa,  
 Ka Un Lao,  A. Laurent,  K. V. Lawler,  Joonho Lee,  D. Lefrancois,  
 S. Lehtola,  D. S. Levine,  Yi-Pei Li,  You-Sheng Lin,  Fenglai Liu,  
 E. Livshits,  A. Luenser,  P. Manohar,  E. Mansoor,  S. F. Manzer,  
 Shan-Ping Mao,  Yuezhi Mao,  N. Mardirossian,  A. V. Marenich,  
 T. Markovich,  L. A. Martinez-Martinez,  S. A. Maurer,  N. J. Mayhall,  
 S. C. McKenzie,  J.-M. Mewes,  P. Morgante,  A. F. Morrison,  
 J. W. Mullinax,  K. Nanda,  T. S. Nguyen-Beck,  R. Olivares-Amaya,  
 J. A. Parkhill,  Zheng Pei,  T. M. Perrine,  F. Plasser,  P. Pokhilko,  
 S. Prager,  A. Prociuk,  E. Ramos,  D. R. Rehn,  F. Rob,  M. Scheurer,  
 M. Schneider,  N. Sergueev,  S. M. Sharada,  S. Sharma,  D. W. Small,  
 T. Stauch,  T. Stein,  Yu-Chuan Su,  A. J. W. Thom,  A. Tkatchenko,  
 T. Tsuchimochi,  N. M. Tubman,  L. Vogt,  M. L. Vidal,  O. Vydrov,  
 M. A. Watson,  J. Wenzel,  M. de Wergifosse,  T. A. Wesolowski,  A. White,  
 J. Witte,  A. Yamada,  Jun Yang,  K. Yao,  S. Yeganeh,  S. R. Yost,  
 Zhi-Qiang You,  A. Zech,  Igor Ying Zhang,  Xing Zhang,  Yan Zhao,  
 Ying Zhu,  B. R. Brooks,  G. K. L. Chan,  C. J. Cramer,  M. S. Gordon,  
 W. J. Hehre,  A. Klamt,  M. W. Schmidt,  C. D. Sherrill,  D. G. Truhlar,  
 A. Aspuru-Guzik,  R. Baer,  A. T. Bell,  N. A. Besley,  Jeng-Da Chai,  
 A. E. DePrince, III,  R. A. DiStasio Jr.,  A. Dreuw,  B. D. Dunietz,  
 T. R. Furlani,  Chao-Ping Hsu,  Yousung Jung,  Jing Kong,  D. S. Lambrecht,  
 WanZhen Liang,  C. Ochsenfeld,  V. A. Rassolov,  L. V. Slipchenko,  
 J. E. Subotnik,  T. Van Voorhis,  J. M. Herbert,  A. I. Krylov,  
 P. M. W. Gill,  M. Head-Gordon

 Contributors to earlier versions of Q-Chem not listed above: 
 R. D. Adamson,  B. Austin,  J. Baker,  G. J. O. Beran,  K. Brandhorst,  
 S. T. Brown,  E. F. C. Byrd,  A. K. Chakraborty,  C.-L. Cheng,  
 Siu Hung Chien,  D. M. Chipman,  D. L. Crittenden,  H. Dachsel,  
 R. J. Doerksen,  A. D. Dutoi,  L. Fusti-Molnar,  W. A. Goddard III,  
 A. Golubeva-Zadorozhnaya,  S. R. Gwaltney,  G. Hawkins,  A. Heyden,  
 S. Hirata,  G. Kedziora,  F. J. Keil,  C. Kelley,  Jihan Kim,  R. A. King,  
 R. Z. Khaliullin,  P. P. Korambath,  W. Kurlancheek,  A. M. Lee,  M. S. Lee,  
 S. V. Levchenko,  Ching Yeh Lin,  D. Liotard,  R. C. Lochan,  I. Lotan,  
 P. E. Maslen,  N. Nair,  D. P. O'Neill,  D. Neuhauser,  E. Neuscamman,  
 C. M. Oana,  R. Olson,  B. Peters,  R. Peverati,  P. A. Pieniazek,  
 Y. M. Rhee,  J. Ritchie,  M. A. Rohrdanz,  E. Rosta,  N. J. Russ,  
 H. F. Schaefer III,  N. E. Schultz,  N. Shenvi,  A. C. Simmonett,  A. Sodt,  
 D. Stuck,  K. S. Thanthiriwatte,  V. Vanovschi,  Tao Wang,  A. Warshel,  
 C. F. Williams,  Q. Wu,  X. Xu,  W. Zhang

 Please cite Q-Chem as follows:
 Y. Shao et al., Mol. Phys. 113, 184-215 (2015)
 DOI: 10.1080/00268976.2014.952696

 Q-Chem 5.2.0 for Intel X86 EM64T Linux

 Parts of Q-Chem use Armadillo 8.300.2 (Tropical Shenanigans).
 http://arma.sourceforge.net/

 Q-Chem begins on Sun Sep 26 11:28:04 2021  

Host: cori01
0

     Scratch files written to /tmp/qchem37012//
 May1019 |scratch|qcdevops|jenkins|workspace|build_RNUM -1
Processing $rem in /global/common/cori/software/qchem/5.2/config/preferences:
	 MEM_TOTAL  96000 
NAlpha2: 90
NElect   90
Mult     1
Symmetry turned off for PCM/SM12/SMD calculation

 Q-Chem warning in module libgen/rem_setup.C, line 2803:

 Neither GIA nor STOLL is specified by user. Use STOLL as the default


Checking the input file for inconsistencies... 	...done.

--------------------------------------------------------------
User input:
--------------------------------------------------------------
$comment
SSI-079TYR-167GLN-1.pdb
$end

$molecule
0 1
--
0 1
C   -1.532669540235   -4.647233837985    0.999351874220
C   -0.150669540235   -0.564233837985    0.745351874220
C    0.059330459765   -1.440233837985   -0.323648125780
C   -0.806669540235   -1.009233837985    1.894351874220
C   -0.392669540235   -2.760233837985   -0.238648125780
C   -1.252669540235   -2.333233837985    1.972351874220
C   -1.049669540235   -3.219233837985    0.909351874220
O    0.294330459765    0.722766162015    0.669351874220
H    0.898330459765    0.830766162015   -0.062648125780
H    0.555330459765   -1.104233837985   -1.222648125780
H   -0.967669540235   -0.323233837985    2.714351874220
H   -0.239669540235   -3.427233837985   -1.076648125780
H   -1.756669540235   -2.675233837985    2.867351874220
H   -1.965669540235   -4.938233837985    0.048351874220
H   -2.328669540235   -4.710233837985    1.743351874220
H   -0.748719540235   -5.374313837985    1.257791874220
--
0 1
C    2.280330459765    2.673766162015   -1.163648125780
C    1.051330459765    3.491766162015   -1.516648125780
O    1.133330459765    4.706766162015   -1.670648125780
N   -0.101669540235    2.852766162015   -1.628648125780
H   -0.907669540235    3.403766162015   -1.908648125780
H   -0.190669540235    1.850766162015   -1.590648125780
H    2.995330459765    2.774766162015   -1.981648125780
H    2.036330459765    1.617766162015   -1.064648125780
H    2.735860459765    3.050356162015   -0.235928125780
$end

$rem
JOBTYPE			EDA
EDA2			1
method			wB97X-V
BASIS			def2-TZVPD
XC_GRID			000099000590
NL_GRID			1
UNRESTRICTED		FALSE
MAX_SCF_CYCLES		200
SYMMETRY		FALSE
SYM_IGNORE		TRUE
MEM_STATIC		2000
BASIS_LIN_DEP_THRESH 	6
THRESH 			14
SCF_CONVERGENCE 	8
SCF_PRINT_FRGM 		TRUE
SOLVENT_METHOD          SMD
$end

$SMX
SOLVENT			WATER
$END
--------------------------------------------------------------
 ----------------------------------------------------------------
             Standard Nuclear Orientation (Angstroms)
    I     Atom           X                Y                Z
 ----------------------------------------------------------------
    1      C      -1.5326695402    -4.6472338380     0.9993518742
    2      C      -0.1506695402    -0.5642338380     0.7453518742
    3      C       0.0593304598    -1.4402338380    -0.3236481258
    4      C      -0.8066695402    -1.0092338380     1.8943518742
    5      C      -0.3926695402    -2.7602338380    -0.2386481258
    6      C      -1.2526695402    -2.3332338380     1.9723518742
    7      C      -1.0496695402    -3.2192338380     0.9093518742
    8      O       0.2943304598     0.7227661620     0.6693518742
    9      H       0.8983304598     0.8307661620    -0.0626481258
   10      H       0.5553304598    -1.1042338380    -1.2226481258
   11      H      -0.9676695402    -0.3232338380     2.7143518742
   12      H      -0.2396695402    -3.4272338380    -1.0766481258
   13      H      -1.7566695402    -2.6752338380     2.8673518742
   14      H      -1.9656695402    -4.9382338380     0.0483518742
   15      H      -2.3286695402    -4.7102338380     1.7433518742
   16      H      -0.7487195402    -5.3743138380     1.2577918742
   17      C       2.2803304598     2.6737661620    -1.1636481258
   18      C       1.0513304598     3.4917661620    -1.5166481258
   19      O       1.1333304598     4.7067661620    -1.6706481258
   20      N      -0.1016695402     2.8527661620    -1.6286481258
   21      H      -0.9076695402     3.4037661620    -1.9086481258
   22      H      -0.1906695402     1.8507661620    -1.5906481258
   23      H       2.9953304598     2.7747661620    -1.9816481258
   24      H       2.0363304598     1.6177661620    -1.0646481258
   25      H       2.7358604598     3.0503561620    -0.2359281258
 ----------------------------------------------------------------
 Nuclear Repulsion Energy =         639.55390661 hartrees
 There are       45 alpha and       45 beta electrons
 Requested basis set is def2-TZVPD
 There are 223 shells and 567 basis functions

 Total QAlloc Memory Limit  96000 MB
 Mega-Array Size      1956 MB
 MEM_STATIC part      2000 MB
 
 Citation of the SMD model:
 Marenich, A.V.; Cramer, C.J.; Truhlar, D.G.
 J. Phys. Chem. B 2009, 113, 6378-6396.
 iSolventCode=           1
 Solvent: water                                                           
 
 vradii
            1           2           3           4           5           6
    1   1.8500000   1.8500000   1.8500000   1.8500000   1.8500000   1.8500000
            7           8           9          10          11          12
    1   1.8500000   1.5200000   1.2000000   1.2000000   1.2000000   1.2000000
           13          14          15          16          17          18
    1   1.2000000   1.2000000   1.2000000   1.2000000   1.8500000   1.8500000
           19          20          21          22          23          24
    1   1.5200000   1.8900000   1.2000000   1.2000000   1.2000000   1.2000000
           25
    1   1.2000000
 Changing PCM_VDW_RADII to SMD_RADIUS
 Discretize the solute cavity surface with Lebedev spheres
	Using 110 Lebedev grid points for each H atom
	Using 194 Lebedev grid points for other atoms
	Atomic van der Waals radii will be scaled by 1.20
 Remove points where switching function is < 1.0e-08
 Keep 1863 surface tesserae and discard 1895 interior tesserae
 Molecular Surface Area = 221.945 Angst**2
 A cutoff of  1.0D-14 yielded  20904 shell pairs
 There are    135004 function pairs (    170124 Cartesian)
 Smallest overlap matrix eigenvalue = 5.07E-07
 Linear dependence detected in AO basis
 Tighter screening thresholds may be required for diffuse basis sets
 Use S2THRESH > 14 and THRESH = 14 in case of SCF convergence issues
 Number of orthogonalized atomic orbitals = 565
 Maximum deviation from orthogonality = 1.366E-10

 Scale SEOQF with 1.000000e-01/1.000000e-02/1.000000e-01

 Standard Electronic Orientation quadrupole field applied
 Nucleus-field energy     =    -0.0000000074 hartrees

 -----------------------------------------------------------------------
  General SCF calculation program by
  Eric Jon Sundstrom, Paul Horn, Yuezhi Mao, Dmitri Zuev, Alec White,
  David Stuck, Shaama M.S., Shane Yost, Joonho Lee, David Small,
  Daniel Levine, Susi Lehtola, Hugh Burton, Evgeny Epifanovsky
 -----------------------------------------------------------------------
================================================================
                 ALMO-EDA with the EDA2 driver                  
================================================================
 The second-generation ALMO-EDA (for DFT):                      
 P. R. Horn, Y. Mao and M. Head-Gordon, PCCP, 18, 23067 (2016)  
 Decomposition of the frozen energy:                            
 P. R. Horn, Y. Mao and M. Head-Gordon, JCP, 144, 114107 (2016) 
 FERF model for polarization:                                   
 P. R. Horn and M. Head-Gordon, JCP, 143, 114111 (2015)         
Using eda2 option set 1
Option set summary: Frozen orbital wavefunction, initial wavefunction decomposition, and nDQ polarization.
--------------------------------
Printing EDA Options
--------------------------------
eda_child_super_basis      0
fragmo_guess_mode          0
child_mp                   1
child_mp_orders            232
cls_elec                   1
cls_disp                   0
scfmi_mode                 1
scfmi_occs                 0
scfmi_virts                0
frz_relax                  0
frz_relax_method           0
dc_pen_start               0
dc_pen_conv                0
dc_pen_increment           0
dc_pen_steps               0
dc_pen_thresh_factor       0
dc_pen_pre_newton_thresh   0
frz_ortho_decomp           1
frz_ortho_decomp_conv      6
frgm_method                2
scfmi_freeze_ss            0
separate_rehyb             0
plot_diff_den              0
eda_nocv                   0
eda_vct_relax              1
disp_free_x                0
disp_free_c                0
eda_bsse                   0
eda_pct_a                  0
eda_covp                   0
--------------------------------
Attempting to make child job directory: /tmp/qchem37012//Frg1/
Attempting to make child job directory: /tmp/qchem37012//Frg2/
Creating input file /tmp/qchem37012/Frg1.input
using default PutDataFrgm: nothing
calling putenv with: QCSCRATCH=/tmp/qchem37012/ 
calling putenv with: QCLOCALSCR=/tmp/qchem37012/ 
Spawning Job For Fragment 0
                  Welcome to Q-Chem
     A Quantum Leap Into The Future Of Chemistry


 Q-Chem 5.2, Q-Chem, Inc., Pleasanton, CA (2019)

 License issued to: National Energy Research Scientific Computing Center

 Yihan Shao,  Zhengting Gan,  E. Epifanovsky,  A. T. B. Gilbert,  M. Wormit,  
 J. Kussmann,  A. W. Lange,  A. Behn,  Jia Deng,  Xintian Feng,  D. Ghosh,  
 M. Goldey,  P. R. Horn,  L. D. Jacobson,  I. Kaliman,  T. Kus,  A. Landau,  
 Jie Liu,  E. I. Proynov,  R. M. Richard,  R. P. Steele,  E. J. Sundstrom,  
 H. L. Woodcock III,  P. M. Zimmerman,  D. Zuev,  B. Albrecht,  E. Alguire,  
 S. A. Baeppler,  D. Barton,  Z. Benda,  Y. A. Bernard,  E. J. Berquist,  
 K. B. Bravaya,  H. Burton,  D. Casanova,  Chun-Min Chang,  Yunqing Chen,  
 A. Chien,  K. D. Closser,  M. P. Coons,  S. Coriani,  S. Dasgupta,  
 A. L. Dempwolff,  M. Diedenhofen,  Hainam Do,  R. G. Edgar,  Po-Tung Fang,  
 S. Faraji,  S. Fatehi,  Qingguo Feng,  K. D. Fenk,  J. Fosso-Tande,  
 J. Gayvert,  Qinghui Ge,  A. Ghysels,  G. Gidofalvi,  J. Gomes,  
 J. Gonthier,  A. Gunina,  D. Hait,  M. W. D. Hanson-Heine,  
 P. H. P. Harbach,  A. W. Hauser,  M. F. Herbst,  J. E. Herr,  
 E. G. Hohenstein,  Z. C. Holden,  Kerwin Hui,  B. C. Huynh,  T.-C. Jagau,  
 Hyunjun Ji,  B. Kaduk,  K. Khistyaev,  Jaehoon Kim,  P. Klunzinger,  K. Koh,  
 D. Kosenkov,  L. Koulias,  T. Kowalczyk,  C. M. Krauter,  A. Kunitsa,  
 Ka Un Lao,  A. Laurent,  K. V. Lawler,  Joonho Lee,  D. Lefrancois,  
 S. Lehtola,  D. S. Levine,  Yi-Pei Li,  You-Sheng Lin,  Fenglai Liu,  
 E. Livshits,  A. Luenser,  P. Manohar,  E. Mansoor,  S. F. Manzer,  
 Shan-Ping Mao,  Yuezhi Mao,  N. Mardirossian,  A. V. Marenich,  
 T. Markovich,  L. A. Martinez-Martinez,  S. A. Maurer,  N. J. Mayhall,  
 S. C. McKenzie,  J.-M. Mewes,  P. Morgante,  A. F. Morrison,  
 J. W. Mullinax,  K. Nanda,  T. S. Nguyen-Beck,  R. Olivares-Amaya,  
 J. A. Parkhill,  Zheng Pei,  T. M. Perrine,  F. Plasser,  P. Pokhilko,  
 S. Prager,  A. Prociuk,  E. Ramos,  D. R. Rehn,  F. Rob,  M. Scheurer,  
 M. Schneider,  N. Sergueev,  S. M. Sharada,  S. Sharma,  D. W. Small,  
 T. Stauch,  T. Stein,  Yu-Chuan Su,  A. J. W. Thom,  A. Tkatchenko,  
 T. Tsuchimochi,  N. M. Tubman,  L. Vogt,  M. L. Vidal,  O. Vydrov,  
 M. A. Watson,  J. Wenzel,  M. de Wergifosse,  T. A. Wesolowski,  A. White,  
 J. Witte,  A. Yamada,  Jun Yang,  K. Yao,  S. Yeganeh,  S. R. Yost,  
 Zhi-Qiang You,  A. Zech,  Igor Ying Zhang,  Xing Zhang,  Yan Zhao,  
 Ying Zhu,  B. R. Brooks,  G. K. L. Chan,  C. J. Cramer,  M. S. Gordon,  
 W. J. Hehre,  A. Klamt,  M. W. Schmidt,  C. D. Sherrill,  D. G. Truhlar,  
 A. Aspuru-Guzik,  R. Baer,  A. T. Bell,  N. A. Besley,  Jeng-Da Chai,  
 A. E. DePrince, III,  R. A. DiStasio Jr.,  A. Dreuw,  B. D. Dunietz,  
 T. R. Furlani,  Chao-Ping Hsu,  Yousung Jung,  Jing Kong,  D. S. Lambrecht,  
 WanZhen Liang,  C. Ochsenfeld,  V. A. Rassolov,  L. V. Slipchenko,  
 J. E. Subotnik,  T. Van Voorhis,  J. M. Herbert,  A. I. Krylov,  
 P. M. W. Gill,  M. Head-Gordon

 Contributors to earlier versions of Q-Chem not listed above: 
 R. D. Adamson,  B. Austin,  J. Baker,  G. J. O. Beran,  K. Brandhorst,  
 S. T. Brown,  E. F. C. Byrd,  A. K. Chakraborty,  C.-L. Cheng,  
 Siu Hung Chien,  D. M. Chipman,  D. L. Crittenden,  H. Dachsel,  
 R. J. Doerksen,  A. D. Dutoi,  L. Fusti-Molnar,  W. A. Goddard III,  
 A. Golubeva-Zadorozhnaya,  S. R. Gwaltney,  G. Hawkins,  A. Heyden,  
 S. Hirata,  G. Kedziora,  F. J. Keil,  C. Kelley,  Jihan Kim,  R. A. King,  
 R. Z. Khaliullin,  P. P. Korambath,  W. Kurlancheek,  A. M. Lee,  M. S. Lee,  
 S. V. Levchenko,  Ching Yeh Lin,  D. Liotard,  R. C. Lochan,  I. Lotan,  
 P. E. Maslen,  N. Nair,  D. P. O'Neill,  D. Neuhauser,  E. Neuscamman,  
 C. M. Oana,  R. Olson,  B. Peters,  R. Peverati,  P. A. Pieniazek,  
 Y. M. Rhee,  J. Ritchie,  M. A. Rohrdanz,  E. Rosta,  N. J. Russ,  
 H. F. Schaefer III,  N. E. Schultz,  N. Shenvi,  A. C. Simmonett,  A. Sodt,  
 D. Stuck,  K. S. Thanthiriwatte,  V. Vanovschi,  Tao Wang,  A. Warshel,  
 C. F. Williams,  Q. Wu,  X. Xu,  W. Zhang

 Please cite Q-Chem as follows:
 Y. Shao et al., Mol. Phys. 113, 184-215 (2015)
 DOI: 10.1080/00268976.2014.952696

 Q-Chem 5.2.0 for Intel X86 EM64T Linux

 Parts of Q-Chem use Armadillo 8.300.2 (Tropical Shenanigans).
 http://arma.sourceforge.net/

 Q-Chem begins on Sun Sep 26 11:28:10 2021  

Host: cori01
0

     Scratch files written to /tmp/qchem37012//Frg1//
 May1019 |scratch|qcdevops|jenkins|workspace|build_RNUM -1
Processing $rem in /global/common/cori/software/qchem/5.2/config/preferences:
	 MEM_TOTAL  96000 
NAlpha2: 58
NElect   58
Mult     1
Symmetry turned off for PCM/SM12/SMD calculation

Checking the input file for inconsistencies... 	...done.

--------------------------------------------------------------
User input:
--------------------------------------------------------------
$molecule
0 1
 6	-1.5326695402	-4.6472338380	0.9993518742
 6	-0.1506695402	-0.5642338380	0.7453518742
 6	0.0593304598	-1.4402338380	-0.3236481258
 6	-0.8066695402	-1.0092338380	1.8943518742
 6	-0.3926695402	-2.7602338380	-0.2386481258
 6	-1.2526695402	-2.3332338380	1.9723518742
 6	-1.0496695402	-3.2192338380	0.9093518742
 8	0.2943304598	0.7227661620	0.6693518742
 1	0.8983304598	0.8307661620	-0.0626481258
 1	0.5553304598	-1.1042338380	-1.2226481258
 1	-0.9676695402	-0.3232338380	2.7143518742
 1	-0.2396695402	-3.4272338380	-1.0766481258
 1	-1.7566695402	-2.6752338380	2.8673518742
 1	-1.9656695402	-4.9382338380	0.0483518742
 1	-2.3286695402	-4.7102338380	1.7433518742
 1	-0.7487195402	-5.3743138380	1.2577918742
$end
$rem
EDA2		1
METHOD		WB97X-V
BASIS		DEF2-TZVPD
XC_GRID		000099000590
NL_GRID		1
UNRESTRICTED		FALSE
MAX_SCF_CYCLES		200
SYMMETRY		FALSE
SYM_IGNORE		TRUE
BASIS_LIN_DEP_THRESH		6
THRESH		14
SCF_CONVERGENCE		8
SCF_PRINT_FRGM		TRUE
SOLVENT_METHOD		SMD
!required keywords
JOBTYPE		SP
SYM_IGNORE		TRUE
SUBSYSTEM		TRUE
GEN_SCFMAN		TRUE
CHILD_INSTRUCTION		2
SYM_IGNORE		TRUE
SCFMI		0
RI_K 0		
PARI_K 0		
MIN_PARI_K 0		
IARI_K 0		
OCC_RI_K 0		
PURECART		1111
MEM_STATIC		2000
MEM_TOTAL		96000
GUI		0
CHILD_MP		1
CHILD_MP_ORDERS		232
FRZ_RELAX		0
FRZ_RELAX_METHOD		0
EDA_CLS_ELEC		1
EDA_CLS_DISP		0
FRZ_ORTHO_DECOMP		1
EDA2		FALSE
FRGM_METHOD		FALSE
CIS_N_ROOTS  0
LOCAL_CIS    0
CIS_RLX_DNS  1
$end
$smx
SOLVENT			WATER
$end
--------------------------------------------------------------
 ----------------------------------------------------------------
             Standard Nuclear Orientation (Angstroms)
    I     Atom           X                Y                Z
 ----------------------------------------------------------------
    1      C      -1.5326695402    -4.6472338380     0.9993518742
    2      C      -0.1506695402    -0.5642338380     0.7453518742
    3      C       0.0593304598    -1.4402338380    -0.3236481258
    4      C      -0.8066695402    -1.0092338380     1.8943518742
    5      C      -0.3926695402    -2.7602338380    -0.2386481258
    6      C      -1.2526695402    -2.3332338380     1.9723518742
    7      C      -1.0496695402    -3.2192338380     0.9093518742
    8      O       0.2943304598     0.7227661620     0.6693518742
    9      H       0.8983304598     0.8307661620    -0.0626481258
   10      H       0.5553304598    -1.1042338380    -1.2226481258
   11      H      -0.9676695402    -0.3232338380     2.7143518742
   12      H      -0.2396695402    -3.4272338380    -1.0766481258
   13      H      -1.7566695402    -2.6752338380     2.8673518742
   14      H      -1.9656695402    -4.9382338380     0.0483518742
   15      H      -2.3286695402    -4.7102338380     1.7433518742
   16      H      -0.7487195402    -5.3743138380     1.2577918742
 ----------------------------------------------------------------
 Nuclear Repulsion Energy =         342.23314592 hartrees
 There are       29 alpha and       29 beta electrons
 Requested basis set is def2-TZVPD
 There are 145 shells and 371 basis functions

 Total QAlloc Memory Limit  96000 MB
 Mega-Array Size      1956 MB
 MEM_STATIC part      2000 MB
 
 Citation of the SMD model:
 Marenich, A.V.; Cramer, C.J.; Truhlar, D.G.
 J. Phys. Chem. B 2009, 113, 6378-6396.
 iSolventCode=           1
 Solvent: water                                                           
 
 vradii
            1           2           3           4           5           6
    1   1.8500000   1.8500000   1.8500000   1.8500000   1.8500000   1.8500000
            7           8           9          10          11          12
    1   1.8500000   1.5200000   1.2000000   1.2000000   1.2000000   1.2000000
           13          14          15          16
    1   1.2000000   1.2000000   1.2000000   1.2000000
 Changing PCM_VDW_RADII to SMD_RADIUS
 Discretize the solute cavity surface with Lebedev spheres
	Using 110 Lebedev grid points for each H atom
	Using 194 Lebedev grid points for other atoms
	Atomic van der Waals radii will be scaled by 1.20
 Remove points where switching function is < 1.0e-08
 Keep 1171 surface tesserae and discard 1261 interior tesserae
 Molecular Surface Area = 141.640 Angst**2
 A cutoff of  1.0D-14 yielded  10042 shell pairs
 There are     67086 function pairs (     85785 Cartesian)
 Smallest overlap matrix eigenvalue = 5.81E-07
 Linear dependence detected in AO basis
 Tighter screening thresholds may be required for diffuse basis sets
 Use S2THRESH > 14 and THRESH = 14 in case of SCF convergence issues
 Number of orthogonalized atomic orbitals = 370
 Maximum deviation from orthogonality = 2.456E-10

 Scale SEOQF with 1.000000e-01/1.000000e-02/1.000000e-01

 Standard Electronic Orientation quadrupole field applied
 Nucleus-field energy     =    -0.0000000047 hartrees
 Guess from superposition of atomic densities
 Warning:  Energy on first SCF cycle will be non-variational
 SAD guess density has 57.738434 electrons

 -----------------------------------------------------------------------
  General SCF calculation program by
  Eric Jon Sundstrom, Paul Horn, Yuezhi Mao, Dmitri Zuev, Alec White,
  David Stuck, Shaama M.S., Shane Yost, Joonho Lee, David Small,
  Daniel Levine, Susi Lehtola, Hugh Burton, Evgeny Epifanovsky
 -----------------------------------------------------------------------
 Exchange:     0.1670 Hartree-Fock + 1.0000 wB97X-V + LR-HF
 Correlation:  1.0000 wB97X-V
 Using Euler-Maclaurin-Lebedev (99,590) quadrature formula
 Nonlocal Correlation:  VV10 with C = 0.0100 and b = 6.00 and scale = 1.00000
 Grid used for NLC:  SG-1 standard quadrature
Energy prior to optimization (guess energy) = -346.498467208645
Begin Timing: Total SCF Calculation
begin iterations for algorithm: DIIS         
the SCF tolerance is set to 1.00e-08
    1    -346.4984672086      5.16e-03     00000 
    2    -346.4424684588      5.56e-03     00000 
    3    -346.8206698307      5.24e-04     00000 
    4    -346.8254375230      1.73e-04     00000 
    5    -346.8261176648      3.67e-05     00000 
    6    -346.8261663117      1.28e-05     00000 
    7    -346.8261708388      4.80e-06     00000 
    8    -346.8261715205      1.47e-06     00000 
    9    -346.8261716066      4.86e-07     00000 
   10    -346.8261716184      2.48e-07     00000 
   11    -346.8261716218      6.93e-08     00000 
   12    -346.8261716224      3.37e-08     00000 
   13    -346.8261716225      1.35e-08     00000 
   14    -346.8261716225      3.55e-09     00000 Convergence criterion met
Timing for Total SCF: 2236.00s (wall), 4444.85s (cpu)
(3)  G-ENP(liq) elect-nuc-pol free energy of system     -346.826171623 a.u.
(4)  G-CDS(liq) cavity-dispersion-solvent structure 
     free energy                                                3.7933 kcal/mol
(6)  G-S(liq) free energy of system                     -346.820126580 a.u.
E_pcm = -0.0172733046
E_cds = 0.0060450426
Multipole orders to be included
        2
        3
computing dipole RHS
computing quadrupole RHS
total number of RHS in solve_reponses: 8
RHS batch sizes
        8
Beginning Block Conjugate Gradient Iterations. Batch Number: 0
computing hessian-vector products by finite difference
              1      6.64e-01     00000 Conjugate Gradient Iteration
computing hessian-vector products by finite difference
              2      1.94e-01     00000 Conjugate Gradient Iteration
computing hessian-vector products by finite difference
              3      5.11e-02     00000 Conjugate Gradient Iteration
computing hessian-vector products by finite difference
              4      1.63e-02     00000 Conjugate Gradient Iteration
computing hessian-vector products by finite difference
              5      4.55e-03     00000 Conjugate Gradient Iteration
computing hessian-vector products by finite difference
              6      1.84e-03     00000 Conjugate Gradient Iteration
computing hessian-vector products by finite difference
              7      3.97e-04     00000 Conjugate Gradient Iteration
computing hessian-vector products by finite difference
              8      7.47e-05     00000 Conjugate Gradient Iteration
computing hessian-vector products by finite difference
              9      1.41e-05     00000 Conjugate Gradient Iteration
computing hessian-vector products by finite difference
             10      2.15e-06     00000 Conjugate Gradient Iteration
computing hessian-vector products by finite difference
             11      3.11e-07     00000 Conjugate Gradient Iteration
computing hessian-vector products by finite difference
             12      4.40e-08     00000 Conjugate Gradient Iteration
computing hessian-vector products by finite difference
             13      1.27e-08     00000 Conjugate Gradient Iteration
computing hessian-vector products by finite difference
             14      4.72e-09     00000 CG Converged
batch 0 complete
Done Calculating Responses
TESTING ORTHOGONALIZATION OF MULTIPOLE BASIS
Multipole virts passed orthogonality test
Virts Per Order
           87
          145
 
 --------------------------------------------------------------
 
                    Orbital Energies (a.u.)
 --------------------------------------------------------------
 
 Alpha MOs
 -- Occupied --
-19.2395 -10.3322 -10.2731 -10.2705 -10.2699 -10.2678 -10.2676 -10.2525
 -1.1916  -0.9887  -0.8950  -0.8778  -0.8039  -0.7416  -0.7085  -0.6596
 -0.5964  -0.5745  -0.5458  -0.5361  -0.5267  -0.5153  -0.5048  -0.4710
 -0.4496  -0.4398  -0.4336  -0.3487  -0.3101
 -- Virtual --
  0.0622   0.0638   0.0744   0.0806   0.0889   0.0996   0.1141   0.1158
  0.1183   0.1368   0.1516   0.1565   0.1611   0.1770   0.1818   0.1978
  0.2083   0.2100   0.2204   0.2303   0.2400   0.2458   0.2558   0.2594
  0.2675   0.2725   0.2771   0.2811   0.2881   0.2996   0.3009   0.3062
  0.3093   0.3135   0.3173   0.3288   0.3381   0.3472   0.3498   0.3562
  0.3596   0.3621   0.3643   0.3783   0.3807   0.3844   0.3869   0.3961
  0.3986   0.4013   0.4027   0.4108   0.4173   0.4286   0.4292   0.4378
  0.4405   0.4549   0.4589   0.4632   0.4761   0.4766   0.4778   0.4835
  0.4929   0.4984   0.5045   0.5082   0.5143   0.5201   0.5294   0.5366
  0.5466   0.5513   0.5579   0.5632   0.5663   0.5765   0.5871   0.5985
  0.6024   0.6080   0.6201   0.6356   0.6414   0.6593   0.6694   0.6746
  0.6775   0.6833   0.6958   0.6995   0.7015   0.7051   0.7199   0.7329
  0.7386   0.7469   0.7474   0.7576   0.7622   0.7778   0.7844   0.7888
  0.7936   0.7966   0.7995   0.8039   0.8109   0.8176   0.8356   0.8397
  0.8452   0.8522   0.8554   0.8619   0.8713   0.8804   0.8866   0.8960
  0.9041   0.9120   0.9344   0.9516   0.9584   0.9791   0.9910   1.0095
  1.0226   1.0414   1.0454   1.0500   1.0592   1.0713   1.0757   1.0888
  1.1024   1.1231   1.1380   1.1709   1.2014   1.2350   1.2566   1.2972
  1.3054   1.3107   1.3338   1.3543   1.3701   1.3885   1.3950   1.4361
  1.4547   1.4696   1.4764   1.4851   1.5328   1.5638   1.6025   1.6239
  1.6311   1.6395   1.6865   1.6986   1.7083   1.7292   1.7869   1.8070
  1.8224   1.8275   1.8405   1.8602   1.8815   1.8906   1.9249   1.9312
  1.9427   1.9553   1.9771   1.9930   1.9979   2.0321   2.0406   2.0556
  2.0644   2.0751   2.0974   2.1115   2.1198   2.1609   2.1977   2.2075
  2.2287   2.2410   2.2796   2.2864   2.2999   2.3114   2.3490   2.3670
  2.3990   2.4097   2.4419   2.4699   2.4910   2.5010   2.5277   2.5611
  2.5764   2.6078   2.6306   2.6462   2.6567   2.6746   2.6966   2.7402
  2.7576   2.7634   2.7758   2.7975   2.8197   2.8318   2.8634   2.8817
  2.8946   2.9191   2.9375   2.9550   2.9652   2.9678   2.9802   3.0111
  3.0162   3.0440   3.0734   3.0796   3.0998   3.1211   3.1498   3.1735
  3.1898   3.2078   3.2224   3.2277   3.2495   3.2580   3.2858   3.2949
  3.3289   3.3505   3.3830   3.3898   3.3922   3.4185   3.4486   3.4609
  3.4632   3.4765   3.4924   3.5095   3.5218   3.5283   3.5402   3.5474
  3.5530   3.5700   3.5820   3.5937   3.6003   3.6284   3.6488   3.6658
  3.6860   3.7004   3.7418   3.7607   3.7989   3.8195   3.8425   3.8953
  3.9430   3.9566   3.9804   3.9862   4.0405   4.0827   4.1345   4.1578
  4.2456   4.2682   4.2846   4.3107   4.3144   4.3255   4.3372   4.3590
  4.3718   4.3834   4.4248   4.4560   4.4887   4.5303   4.5919   4.6168
  4.7273   4.7348   4.7836   4.8098   4.8698   4.9198   5.0225   5.0550
  5.0874   5.1237   5.1480   5.2931   5.3065   5.4239   5.4483   5.5315
  5.6041   5.6641   5.7181   5.7680   5.9534   6.2140   6.4739   6.5699
  6.6831   6.8795   7.0082   7.2985   7.4547  22.6728  22.6782  22.9264
 22.9787  23.0140  23.1627  23.4817  44.4170
 --------------------------------------------------------------
 
          Ground-State Mulliken Net Atomic Charges

     Atom                 Charge (a.u.)
  ----------------------------------------
      1 C                    -1.085869
      2 C                     0.634372
      3 C                    -0.425955
      4 C                    -0.758707
      5 C                    -0.591477
      6 C                    -0.477681
      7 C                     0.526644
      8 O                    -0.538500
      9 H                     0.330025
     10 H                     0.372983
     11 H                     0.398181
     12 H                     0.398282
     13 H                     0.382711
     14 H                     0.291447
     15 H                     0.299180
     16 H                     0.244365
  ----------------------------------------
  Sum of atomic charges =     0.000000

 -----------------------------------------------------------------
                    Cartesian Multipole Moments
 -----------------------------------------------------------------
    Charge (ESU x 10^10)
                 0.0000
    Dipole Moment (Debye)
         X       0.8284      Y      -1.0901      Z      -1.5551
       Tot       2.0720
    Quadrupole Moments (Debye-Ang)
        XX     -47.9622     XY       3.4260     YY     -42.9489
        XZ      -4.3225     YZ      -1.1564     ZZ     -44.6510
    Octopole Moments (Debye-Ang^2)
       XXX      94.7365    XXY      96.3839    XYY      19.8104
       YYY     255.6758    XXZ     -37.3475    XYZ       6.2604
       YYZ     -40.7276    XZZ      21.0360    YZZ      87.4856
       ZZZ    -110.1543
    Hexadecapole Moments (Debye-Ang^3)
      XXXX    -312.4417   XXXY    -307.2532   XXYY    -374.7869
      XYYY    -266.6423   YYYY   -1873.6872   XXXZ     123.2530
      XXYZ      68.5355   XYYZ      21.8150   YYYZ     231.8204
      XXZZ    -117.8908   XYZZ     -83.7445   YYZZ    -392.0809
      XZZZ      95.2878   YZZZ     231.0140   ZZZZ    -443.4596
 -----------------------------------------------------------------
Archival summary:
1\1\nid00536\SP\ProcedureUnspecified\BasisUnspecified\178\meili\SunSep2622:11:152021SunSep2622:11:152021\0\\#,ProcedureUnspecified,BasisUnspecified,\\0,1\C\O,1,1.36388\H,2,0.955146,1,110.838\C,1,1.39591,2,120.001,3,166.249,0\H,4,1.08116,1,119.472,2,0.711355,0\C,1,1.39794,2,119.979,3,-13.2682,0\H,6,1.08033,1,120.692,2,-1.21284,0\C,6,1.39783,1,119.78,2,179.685,0\H,8,1.08192,6,119.298,1,179.054,0\C,4,1.39928,1,119.822,2,-179.516,0\H,10,1.08259,4,119.563,1,179.704,0\C,10,1.39863,4,120.715,1,-0.051074,0\C,12,1.51016,10,120.484,4,179.974,0\H,13,1.0847,12,109.215,10,138.705,0\H,13,1.09138,12,109.177,10,22.12,0\H,13,1.10001,12,114.273,10,-99.8987,0\\\@

 Total job time:  38589.07s(wall), 76651.33s(cpu) 
 Sun Sep 26 22:11:19 2021

        *************************************************************
        *                                                           *
        *  Thank you very much for using Q-Chem.  Have a nice day.  *
        *                                                           *
        *************************************************************


Done Job For Fragment 0
calling putenv with: QCSCRATCH=/global/cscratch1/sd/meili 
calling putenv with: QCLOCALSCR=/tmp 
calling putenv with: QCTHREADS=32 
Creating input file /tmp/qchem37012/Frg2.input
using default PutDataFrgm: nothing
calling putenv with: QCSCRATCH=/tmp/qchem37012/ 
calling putenv with: QCLOCALSCR=/tmp/qchem37012/ 
Spawning Job For Fragment 1
                  Welcome to Q-Chem
     A Quantum Leap Into The Future Of Chemistry


 Q-Chem 5.2, Q-Chem, Inc., Pleasanton, CA (2019)

 License issued to: National Energy Research Scientific Computing Center

 Yihan Shao,  Zhengting Gan,  E. Epifanovsky,  A. T. B. Gilbert,  M. Wormit,  
 J. Kussmann,  A. W. Lange,  A. Behn,  Jia Deng,  Xintian Feng,  D. Ghosh,  
 M. Goldey,  P. R. Horn,  L. D. Jacobson,  I. Kaliman,  T. Kus,  A. Landau,  
 Jie Liu,  E. I. Proynov,  R. M. Richard,  R. P. Steele,  E. J. Sundstrom,  
 H. L. Woodcock III,  P. M. Zimmerman,  D. Zuev,  B. Albrecht,  E. Alguire,  
 S. A. Baeppler,  D. Barton,  Z. Benda,  Y. A. Bernard,  E. J. Berquist,  
 K. B. Bravaya,  H. Burton,  D. Casanova,  Chun-Min Chang,  Yunqing Chen,  
 A. Chien,  K. D. Closser,  M. P. Coons,  S. Coriani,  S. Dasgupta,  
 A. L. Dempwolff,  M. Diedenhofen,  Hainam Do,  R. G. Edgar,  Po-Tung Fang,  
 S. Faraji,  S. Fatehi,  Qingguo Feng,  K. D. Fenk,  J. Fosso-Tande,  
 J. Gayvert,  Qinghui Ge,  A. Ghysels,  G. Gidofalvi,  J. Gomes,  
 J. Gonthier,  A. Gunina,  D. Hait,  M. W. D. Hanson-Heine,  
 P. H. P. Harbach,  A. W. Hauser,  M. F. Herbst,  J. E. Herr,  
 E. G. Hohenstein,  Z. C. Holden,  Kerwin Hui,  B. C. Huynh,  T.-C. Jagau,  
 Hyunjun Ji,  B. Kaduk,  K. Khistyaev,  Jaehoon Kim,  P. Klunzinger,  K. Koh,  
 D. Kosenkov,  L. Koulias,  T. Kowalczyk,  C. M. Krauter,  A. Kunitsa,  
 Ka Un Lao,  A. Laurent,  K. V. Lawler,  Joonho Lee,  D. Lefrancois,  
 S. Lehtola,  D. S. Levine,  Yi-Pei Li,  You-Sheng Lin,  Fenglai Liu,  
 E. Livshits,  A. Luenser,  P. Manohar,  E. Mansoor,  S. F. Manzer,  
 Shan-Ping Mao,  Yuezhi Mao,  N. Mardirossian,  A. V. Marenich,  
 T. Markovich,  L. A. Martinez-Martinez,  S. A. Maurer,  N. J. Mayhall,  
 S. C. McKenzie,  J.-M. Mewes,  P. Morgante,  A. F. Morrison,  
 J. W. Mullinax,  K. Nanda,  T. S. Nguyen-Beck,  R. Olivares-Amaya,  
 J. A. Parkhill,  Zheng Pei,  T. M. Perrine,  F. Plasser,  P. Pokhilko,  
 S. Prager,  A. Prociuk,  E. Ramos,  D. R. Rehn,  F. Rob,  M. Scheurer,  
 M. Schneider,  N. Sergueev,  S. M. Sharada,  S. Sharma,  D. W. Small,  
 T. Stauch,  T. Stein,  Yu-Chuan Su,  A. J. W. Thom,  A. Tkatchenko,  
 T. Tsuchimochi,  N. M. Tubman,  L. Vogt,  M. L. Vidal,  O. Vydrov,  
 M. A. Watson,  J. Wenzel,  M. de Wergifosse,  T. A. Wesolowski,  A. White,  
 J. Witte,  A. Yamada,  Jun Yang,  K. Yao,  S. Yeganeh,  S. R. Yost,  
 Zhi-Qiang You,  A. Zech,  Igor Ying Zhang,  Xing Zhang,  Yan Zhao,  
 Ying Zhu,  B. R. Brooks,  G. K. L. Chan,  C. J. Cramer,  M. S. Gordon,  
 W. J. Hehre,  A. Klamt,  M. W. Schmidt,  C. D. Sherrill,  D. G. Truhlar,  
 A. Aspuru-Guzik,  R. Baer,  A. T. Bell,  N. A. Besley,  Jeng-Da Chai,  
 A. E. DePrince, III,  R. A. DiStasio Jr.,  A. Dreuw,  B. D. Dunietz,  
 T. R. Furlani,  Chao-Ping Hsu,  Yousung Jung,  Jing Kong,  D. S. Lambrecht,  
 WanZhen Liang,  C. Ochsenfeld,  V. A. Rassolov,  L. V. Slipchenko,  
 J. E. Subotnik,  T. Van Voorhis,  J. M. Herbert,  A. I. Krylov,  
 P. M. W. Gill,  M. Head-Gordon

 Contributors to earlier versions of Q-Chem not listed above: 
 R. D. Adamson,  B. Austin,  J. Baker,  G. J. O. Beran,  K. Brandhorst,  
 S. T. Brown,  E. F. C. Byrd,  A. K. Chakraborty,  C.-L. Cheng,  
 Siu Hung Chien,  D. M. Chipman,  D. L. Crittenden,  H. Dachsel,  
 R. J. Doerksen,  A. D. Dutoi,  L. Fusti-Molnar,  W. A. Goddard III,  
 A. Golubeva-Zadorozhnaya,  S. R. Gwaltney,  G. Hawkins,  A. Heyden,  
 S. Hirata,  G. Kedziora,  F. J. Keil,  C. Kelley,  Jihan Kim,  R. A. King,  
 R. Z. Khaliullin,  P. P. Korambath,  W. Kurlancheek,  A. M. Lee,  M. S. Lee,  
 S. V. Levchenko,  Ching Yeh Lin,  D. Liotard,  R. C. Lochan,  I. Lotan,  
 P. E. Maslen,  N. Nair,  D. P. O'Neill,  D. Neuhauser,  E. Neuscamman,  
 C. M. Oana,  R. Olson,  B. Peters,  R. Peverati,  P. A. Pieniazek,  
 Y. M. Rhee,  J. Ritchie,  M. A. Rohrdanz,  E. Rosta,  N. J. Russ,  
 H. F. Schaefer III,  N. E. Schultz,  N. Shenvi,  A. C. Simmonett,  A. Sodt,  
 D. Stuck,  K. S. Thanthiriwatte,  V. Vanovschi,  Tao Wang,  A. Warshel,  
 C. F. Williams,  Q. Wu,  X. Xu,  W. Zhang

 Please cite Q-Chem as follows:
 Y. Shao et al., Mol. Phys. 113, 184-215 (2015)
 DOI: 10.1080/00268976.2014.952696

 Q-Chem 5.2.0 for Intel X86 EM64T Linux

 Parts of Q-Chem use Armadillo 8.300.2 (Tropical Shenanigans).
 http://arma.sourceforge.net/

 Q-Chem begins on Sun Sep 26 22:11:24 2021  

Host: cori01
0

     Scratch files written to /tmp/qchem37012//Frg2//
 May1019 |scratch|qcdevops|jenkins|workspace|build_RNUM -1
Processing $rem in /global/common/cori/software/qchem/5.2/config/preferences:
	 MEM_TOTAL  96000 
NAlpha2: 32
NElect   32
Mult     1
Symmetry turned off for PCM/SM12/SMD calculation

Checking the input file for inconsistencies... 	...done.

--------------------------------------------------------------
User input:
--------------------------------------------------------------
$molecule
0 1
 6	2.2803304598	2.6737661620	-1.1636481258
 6	1.0513304598	3.4917661620	-1.5166481258
 8	1.1333304598	4.7067661620	-1.6706481258
 7	-0.1016695402	2.8527661620	-1.6286481258
 1	-0.9076695402	3.4037661620	-1.9086481258
 1	-0.1906695402	1.8507661620	-1.5906481258
 1	2.9953304598	2.7747661620	-1.9816481258
 1	2.0363304598	1.6177661620	-1.0646481258
 1	2.7358604598	3.0503561620	-0.2359281258
$end
$rem
EDA2		1
METHOD		WB97X-V
BASIS		DEF2-TZVPD
XC_GRID		000099000590
NL_GRID		1
UNRESTRICTED		FALSE
MAX_SCF_CYCLES		200
SYMMETRY		FALSE
SYM_IGNORE		TRUE
BASIS_LIN_DEP_THRESH		6
THRESH		14
SCF_CONVERGENCE		8
SCF_PRINT_FRGM		TRUE
SOLVENT_METHOD		SMD
!required keywords
JOBTYPE		SP
SYM_IGNORE		TRUE
SUBSYSTEM		TRUE
GEN_SCFMAN		TRUE
CHILD_INSTRUCTION		2
SYM_IGNORE		TRUE
SCFMI		0
RI_K 0		
PARI_K 0		
MIN_PARI_K 0		
IARI_K 0		
OCC_RI_K 0		
PURECART		1111
MEM_STATIC		2000
MEM_TOTAL		96000
GUI		0
CHILD_MP		1
CHILD_MP_ORDERS		232
FRZ_RELAX		0
FRZ_RELAX_METHOD		0
EDA_CLS_ELEC		1
EDA_CLS_DISP		0
FRZ_ORTHO_DECOMP		1
EDA2		FALSE
FRGM_METHOD		FALSE
CIS_N_ROOTS  0
LOCAL_CIS    0
CIS_RLX_DNS  1
$end
$smx
SOLVENT			WATER
$end
--------------------------------------------------------------
 ----------------------------------------------------------------
             Standard Nuclear Orientation (Angstroms)
    I     Atom           X                Y                Z
 ----------------------------------------------------------------
    1      C       2.2803304598     2.6737661620    -1.1636481258
    2      C       1.0513304598     3.4917661620    -1.5166481258
    3      O       1.1333304598     4.7067661620    -1.6706481258
    4      N      -0.1016695402     2.8527661620    -1.6286481258
    5      H      -0.9076695402     3.4037661620    -1.9086481258
    6      H      -0.1906695402     1.8507661620    -1.5906481258
    7      H       2.9953304598     2.7747661620    -1.9816481258
    8      H       2.0363304598     1.6177661620    -1.0646481258
    9      H       2.7358604598     3.0503561620    -0.2359281258
 ----------------------------------------------------------------
 Nuclear Repulsion Energy =         122.33636580 hartrees
 There are       16 alpha and       16 beta electrons
 Requested basis set is def2-TZVPD
 There are 78 shells and 196 basis functions

 Total QAlloc Memory Limit  96000 MB
 Mega-Array Size      1956 MB
 MEM_STATIC part      2000 MB
 
 Citation of the SMD model:
 Marenich, A.V.; Cramer, C.J.; Truhlar, D.G.
 J. Phys. Chem. B 2009, 113, 6378-6396.
 iSolventCode=           1
 Solvent: water                                                           
 
 vradii
            1           2           3           4           5           6
    1   1.8500000   1.8500000   1.5200000   1.8900000   1.2000000   1.2000000
            7           8           9
    1   1.2000000   1.2000000   1.2000000
 Changing PCM_VDW_RADII to SMD_RADIUS
 Discretize the solute cavity surface with Lebedev spheres
	Using 110 Lebedev grid points for each H atom
	Using 194 Lebedev grid points for other atoms
	Atomic van der Waals radii will be scaled by 1.20
 Remove points where switching function is < 1.0e-08
 Keep 725 surface tesserae and discard 601 interior tesserae
 Molecular Surface Area = 90.024 Angst**2

                       Distance Matrix (Angstroms)
             C (  1)   C (  2)   O (  3)   N (  4)   H (  5)   H (  6)
   C (  2)  1.517951
   O (  3)  2.388671  1.227463
   N (  4)  2.433555  1.322979  2.228072
   H (  5)  3.354291  1.999772  2.433133  1.015695
   H (  6)  2.639223  2.059350  3.148986  1.006662  1.739834
   H (  7)  1.091123  2.123547  2.701183  3.118029  3.954033  3.340247
   H (  8)  1.088335  2.164811  3.274838  2.532660  3.545316  2.300107
   H (  9)  1.099996  2.161649  2.714815  3.167063  4.024699  3.440764
             H (  7)   H (  8)
   H (  8)  1.760460
   H (  9)  1.786285  1.796784
 
 A cutoff of  1.0D-14 yielded   3053 shell pairs
 There are     19543 function pairs (     24701 Cartesian)
 Smallest overlap matrix eigenvalue = 1.10E-05

 Scale SEOQF with 1.000000e-01/1.000000e-01/1.000000e-01

 Standard Electronic Orientation quadrupole field applied
 Nucleus-field energy     =     0.0000000220 hartrees
 Guess from superposition of atomic densities
 Warning:  Energy on first SCF cycle will be non-variational
 SAD guess density has 31.604610 electrons

 -----------------------------------------------------------------------
  General SCF calculation program by
  Eric Jon Sundstrom, Paul Horn, Yuezhi Mao, Dmitri Zuev, Alec White,
  David Stuck, Shaama M.S., Shane Yost, Joonho Lee, David Small,
  Daniel Levine, Susi Lehtola, Hugh Burton, Evgeny Epifanovsky
 -----------------------------------------------------------------------
 Exchange:     0.1670 Hartree-Fock + 1.0000 wB97X-V + LR-HF
 Correlation:  1.0000 wB97X-V
 Using Euler-Maclaurin-Lebedev (99,590) quadrature formula
 Nonlocal Correlation:  VV10 with C = 0.0100 and b = 6.00 and scale = 1.00000
 Grid used for NLC:  SG-1 standard quadrature
Energy prior to optimization (guess energy) = -208.706359234774
Begin Timing: Total SCF Calculation
begin iterations for algorithm: DIIS         
the SCF tolerance is set to 1.00e-08
    1    -208.7063592348      1.25e-02     00000 
    2    -208.3451136376      1.53e-02     00000 
    3    -209.2376227010      2.34e-03     00000 
    4    -209.2558480747      7.63e-04     00000 
    5    -209.2588662136      1.98e-04     00000 
    6    -209.2591338030      6.69e-05     00000 
    7    -209.2591744314      2.02e-05     00000 
    8    -209.2591794597      5.82e-06     00000 
    9    -209.2591802008      1.96e-06     00000 
   10    -209.2591802499      3.60e-07     00000 
   11    -209.2591802512      1.46e-07     00000 
   12    -209.2591802514      2.13e-08     00000 
   13    -209.2591802514      4.79e-09     00000 Convergence criterion met
Timing for Total SCF: 346.00s (wall), 681.77s (cpu)
(3)  G-ENP(liq) elect-nuc-pol free energy of system     -209.259180251 a.u.
(4)  G-CDS(liq) cavity-dispersion-solvent structure 
     free energy                                                3.5531 kcal/mol
(6)  G-S(liq) free energy of system                     -209.253517961 a.u.
E_pcm = -0.0299184043
E_cds = 0.0056622906
Multipole orders to be included
        2
        3
computing dipole RHS
computing quadrupole RHS
total number of RHS in solve_reponses: 8
RHS batch sizes
        8
Beginning Block Conjugate Gradient Iterations. Batch Number: 0
computing hessian-vector products by finite difference
              1      6.90e-01     00000 Conjugate Gradient Iteration
computing hessian-vector products by finite difference
              2      2.20e-01     00000 Conjugate Gradient Iteration
computing hessian-vector products by finite difference
              3      5.74e-02     00000 Conjugate Gradient Iteration
computing hessian-vector products by finite difference
              4      1.41e-02     00000 Conjugate Gradient Iteration
computing hessian-vector products by finite difference
              5      2.05e-03     00000 Conjugate Gradient Iteration
computing hessian-vector products by finite difference
              6      4.64e-04     00000 Conjugate Gradient Iteration
computing hessian-vector products by finite difference
              7      6.09e-05     00000 Conjugate Gradient Iteration
computing hessian-vector products by finite difference
              8      6.61e-06     00000 Conjugate Gradient Iteration
computing hessian-vector products by finite difference
              9      9.59e-07     00000 Conjugate Gradient Iteration
computing hessian-vector products by finite difference
             10      1.07e-07     00000 Conjugate Gradient Iteration
computing hessian-vector products by finite difference
             11      1.17e-08     00000 Conjugate Gradient Iteration
computing hessian-vector products by finite difference
             12      1.73e-09     00000 CG Converged
batch 0 complete
Done Calculating Responses
TESTING ORTHOGONALIZATION OF MULTIPOLE BASIS
Multipole virts passed orthogonality test
Virts Per Order
        48
        80
 
 --------------------------------------------------------------
 
                    Orbital Energies (a.u.)
 --------------------------------------------------------------
 
 Alpha MOs
 -- Occupied --
-19.1824 -14.4277 -10.3777 -10.2629  -1.1776  -1.0413  -0.8623  -0.7104
 -0.6497  -0.5917  -0.5649  -0.5195  -0.4973  -0.4777  -0.3843  -0.3758
 -- Virtual --
  0.0652   0.0960   0.0968   0.1032   0.1331   0.1335   0.1375   0.1516
  0.1818   0.1912   0.1937   0.2148   0.2305   0.2504   0.2534   0.2638
  0.2669   0.2791   0.3026   0.3131   0.3347   0.3406   0.3462   0.3549
  0.3606   0.3643   0.3754   0.3782   0.3841   0.3998   0.4168   0.4284
  0.4368   0.4638   0.4653   0.4777   0.4800   0.4904   0.5036   0.5110
  0.5144   0.5347   0.5603   0.5674   0.5832   0.5913   0.6152   0.6324
  0.6388   0.6501   0.6714   0.7004   0.7079   0.7222   0.7361   0.7681
  0.7744   0.7798   0.7958   0.8115   0.8259   0.8342   0.8587   0.8908
  0.9190   0.9575   0.9613   1.0012   1.0173   1.0204   1.0634   1.1069
  1.1237   1.1652   1.2344   1.2379   1.2942   1.3196   1.3274   1.3925
  1.4730   1.4971   1.5352   1.6137   1.6901   1.7270   1.7321   1.8036
  1.8466   1.8763   1.8792   1.9179   1.9422   1.9662   1.9818   2.0443
  2.0597   2.0905   2.1235   2.1692   2.1966   2.2306   2.3187   2.3871
  2.4207   2.4298   2.4648   2.5009   2.5075   2.5732   2.6068   2.6392
  2.6414   2.6969   2.7933   2.8029   2.8634   2.9078   2.9621   2.9690
  3.0766   3.1065   3.1184   3.1666   3.2038   3.2169   3.2612   3.3063
  3.3196   3.3364   3.3878   3.4191   3.4719   3.4898   3.5343   3.5517
  3.5963   3.6706   3.7018   3.8322   3.8594   3.9279   4.0005   4.0407
  4.0677   4.1983   4.3034   4.4414   4.4717   4.6144   4.6438   4.6743
  4.7751   4.8958   4.9122   4.9247   5.1458   5.1768   5.2655   5.3576
  5.3693   5.3989   5.4129   5.5095   5.5364   5.7662   5.9123   6.1584
  6.2442   6.5277   6.6349   6.7379   6.8323   6.9618   7.2181   7.3192
 22.5936  23.5906  32.4135  44.2806
 --------------------------------------------------------------
 
          Ground-State Mulliken Net Atomic Charges

     Atom                 Charge (a.u.)
  ----------------------------------------
      1 C                    -0.603837
      2 C                     0.419648
      3 O                    -0.693569
      4 N                    -0.295123
      5 H                     0.248610
      6 H                     0.246998
      7 H                     0.213581
      8 H                     0.235227
      9 H                     0.228464
  ----------------------------------------
  Sum of atomic charges =     0.000000

 -----------------------------------------------------------------
                    Cartesian Multipole Moments
 -----------------------------------------------------------------
    Charge (ESU x 10^10)
                -0.0000
    Dipole Moment (Debye)
         X      -1.5786      Y      -5.6936      Z       0.2124
       Tot       5.9122
    Quadrupole Moments (Debye-Ang)
        XX     -22.2946     XY     -10.9372     YY     -66.2225
        XZ       4.1070     YZ      10.0341     ZZ     -25.4963
    Octopole Moments (Debye-Ang^2)
       XXX     -80.2888    XXY     -83.0000    XYY     -91.5501
       YYY    -491.8182    XXZ      33.6395    XYZ      23.1774
       YYZ     107.7192    XZZ     -35.1163    YZZ    -100.3906
       ZZZ     112.6482
    Hexadecapole Moments (Debye-Ang^3)
      XXXX    -337.5671   XXXY    -276.5136   XXYY    -398.4662
      XYYY    -618.1134   YYYY   -3127.4287   XXXZ     107.5437
      XXYZ     129.8569   XYYZ     159.6406   YYYZ     789.5830
      XXZZ    -110.4246   XYZZ    -131.6511   YYZZ    -483.3268
      XZZZ     122.7791   YZZZ     410.1762   ZZZZ    -373.3187
 -----------------------------------------------------------------
Archival summary:
1\1\nid00536\SP\ProcedureUnspecified\BasisUnspecified\1125\meili\SunSep2623:49:142021SunSep2623:49:142021\0\\#,ProcedureUnspecified,BasisUnspecified,\\0,1\C\O,1,1.22746\N,1,1.32298,2,121.715\H,3,1.00666,1,123.685,2,174.296,0\H,3,1.0157,1,116.93,2,3.9277,0\C,1,1.51795,2,120.564,3,-178.887,0\H,6,1.08833,1,111.254,2,-179.928,0\H,6,1.09112,1,107.838,2,-61.967,0\H,6,1.1,1,110.3,2,57.2277,0\\\@

 Total job time:  5872.93s(wall), 11593.83s(cpu) 
 Sun Sep 26 23:49:16 2021

        *************************************************************
        *                                                           *
        *  Thank you very much for using Q-Chem.  Have a nice day.  *
        *                                                           *
        *************************************************************


Done Job For Fragment 1
calling putenv with: QCSCRATCH=/global/cscratch1/sd/meili 
calling putenv with: QCLOCALSCR=/tmp 
calling putenv with: QCTHREADS=32 
Doing General SCFMI
 Exchange:     0.1670 Hartree-Fock + 1.0000 wB97X-V + LR-HF
 Correlation:  1.0000 wB97X-V
 Using Euler-Maclaurin-Lebedev (99,590) quadrature formula
 Nonlocal Correlation:  VV10 with C = 0.0100 and b = 6.00 and scale = 1.00000
 Grid used for NLC:  SG-1 standard quadrature
performing fock build before subrot guess so that all methods have access
Printing subrot_rss_gen Method Specification:
Occupied Subspace Method is 0
Virtual Subspace Method is 0
Energy of the unrelaxed supersystem initial determinant -556.028218827412
performing fock build before subrot guess so that all methods have access
Printing subrot_rss_gen Method Specification:
Occupied Subspace Method is 0
Virtual Subspace Method is 0
Energy of the unrelaxed supersystem initial determinant w/ solvent -556.079634384714
write pseudocanon occs and virts to disk
write pseudocanon orbital energies to disk
Tolerance of ortho_decomp_scf: 1.00e-06
GDM subspace size: 20
Beginning the Orthogonal Decomposition of the Initial Supersystem Wavefunction
    1    -556.0148035937      3.34e-02     ortho_decomp Preconditoned Steepest Descent
    2    -556.0175479170      8.51e-04     ortho_decomp BFGS Step
    3    -556.0175575404      6.39e-05     ortho_decomp BFGS Step
    4    -556.0175575555      2.63e-06     ortho_decomp BFGS Step
    5    -556.0175575556      1.08e-07     ortho_decomp 00000 Convergence criterion met
 Hartree-Fock
 Hartree-Fock
 Hartree-Fock
Doing General SCFMI
 Exchange:     0.1670 Hartree-Fock + 1.0000 wB97X-V + LR-HF
 Correlation:  1.0000 wB97X-V
 Using Euler-Maclaurin-Lebedev (99,590) quadrature formula
 Nonlocal Correlation:  VV10 with C = 0.0100 and b = 6.00 and scale = 1.00000
 Grid used for NLC:  SG-1 standard quadrature
performing fock build at end of subrot_r(subrot) constructor so that all methods have access
<S^2> of initial wavefunction before polarization iterations 0.0000000000
Beginning iterations for the determination of the polarized wavefunction
Energy prior to optimization (guess energy) = -556.079634384714
Begin Timing: Total SCF Calculation
begin iterations for algorithm: DIIS         
the SCF tolerance is set to 1.00e-08
    1    -556.0796343847      9.37e-05     00000 
    2    -556.0803929303      4.18e-05     00000 
    3    -556.0804651683      2.62e-05     00000 
    4    -556.0804959169      6.19e-06     00000 
    5    -556.0804998913      2.77e-06     00000 
    6    -556.0805008048      1.38e-06     00000 
    7    -556.0805009706      6.52e-07     00000 
    8    -556.0805009994      3.23e-07     00000 
    9    -556.0805010068      1.54e-07     00000 
   10    -556.0805010086      8.36e-08     00000 
   11    -556.0805010090      2.70e-08     00000 
   12    -556.0805010091      1.41e-08     00000 
   13    -556.0805010091      7.55e-09     00000 Convergence criterion met
write pseudocanon occs and virts to disk
write pseudocanon orbital energies to disk
Timing for Total SCF: 5862.00s (wall), 11668.02s (cpu)
<S^2> of polarized wavefunction after polarization iterations 0.0000000000
relaxing scfmi constraint to allow all rotations in the entire AO span
Doing General SCFMI
 Exchange:     0.1670 Hartree-Fock + 1.0000 wB97X-V + LR-HF
 Correlation:  1.0000 wB97X-V
 Using Euler-Maclaurin-Lebedev (99,590) quadrature formula
 Nonlocal Correlation:  VV10 with C = 0.0100 and b = 6.00 and scale = 1.00000
 Grid used for NLC:  SG-1 standard quadrature
performing fock build at end of subrot_r(subrot) constructor so that all methods have access
<S^2> of polarized wavefunction before ct-allowed iterations 0.0000000000
Beginning iterations for the determination of the CT-Allowed wavefunction
Energy prior to optimization (guess energy) = -556.080501009087
Begin Timing: Total SCF Calculation
begin iterations for algorithm: DIIS         
the SCF tolerance is set to 1.00e-08
    1    -556.0805010091      1.05e-04     00000 
    2    -556.0824435157      1.36e-05     00000 
    3    -556.0825091417      2.10e-06     00000 
    4    -556.0825108880      1.06e-06     00000 
    5    -556.0825110468      3.11e-07     00000 
    6    -556.0825110673      1.26e-07     00000 
    7    -556.0825110700      2.42e-08     00000 
    8    -556.0825110701      1.35e-08     00000 
    9    -556.0825110701      3.42e-09     00000 Convergence criterion met
write pseudocanon occs and virts to disk
write pseudocanon orbital energies to disk
Timing for Total SCF: 3922.00s (wall), 7805.55s (cpu)
<S^2> of ct_allowed wavefunction after ct-allowed iterations 0.0000000000

================================
        Results of EDA2         
================================
Basic EDA Quantities
--------------------
Fragment Energies (Ha):
1 -346.8201265799
2 -209.2535179608
--------------------
  E_prp (kJ/mol) = -0.0000
  E_sol (kJ/mol) = -14.5157
  E_frz (kJ/mol) = 26.1013
  E_pol (kJ/mol) = -2.2753
  E_vct (kJ/mol) = -5.2775
  E_int (kJ/mol) = 4.0327
--------------------


Initial Wavefunction Decomposition
--------------------
  --------------------
  Orthogonal Fragment Subspace Decomposition:
  --------------------
     E_elec   (ELEC)   (kJ/mol) = -4.2692
     E_pauli  (PAULI)  (kJ/mol) = 43.0312
     E_disp   (DISP)   (kJ/mol) = -12.6607
     --------------------
     Terms summing to E_pauli:
     --------------------
        E_kep_pauli       (kJ/mol) = 54.0928
        E_disp_free_pauli (kJ/mol) = -11.0616
  --------------------
  Classical Frozen Decomposition:
  --------------------
     E_cls_elec  (CLS ELEC)  (kJ/mol) = 11.8427
     E_cls_pauli (CLS PAULI) (kJ/mol) = 14.2586
    [E_mod_pauli (MOD PAULI) (kJ/mol) = 26.9192 (CLS PAULI - DISP from orthogonal decomposition) ]
  --------------------
--------------------

Simplified EDA Summary (kJ/mol)
--------------------
 PREPARATION     -0.0000
 SOLVATION       -14.5157
 FROZEN          38.7620      (does not include dispersion)
[PAULI           43.0312]     (if this is negligible, then frozen describes electrostatics)
 DISPERSION      -12.6607
 POLARIZATION    -2.2753
 CHARGE TRANSFER -5.2775
 TOTAL           4.0327     (PRP + SOL + FRZ + DISP + POL + CT)
--------------------
 
 --------------------------------------------------------------
 
                    Orbital Energies (a.u.)
 --------------------------------------------------------------
 
 Alpha MOs
 -- Occupied --
-19.2415 -19.1838 -14.4292 -10.3800 -10.3330 -10.2736 -10.2709 -10.2703
-10.2692 -10.2684 -10.2683 -10.2527  -1.1945  -1.1791  -1.0436  -0.9893
 -0.8958  -0.8783  -0.8678  -0.8049  -0.7428  -0.7147  -0.7086  -0.6634
 -0.6519  -0.5985  -0.5942  -0.5754  -0.5673  -0.5471  -0.5371  -0.5274
 -0.5222  -0.5159  -0.5074  -0.5020  -0.4809  -0.4710  -0.4500  -0.4407
 -0.4342  -0.3854  -0.3776  -0.3491  -0.3108
 -- Virtual --
  0.0581   0.0613   0.0701   0.0790   0.0823   0.0868   0.0944   0.0963
  0.1075   0.1123   0.1125   0.1249   0.1307   0.1325   0.1368   0.1467
  0.1549   0.1581   0.1615   0.1689   0.1767   0.1793   0.1899   0.1956
  0.1977   0.2064   0.2179   0.2230   0.2253   0.2304   0.2348   0.2423
  0.2475   0.2511   0.2516   0.2548   0.2604   0.2650   0.2686   0.2763
  0.2810   0.2869   0.2897   0.2908   0.2983   0.2997   0.3083   0.3117
  0.3141   0.3174   0.3219   0.3264   0.3295   0.3347   0.3400   0.3419
  0.3451   0.3493   0.3554   0.3583   0.3626   0.3660   0.3716   0.3732
  0.3779   0.3813   0.3846   0.3871   0.3912   0.3965   0.3989   0.4014
  0.4038   0.4099   0.4135   0.4174   0.4241   0.4274   0.4286   0.4347
  0.4384   0.4418   0.4433   0.4493   0.4548   0.4573   0.4595   0.4652
  0.4703   0.4745   0.4777   0.4792   0.4850   0.4891   0.4922   0.4998
  0.5021   0.5074   0.5103   0.5117   0.5180   0.5203   0.5234   0.5273
  0.5389   0.5426   0.5441   0.5516   0.5562   0.5624   0.5673   0.5703
  0.5723   0.5793   0.5823   0.5870   0.5906   0.6015   0.6057   0.6074
  0.6163   0.6189   0.6268   0.6333   0.6370   0.6428   0.6530   0.6674
  0.6683   0.6725   0.6732   0.6769   0.6816   0.6938   0.6994   0.7025
  0.7060   0.7121   0.7167   0.7193   0.7262   0.7310   0.7326   0.7364
  0.7381   0.7405   0.7519   0.7596   0.7616   0.7649   0.7721   0.7800
  0.7845   0.7879   0.7933   0.7976   0.8014   0.8039   0.8110   0.8172
  0.8234   0.8252   0.8297   0.8338   0.8366   0.8418   0.8499   0.8564
  0.8594   0.8629   0.8738   0.8747   0.8821   0.8914   0.8969   0.9004
  0.9078   0.9098   0.9206   0.9260   0.9351   0.9395   0.9540   0.9623
  0.9655   0.9822   0.9932   1.0021   1.0075   1.0212   1.0283   1.0316
  1.0422   1.0487   1.0509   1.0554   1.0614   1.0647   1.0799   1.0868
  1.0996   1.1023   1.1206   1.1295   1.1388   1.1417   1.1505   1.1578
  1.1652   1.1851   1.1885   1.2033   1.2161   1.2328   1.2732   1.2853
  1.2949   1.3069   1.3283   1.3368   1.3419   1.3541   1.3634   1.3753
  1.3788   1.3898   1.4017   1.4102   1.4201   1.4548   1.4669   1.4816
  1.4847   1.5062   1.5133   1.5330   1.5383   1.5567   1.5648   1.5841
  1.6169   1.6345   1.6371   1.6519   1.6622   1.6910   1.7034   1.7162
  1.7392   1.7625   1.7786   1.7942   1.7995   1.8146   1.8313   1.8484
  1.8546   1.8677   1.8709   1.8885   1.8997   1.9052   1.9166   1.9283
  1.9342   1.9440   1.9553   1.9618   1.9686   1.9796   1.9816   1.9919
  2.0051   2.0129   2.0233   2.0549   2.0621   2.0695   2.0764   2.0927
  2.1008   2.1148   2.1178   2.1285   2.1443   2.1490   2.1825   2.2001
  2.2103   2.2168   2.2251   2.2336   2.2522   2.2594   2.2703   2.2930
  2.3026   2.3329   2.3461   2.3627   2.3688   2.4026   2.4065   2.4127
  2.4350   2.4501   2.4670   2.4745   2.4915   2.5010   2.5292   2.5450
  2.5643   2.5719   2.5818   2.5956   2.6108   2.6147   2.6406   2.6437
  2.6591   2.6618   2.6818   2.6888   2.7117   2.7182   2.7309   2.7419
  2.7457   2.7709   2.7737   2.7985   2.8050   2.8257   2.8369   2.8516
  2.8745   2.8946   2.9038   2.9092   2.9181   2.9355   2.9391   2.9514
  2.9686   2.9780   2.9852   2.9916   3.0067   3.0233   3.0352   3.0500
  3.0750   3.0806   3.0898   3.1115   3.1284   3.1367   3.1511   3.1590
  3.1689   3.1827   3.1943   3.2026   3.2183   3.2305   3.2369   3.2534
  3.2614   3.2722   3.2757   3.2815   3.3017   3.3074   3.3325   3.3410
  3.3557   3.3669   3.3832   3.3955   3.3978   3.4123   3.4154   3.4340
  3.4554   3.4614   3.4724   3.4759   3.4905   3.5032   3.5108   3.5186
  3.5188   3.5332   3.5387   3.5502   3.5564   3.5629   3.5711   3.5863
  3.5952   3.6055   3.6090   3.6188   3.6354   3.6428   3.6553   3.6691
  3.6865   3.6954   3.7066   3.7192   3.7417   3.7721   3.8007   3.8329
  3.8439   3.8501   3.8975   3.9038   3.9426   3.9490   3.9660   3.9895
  3.9914   4.0182   4.0470   4.0531   4.0892   4.1020   4.1416   4.1932
  4.2253   4.2539   4.2762   4.2902   4.3120   4.3166   4.3232   4.3340
  4.3468   4.3662   4.3760   4.4017   4.4340   4.4574   4.4628   4.4945
  4.5155   4.5446   4.5974   4.6199   4.6387   4.6617   4.6946   4.7308
  4.7456   4.7938   4.8032   4.8087   4.8779   4.9217   4.9237   4.9416
  4.9509   5.0371   5.0624   5.1001   5.1365   5.1639   5.1759   5.1888
  5.2676   5.2943   5.3125   5.3654   5.3924   5.4064   5.4260   5.4533
  5.4570   5.5294   5.5449   5.5589   5.6120   5.6727   5.7290   5.7669
  5.7708   5.9223   5.9844   6.1784   6.2448   6.2611   6.4782   6.5322
  6.6094   6.6401   6.7048   6.7448   6.8360   6.9188   6.9762   7.0257
  7.2207   7.3263   7.3745   7.5044  22.6546  22.6790  22.7150  22.9383
 22.9936  23.0241  23.1756  23.4976  23.6088  32.5131  44.3762  44.5044
 --------------------------------------------------------------
 
          Ground-State Mulliken Net Atomic Charges

     Atom                 Charge (a.u.)
  ----------------------------------------
      1 C                    -1.127848
      2 C                     0.469315
      3 C                    -0.237583
      4 C                    -0.700004
      5 C                    -0.812630
      6 C                    -0.335918
      7 C                     0.389349
      8 O                    -0.515914
      9 H                     0.053932
     10 H                     0.463643
     11 H                     0.403256
     12 H                     0.409604
     13 H                     0.397398
     14 H                     0.297168
     15 H                     0.296501
     16 H                     0.248114
     17 C                    -0.549841
     18 C                     0.481392
     19 O                    -0.706764
     20 N                    -0.212978
     21 H                     0.260423
     22 H                     0.191008
     23 H                     0.232906
     24 H                     0.349800
     25 H                     0.255672
  ----------------------------------------
  Sum of atomic charges =     0.000000

 -----------------------------------------------------------------
                    Cartesian Multipole Moments
 -----------------------------------------------------------------
    Charge (ESU x 10^10)
                 0.0000
    Dipole Moment (Debye)
         X      -0.7054      Y      -6.6389      Z      -1.3596
       Tot       6.8133
    Quadrupole Moments (Debye-Ang)
        XX     -69.6736     XY      -6.9903     YY    -107.9007
        XZ      -0.4435     YZ       8.4563     ZZ     -69.8061
    Octopole Moments (Debye-Ang^2)
       XXX      16.3882    XXY      15.3087    XYY     -69.8574
       YYY    -231.8094    XXZ      -4.5614    XYZ      28.7105
       YYZ      65.3878    XZZ     -13.5577    YZZ     -12.0377
       ZZZ       2.0973
    Hexadecapole Moments (Debye-Ang^3)
      XXXX    -642.4122   XXXY    -577.0046   XXYY    -765.5832
      XYYY    -875.7428   YYYY   -4974.8635   XXXZ     227.6922
      XXYZ     195.3238   XYYZ     178.2831   YYYZ    1012.9379
      XXZZ    -226.0284   XYZZ    -213.3177   YYZZ    -870.9533
      XZZZ     216.4368   YZZZ     638.5878   ZZZZ    -814.5167
 -----------------------------------------------------------------
Archival summary:
1\1\nid00536\SP\ProcedureUnspecified\BasisUnspecified\21913\meili\MonSep2704:35:112021MonSep2704:35:112021\0\\#,ProcedureUnspecified,BasisUnspecified,\\0,1\O\H,1,0.955146\C,1,1.36388,2,110.838\C,3,1.39591,1,120.001,2,166.249,0\H,4,1.08116,3,119.472,1,0.711355,0\C,3,1.39794,1,119.979,2,-13.2682,0\H,6,1.08033,3,120.692,1,-1.21284,0\C,6,1.39783,3,119.78,1,179.685,0\H,8,1.08192,6,119.298,3,179.054,0\C,4,1.39928,3,119.822,1,-179.516,0\H,10,1.08259,4,119.563,3,179.704,0\C,10,1.39863,4,120.715,3,-0.051074,0\C,12,1.51016,10,120.484,4,179.974,0\H,13,1.0847,12,109.215,10,138.705,0\H,13,1.09138,12,109.177,10,22.12,0\H,13,1.10001,12,114.273,10,-99.8987,0\H,2,1.70834,1,157.345,3,-171.98,0\C,17,1.08833,2,130.519,1,-18.0709,0\H,18,1.09112,17,107.754,2,-174.593,0\H,18,1.1,17,110.384,2,66.2152,0\C,18,1.51795,17,111.254,2,-56.5807,0\O,21,1.22746,18,120.564,17,-179.928,0\N,21,1.32298,18,117.712,17,1.14175,0\H,23,1.00666,21,123.685,18,-6.78673,0\H,23,1.0157,21,116.93,18,-177.155,0\\\@

 Total job time:  61629.86s(wall), 34150.65s(cpu) 
 Mon Sep 27 04:35:14 2021

        *************************************************************
        *                                                           *
        *  Thank you very much for using Q-Chem.  Have a nice day.  *
        *                                                           *
        *************************************************************


