
Running Job 1 of 1 SSI-026PHE-036PHE-1_SMD_TZVPD.in
qchem SSI-026PHE-036PHE-1_SMD_TZVPD.in_48538.0 /tmp/qchem48538/ 0
/global/common/cori/software/qchem/5.2/exe/qcprog.exe_s SSI-026PHE-036PHE-1_SMD_TZVPD.in_48538.0 /tmp/qchem48538/
                  Welcome to Q-Chem
     A Quantum Leap Into The Future Of Chemistry


 Q-Chem 5.2, Q-Chem, Inc., Pleasanton, CA (2019)

 License issued to: National Energy Research Scientific Computing Center

 Yihan Shao,  Zhengting Gan,  E. Epifanovsky,  A. T. B. Gilbert,  M. Wormit,  
 J. Kussmann,  A. W. Lange,  A. Behn,  Jia Deng,  Xintian Feng,  D. Ghosh,  
 M. Goldey,  P. R. Horn,  L. D. Jacobson,  I. Kaliman,  T. Kus,  A. Landau,  
 Jie Liu,  E. I. Proynov,  R. M. Richard,  R. P. Steele,  E. J. Sundstrom,  
 H. L. Woodcock III,  P. M. Zimmerman,  D. Zuev,  B. Albrecht,  E. Alguire,  
 S. A. Baeppler,  D. Barton,  Z. Benda,  Y. A. Bernard,  E. J. Berquist,  
 K. B. Bravaya,  H. Burton,  D. Casanova,  Chun-Min Chang,  Yunqing Chen,  
 A. Chien,  K. D. Closser,  M. P. Coons,  S. Coriani,  S. Dasgupta,  
 A. L. Dempwolff,  M. Diedenhofen,  Hainam Do,  R. G. Edgar,  Po-Tung Fang,  
 S. Faraji,  S. Fatehi,  Qingguo Feng,  K. D. Fenk,  J. Fosso-Tande,  
 J. Gayvert,  Qinghui Ge,  A. Ghysels,  G. Gidofalvi,  J. Gomes,  
 J. Gonthier,  A. Gunina,  D. Hait,  M. W. D. Hanson-Heine,  
 P. H. P. Harbach,  A. W. Hauser,  M. F. Herbst,  J. E. Herr,  
 E. G. Hohenstein,  Z. C. Holden,  Kerwin Hui,  B. C. Huynh,  T.-C. Jagau,  
 Hyunjun Ji,  B. Kaduk,  K. Khistyaev,  Jaehoon Kim,  P. Klunzinger,  K. Koh,  
 D. Kosenkov,  L. Koulias,  T. Kowalczyk,  C. M. Krauter,  A. Kunitsa,  
 Ka Un Lao,  A. Laurent,  K. V. Lawler,  Joonho Lee,  D. Lefrancois,  
 S. Lehtola,  D. S. Levine,  Yi-Pei Li,  You-Sheng Lin,  Fenglai Liu,  
 E. Livshits,  A. Luenser,  P. Manohar,  E. Mansoor,  S. F. Manzer,  
 Shan-Ping Mao,  Yuezhi Mao,  N. Mardirossian,  A. V. Marenich,  
 T. Markovich,  L. A. Martinez-Martinez,  S. A. Maurer,  N. J. Mayhall,  
 S. C. McKenzie,  J.-M. Mewes,  P. Morgante,  A. F. Morrison,  
 J. W. Mullinax,  K. Nanda,  T. S. Nguyen-Beck,  R. Olivares-Amaya,  
 J. A. Parkhill,  Zheng Pei,  T. M. Perrine,  F. Plasser,  P. Pokhilko,  
 S. Prager,  A. Prociuk,  E. Ramos,  D. R. Rehn,  F. Rob,  M. Scheurer,  
 M. Schneider,  N. Sergueev,  S. M. Sharada,  S. Sharma,  D. W. Small,  
 T. Stauch,  T. Stein,  Yu-Chuan Su,  A. J. W. Thom,  A. Tkatchenko,  
 T. Tsuchimochi,  N. M. Tubman,  L. Vogt,  M. L. Vidal,  O. Vydrov,  
 M. A. Watson,  J. Wenzel,  M. de Wergifosse,  T. A. Wesolowski,  A. White,  
 J. Witte,  A. Yamada,  Jun Yang,  K. Yao,  S. Yeganeh,  S. R. Yost,  
 Zhi-Qiang You,  A. Zech,  Igor Ying Zhang,  Xing Zhang,  Yan Zhao,  
 Ying Zhu,  B. R. Brooks,  G. K. L. Chan,  C. J. Cramer,  M. S. Gordon,  
 W. J. Hehre,  A. Klamt,  M. W. Schmidt,  C. D. Sherrill,  D. G. Truhlar,  
 A. Aspuru-Guzik,  R. Baer,  A. T. Bell,  N. A. Besley,  Jeng-Da Chai,  
 A. E. DePrince, III,  R. A. DiStasio Jr.,  A. Dreuw,  B. D. Dunietz,  
 T. R. Furlani,  Chao-Ping Hsu,  Yousung Jung,  Jing Kong,  D. S. Lambrecht,  
 WanZhen Liang,  C. Ochsenfeld,  V. A. Rassolov,  L. V. Slipchenko,  
 J. E. Subotnik,  T. Van Voorhis,  J. M. Herbert,  A. I. Krylov,  
 P. M. W. Gill,  M. Head-Gordon

 Contributors to earlier versions of Q-Chem not listed above: 
 R. D. Adamson,  B. Austin,  J. Baker,  G. J. O. Beran,  K. Brandhorst,  
 S. T. Brown,  E. F. C. Byrd,  A. K. Chakraborty,  C.-L. Cheng,  
 Siu Hung Chien,  D. M. Chipman,  D. L. Crittenden,  H. Dachsel,  
 R. J. Doerksen,  A. D. Dutoi,  L. Fusti-Molnar,  W. A. Goddard III,  
 A. Golubeva-Zadorozhnaya,  S. R. Gwaltney,  G. Hawkins,  A. Heyden,  
 S. Hirata,  G. Kedziora,  F. J. Keil,  C. Kelley,  Jihan Kim,  R. A. King,  
 R. Z. Khaliullin,  P. P. Korambath,  W. Kurlancheek,  A. M. Lee,  M. S. Lee,  
 S. V. Levchenko,  Ching Yeh Lin,  D. Liotard,  R. C. Lochan,  I. Lotan,  
 P. E. Maslen,  N. Nair,  D. P. O'Neill,  D. Neuhauser,  E. Neuscamman,  
 C. M. Oana,  R. Olson,  B. Peters,  R. Peverati,  P. A. Pieniazek,  
 Y. M. Rhee,  J. Ritchie,  M. A. Rohrdanz,  E. Rosta,  N. J. Russ,  
 H. F. Schaefer III,  N. E. Schultz,  N. Shenvi,  A. C. Simmonett,  A. Sodt,  
 D. Stuck,  K. S. Thanthiriwatte,  V. Vanovschi,  Tao Wang,  A. Warshel,  
 C. F. Williams,  Q. Wu,  X. Xu,  W. Zhang

 Please cite Q-Chem as follows:
 Y. Shao et al., Mol. Phys. 113, 184-215 (2015)
 DOI: 10.1080/00268976.2014.952696

 Q-Chem 5.2.0 for Intel X86 EM64T Linux

 Parts of Q-Chem use Armadillo 8.300.2 (Tropical Shenanigans).
 http://arma.sourceforge.net/

 Q-Chem begins on Sun Sep 26 04:32:39 2021  

Host: cori01
0

     Scratch files written to /tmp/qchem48538//
 May1019 |scratch|qcdevops|jenkins|workspace|build_RNUM -1
Processing $rem in /global/common/cori/software/qchem/5.2/config/preferences:
	 MEM_TOTAL  96000 
NAlpha2: 100
NElect   100
Mult     1
Symmetry turned off for PCM/SM12/SMD calculation

 Q-Chem warning in module libgen/rem_setup.C, line 2803:

 Neither GIA nor STOLL is specified by user. Use STOLL as the default


Checking the input file for inconsistencies... 	...done.

--------------------------------------------------------------
User input:
--------------------------------------------------------------
$comment
SSI-026PHE-036PHE-1.pdb
$end

$molecule
0 1
--
0 1
C   -4.169455298034    0.193476034335   -0.041236967349
C   -1.881455298034    1.234476034335    0.310763032651
C   -3.115455298034    1.226476034335   -0.343236967349
C   -0.941455298034    2.201476034335    0.036763032651
C   -3.414455298034    2.269476034335   -1.211236967349
C   -1.213455298034    3.203476034335   -0.896236967349
C   -2.457455298034    3.250476034335   -1.499236967349
H   -1.558455298034    0.452476034335    0.960763032651
H    0.026544701966    2.170476034335    0.518763032651
H   -4.556455298034   -0.143523965665   -1.003236967349
H   -4.986455298034    0.676476034335    0.493763032651
H   -4.381455298034    2.310476034335   -1.695236967349
H   -0.467455298034    3.953476034335   -1.123236967349
H   -2.686455298034    4.041476034335   -2.201236967349
H   -3.810405298034   -0.687304965665    0.511313032651
--
0 1
C    3.933544701966   -3.654523965665   -0.403236967349
C    1.113544701966   -1.083523965665   -0.039236967349
C    1.954544701966   -2.100523965665   -0.601236967349
C    1.386544701966   -0.576523965665    1.253763032651
C    3.069544701966   -2.561523965665    0.116763032651
C    2.490544701966   -1.078523965665    1.953763032651
C    3.285544701966   -2.077523965665    1.418763032651
H    0.252544701966   -0.724523965665   -0.584236967349
H    1.731544701966   -2.497523965665   -1.582236967349
H    0.755544701966    0.180476034335    1.697763032651
H    2.704544701966   -0.707523965665    2.947763032651
H    3.438544701966   -4.111523965665   -1.261236967349
H    4.020544701966   -4.427523965665    0.360763032651
H    4.094544701966   -2.473523965665    2.006763032651
H    4.939054701966   -3.330716965665   -0.709996967349
$end

$rem
JOBTYPE			EDA
EDA2			1
method			wB97X-V
BASIS			def2-TZVPD
XC_GRID			000099000590
NL_GRID			1
UNRESTRICTED		FALSE
MAX_SCF_CYCLES		200
SYMMETRY		FALSE
SYM_IGNORE		TRUE
MEM_STATIC		2000
BASIS_LIN_DEP_THRESH 	6
THRESH 			14
SCF_CONVERGENCE 	8
SCF_PRINT_FRGM 		TRUE
SOLVENT_METHOD          SMD
$end

$SMX
SOLVENT			WATER
$END
--------------------------------------------------------------
 ----------------------------------------------------------------
             Standard Nuclear Orientation (Angstroms)
    I     Atom           X                Y                Z
 ----------------------------------------------------------------
    1      C      -4.1694552980     0.1934760343    -0.0412369673
    2      C      -1.8814552980     1.2344760343     0.3107630327
    3      C      -3.1154552980     1.2264760343    -0.3432369673
    4      C      -0.9414552980     2.2014760343     0.0367630327
    5      C      -3.4144552980     2.2694760343    -1.2112369673
    6      C      -1.2134552980     3.2034760343    -0.8962369673
    7      C      -2.4574552980     3.2504760343    -1.4992369673
    8      H      -1.5584552980     0.4524760343     0.9607630327
    9      H       0.0265447020     2.1704760343     0.5187630327
   10      H      -4.5564552980    -0.1435239657    -1.0032369673
   11      H      -4.9864552980     0.6764760343     0.4937630327
   12      H      -4.3814552980     2.3104760343    -1.6952369673
   13      H      -0.4674552980     3.9534760343    -1.1232369673
   14      H      -2.6864552980     4.0414760343    -2.2012369673
   15      H      -3.8104052980    -0.6873049657     0.5113130327
   16      C       3.9335447020    -3.6545239657    -0.4032369673
   17      C       1.1135447020    -1.0835239657    -0.0392369673
   18      C       1.9545447020    -2.1005239657    -0.6012369673
   19      C       1.3865447020    -0.5765239657     1.2537630327
   20      C       3.0695447020    -2.5615239657     0.1167630327
   21      C       2.4905447020    -1.0785239657     1.9537630327
   22      C       3.2855447020    -2.0775239657     1.4187630327
   23      H       0.2525447020    -0.7245239657    -0.5842369673
   24      H       1.7315447020    -2.4975239657    -1.5822369673
   25      H       0.7555447020     0.1804760343     1.6977630327
   26      H       2.7045447020    -0.7075239657     2.9477630327
   27      H       3.4385447020    -4.1115239657    -1.2612369673
   28      H       4.0205447020    -4.4275239657     0.3607630327
   29      H       4.0945447020    -2.4735239657     2.0067630327
   30      H       4.9390547020    -3.3307169657    -0.7099969673
 ----------------------------------------------------------------
 Nuclear Repulsion Energy =         749.62032847 hartrees
 There are       50 alpha and       50 beta electrons
 Requested basis set is def2-TZVPD
 There are 262 shells and 662 basis functions

 Total QAlloc Memory Limit  96000 MB
 Mega-Array Size      1956 MB
 MEM_STATIC part      2000 MB
 
 Citation of the SMD model:
 Marenich, A.V.; Cramer, C.J.; Truhlar, D.G.
 J. Phys. Chem. B 2009, 113, 6378-6396.
 iSolventCode=           1
 Solvent: water                                                           
 
 vradii
            1           2           3           4           5           6
    1   1.8500000   1.8500000   1.8500000   1.8500000   1.8500000   1.8500000
            7           8           9          10          11          12
    1   1.8500000   1.2000000   1.2000000   1.2000000   1.2000000   1.2000000
           13          14          15          16          17          18
    1   1.2000000   1.2000000   1.2000000   1.8500000   1.8500000   1.8500000
           19          20          21          22          23          24
    1   1.8500000   1.8500000   1.8500000   1.8500000   1.2000000   1.2000000
           25          26          27          28          29          30
    1   1.2000000   1.2000000   1.2000000   1.2000000   1.2000000   1.2000000
 Changing PCM_VDW_RADII to SMD_RADIUS
 Discretize the solute cavity surface with Lebedev spheres
	Using 110 Lebedev grid points for each H atom
	Using 194 Lebedev grid points for other atoms
	Atomic van der Waals radii will be scaled by 1.20
 Remove points where switching function is < 1.0e-08
 Keep 2141 surface tesserae and discard 2335 interior tesserae
 Molecular Surface Area = 263.996 Angst**2
 A cutoff of  1.0D-14 yielded  28102 shell pairs
 There are    179218 function pairs (    225478 Cartesian)
 Smallest overlap matrix eigenvalue = 4.85E-07
 Linear dependence detected in AO basis
 Tighter screening thresholds may be required for diffuse basis sets
 Use S2THRESH > 14 and THRESH = 14 in case of SCF convergence issues
 Number of orthogonalized atomic orbitals = 659
 Maximum deviation from orthogonality = 2.128E-10

 Scale SEOQF with 1.000000e-01/1.000000e-01/1.000000e-01

 Standard Electronic Orientation quadrupole field applied
 Nucleus-field energy     =     0.0000000511 hartrees

 -----------------------------------------------------------------------
  General SCF calculation program by
  Eric Jon Sundstrom, Paul Horn, Yuezhi Mao, Dmitri Zuev, Alec White,
  David Stuck, Shaama M.S., Shane Yost, Joonho Lee, David Small,
  Daniel Levine, Susi Lehtola, Hugh Burton, Evgeny Epifanovsky
 -----------------------------------------------------------------------
================================================================
                 ALMO-EDA with the EDA2 driver                  
================================================================
 The second-generation ALMO-EDA (for DFT):                      
 P. R. Horn, Y. Mao and M. Head-Gordon, PCCP, 18, 23067 (2016)  
 Decomposition of the frozen energy:                            
 P. R. Horn, Y. Mao and M. Head-Gordon, JCP, 144, 114107 (2016) 
 FERF model for polarization:                                   
 P. R. Horn and M. Head-Gordon, JCP, 143, 114111 (2015)         
Using eda2 option set 1
Option set summary: Frozen orbital wavefunction, initial wavefunction decomposition, and nDQ polarization.
--------------------------------
Printing EDA Options
--------------------------------
eda_child_super_basis      0
fragmo_guess_mode          0
child_mp                   1
child_mp_orders            232
cls_elec                   1
cls_disp                   0
scfmi_mode                 1
scfmi_occs                 0
scfmi_virts                0
frz_relax                  0
frz_relax_method           0
dc_pen_start               0
dc_pen_conv                0
dc_pen_increment           0
dc_pen_steps               0
dc_pen_thresh_factor       0
dc_pen_pre_newton_thresh   0
frz_ortho_decomp           1
frz_ortho_decomp_conv      6
frgm_method                2
scfmi_freeze_ss            0
separate_rehyb             0
plot_diff_den              0
eda_nocv                   0
eda_vct_relax              1
disp_free_x                0
disp_free_c                0
eda_bsse                   0
eda_pct_a                  0
eda_covp                   0
--------------------------------
Attempting to make child job directory: /tmp/qchem48538//Frg1/
Attempting to make child job directory: /tmp/qchem48538//Frg2/
Creating input file /tmp/qchem48538/Frg1.input
using default PutDataFrgm: nothing
calling putenv with: QCSCRATCH=/tmp/qchem48538/ 
calling putenv with: QCLOCALSCR=/tmp/qchem48538/ 
Spawning Job For Fragment 0
                  Welcome to Q-Chem
     A Quantum Leap Into The Future Of Chemistry


 Q-Chem 5.2, Q-Chem, Inc., Pleasanton, CA (2019)

 License issued to: National Energy Research Scientific Computing Center

 Yihan Shao,  Zhengting Gan,  E. Epifanovsky,  A. T. B. Gilbert,  M. Wormit,  
 J. Kussmann,  A. W. Lange,  A. Behn,  Jia Deng,  Xintian Feng,  D. Ghosh,  
 M. Goldey,  P. R. Horn,  L. D. Jacobson,  I. Kaliman,  T. Kus,  A. Landau,  
 Jie Liu,  E. I. Proynov,  R. M. Richard,  R. P. Steele,  E. J. Sundstrom,  
 H. L. Woodcock III,  P. M. Zimmerman,  D. Zuev,  B. Albrecht,  E. Alguire,  
 S. A. Baeppler,  D. Barton,  Z. Benda,  Y. A. Bernard,  E. J. Berquist,  
 K. B. Bravaya,  H. Burton,  D. Casanova,  Chun-Min Chang,  Yunqing Chen,  
 A. Chien,  K. D. Closser,  M. P. Coons,  S. Coriani,  S. Dasgupta,  
 A. L. Dempwolff,  M. Diedenhofen,  Hainam Do,  R. G. Edgar,  Po-Tung Fang,  
 S. Faraji,  S. Fatehi,  Qingguo Feng,  K. D. Fenk,  J. Fosso-Tande,  
 J. Gayvert,  Qinghui Ge,  A. Ghysels,  G. Gidofalvi,  J. Gomes,  
 J. Gonthier,  A. Gunina,  D. Hait,  M. W. D. Hanson-Heine,  
 P. H. P. Harbach,  A. W. Hauser,  M. F. Herbst,  J. E. Herr,  
 E. G. Hohenstein,  Z. C. Holden,  Kerwin Hui,  B. C. Huynh,  T.-C. Jagau,  
 Hyunjun Ji,  B. Kaduk,  K. Khistyaev,  Jaehoon Kim,  P. Klunzinger,  K. Koh,  
 D. Kosenkov,  L. Koulias,  T. Kowalczyk,  C. M. Krauter,  A. Kunitsa,  
 Ka Un Lao,  A. Laurent,  K. V. Lawler,  Joonho Lee,  D. Lefrancois,  
 S. Lehtola,  D. S. Levine,  Yi-Pei Li,  You-Sheng Lin,  Fenglai Liu,  
 E. Livshits,  A. Luenser,  P. Manohar,  E. Mansoor,  S. F. Manzer,  
 Shan-Ping Mao,  Yuezhi Mao,  N. Mardirossian,  A. V. Marenich,  
 T. Markovich,  L. A. Martinez-Martinez,  S. A. Maurer,  N. J. Mayhall,  
 S. C. McKenzie,  J.-M. Mewes,  P. Morgante,  A. F. Morrison,  
 J. W. Mullinax,  K. Nanda,  T. S. Nguyen-Beck,  R. Olivares-Amaya,  
 J. A. Parkhill,  Zheng Pei,  T. M. Perrine,  F. Plasser,  P. Pokhilko,  
 S. Prager,  A. Prociuk,  E. Ramos,  D. R. Rehn,  F. Rob,  M. Scheurer,  
 M. Schneider,  N. Sergueev,  S. M. Sharada,  S. Sharma,  D. W. Small,  
 T. Stauch,  T. Stein,  Yu-Chuan Su,  A. J. W. Thom,  A. Tkatchenko,  
 T. Tsuchimochi,  N. M. Tubman,  L. Vogt,  M. L. Vidal,  O. Vydrov,  
 M. A. Watson,  J. Wenzel,  M. de Wergifosse,  T. A. Wesolowski,  A. White,  
 J. Witte,  A. Yamada,  Jun Yang,  K. Yao,  S. Yeganeh,  S. R. Yost,  
 Zhi-Qiang You,  A. Zech,  Igor Ying Zhang,  Xing Zhang,  Yan Zhao,  
 Ying Zhu,  B. R. Brooks,  G. K. L. Chan,  C. J. Cramer,  M. S. Gordon,  
 W. J. Hehre,  A. Klamt,  M. W. Schmidt,  C. D. Sherrill,  D. G. Truhlar,  
 A. Aspuru-Guzik,  R. Baer,  A. T. Bell,  N. A. Besley,  Jeng-Da Chai,  
 A. E. DePrince, III,  R. A. DiStasio Jr.,  A. Dreuw,  B. D. Dunietz,  
 T. R. Furlani,  Chao-Ping Hsu,  Yousung Jung,  Jing Kong,  D. S. Lambrecht,  
 WanZhen Liang,  C. Ochsenfeld,  V. A. Rassolov,  L. V. Slipchenko,  
 J. E. Subotnik,  T. Van Voorhis,  J. M. Herbert,  A. I. Krylov,  
 P. M. W. Gill,  M. Head-Gordon

 Contributors to earlier versions of Q-Chem not listed above: 
 R. D. Adamson,  B. Austin,  J. Baker,  G. J. O. Beran,  K. Brandhorst,  
 S. T. Brown,  E. F. C. Byrd,  A. K. Chakraborty,  C.-L. Cheng,  
 Siu Hung Chien,  D. M. Chipman,  D. L. Crittenden,  H. Dachsel,  
 R. J. Doerksen,  A. D. Dutoi,  L. Fusti-Molnar,  W. A. Goddard III,  
 A. Golubeva-Zadorozhnaya,  S. R. Gwaltney,  G. Hawkins,  A. Heyden,  
 S. Hirata,  G. Kedziora,  F. J. Keil,  C. Kelley,  Jihan Kim,  R. A. King,  
 R. Z. Khaliullin,  P. P. Korambath,  W. Kurlancheek,  A. M. Lee,  M. S. Lee,  
 S. V. Levchenko,  Ching Yeh Lin,  D. Liotard,  R. C. Lochan,  I. Lotan,  
 P. E. Maslen,  N. Nair,  D. P. O'Neill,  D. Neuhauser,  E. Neuscamman,  
 C. M. Oana,  R. Olson,  B. Peters,  R. Peverati,  P. A. Pieniazek,  
 Y. M. Rhee,  J. Ritchie,  M. A. Rohrdanz,  E. Rosta,  N. J. Russ,  
 H. F. Schaefer III,  N. E. Schultz,  N. Shenvi,  A. C. Simmonett,  A. Sodt,  
 D. Stuck,  K. S. Thanthiriwatte,  V. Vanovschi,  Tao Wang,  A. Warshel,  
 C. F. Williams,  Q. Wu,  X. Xu,  W. Zhang

 Please cite Q-Chem as follows:
 Y. Shao et al., Mol. Phys. 113, 184-215 (2015)
 DOI: 10.1080/00268976.2014.952696

 Q-Chem 5.2.0 for Intel X86 EM64T Linux

 Parts of Q-Chem use Armadillo 8.300.2 (Tropical Shenanigans).
 http://arma.sourceforge.net/

 Q-Chem begins on Sun Sep 26 04:32:46 2021  

Host: cori01
0

     Scratch files written to /tmp/qchem48538//Frg1//
 May1019 |scratch|qcdevops|jenkins|workspace|build_RNUM -1
Processing $rem in /global/common/cori/software/qchem/5.2/config/preferences:
	 MEM_TOTAL  96000 
NAlpha2: 50
NElect   50
Mult     1
Symmetry turned off for PCM/SM12/SMD calculation

Checking the input file for inconsistencies... 	...done.

--------------------------------------------------------------
User input:
--------------------------------------------------------------
$molecule
0 1
 6	-4.1694552980	0.1934760343	-0.0412369673
 6	-1.8814552980	1.2344760343	0.3107630327
 6	-3.1154552980	1.2264760343	-0.3432369673
 6	-0.9414552980	2.2014760343	0.0367630327
 6	-3.4144552980	2.2694760343	-1.2112369673
 6	-1.2134552980	3.2034760343	-0.8962369673
 6	-2.4574552980	3.2504760343	-1.4992369673
 1	-1.5584552980	0.4524760343	0.9607630327
 1	0.0265447020	2.1704760343	0.5187630327
 1	-4.5564552980	-0.1435239657	-1.0032369673
 1	-4.9864552980	0.6764760343	0.4937630327
 1	-4.3814552980	2.3104760343	-1.6952369673
 1	-0.4674552980	3.9534760343	-1.1232369673
 1	-2.6864552980	4.0414760343	-2.2012369673
 1	-3.8104052980	-0.6873049657	0.5113130327
$end
$rem
EDA2		1
METHOD		WB97X-V
BASIS		DEF2-TZVPD
XC_GRID		000099000590
NL_GRID		1
UNRESTRICTED		FALSE
MAX_SCF_CYCLES		200
SYMMETRY		FALSE
SYM_IGNORE		TRUE
BASIS_LIN_DEP_THRESH		6
THRESH		14
SCF_CONVERGENCE		8
SCF_PRINT_FRGM		TRUE
SOLVENT_METHOD		SMD
!required keywords
JOBTYPE		SP
SYM_IGNORE		TRUE
SUBSYSTEM		TRUE
GEN_SCFMAN		TRUE
CHILD_INSTRUCTION		2
SYM_IGNORE		TRUE
SCFMI		0
RI_K 0		
PARI_K 0		
MIN_PARI_K 0		
IARI_K 0		
OCC_RI_K 0		
PURECART		1111
MEM_STATIC		2000
MEM_TOTAL		96000
GUI		0
CHILD_MP		1
CHILD_MP_ORDERS		232
FRZ_RELAX		0
FRZ_RELAX_METHOD		0
EDA_CLS_ELEC		1
EDA_CLS_DISP		0
FRZ_ORTHO_DECOMP		1
EDA2		FALSE
FRGM_METHOD		FALSE
CIS_N_ROOTS  0
LOCAL_CIS    0
CIS_RLX_DNS  1
$end
$smx
SOLVENT			WATER
$end
--------------------------------------------------------------
 ----------------------------------------------------------------
             Standard Nuclear Orientation (Angstroms)
    I     Atom           X                Y                Z
 ----------------------------------------------------------------
    1      C      -4.1694552980     0.1934760343    -0.0412369673
    2      C      -1.8814552980     1.2344760343     0.3107630327
    3      C      -3.1154552980     1.2264760343    -0.3432369673
    4      C      -0.9414552980     2.2014760343     0.0367630327
    5      C      -3.4144552980     2.2694760343    -1.2112369673
    6      C      -1.2134552980     3.2034760343    -0.8962369673
    7      C      -2.4574552980     3.2504760343    -1.4992369673
    8      H      -1.5584552980     0.4524760343     0.9607630327
    9      H       0.0265447020     2.1704760343     0.5187630327
   10      H      -4.5564552980    -0.1435239657    -1.0032369673
   11      H      -4.9864552980     0.6764760343     0.4937630327
   12      H      -4.3814552980     2.3104760343    -1.6952369673
   13      H      -0.4674552980     3.9534760343    -1.1232369673
   14      H      -2.6864552980     4.0414760343    -2.2012369673
   15      H      -3.8104052980    -0.6873049657     0.5113130327
 ----------------------------------------------------------------
 Nuclear Repulsion Energy =         270.18726319 hartrees
 There are       25 alpha and       25 beta electrons
 Requested basis set is def2-TZVPD
 There are 131 shells and 331 basis functions

 Total QAlloc Memory Limit  96000 MB
 Mega-Array Size      1956 MB
 MEM_STATIC part      2000 MB
 
 Citation of the SMD model:
 Marenich, A.V.; Cramer, C.J.; Truhlar, D.G.
 J. Phys. Chem. B 2009, 113, 6378-6396.
 iSolventCode=           1
 Solvent: water                                                           
 
 vradii
            1           2           3           4           5           6
    1   1.8500000   1.8500000   1.8500000   1.8500000   1.8500000   1.8500000
            7           8           9          10          11          12
    1   1.8500000   1.2000000   1.2000000   1.2000000   1.2000000   1.2000000
           13          14          15
    1   1.2000000   1.2000000   1.2000000
 Changing PCM_VDW_RADII to SMD_RADIUS
 Discretize the solute cavity surface with Lebedev spheres
	Using 110 Lebedev grid points for each H atom
	Using 194 Lebedev grid points for other atoms
	Atomic van der Waals radii will be scaled by 1.20
 Remove points where switching function is < 1.0e-08
 Keep 1058 surface tesserae and discard 1180 interior tesserae
 Molecular Surface Area = 132.105 Angst**2

                       Distance Matrix (Angstroms)
             C (  1)   C (  2)   C (  3)   C (  4)   C (  5)   C (  6)
   C (  2)  2.538214
   C (  3)  1.506389  1.396616
   C (  4)  3.802385  1.376141  2.412737
   C (  5)  2.499740  2.395370  1.389487  2.770895
   C (  6)  4.304540  2.404170  2.798561  1.395879  2.411635
   C (  7)  3.794991  2.769861  2.421957  2.399574  1.400412  1.383240
   H (  8)  2.808631  1.066936  2.173417  2.072068  3.385825  3.336986
   H (  9)  4.672103  2.135374  3.392100  1.081808  3.852685  2.146372
   H ( 10)  1.090313  3.283459  2.094989  4.432702  2.677685  4.731755
   H ( 11)  1.089497  3.160044  2.122195  4.347010  2.813513  4.749038
   H ( 12)  2.694875  3.381096  2.146093  3.852961  1.082140  3.387045
   H ( 13)  5.386384  3.383595  3.880314  2.154015  3.395351  1.081917
   H ( 14)  4.655319  3.851937  3.400063  3.382199  2.156402  2.138924
   H ( 15)  1.100002  2.730258  2.208114  4.098918  3.444780  4.885031
             C (  7)   H (  8)   H (  9)   H ( 10)   H ( 11)   H ( 12)
   H (  8)  3.832572
   H (  9)  3.377718  2.378889
   H ( 10)  4.021325  3.633251  5.354901
   H ( 11)  4.122301  3.466908  5.230949  1.760201
   H ( 12)  2.150300  4.298352  4.934760  2.555700  2.797803
   H ( 13)  2.143755  4.217859  2.473720  5.789623  5.811607  4.283226
   H ( 14)  1.082093  4.914423  4.273103  4.737756  4.886333  2.474959
   H ( 15)  4.623733  2.563666  4.784261  1.773739  1.800916  3.765853
             H ( 13)   H ( 14)
   H ( 14)  2.468560
   H ( 15)  5.948438  5.566198
 
 A cutoff of  1.0D-14 yielded   8365 shell pairs
 There are     54511 function pairs (     69467 Cartesian)
 Smallest overlap matrix eigenvalue = 5.82E-07
 Linear dependence detected in AO basis
 Tighter screening thresholds may be required for diffuse basis sets
 Use S2THRESH > 14 and THRESH = 14 in case of SCF convergence issues
 Number of orthogonalized atomic orbitals = 330
 Maximum deviation from orthogonality = 1.070E-10

 Scale SEOQF with 1.000000e-01/1.000000e-01/1.000000e-01

 Standard Electronic Orientation quadrupole field applied
 Nucleus-field energy     =     0.0000000274 hartrees
 Guess from superposition of atomic densities
 Warning:  Energy on first SCF cycle will be non-variational
 SAD guess density has 49.913408 electrons

 -----------------------------------------------------------------------
  General SCF calculation program by
  Eric Jon Sundstrom, Paul Horn, Yuezhi Mao, Dmitri Zuev, Alec White,
  David Stuck, Shaama M.S., Shane Yost, Joonho Lee, David Small,
  Daniel Levine, Susi Lehtola, Hugh Burton, Evgeny Epifanovsky
 -----------------------------------------------------------------------
 Exchange:     0.1670 Hartree-Fock + 1.0000 wB97X-V + LR-HF
 Correlation:  1.0000 wB97X-V
 Using Euler-Maclaurin-Lebedev (99,590) quadrature formula
 Nonlocal Correlation:  VV10 with C = 0.0100 and b = 6.00 and scale = 1.00000
 Grid used for NLC:  SG-1 standard quadrature
Energy prior to optimization (guess energy) = -271.516868343824
Begin Timing: Total SCF Calculation
begin iterations for algorithm: DIIS         
the SCF tolerance is set to 1.00e-08
    1    -271.5168683438      1.98e-03     00000 
    2    -271.5582853339      1.29e-03     00000 
    3    -271.5826384879      1.56e-04     00000 
    4    -271.5833278294      4.79e-05     00000 
    5    -271.5833796184      2.28e-05     00000 
    6    -271.5833882901      5.62e-06     00000 
    7    -271.5833890504      1.97e-06     00000 
    8    -271.5833891174      3.98e-07     00000 
    9    -271.5833891227      9.40e-08     00000 
   10    -271.5833891230      3.23e-08     00000 
   11    -271.5833891230      1.54e-08     00000 
   12    -271.5833891230      4.02e-09     00000 Convergence criterion met
Timing for Total SCF: 1408.00s (wall), 2797.77s (cpu)
(3)  G-ENP(liq) elect-nuc-pol free energy of system     -271.583389123 a.u.
(4)  G-CDS(liq) cavity-dispersion-solvent structure 
     free energy                                                3.1635 kcal/mol
(6)  G-S(liq) free energy of system                     -271.578347693 a.u.
E_pcm = -0.0073768732
E_cds = 0.0050414304
Multipole orders to be included
        2
        3
computing dipole RHS
computing quadrupole RHS
total number of RHS in solve_reponses: 8
RHS batch sizes
        8
Beginning Block Conjugate Gradient Iterations. Batch Number: 0
computing hessian-vector products by finite difference
              1      6.12e-01     00000 Conjugate Gradient Iteration
computing hessian-vector products by finite difference
              2      1.85e-01     00000 Conjugate Gradient Iteration
computing hessian-vector products by finite difference
              3      4.35e-02     00000 Conjugate Gradient Iteration
computing hessian-vector products by finite difference
              4      1.08e-02     00000 Conjugate Gradient Iteration
computing hessian-vector products by finite difference
              5      2.39e-03     00000 Conjugate Gradient Iteration
computing hessian-vector products by finite difference
              6      7.39e-04     00000 Conjugate Gradient Iteration
computing hessian-vector products by finite difference
              7      1.43e-04     00000 Conjugate Gradient Iteration
computing hessian-vector products by finite difference
              8      2.32e-05     00000 Conjugate Gradient Iteration
computing hessian-vector products by finite difference
              9      3.82e-06     00000 Conjugate Gradient Iteration
computing hessian-vector products by finite difference
             10      5.35e-07     00000 Conjugate Gradient Iteration
computing hessian-vector products by finite difference
             11      8.13e-08     00000 Conjugate Gradient Iteration
computing hessian-vector products by finite difference
             12      1.21e-08     00000 Conjugate Gradient Iteration
computing hessian-vector products by finite difference
             13      2.31e-09     00000 CG Converged
batch 0 complete
Done Calculating Responses
TESTING ORTHOGONALIZATION OF MULTIPOLE BASIS
Multipole virts passed orthogonality test
Virts Per Order
           75
          125
 
 --------------------------------------------------------------
 
                    Orbital Energies (a.u.)
 --------------------------------------------------------------
 
 Alpha MOs
 -- Occupied --
-10.2783 -10.2678 -10.2649 -10.2642 -10.2634 -10.2606 -10.2541  -0.9941
 -0.9019  -0.8754  -0.8075  -0.7234  -0.7018  -0.6240  -0.5688  -0.5596
 -0.5304  -0.5234  -0.5081  -0.4819  -0.4692  -0.4349  -0.4338  -0.3467
 -0.3336
 -- Virtual --
  0.0664   0.0683   0.0744   0.0846   0.0899   0.1095   0.1155   0.1181
  0.1413   0.1558   0.1698   0.1742   0.1880   0.1954   0.1995   0.2090
  0.2283   0.2317   0.2411   0.2455   0.2496   0.2611   0.2659   0.2784
  0.2808   0.2870   0.2928   0.2973   0.2998   0.3069   0.3095   0.3194
  0.3245   0.3294   0.3350   0.3455   0.3512   0.3593   0.3730   0.3777
  0.3788   0.3866   0.3918   0.3960   0.3981   0.4010   0.4069   0.4073
  0.4206   0.4328   0.4363   0.4434   0.4460   0.4527   0.4564   0.4617
  0.4677   0.4743   0.4844   0.4889   0.4913   0.5048   0.5145   0.5181
  0.5234   0.5310   0.5356   0.5457   0.5505   0.5554   0.5620   0.5689
  0.5768   0.5837   0.5880   0.6010   0.6032   0.6278   0.6374   0.6442
  0.6684   0.6755   0.6812   0.6863   0.6957   0.7121   0.7226   0.7259
  0.7298   0.7343   0.7470   0.7659   0.7701   0.7725   0.7740   0.7886
  0.7937   0.8003   0.8025   0.8074   0.8159   0.8269   0.8318   0.8340
  0.8371   0.8440   0.8508   0.8589   0.8647   0.8726   0.8889   0.9008
  0.9232   0.9307   0.9421   0.9516   0.9622   1.0116   1.0340   1.0433
  1.0530   1.0552   1.0739   1.0765   1.0887   1.1067   1.1073   1.1482
  1.1621   1.1827   1.2605   1.2909   1.3048   1.3307   1.3567   1.3621
  1.3824   1.4441   1.4543   1.4672   1.4746   1.4837   1.5306   1.5481
  1.5991   1.6144   1.6239   1.6319   1.6777   1.6781   1.7308   1.7771
  1.7912   1.7976   1.8104   1.8141   1.8529   1.8625   1.8862   1.9095
  1.9291   1.9338   1.9519   1.9777   1.9928   2.0072   2.0188   2.0333
  2.0394   2.0443   2.0781   2.0979   2.1168   2.1377   2.1780   2.1803
  2.2074   2.2494   2.2589   2.2632   2.2989   2.3200   2.3802   2.4008
  2.4185   2.4337   2.4746   2.5220   2.5338   2.5558   2.5837   2.5941
  2.6209   2.6430   2.6653   2.6829   2.7207   2.7245   2.7826   2.7895
  2.7960   2.8174   2.8309   2.8566   2.8636   2.8968   2.9107   2.9249
  2.9393   2.9447   2.9784   2.9874   3.0051   3.0192   3.0283   3.0599
  3.0699   3.0949   3.1063   3.1663   3.1758   3.1872   3.2118   3.2250
  3.2277   3.2556   3.2845   3.2970   3.3372   3.3578   3.3747   3.3864
  3.4217   3.4352   3.4419   3.4536   3.4629   3.4735   3.4956   3.5086
  3.5180   3.5371   3.5443   3.5491   3.5626   3.5798   3.5871   3.6032
  3.6190   3.6391   3.6629   3.7054   3.7227   3.7539   3.7605   3.7967
  3.8546   3.9030   3.9465   3.9635   3.9777   3.9976   4.0401   4.0625
  4.1288   4.2109   4.2730   4.2783   4.2932   4.3176   4.3341   4.3444
  4.3734   4.3871   4.3974   4.4150   4.4318   4.4689   4.5263   4.5542
  4.6207   4.6468   4.7497   4.7917   4.8309   4.8639   4.9150   4.9551
  5.0330   5.0524   5.1668   5.2692   5.3827   5.4081   5.4897   5.5225
  5.6693   5.8494  22.5904  22.6845  22.8951  22.9164  23.0377  23.0914
 23.4350
 --------------------------------------------------------------
 
          Ground-State Mulliken Net Atomic Charges

     Atom                 Charge (a.u.)
  ----------------------------------------
      1 C                    -1.043008
      2 C                    -0.535020
      3 C                     0.794052
      4 C                    -0.538131
      5 C                    -0.335408
      6 C                    -0.515155
      7 C                    -0.534675
      8 H                     0.367378
      9 H                     0.356600
     10 H                     0.263833
     11 H                     0.244857
     12 H                     0.407203
     13 H                     0.400852
     14 H                     0.366600
     15 H                     0.300021
  ----------------------------------------
  Sum of atomic charges =     0.000000

 -----------------------------------------------------------------
                    Cartesian Multipole Moments
 -----------------------------------------------------------------
    Charge (ESU x 10^10)
                -0.0000
    Dipole Moment (Debye)
         X      -0.3954      Y      -0.3954      Z       0.0339
       Tot       0.5602
    Quadrupole Moments (Debye-Ang)
        XX     -36.3733     XY       1.9251     YY     -41.7775
        XZ       2.5042     YZ      -3.4301     ZZ     -42.7736
    Octopole Moments (Debye-Ang^2)
       XXX     283.1815    XXY     -77.1004    XYY     111.5044
       YYY    -233.6095    XXZ       8.9499    XYZ      11.2873
       YYZ       4.5252    XZZ     103.1087    YZZ     -77.2688
       ZZZ      65.2788
    Hexadecapole Moments (Debye-Ang^3)
      XXXX   -1848.7189   XXXY     459.2285   XXYY    -555.6062
      XYYY     515.0217   YYYY   -1257.3602   XXXZ    -118.4420
      XXYZ      26.6190   XYYZ     -16.2596   YYYZ     119.5708
      XXZZ    -356.5510   XYZZ     150.1851   YYZZ    -231.7282
      XZZZ    -168.3670   YZZZ     189.2837   ZZZZ    -255.3465
 -----------------------------------------------------------------
Archival summary:
1\1\nid00559\SP\ProcedureUnspecified\BasisUnspecified\78\meili\SunSep2612:32:102021SunSep2612:32:102021\0\\#,ProcedureUnspecified,BasisUnspecified,\\0,1\C\C,1,1.38949\H,2,1.08214,1,120.009\C,1,1.39662,2,118.578,3,-177.196,0\H,4,1.06694,1,123.269,2,-177.394,0\C,4,1.37614,1,120.952,2,-4.40182,0\H,6,1.08181,4,120.156,1,-177.312,0\C,6,1.39588,4,120.291,1,0.608068,0\H,8,1.08192,6,120.231,4,-178.962,0\C,8,1.38324,6,119.407,4,2.83849,0\H,10,1.08209,8,119.866,6,178.163,0\C,1,1.50639,2,119.302,3,-2.60998,0\H,12,1.0895,1,108.61,2,-65.4354,0\H,12,1.09031,1,106.464,2,50.2949,0\H,12,1.1,1,114.923,2,170.003,0\\\@

 Total job time:  28765.31s(wall), 57172.12s(cpu) 
 Sun Sep 26 12:32:12 2021

        *************************************************************
        *                                                           *
        *  Thank you very much for using Q-Chem.  Have a nice day.  *
        *                                                           *
        *************************************************************


Done Job For Fragment 0
calling putenv with: QCSCRATCH=/global/cscratch1/sd/meili 
calling putenv with: QCLOCALSCR=/tmp 
calling putenv with: QCTHREADS=32 
Creating input file /tmp/qchem48538/Frg2.input
using default PutDataFrgm: nothing
calling putenv with: QCSCRATCH=/tmp/qchem48538/ 
calling putenv with: QCLOCALSCR=/tmp/qchem48538/ 
Spawning Job For Fragment 1
                  Welcome to Q-Chem
     A Quantum Leap Into The Future Of Chemistry


 Q-Chem 5.2, Q-Chem, Inc., Pleasanton, CA (2019)

 License issued to: National Energy Research Scientific Computing Center

 Yihan Shao,  Zhengting Gan,  E. Epifanovsky,  A. T. B. Gilbert,  M. Wormit,  
 J. Kussmann,  A. W. Lange,  A. Behn,  Jia Deng,  Xintian Feng,  D. Ghosh,  
 M. Goldey,  P. R. Horn,  L. D. Jacobson,  I. Kaliman,  T. Kus,  A. Landau,  
 Jie Liu,  E. I. Proynov,  R. M. Richard,  R. P. Steele,  E. J. Sundstrom,  
 H. L. Woodcock III,  P. M. Zimmerman,  D. Zuev,  B. Albrecht,  E. Alguire,  
 S. A. Baeppler,  D. Barton,  Z. Benda,  Y. A. Bernard,  E. J. Berquist,  
 K. B. Bravaya,  H. Burton,  D. Casanova,  Chun-Min Chang,  Yunqing Chen,  
 A. Chien,  K. D. Closser,  M. P. Coons,  S. Coriani,  S. Dasgupta,  
 A. L. Dempwolff,  M. Diedenhofen,  Hainam Do,  R. G. Edgar,  Po-Tung Fang,  
 S. Faraji,  S. Fatehi,  Qingguo Feng,  K. D. Fenk,  J. Fosso-Tande,  
 J. Gayvert,  Qinghui Ge,  A. Ghysels,  G. Gidofalvi,  J. Gomes,  
 J. Gonthier,  A. Gunina,  D. Hait,  M. W. D. Hanson-Heine,  
 P. H. P. Harbach,  A. W. Hauser,  M. F. Herbst,  J. E. Herr,  
 E. G. Hohenstein,  Z. C. Holden,  Kerwin Hui,  B. C. Huynh,  T.-C. Jagau,  
 Hyunjun Ji,  B. Kaduk,  K. Khistyaev,  Jaehoon Kim,  P. Klunzinger,  K. Koh,  
 D. Kosenkov,  L. Koulias,  T. Kowalczyk,  C. M. Krauter,  A. Kunitsa,  
 Ka Un Lao,  A. Laurent,  K. V. Lawler,  Joonho Lee,  D. Lefrancois,  
 S. Lehtola,  D. S. Levine,  Yi-Pei Li,  You-Sheng Lin,  Fenglai Liu,  
 E. Livshits,  A. Luenser,  P. Manohar,  E. Mansoor,  S. F. Manzer,  
 Shan-Ping Mao,  Yuezhi Mao,  N. Mardirossian,  A. V. Marenich,  
 T. Markovich,  L. A. Martinez-Martinez,  S. A. Maurer,  N. J. Mayhall,  
 S. C. McKenzie,  J.-M. Mewes,  P. Morgante,  A. F. Morrison,  
 J. W. Mullinax,  K. Nanda,  T. S. Nguyen-Beck,  R. Olivares-Amaya,  
 J. A. Parkhill,  Zheng Pei,  T. M. Perrine,  F. Plasser,  P. Pokhilko,  
 S. Prager,  A. Prociuk,  E. Ramos,  D. R. Rehn,  F. Rob,  M. Scheurer,  
 M. Schneider,  N. Sergueev,  S. M. Sharada,  S. Sharma,  D. W. Small,  
 T. Stauch,  T. Stein,  Yu-Chuan Su,  A. J. W. Thom,  A. Tkatchenko,  
 T. Tsuchimochi,  N. M. Tubman,  L. Vogt,  M. L. Vidal,  O. Vydrov,  
 M. A. Watson,  J. Wenzel,  M. de Wergifosse,  T. A. Wesolowski,  A. White,  
 J. Witte,  A. Yamada,  Jun Yang,  K. Yao,  S. Yeganeh,  S. R. Yost,  
 Zhi-Qiang You,  A. Zech,  Igor Ying Zhang,  Xing Zhang,  Yan Zhao,  
 Ying Zhu,  B. R. Brooks,  G. K. L. Chan,  C. J. Cramer,  M. S. Gordon,  
 W. J. Hehre,  A. Klamt,  M. W. Schmidt,  C. D. Sherrill,  D. G. Truhlar,  
 A. Aspuru-Guzik,  R. Baer,  A. T. Bell,  N. A. Besley,  Jeng-Da Chai,  
 A. E. DePrince, III,  R. A. DiStasio Jr.,  A. Dreuw,  B. D. Dunietz,  
 T. R. Furlani,  Chao-Ping Hsu,  Yousung Jung,  Jing Kong,  D. S. Lambrecht,  
 WanZhen Liang,  C. Ochsenfeld,  V. A. Rassolov,  L. V. Slipchenko,  
 J. E. Subotnik,  T. Van Voorhis,  J. M. Herbert,  A. I. Krylov,  
 P. M. W. Gill,  M. Head-Gordon

 Contributors to earlier versions of Q-Chem not listed above: 
 R. D. Adamson,  B. Austin,  J. Baker,  G. J. O. Beran,  K. Brandhorst,  
 S. T. Brown,  E. F. C. Byrd,  A. K. Chakraborty,  C.-L. Cheng,  
 Siu Hung Chien,  D. M. Chipman,  D. L. Crittenden,  H. Dachsel,  
 R. J. Doerksen,  A. D. Dutoi,  L. Fusti-Molnar,  W. A. Goddard III,  
 A. Golubeva-Zadorozhnaya,  S. R. Gwaltney,  G. Hawkins,  A. Heyden,  
 S. Hirata,  G. Kedziora,  F. J. Keil,  C. Kelley,  Jihan Kim,  R. A. King,  
 R. Z. Khaliullin,  P. P. Korambath,  W. Kurlancheek,  A. M. Lee,  M. S. Lee,  
 S. V. Levchenko,  Ching Yeh Lin,  D. Liotard,  R. C. Lochan,  I. Lotan,  
 P. E. Maslen,  N. Nair,  D. P. O'Neill,  D. Neuhauser,  E. Neuscamman,  
 C. M. Oana,  R. Olson,  B. Peters,  R. Peverati,  P. A. Pieniazek,  
 Y. M. Rhee,  J. Ritchie,  M. A. Rohrdanz,  E. Rosta,  N. J. Russ,  
 H. F. Schaefer III,  N. E. Schultz,  N. Shenvi,  A. C. Simmonett,  A. Sodt,  
 D. Stuck,  K. S. Thanthiriwatte,  V. Vanovschi,  Tao Wang,  A. Warshel,  
 C. F. Williams,  Q. Wu,  X. Xu,  W. Zhang

 Please cite Q-Chem as follows:
 Y. Shao et al., Mol. Phys. 113, 184-215 (2015)
 DOI: 10.1080/00268976.2014.952696

 Q-Chem 5.2.0 for Intel X86 EM64T Linux

 Parts of Q-Chem use Armadillo 8.300.2 (Tropical Shenanigans).
 http://arma.sourceforge.net/

 Q-Chem begins on Sun Sep 26 12:32:13 2021  

Host: cori01
0

     Scratch files written to /tmp/qchem48538//Frg2//
 May1019 |scratch|qcdevops|jenkins|workspace|build_RNUM -1
Processing $rem in /global/common/cori/software/qchem/5.2/config/preferences:
	 MEM_TOTAL  96000 
NAlpha2: 50
NElect   50
Mult     1
Symmetry turned off for PCM/SM12/SMD calculation

Checking the input file for inconsistencies... 	...done.

--------------------------------------------------------------
User input:
--------------------------------------------------------------
$molecule
0 1
 6	3.9335447020	-3.6545239657	-0.4032369673
 6	1.1135447020	-1.0835239657	-0.0392369673
 6	1.9545447020	-2.1005239657	-0.6012369673
 6	1.3865447020	-0.5765239657	1.2537630327
 6	3.0695447020	-2.5615239657	0.1167630327
 6	2.4905447020	-1.0785239657	1.9537630327
 6	3.2855447020	-2.0775239657	1.4187630327
 1	0.2525447020	-0.7245239657	-0.5842369673
 1	1.7315447020	-2.4975239657	-1.5822369673
 1	0.7555447020	0.1804760343	1.6977630327
 1	2.7045447020	-0.7075239657	2.9477630327
 1	3.4385447020	-4.1115239657	-1.2612369673
 1	4.0205447020	-4.4275239657	0.3607630327
 1	4.0945447020	-2.4735239657	2.0067630327
 1	4.9390547020	-3.3307169657	-0.7099969673
$end
$rem
EDA2		1
METHOD		WB97X-V
BASIS		DEF2-TZVPD
XC_GRID		000099000590
NL_GRID		1
UNRESTRICTED		FALSE
MAX_SCF_CYCLES		200
SYMMETRY		FALSE
SYM_IGNORE		TRUE
BASIS_LIN_DEP_THRESH		6
THRESH		14
SCF_CONVERGENCE		8
SCF_PRINT_FRGM		TRUE
SOLVENT_METHOD		SMD
!required keywords
JOBTYPE		SP
SYM_IGNORE		TRUE
SUBSYSTEM		TRUE
GEN_SCFMAN		TRUE
CHILD_INSTRUCTION		2
SYM_IGNORE		TRUE
SCFMI		0
RI_K 0		
PARI_K 0		
MIN_PARI_K 0		
IARI_K 0		
OCC_RI_K 0		
PURECART		1111
MEM_STATIC		2000
MEM_TOTAL		96000
GUI		0
CHILD_MP		1
CHILD_MP_ORDERS		232
FRZ_RELAX		0
FRZ_RELAX_METHOD		0
EDA_CLS_ELEC		1
EDA_CLS_DISP		0
FRZ_ORTHO_DECOMP		1
EDA2		FALSE
FRGM_METHOD		FALSE
CIS_N_ROOTS  0
LOCAL_CIS    0
CIS_RLX_DNS  1
$end
$smx
SOLVENT			WATER
$end
--------------------------------------------------------------
 ----------------------------------------------------------------
             Standard Nuclear Orientation (Angstroms)
    I     Atom           X                Y                Z
 ----------------------------------------------------------------
    1      C       3.9335447020    -3.6545239657    -0.4032369673
    2      C       1.1135447020    -1.0835239657    -0.0392369673
    3      C       1.9545447020    -2.1005239657    -0.6012369673
    4      C       1.3865447020    -0.5765239657     1.2537630327
    5      C       3.0695447020    -2.5615239657     0.1167630327
    6      C       2.4905447020    -1.0785239657     1.9537630327
    7      C       3.2855447020    -2.0775239657     1.4187630327
    8      H       0.2525447020    -0.7245239657    -0.5842369673
    9      H       1.7315447020    -2.4975239657    -1.5822369673
   10      H       0.7555447020     0.1804760343     1.6977630327
   11      H       2.7045447020    -0.7075239657     2.9477630327
   12      H       3.4385447020    -4.1115239657    -1.2612369673
   13      H       4.0205447020    -4.4275239657     0.3607630327
   14      H       4.0945447020    -2.4735239657     2.0067630327
   15      H       4.9390547020    -3.3307169657    -0.7099969673
 ----------------------------------------------------------------
 Nuclear Repulsion Energy =         268.30388837 hartrees
 There are       25 alpha and       25 beta electrons
 Requested basis set is def2-TZVPD
 There are 131 shells and 331 basis functions

 Total QAlloc Memory Limit  96000 MB
 Mega-Array Size      1956 MB
 MEM_STATIC part      2000 MB
 
 Citation of the SMD model:
 Marenich, A.V.; Cramer, C.J.; Truhlar, D.G.
 J. Phys. Chem. B 2009, 113, 6378-6396.
 iSolventCode=           1
 Solvent: water                                                           
 
 vradii
            1           2           3           4           5           6
    1   1.8500000   1.8500000   1.8500000   1.8500000   1.8500000   1.8500000
            7           8           9          10          11          12
    1   1.8500000   1.2000000   1.2000000   1.2000000   1.2000000   1.2000000
           13          14          15
    1   1.2000000   1.2000000   1.2000000
 Changing PCM_VDW_RADII to SMD_RADIUS
 Discretize the solute cavity surface with Lebedev spheres
	Using 110 Lebedev grid points for each H atom
	Using 194 Lebedev grid points for other atoms
	Atomic van der Waals radii will be scaled by 1.20
 Remove points where switching function is < 1.0e-08
 Keep 1083 surface tesserae and discard 1155 interior tesserae
 Molecular Surface Area = 132.772 Angst**2

                       Distance Matrix (Angstroms)
             C (  1)   C (  2)   C (  3)   C (  4)   C (  5)   C (  6)
   C (  2)  3.833398
   C (  3)  2.523997  1.434369
   C (  4)  4.325152  1.415425  2.467028
   C (  5)  1.487126  2.456574  1.404019  2.839979
   C (  6)  3.778025  2.422437  2.803534  1.400293  2.430864
   C (  7)  2.495299  2.798461  2.419192  2.426196  1.405744  1.384287
   H (  8)  4.708229  1.080383  2.188714  2.164741  3.435325  3.402265
   H (  9)  2.752725  2.182239  1.081526  3.442697  2.163548  3.884963
   H ( 10)  5.405655  2.177850  3.453399  1.080901  3.920806  2.158898
   H ( 11)  4.628655  3.405118  3.885660  2.150330  3.403689  1.082346
   H ( 12)  1.090889  4.008453  2.584952  4.799183  2.106548  4.520400
   H ( 13)  1.090318  4.448931  3.257104  4.750327  2.108529  4.011776
   H ( 14)  2.688639  3.873574  3.394170  3.391000  2.151852  2.126417
   H ( 15)  1.100001  4.487128  3.229939  4.905330  2.184092  4.261830
             C (  7)   H (  8)   H (  9)   H ( 10)   H ( 11)   H ( 12)
   H (  8)  3.878364
   H (  9)  3.405483  2.515348
   H ( 10)  3.402544  2.505905  4.345418
   H ( 11)  2.133612  4.299723  4.967064  2.479848
   H ( 12)  3.367932  4.699010  2.371052  5.863057  5.462751
   H ( 13)  2.679942  5.366848  3.569267  5.803573  4.718350  1.751989
   H ( 14)  1.075658  4.953105  4.297123  4.276461  2.436460  3.713920
   H ( 15)  2.972576  5.363901  3.426826  5.968881  5.025275  1.779060
             H ( 13)   H ( 14)
   H ( 14)  2.555955
   H ( 15)  1.786945  2.971323
 
 A cutoff of  1.0D-14 yielded   8360 shell pairs
 There are     54498 function pairs (     69450 Cartesian)
 Smallest overlap matrix eigenvalue = 7.42E-07
 Linear dependence detected in AO basis
 Tighter screening thresholds may be required for diffuse basis sets
 Use S2THRESH > 14 and THRESH = 14 in case of SCF convergence issues
 Number of orthogonalized atomic orbitals = 330
 Maximum deviation from orthogonality = 9.506E-11

 Scale SEOQF with 1.000000e-01/1.000000e-01/1.000000e-01

 Standard Electronic Orientation quadrupole field applied
 Nucleus-field energy     =     0.0000000238 hartrees
 Guess from superposition of atomic densities
 Warning:  Energy on first SCF cycle will be non-variational
 SAD guess density has 49.913408 electrons

 -----------------------------------------------------------------------
  General SCF calculation program by
  Eric Jon Sundstrom, Paul Horn, Yuezhi Mao, Dmitri Zuev, Alec White,
  David Stuck, Shaama M.S., Shane Yost, Joonho Lee, David Small,
  Daniel Levine, Susi Lehtola, Hugh Burton, Evgeny Epifanovsky
 -----------------------------------------------------------------------
 Exchange:     0.1670 Hartree-Fock + 1.0000 wB97X-V + LR-HF
 Correlation:  1.0000 wB97X-V
 Using Euler-Maclaurin-Lebedev (99,590) quadrature formula
 Nonlocal Correlation:  VV10 with C = 0.0100 and b = 6.00 and scale = 1.00000
 Grid used for NLC:  SG-1 standard quadrature
Energy prior to optimization (guess energy) = -271.519127818398
Begin Timing: Total SCF Calculation
begin iterations for algorithm: DIIS         
the SCF tolerance is set to 1.00e-08
    1    -271.5191278184      1.91e-03     00000 
    2    -271.5592991833      1.24e-03     00000 
    3    -271.5818551600      1.58e-04     00000 
    4    -271.5825762132      5.47e-05     00000 
    5    -271.5826333666      2.99e-05     00000 
    6    -271.5826477918      6.01e-06     00000 
    7    -271.5826487152      2.14e-06     00000 
    8    -271.5826488056      4.28e-07     00000 
    9    -271.5826488149      1.35e-07     00000 
   10    -271.5826488163      7.95e-08     00000 
   11    -271.5826488167      3.73e-08     00000 
   12    -271.5826488168      8.41e-09     00000 Convergence criterion met
Timing for Total SCF: 1406.00s (wall), 2792.18s (cpu)
(3)  G-ENP(liq) elect-nuc-pol free energy of system     -271.582648817 a.u.
(4)  G-CDS(liq) cavity-dispersion-solvent structure 
     free energy                                                3.2249 kcal/mol
(6)  G-S(liq) free energy of system                     -271.577509567 a.u.
E_pcm = -0.0079187593
E_cds = 0.0051392500
Multipole orders to be included
        2
        3
computing dipole RHS
computing quadrupole RHS
total number of RHS in solve_reponses: 8
RHS batch sizes
        8
Beginning Block Conjugate Gradient Iterations. Batch Number: 0
computing hessian-vector products by finite difference
              1      6.18e-01     00000 Conjugate Gradient Iteration
computing hessian-vector products by finite difference
              2      1.90e-01     00000 Conjugate Gradient Iteration
computing hessian-vector products by finite difference
              3      4.62e-02     00000 Conjugate Gradient Iteration
computing hessian-vector products by finite difference
              4      1.16e-02     00000 Conjugate Gradient Iteration
computing hessian-vector products by finite difference
              5      2.68e-03     00000 Conjugate Gradient Iteration
computing hessian-vector products by finite difference
              6      7.88e-04     00000 Conjugate Gradient Iteration
computing hessian-vector products by finite difference
              7      1.60e-04     00000 Conjugate Gradient Iteration
computing hessian-vector products by finite difference
              8      2.62e-05     00000 Conjugate Gradient Iteration
computing hessian-vector products by finite difference
              9      4.16e-06     00000 Conjugate Gradient Iteration
computing hessian-vector products by finite difference
             10      5.63e-07     00000 Conjugate Gradient Iteration
computing hessian-vector products by finite difference
             11      9.35e-08     00000 Conjugate Gradient Iteration
computing hessian-vector products by finite difference
             12      1.89e-08     00000 Conjugate Gradient Iteration
computing hessian-vector products by finite difference
             13      3.97e-09     00000 CG Converged
batch 0 complete
Done Calculating Responses
TESTING ORTHOGONALIZATION OF MULTIPOLE BASIS
Multipole virts passed orthogonality test
Virts Per Order
           75
          125
 
 --------------------------------------------------------------
 
                    Orbital Energies (a.u.)
 --------------------------------------------------------------
 
 Alpha MOs
 -- Occupied --
-10.2801 -10.2764 -10.2718 -10.2703 -10.2686 -10.2642 -10.2529  -0.9879
 -0.9022  -0.8705  -0.8067  -0.7242  -0.6987  -0.6218  -0.5659  -0.5638
 -0.5298  -0.5215  -0.5106  -0.4784  -0.4658  -0.4382  -0.4339  -0.3438
 -0.3331
 -- Virtual --
  0.0622   0.0678   0.0707   0.0847   0.0899   0.1094   0.1156   0.1179
  0.1391   0.1569   0.1722   0.1774   0.1844   0.1928   0.1996   0.2080
  0.2266   0.2312   0.2358   0.2406   0.2524   0.2623   0.2642   0.2697
  0.2836   0.2858   0.2920   0.2980   0.3009   0.3029   0.3072   0.3174
  0.3219   0.3303   0.3381   0.3470   0.3526   0.3569   0.3731   0.3778
  0.3788   0.3868   0.3901   0.3934   0.3958   0.4020   0.4033   0.4084
  0.4188   0.4308   0.4345   0.4368   0.4425   0.4510   0.4560   0.4590
  0.4711   0.4766   0.4792   0.4903   0.4982   0.4991   0.5117   0.5177
  0.5216   0.5279   0.5369   0.5446   0.5486   0.5536   0.5570   0.5711
  0.5807   0.5810   0.5935   0.6017   0.6055   0.6216   0.6392   0.6497
  0.6547   0.6659   0.6722   0.6836   0.6943   0.7010   0.7215   0.7264
  0.7312   0.7392   0.7459   0.7570   0.7663   0.7696   0.7819   0.7856
  0.7904   0.7942   0.8022   0.8058   0.8114   0.8240   0.8278   0.8320
  0.8379   0.8418   0.8466   0.8572   0.8668   0.8767   0.8824   0.8992
  0.9111   0.9214   0.9337   0.9384   0.9602   1.0118   1.0223   1.0374
  1.0456   1.0596   1.0684   1.0786   1.0879   1.1020   1.1100   1.1415
  1.1648   1.1680   1.2604   1.2818   1.3083   1.3330   1.3531   1.3591
  1.3764   1.4390   1.4422   1.4607   1.4772   1.4787   1.5247   1.5324
  1.6035   1.6086   1.6155   1.6286   1.6559   1.6941   1.7374   1.7706
  1.7824   1.7935   1.8001   1.8107   1.8328   1.8601   1.8647   1.9114
  1.9198   1.9342   1.9386   1.9743   1.9889   1.9933   2.0155   2.0284
  2.0330   2.0469   2.0725   2.0918   2.1193   2.1259   2.1726   2.1854
  2.2043   2.2367   2.2529   2.2864   2.2952   2.3118   2.3835   2.3860
  2.3970   2.4228   2.4581   2.5109   2.5338   2.5566   2.5590   2.6131
  2.6290   2.6353   2.6768   2.6780   2.6930   2.7081   2.7467   2.7595
  2.7747   2.8029   2.8118   2.8455   2.8536   2.8946   2.9027   2.9180
  2.9298   2.9480   2.9632   2.9752   2.9922   3.0196   3.0340   3.0467
  3.0593   3.0857   3.1056   3.1322   3.1656   3.1902   3.1977   3.2032
  3.2355   3.2560   3.2757   3.2887   3.3405   3.3611   3.3642   3.3772
  3.4093   3.4237   3.4436   3.4526   3.4547   3.4689   3.4829   3.4860
  3.4991   3.5227   3.5376   3.5432   3.5567   3.5626   3.5781   3.6018
  3.6180   3.6348   3.6541   3.6827   3.6965   3.7413   3.7568   3.8016
  3.8497   3.8973   3.9130   3.9231   3.9390   4.0074   4.0215   4.0344
  4.1195   4.1886   4.2454   4.2539   4.2766   4.2970   4.3074   4.3217
  4.3292   4.3563   4.3693   4.3860   4.4032   4.4285   4.4728   4.5226
  4.5758   4.6259   4.7458   4.7675   4.8103   4.8535   4.9167   4.9324
  4.9970   5.0371   5.1619   5.2469   5.3205   5.3469   5.4783   5.5084
  5.6317   5.8315  22.5894  22.6979  22.8391  22.8550  22.9629  23.0400
 23.3645
 --------------------------------------------------------------
 
          Ground-State Mulliken Net Atomic Charges

     Atom                 Charge (a.u.)
  ----------------------------------------
      1 C                    -1.075269
      2 C                    -0.559231
      3 C                    -0.497414
      4 C                    -0.581184
      5 C                     0.860660
      6 C                    -0.491505
      7 C                    -0.369018
      8 H                     0.382962
      9 H                     0.363064
     10 H                     0.388755
     11 H                     0.375654
     12 H                     0.299989
     13 H                     0.264240
     14 H                     0.383702
     15 H                     0.254596
  ----------------------------------------
  Sum of atomic charges =     0.000000

 -----------------------------------------------------------------
                    Cartesian Multipole Moments
 -----------------------------------------------------------------
    Charge (ESU x 10^10)
                 0.0000
    Dipole Moment (Debye)
         X       0.3051      Y      -0.5300      Z      -0.0885
       Tot       0.6179
    Quadrupole Moments (Debye-Ang)
        XX     -38.9224     XY      -5.8805     YY     -39.8598
        XZ       1.9688     YZ       2.5859     ZZ     -39.0624
    Octopole Moments (Debye-Ang^2)
       XXX    -297.1489    XXY      54.9341    XYY     -86.0264
       YYY     234.2545    XXZ     -12.2002    XYZ      -1.2644
       YYZ     -28.0874    XZZ     -95.4787    YZZ      79.0520
       ZZZ     -57.4238
    Hexadecapole Moments (Debye-Ang^3)
      XXXX   -1820.3645   XXXY     618.9399   XXYY    -450.0845
      XYYY     667.4151   YYYY   -1255.1470   XXXZ    -120.1442
      XXYZ      -5.8183   XYYZ     -50.8600   YYYZ      58.2459
      XXZZ    -348.9491   XYZZ     228.0693   YYZZ    -271.9910
      XZZZ    -125.4591   YZZZ      50.3156   ZZZZ    -357.1385
 -----------------------------------------------------------------
Archival summary:
1\1\nid00559\SP\ProcedureUnspecified\BasisUnspecified\78\meili\SunSep2620:15:442021SunSep2620:15:442021\0\\#,ProcedureUnspecified,BasisUnspecified,\\0,1\C\C,1,1.40402\H,2,1.08153,1,120.469\C,1,1.40574,2,118.857,3,-176.477,0\H,4,1.07566,1,119.677,2,175.647,0\C,4,1.38429,1,121.211,2,-5.6055,0\H,6,1.08235,4,119.259,1,-178.072,0\C,6,1.40029,4,121.218,1,4.37619,0\H,8,1.0809,6,120.396,4,177.967,0\C,8,1.41542,6,118.706,4,-1.78744,0\H,10,1.08038,8,119.703,6,178.566,0\C,1,1.48713,2,121.594,3,-3.45402,0\H,12,1.09032,1,108.809,2,-127.03,0\H,12,1.09089,1,108.62,2,-11.028,0\H,12,1.1,1,114.345,2,110.415,0\\\@

 Total job time:  27814.02s(wall), 55262.27s(cpu) 
 Sun Sep 26 20:15:47 2021

        *************************************************************
        *                                                           *
        *  Thank you very much for using Q-Chem.  Have a nice day.  *
        *                                                           *
        *************************************************************


Done Job For Fragment 1
calling putenv with: QCSCRATCH=/global/cscratch1/sd/meili 
calling putenv with: QCLOCALSCR=/tmp 
calling putenv with: QCTHREADS=32 
Doing General SCFMI
 Exchange:     0.1670 Hartree-Fock + 1.0000 wB97X-V + LR-HF
 Correlation:  1.0000 wB97X-V
 Using Euler-Maclaurin-Lebedev (99,590) quadrature formula
 Nonlocal Correlation:  VV10 with C = 0.0100 and b = 6.00 and scale = 1.00000
 Grid used for NLC:  SG-1 standard quadrature
performing fock build before subrot guess so that all methods have access
Printing subrot_rss_gen Method Specification:
Occupied Subspace Method is 0
Virtual Subspace Method is 0
Energy of the unrelaxed supersystem initial determinant -543.152656103981
performing fock build before subrot guess so that all methods have access
Printing subrot_rss_gen Method Specification:
Occupied Subspace Method is 0
Virtual Subspace Method is 0
Energy of the unrelaxed supersystem initial determinant w/ solvent -543.167825149817
write pseudocanon occs and virts to disk
write pseudocanon orbital energies to disk
Tolerance of ortho_decomp_scf: 1.00e-06
GDM subspace size: 20
Beginning the Orthogonal Decomposition of the Initial Supersystem Wavefunction
    1    -543.1412168650      1.42e-02     ortho_decomp Preconditoned Steepest Descent
    2    -543.1420872963      3.32e-04     ortho_decomp BFGS Step
    3    -543.1420896470      2.40e-05     ortho_decomp BFGS Step
    4    -543.1420896515      9.66e-07     ortho_decomp 00000 Convergence criterion met
 Hartree-Fock
 Hartree-Fock
 Hartree-Fock
Doing General SCFMI
 Exchange:     0.1670 Hartree-Fock + 1.0000 wB97X-V + LR-HF
 Correlation:  1.0000 wB97X-V
 Using Euler-Maclaurin-Lebedev (99,590) quadrature formula
 Nonlocal Correlation:  VV10 with C = 0.0100 and b = 6.00 and scale = 1.00000
 Grid used for NLC:  SG-1 standard quadrature
performing fock build at end of subrot_r(subrot) constructor so that all methods have access
<S^2> of initial wavefunction before polarization iterations 0.0000000000
Beginning iterations for the determination of the polarized wavefunction
Energy prior to optimization (guess energy) = -543.167825149817
Begin Timing: Total SCF Calculation
begin iterations for algorithm: DIIS         
the SCF tolerance is set to 1.00e-08
    1    -543.1678251498      3.00e-05     00000 
    2    -543.1679154522      1.24e-05     00000 
    3    -543.1679264365      7.41e-06     00000 
    4    -543.1679306319      1.92e-06     00000 
    5    -543.1679311327      9.33e-07     00000 
    6    -543.1679312212      2.92e-07     00000 
    7    -543.1679312289      1.07e-07     00000 
    8    -543.1679312295      4.21e-08     00000 
    9    -543.1679312296      1.37e-08     00000 
   10    -543.1679312297      6.42e-09     00000 Convergence criterion met
write pseudocanon occs and virts to disk
write pseudocanon orbital energies to disk
Timing for Total SCF: 7424.00s (wall), 14786.30s (cpu)
<S^2> of polarized wavefunction after polarization iterations 0.0000000000
relaxing scfmi constraint to allow all rotations in the entire AO span
Doing General SCFMI
 Exchange:     0.1670 Hartree-Fock + 1.0000 wB97X-V + LR-HF
 Correlation:  1.0000 wB97X-V
 Using Euler-Maclaurin-Lebedev (99,590) quadrature formula
 Nonlocal Correlation:  VV10 with C = 0.0100 and b = 6.00 and scale = 1.00000
 Grid used for NLC:  SG-1 standard quadrature
performing fock build at end of subrot_r(subrot) constructor so that all methods have access
<S^2> of polarized wavefunction before ct-allowed iterations 0.0000000000
Beginning iterations for the determination of the CT-Allowed wavefunction
Energy prior to optimization (guess energy) = -543.167931229650
Begin Timing: Total SCF Calculation
begin iterations for algorithm: DIIS         
the SCF tolerance is set to 1.00e-08
    1    -543.1679312297      5.02e-05     00000 
    2    -543.1684238635      4.69e-06     00000 
    3    -543.1684357860      6.77e-07     00000 
    4    -543.1684361276      1.76e-07     00000 
    5    -543.1684361396      1.01e-07     00000 
    6    -543.1684361431      1.49e-08     00000 
    7    -543.1684361433      7.88e-09     00000 Convergence criterion met
write pseudocanon occs and virts to disk
write pseudocanon orbital energies to disk
Timing for Total SCF: 4960.00s (wall), 9884.13s (cpu)
<S^2> of ct_allowed wavefunction after ct-allowed iterations 0.0000000000

================================
        Results of EDA2         
================================
Basic EDA Quantities
--------------------
Fragment Energies (Ha):
1 -271.5783476926
2 -271.5775095668
--------------------
  E_prp (kJ/mol) = -0.0000
  E_sol (kJ/mol) = -0.9857
  E_frz (kJ/mol) = -5.0247
  E_pol (kJ/mol) = -0.2785
  E_vct (kJ/mol) = -1.3257
  E_int (kJ/mol) = -7.6146
--------------------


Initial Wavefunction Decomposition
--------------------
  --------------------
  Orthogonal Fragment Subspace Decomposition:
  --------------------
     E_elec   (ELEC)   (kJ/mol) = -11.2031
     E_pauli  (PAULI)  (kJ/mol) = 17.3309
     E_disp   (DISP)   (kJ/mol) = -11.1526
     --------------------
     Terms summing to E_pauli:
     --------------------
        E_kep_pauli       (kJ/mol) = 22.7178
        E_disp_free_pauli (kJ/mol) = -5.3869
  --------------------
  Classical Frozen Decomposition:
  --------------------
     E_cls_elec  (CLS ELEC)  (kJ/mol) = -4.0152
     E_cls_pauli (CLS PAULI) (kJ/mol) = -1.0095
    [E_mod_pauli (MOD PAULI) (kJ/mol) = 10.1431 (CLS PAULI - DISP from orthogonal decomposition) ]
  --------------------
--------------------

Simplified EDA Summary (kJ/mol)
--------------------
 PREPARATION     -0.0000
 SOLVATION       -0.9857
 FROZEN          6.1279      (does not include dispersion)
[PAULI           17.3309]     (if this is negligible, then frozen describes electrostatics)
 DISPERSION      -11.1526
 POLARIZATION    -0.2785
 CHARGE TRANSFER -1.3257
 TOTAL           -7.6146     (PRP + SOL + FRZ + DISP + POL + CT)
--------------------
 
 --------------------------------------------------------------
 
                    Orbital Energies (a.u.)
 --------------------------------------------------------------
 
 Alpha MOs
 -- Occupied --
-10.2800 -10.2783 -10.2762 -10.2718 -10.2702 -10.2686 -10.2677 -10.2647
-10.2642 -10.2641 -10.2634 -10.2604 -10.2541 -10.2528  -0.9940  -0.9878
 -0.9023  -0.9018  -0.8755  -0.8703  -0.8076  -0.8066  -0.7245  -0.7232
 -0.7021  -0.6984  -0.6267  -0.6193  -0.5689  -0.5659  -0.5641  -0.5594
 -0.5307  -0.5298  -0.5250  -0.5211  -0.5086  -0.5078  -0.4819  -0.4783
 -0.4692  -0.4658  -0.4385  -0.4346  -0.4341  -0.4331  -0.3465  -0.3437
 -0.3341  -0.3324
 -- Virtual --
  0.0592   0.0619   0.0666   0.0704   0.0722   0.0752   0.0825   0.0852
  0.0914   0.1019   0.1076   0.1112   0.1140   0.1200   0.1304   0.1338
  0.1418   0.1564   0.1579   0.1654   0.1687   0.1763   0.1804   0.1815
  0.1895   0.1962   0.1984   0.2012   0.2100   0.2147   0.2205   0.2249
  0.2278   0.2321   0.2376   0.2400   0.2427   0.2461   0.2528   0.2569
  0.2590   0.2639   0.2707   0.2758   0.2776   0.2791   0.2804   0.2850
  0.2882   0.2892   0.2931   0.2936   0.3006   0.3023   0.3049   0.3103
  0.3133   0.3148   0.3176   0.3266   0.3279   0.3339   0.3356   0.3393
  0.3405   0.3434   0.3503   0.3522   0.3546   0.3577   0.3599   0.3640
  0.3701   0.3743   0.3768   0.3786   0.3808   0.3822   0.3838   0.3876
  0.3916   0.3932   0.3968   0.4000   0.4020   0.4057   0.4096   0.4123
  0.4166   0.4205   0.4217   0.4243   0.4303   0.4335   0.4359   0.4396
  0.4418   0.4435   0.4502   0.4529   0.4593   0.4610   0.4633   0.4647
  0.4693   0.4754   0.4772   0.4794   0.4839   0.4886   0.4911   0.4957
  0.4977   0.5013   0.5039   0.5052   0.5075   0.5100   0.5110   0.5190
  0.5231   0.5241   0.5287   0.5318   0.5381   0.5385   0.5423   0.5466
  0.5532   0.5544   0.5601   0.5608   0.5635   0.5699   0.5726   0.5784
  0.5815   0.5881   0.5892   0.5930   0.5998   0.6023   0.6076   0.6142
  0.6200   0.6262   0.6305   0.6315   0.6403   0.6408   0.6519   0.6536
  0.6541   0.6655   0.6690   0.6716   0.6787   0.6835   0.6954   0.7002
  0.7013   0.7065   0.7079   0.7121   0.7148   0.7252   0.7309   0.7320
  0.7363   0.7387   0.7432   0.7494   0.7504   0.7526   0.7564   0.7610
  0.7653   0.7681   0.7773   0.7796   0.7830   0.7864   0.7870   0.7888
  0.7934   0.8026   0.8062   0.8074   0.8104   0.8134   0.8147   0.8192
  0.8207   0.8240   0.8266   0.8292   0.8341   0.8363   0.8406   0.8442
  0.8463   0.8496   0.8528   0.8564   0.8584   0.8647   0.8673   0.8719
  0.8793   0.8899   0.8930   0.8957   0.9031   0.9087   0.9125   0.9142
  0.9177   0.9250   0.9275   0.9331   0.9412   0.9449   0.9537   0.9555
  0.9675   0.9765   0.9863   0.9922   0.9990   1.0112   1.0221   1.0239
  1.0330   1.0377   1.0466   1.0490   1.0541   1.0616   1.0687   1.0777
  1.0824   1.0880   1.0981   1.0995   1.1122   1.1159   1.1172   1.1277
  1.1352   1.1419   1.1606   1.1643   1.1687   1.1761   1.1910   1.1979
  1.2309   1.2326   1.2583   1.2874   1.2950   1.3070   1.3161   1.3283
  1.3477   1.3575   1.3622   1.3733   1.3806   1.3894   1.3955   1.4028
  1.4218   1.4538   1.4630   1.4713   1.4731   1.4757   1.4803   1.4879
  1.5028   1.5246   1.5294   1.5422   1.5563   1.5586   1.5621   1.6125
  1.6219   1.6262   1.6374   1.6414   1.6483   1.6525   1.6650   1.6843
  1.6887   1.6967   1.7171   1.7421   1.7640   1.7734   1.7845   1.7956
  1.7991   1.8074   1.8135   1.8253   1.8302   1.8319   1.8640   1.8660
  1.8808   1.8863   1.8947   1.9064   1.9183   1.9326   1.9349   1.9408
  1.9539   1.9613   1.9642   1.9727   1.9761   1.9905   1.9990   2.0057
  2.0131   2.0266   2.0396   2.0413   2.0501   2.0580   2.0619   2.0669
  2.0748   2.0845   2.0991   2.1069   2.1122   2.1281   2.1483   2.1544
  2.1569   2.1824   2.1952   2.1976   2.2026   2.2158   2.2224   2.2384
  2.2452   2.2614   2.2656   2.2705   2.2796   2.2876   2.3020   2.3212
  2.3295   2.3381   2.3511   2.3947   2.4035   2.4076   2.4161   2.4214
  2.4369   2.4433   2.4532   2.4803   2.4846   2.5327   2.5414   2.5513
  2.5524   2.5684   2.5767   2.5826   2.6022   2.6157   2.6292   2.6348
  2.6426   2.6554   2.6723   2.6777   2.6900   2.6963   2.7057   2.7175
  2.7369   2.7409   2.7486   2.7554   2.7696   2.7863   2.7985   2.8052
  2.8100   2.8148   2.8186   2.8271   2.8431   2.8623   2.8675   2.8714
  2.8750   2.9026   2.9139   2.9180   2.9295   2.9350   2.9368   2.9499
  2.9503   2.9565   2.9655   2.9820   2.9957   2.9978   3.0106   3.0146
  3.0183   3.0274   3.0339   3.0476   3.0542   3.0696   3.0816   3.0836
  3.0907   3.0968   3.1134   3.1212   3.1300   3.1459   3.1767   3.1844
  3.1918   3.2005   3.2102   3.2191   3.2243   3.2336   3.2491   3.2556
  3.2644   3.2711   3.2750   3.2940   3.3063   3.3158   3.3248   3.3496
  3.3554   3.3674   3.3691   3.3795   3.3875   3.3989   3.4092   3.4233
  3.4360   3.4410   3.4431   3.4488   3.4545   3.4636   3.4693   3.4703
  3.4753   3.4891   3.4921   3.5021   3.5104   3.5172   3.5230   3.5297
  3.5402   3.5465   3.5551   3.5555   3.5635   3.5678   3.5686   3.5775
  3.5801   3.5910   3.5922   3.6024   3.6105   3.6153   3.6303   3.6307
  3.6350   3.6445   3.6503   3.6594   3.6852   3.6863   3.6968   3.7157
  3.7226   3.7383   3.7639   3.7665   3.7697   3.8092   3.8168   3.8559
  3.8621   3.9027   3.9139   3.9264   3.9346   3.9463   3.9575   3.9706
  3.9875   4.0033   4.0167   4.0314   4.0447   4.0534   4.0946   4.1355
  4.1460   4.2118   4.2181   4.2598   4.2611   4.2828   4.2870   4.2980
  4.3051   4.3059   4.3191   4.3246   4.3333   4.3382   4.3491   4.3558
  4.3658   4.3740   4.3831   4.3935   4.4018   4.4141   4.4169   4.4236
  4.4463   4.4592   4.4773   4.4937   4.5354   4.5445   4.5616   4.5849
  4.6310   4.6358   4.6580   4.7478   4.7558   4.7728   4.7992   4.8133
  4.8369   4.8594   4.8689   4.9218   4.9364   4.9543   4.9730   5.0326
  5.0479   5.0587   5.0610   5.1760   5.1854   5.2575   5.2805   5.3349
  5.3516   5.3919   5.4123   5.4852   5.4946   5.5077   5.5295   5.6458
  5.6811   5.8196   5.8624  22.6538  22.6873  22.6959  22.7120  22.8743
 22.8941  22.9140  22.9432  22.9705  23.0494  23.0615  23.1184  23.3736
 23.4469
 --------------------------------------------------------------
 
          Ground-State Mulliken Net Atomic Charges

     Atom                 Charge (a.u.)
  ----------------------------------------
      1 C                    -1.132302
      2 C                    -0.251155
      3 C                     0.578181
      4 C                    -0.358047
      5 C                    -0.438638
      6 C                    -0.706643
      7 C                    -0.536765
      8 H                     0.419768
      9 H                     0.364487
     10 H                     0.275559
     11 H                     0.272850
     12 H                     0.411975
     13 H                     0.415404
     14 H                     0.384928
     15 H                     0.299393
     16 C                    -1.162476
     17 C                    -0.150724
     18 C                    -0.733642
     19 C                    -0.270891
     20 C                     0.549266
     21 C                    -0.656345
     22 C                    -0.452453
     23 H                     0.488007
     24 H                     0.375972
     25 H                     0.382589
     26 H                     0.396030
     27 H                     0.299712
     28 H                     0.274908
     29 H                     0.400606
     30 H                     0.260445
  ----------------------------------------
  Sum of atomic charges =     0.000000

 -----------------------------------------------------------------
                    Cartesian Multipole Moments
 -----------------------------------------------------------------
    Charge (ESU x 10^10)
                 0.0000
    Dipole Moment (Debye)
         X      -0.0838      Y      -0.9292      Z      -0.0531
       Tot       0.9345
    Quadrupole Moments (Debye-Ang)
        XX     -75.3567     XY      -3.9286     YY     -81.7019
        XZ       4.4693     YZ      -0.8304     ZZ     -81.8799
    Octopole Moments (Debye-Ang^2)
       XXX     -13.9166    XXY     -22.2078    XYY      25.5304
       YYY       0.5305    XXZ      -3.2472    XYZ      10.0090
       YYZ     -23.5607    XZZ       7.6540    YZZ       1.7445
       ZZZ       7.8016
    Hexadecapole Moments (Debye-Ang^3)
      XXXX   -3669.7366   XXXY    1078.4519   XXYY   -1006.0189
      XYYY    1182.7502   YYYY   -2513.2905   XXXZ    -238.7460
      XXYZ      20.8880   XYYZ     -67.1563   YYYZ     177.8484
      XXZZ    -705.7075   XYZZ     378.3777   YYZZ    -503.9623
      XZZZ    -293.8358   YZZZ     239.6421   ZZZZ    -612.7966
 -----------------------------------------------------------------
Archival summary:
1\1\nid00559\SP\ProcedureUnspecified\BasisUnspecified\1416\meili\MonSep2702:44:522021MonSep2702:44:522021\0\\#,ProcedureUnspecified,BasisUnspecified,\\0,1\C\H,1,1.06694\C,1,1.37614,2,115.438\H,3,1.08181,1,120.156,2,-3.79776,0\C,3,1.39588,1,120.291,2,174.122,0\H,5,1.08192,3,120.231,1,-178.962,0\C,5,1.38324,3,119.407,1,2.83849,0\H,7,1.08209,5,119.866,3,178.163,0\C,1,1.39662,2,123.269,3,173.347,0\C,9,1.38949,1,118.578,2,-177.394,0\H,10,1.08214,9,120.009,1,-177.196,0\C,9,1.50639,1,121.888,2,8.16704,0\H,12,1.0895,9,108.61,1,108.964,0\H,12,1.09031,9,106.464,1,-135.305,0\H,12,1.1,9,114.923,1,-15.5971,0\H,4,2.4252,3,120.603,1,13.4518,0\C,16,1.0809,4,123.398,3,96.3263,0\C,17,1.40029,16,120.396,4,133.497,0\H,18,1.08235,17,119.478,16,0.420582,0\C,18,1.38429,17,121.218,16,177.967,0\H,20,1.07566,18,119.101,17,-176.869,0\C,20,1.40574,18,121.211,17,4.37619,0\C,22,1.40402,20,118.857,18,-5.6055,0\H,23,1.08153,22,120.469,20,-176.477,0\C,17,1.41542,16,120.898,4,-46.7545,0\H,25,1.08038,17,119.703,16,-1.1873,0\C,22,1.48713,20,119.186,18,-178.799,0\H,27,1.09032,22,108.809,20,45.9705,0\H,27,1.09089,22,108.62,20,161.972,0\H,27,1.1,22,114.345,20,-76.5847,0\\\@

 Total job time:  79935.89s(wall), 46511.92s(cpu) 
 Mon Sep 27 02:44:55 2021

        *************************************************************
        *                                                           *
        *  Thank you very much for using Q-Chem.  Have a nice day.  *
        *                                                           *
        *************************************************************


