
Running Job 1 of 1 SSI-040PHE-133PHE-1_SMD_TZVPD.in
qchem SSI-040PHE-133PHE-1_SMD_TZVPD.in_47930.0 /tmp/qchem47930/ 0
/global/common/cori/software/qchem/5.2/exe/qcprog.exe_s SSI-040PHE-133PHE-1_SMD_TZVPD.in_47930.0 /tmp/qchem47930/
                  Welcome to Q-Chem
     A Quantum Leap Into The Future Of Chemistry


 Q-Chem 5.2, Q-Chem, Inc., Pleasanton, CA (2019)

 License issued to: National Energy Research Scientific Computing Center

 Yihan Shao,  Zhengting Gan,  E. Epifanovsky,  A. T. B. Gilbert,  M. Wormit,  
 J. Kussmann,  A. W. Lange,  A. Behn,  Jia Deng,  Xintian Feng,  D. Ghosh,  
 M. Goldey,  P. R. Horn,  L. D. Jacobson,  I. Kaliman,  T. Kus,  A. Landau,  
 Jie Liu,  E. I. Proynov,  R. M. Richard,  R. P. Steele,  E. J. Sundstrom,  
 H. L. Woodcock III,  P. M. Zimmerman,  D. Zuev,  B. Albrecht,  E. Alguire,  
 S. A. Baeppler,  D. Barton,  Z. Benda,  Y. A. Bernard,  E. J. Berquist,  
 K. B. Bravaya,  H. Burton,  D. Casanova,  Chun-Min Chang,  Yunqing Chen,  
 A. Chien,  K. D. Closser,  M. P. Coons,  S. Coriani,  S. Dasgupta,  
 A. L. Dempwolff,  M. Diedenhofen,  Hainam Do,  R. G. Edgar,  Po-Tung Fang,  
 S. Faraji,  S. Fatehi,  Qingguo Feng,  K. D. Fenk,  J. Fosso-Tande,  
 J. Gayvert,  Qinghui Ge,  A. Ghysels,  G. Gidofalvi,  J. Gomes,  
 J. Gonthier,  A. Gunina,  D. Hait,  M. W. D. Hanson-Heine,  
 P. H. P. Harbach,  A. W. Hauser,  M. F. Herbst,  J. E. Herr,  
 E. G. Hohenstein,  Z. C. Holden,  Kerwin Hui,  B. C. Huynh,  T.-C. Jagau,  
 Hyunjun Ji,  B. Kaduk,  K. Khistyaev,  Jaehoon Kim,  P. Klunzinger,  K. Koh,  
 D. Kosenkov,  L. Koulias,  T. Kowalczyk,  C. M. Krauter,  A. Kunitsa,  
 Ka Un Lao,  A. Laurent,  K. V. Lawler,  Joonho Lee,  D. Lefrancois,  
 S. Lehtola,  D. S. Levine,  Yi-Pei Li,  You-Sheng Lin,  Fenglai Liu,  
 E. Livshits,  A. Luenser,  P. Manohar,  E. Mansoor,  S. F. Manzer,  
 Shan-Ping Mao,  Yuezhi Mao,  N. Mardirossian,  A. V. Marenich,  
 T. Markovich,  L. A. Martinez-Martinez,  S. A. Maurer,  N. J. Mayhall,  
 S. C. McKenzie,  J.-M. Mewes,  P. Morgante,  A. F. Morrison,  
 J. W. Mullinax,  K. Nanda,  T. S. Nguyen-Beck,  R. Olivares-Amaya,  
 J. A. Parkhill,  Zheng Pei,  T. M. Perrine,  F. Plasser,  P. Pokhilko,  
 S. Prager,  A. Prociuk,  E. Ramos,  D. R. Rehn,  F. Rob,  M. Scheurer,  
 M. Schneider,  N. Sergueev,  S. M. Sharada,  S. Sharma,  D. W. Small,  
 T. Stauch,  T. Stein,  Yu-Chuan Su,  A. J. W. Thom,  A. Tkatchenko,  
 T. Tsuchimochi,  N. M. Tubman,  L. Vogt,  M. L. Vidal,  O. Vydrov,  
 M. A. Watson,  J. Wenzel,  M. de Wergifosse,  T. A. Wesolowski,  A. White,  
 J. Witte,  A. Yamada,  Jun Yang,  K. Yao,  S. Yeganeh,  S. R. Yost,  
 Zhi-Qiang You,  A. Zech,  Igor Ying Zhang,  Xing Zhang,  Yan Zhao,  
 Ying Zhu,  B. R. Brooks,  G. K. L. Chan,  C. J. Cramer,  M. S. Gordon,  
 W. J. Hehre,  A. Klamt,  M. W. Schmidt,  C. D. Sherrill,  D. G. Truhlar,  
 A. Aspuru-Guzik,  R. Baer,  A. T. Bell,  N. A. Besley,  Jeng-Da Chai,  
 A. E. DePrince, III,  R. A. DiStasio Jr.,  A. Dreuw,  B. D. Dunietz,  
 T. R. Furlani,  Chao-Ping Hsu,  Yousung Jung,  Jing Kong,  D. S. Lambrecht,  
 WanZhen Liang,  C. Ochsenfeld,  V. A. Rassolov,  L. V. Slipchenko,  
 J. E. Subotnik,  T. Van Voorhis,  J. M. Herbert,  A. I. Krylov,  
 P. M. W. Gill,  M. Head-Gordon

 Contributors to earlier versions of Q-Chem not listed above: 
 R. D. Adamson,  B. Austin,  J. Baker,  G. J. O. Beran,  K. Brandhorst,  
 S. T. Brown,  E. F. C. Byrd,  A. K. Chakraborty,  C.-L. Cheng,  
 Siu Hung Chien,  D. M. Chipman,  D. L. Crittenden,  H. Dachsel,  
 R. J. Doerksen,  A. D. Dutoi,  L. Fusti-Molnar,  W. A. Goddard III,  
 A. Golubeva-Zadorozhnaya,  S. R. Gwaltney,  G. Hawkins,  A. Heyden,  
 S. Hirata,  G. Kedziora,  F. J. Keil,  C. Kelley,  Jihan Kim,  R. A. King,  
 R. Z. Khaliullin,  P. P. Korambath,  W. Kurlancheek,  A. M. Lee,  M. S. Lee,  
 S. V. Levchenko,  Ching Yeh Lin,  D. Liotard,  R. C. Lochan,  I. Lotan,  
 P. E. Maslen,  N. Nair,  D. P. O'Neill,  D. Neuhauser,  E. Neuscamman,  
 C. M. Oana,  R. Olson,  B. Peters,  R. Peverati,  P. A. Pieniazek,  
 Y. M. Rhee,  J. Ritchie,  M. A. Rohrdanz,  E. Rosta,  N. J. Russ,  
 H. F. Schaefer III,  N. E. Schultz,  N. Shenvi,  A. C. Simmonett,  A. Sodt,  
 D. Stuck,  K. S. Thanthiriwatte,  V. Vanovschi,  Tao Wang,  A. Warshel,  
 C. F. Williams,  Q. Wu,  X. Xu,  W. Zhang

 Please cite Q-Chem as follows:
 Y. Shao et al., Mol. Phys. 113, 184-215 (2015)
 DOI: 10.1080/00268976.2014.952696

 Q-Chem 5.2.0 for Intel X86 EM64T Linux

 Parts of Q-Chem use Armadillo 8.300.2 (Tropical Shenanigans).
 http://arma.sourceforge.net/

 Q-Chem begins on Sun Sep 26 06:39:12 2021  

Host: cori01
0

     Scratch files written to /tmp/qchem47930//
 May1019 |scratch|qcdevops|jenkins|workspace|build_RNUM -1
Processing $rem in /global/common/cori/software/qchem/5.2/config/preferences:
	 MEM_TOTAL  96000 
NAlpha2: 108
NElect   108
Mult     1
Symmetry turned off for PCM/SM12/SMD calculation

 Q-Chem warning in module libgen/rem_setup.C, line 2803:

 Neither GIA nor STOLL is specified by user. Use STOLL as the default


Checking the input file for inconsistencies... 	...done.

--------------------------------------------------------------
User input:
--------------------------------------------------------------
$comment
SSI-040PHE-133PHE-1.pdb
$end

$molecule
0 1
--
0 1
C    0.943361447994    2.161430120766   -0.689047647982
C    1.880361447994    3.340430120766   -0.956047647982
C    1.281361447994    0.913430120766   -1.469047647982
C    2.266361447994    0.033430120766   -1.014047647982
C    0.575361447994    0.602430120766   -2.634047647982
C    2.556361447994   -1.134569879234   -1.727047647982
C    0.858361447994   -0.562569879234   -3.346047647982
C    1.847361447994   -1.433569879234   -2.893047647982
H    0.979361447994    1.921430120766    0.374952352018
H   -0.082638552006    2.456430120766   -0.917047647982
H    2.892361447994    3.044430120766   -0.674047647982
H    2.810361447994    0.251430120766   -0.107047647982
H   -0.199638552006    1.266430120766   -2.990047647982
H    3.323361447994   -1.809569879234   -1.375047647982
H    0.299361447994   -0.806569879234   -4.236047647982
H    2.065361447994   -2.340569879234   -3.441047647982
H    1.571413447994    4.196440120766   -0.338151647982
H    1.899049447994    3.602780120766   -2.024140647982
--
0 1
C   -4.009638552006    0.008430120766    2.801952352018
C   -0.943638552006   -0.558569879234    0.642952352018
C   -0.056638552006   -1.132569879234    1.545952352018
C   -2.217638552006   -0.181569879234    1.056952352018
C   -2.625638552006   -0.386569879234    2.370952352018
C   -0.455638552006   -1.345569879234    2.861952352018
C   -1.739638552006   -0.972569879234    3.272952352018
H   -0.654638552006   -0.426569879234   -0.387047647982
H    0.935361447994   -1.421569879234    1.223952352018
H   -2.892638552006    0.282430120766    0.352952352018
H    0.240361447994   -1.780569879234    3.560952352018
H   -4.324638552006    0.879430120766    2.224952352018
H   -3.977638552006    0.317430120766    3.847952352018
H   -2.037638552006   -1.120569879234    4.296952352018
H   -4.756998552006   -0.790519879234    2.687305252018
$end

$rem
JOBTYPE			EDA
EDA2			1
method			wB97X-V
BASIS			def2-TZVPD
XC_GRID			000099000590
NL_GRID			1
UNRESTRICTED		FALSE
MAX_SCF_CYCLES		200
SYMMETRY		FALSE
SYM_IGNORE		TRUE
MEM_STATIC		2000
BASIS_LIN_DEP_THRESH 	6
THRESH 			14
SCF_CONVERGENCE 	8
SCF_PRINT_FRGM 		TRUE
SOLVENT_METHOD          SMD
$end

$SMX
SOLVENT			WATER
$END
--------------------------------------------------------------
 ----------------------------------------------------------------
             Standard Nuclear Orientation (Angstroms)
    I     Atom           X                Y                Z
 ----------------------------------------------------------------
    1      C       0.9433614480     2.1614301208    -0.6890476480
    2      C       1.8803614480     3.3404301208    -0.9560476480
    3      C       1.2813614480     0.9134301208    -1.4690476480
    4      C       2.2663614480     0.0334301208    -1.0140476480
    5      C       0.5753614480     0.6024301208    -2.6340476480
    6      C       2.5563614480    -1.1345698792    -1.7270476480
    7      C       0.8583614480    -0.5625698792    -3.3460476480
    8      C       1.8473614480    -1.4335698792    -2.8930476480
    9      H       0.9793614480     1.9214301208     0.3749523520
   10      H      -0.0826385520     2.4564301208    -0.9170476480
   11      H       2.8923614480     3.0444301208    -0.6740476480
   12      H       2.8103614480     0.2514301208    -0.1070476480
   13      H      -0.1996385520     1.2664301208    -2.9900476480
   14      H       3.3233614480    -1.8095698792    -1.3750476480
   15      H       0.2993614480    -0.8065698792    -4.2360476480
   16      H       2.0653614480    -2.3405698792    -3.4410476480
   17      H       1.5714134480     4.1964401208    -0.3381516480
   18      H       1.8990494480     3.6027801208    -2.0241406480
   19      C      -4.0096385520     0.0084301208     2.8019523520
   20      C      -0.9436385520    -0.5585698792     0.6429523520
   21      C      -0.0566385520    -1.1325698792     1.5459523520
   22      C      -2.2176385520    -0.1815698792     1.0569523520
   23      C      -2.6256385520    -0.3865698792     2.3709523520
   24      C      -0.4556385520    -1.3455698792     2.8619523520
   25      C      -1.7396385520    -0.9725698792     3.2729523520
   26      H      -0.6546385520    -0.4265698792    -0.3870476480
   27      H       0.9353614480    -1.4215698792     1.2239523520
   28      H      -2.8926385520     0.2824301208     0.3529523520
   29      H       0.2403614480    -1.7805698792     3.5609523520
   30      H      -4.3246385520     0.8794301208     2.2249523520
   31      H      -3.9776385520     0.3174301208     3.8479523520
   32      H      -2.0376385520    -1.1205698792     4.2969523520
   33      H      -4.7569985520    -0.7905198792     2.6873052520
 ----------------------------------------------------------------
 Nuclear Repulsion Energy =         890.62347862 hartrees
 There are       54 alpha and       54 beta electrons
 Requested basis set is def2-TZVPD
 There are 285 shells and 717 basis functions

 Total QAlloc Memory Limit  96000 MB
 Mega-Array Size      1956 MB
 MEM_STATIC part      2000 MB
 
 Citation of the SMD model:
 Marenich, A.V.; Cramer, C.J.; Truhlar, D.G.
 J. Phys. Chem. B 2009, 113, 6378-6396.
 iSolventCode=           1
 Solvent: water                                                           
 
 vradii
            1           2           3           4           5           6
    1   1.8500000   1.8500000   1.8500000   1.8500000   1.8500000   1.8500000
            7           8           9          10          11          12
    1   1.8500000   1.8500000   1.2000000   1.2000000   1.2000000   1.2000000
           13          14          15          16          17          18
    1   1.2000000   1.2000000   1.2000000   1.2000000   1.2000000   1.2000000
           19          20          21          22          23          24
    1   1.8500000   1.8500000   1.8500000   1.8500000   1.8500000   1.8500000
           25          26          27          28          29          30
    1   1.8500000   1.2000000   1.2000000   1.2000000   1.2000000   1.2000000
           31          32          33
    1   1.2000000   1.2000000   1.2000000
 Changing PCM_VDW_RADII to SMD_RADIUS
 Discretize the solute cavity surface with Lebedev spheres
	Using 110 Lebedev grid points for each H atom
	Using 194 Lebedev grid points for other atoms
	Atomic van der Waals radii will be scaled by 1.20
 Remove points where switching function is < 1.0e-08
 Keep 2338 surface tesserae and discard 2552 interior tesserae
 Molecular Surface Area = 276.314 Angst**2
 A cutoff of  1.0D-14 yielded  34631 shell pairs
 There are    220343 function pairs (    277184 Cartesian)
 Smallest overlap matrix eigenvalue = 4.27E-07
 Linear dependence detected in AO basis
 Tighter screening thresholds may be required for diffuse basis sets
 Use S2THRESH > 14 and THRESH = 14 in case of SCF convergence issues
 Number of orthogonalized atomic orbitals = 713
 Maximum deviation from orthogonality = 1.815E-10

 Scale SEOQF with 1.000000e-01/1.000000e-01/1.000000e-01

 Standard Electronic Orientation quadrupole field applied
 Nucleus-field energy     =    -0.0000000253 hartrees

 -----------------------------------------------------------------------
  General SCF calculation program by
  Eric Jon Sundstrom, Paul Horn, Yuezhi Mao, Dmitri Zuev, Alec White,
  David Stuck, Shaama M.S., Shane Yost, Joonho Lee, David Small,
  Daniel Levine, Susi Lehtola, Hugh Burton, Evgeny Epifanovsky
 -----------------------------------------------------------------------
================================================================
                 ALMO-EDA with the EDA2 driver                  
================================================================
 The second-generation ALMO-EDA (for DFT):                      
 P. R. Horn, Y. Mao and M. Head-Gordon, PCCP, 18, 23067 (2016)  
 Decomposition of the frozen energy:                            
 P. R. Horn, Y. Mao and M. Head-Gordon, JCP, 144, 114107 (2016) 
 FERF model for polarization:                                   
 P. R. Horn and M. Head-Gordon, JCP, 143, 114111 (2015)         
Using eda2 option set 1
Option set summary: Frozen orbital wavefunction, initial wavefunction decomposition, and nDQ polarization.
--------------------------------
Printing EDA Options
--------------------------------
eda_child_super_basis      0
fragmo_guess_mode          0
child_mp                   1
child_mp_orders            232
cls_elec                   1
cls_disp                   0
scfmi_mode                 1
scfmi_occs                 0
scfmi_virts                0
frz_relax                  0
frz_relax_method           0
dc_pen_start               0
dc_pen_conv                0
dc_pen_increment           0
dc_pen_steps               0
dc_pen_thresh_factor       0
dc_pen_pre_newton_thresh   0
frz_ortho_decomp           1
frz_ortho_decomp_conv      6
frgm_method                2
scfmi_freeze_ss            0
separate_rehyb             0
plot_diff_den              0
eda_nocv                   0
eda_vct_relax              1
disp_free_x                0
disp_free_c                0
eda_bsse                   0
eda_pct_a                  0
eda_covp                   0
--------------------------------
Attempting to make child job directory: /tmp/qchem47930//Frg1/
Attempting to make child job directory: /tmp/qchem47930//Frg2/
Creating input file /tmp/qchem47930/Frg1.input
using default PutDataFrgm: nothing
calling putenv with: QCSCRATCH=/tmp/qchem47930/ 
calling putenv with: QCLOCALSCR=/tmp/qchem47930/ 
Spawning Job For Fragment 0
                  Welcome to Q-Chem
     A Quantum Leap Into The Future Of Chemistry


 Q-Chem 5.2, Q-Chem, Inc., Pleasanton, CA (2019)

 License issued to: National Energy Research Scientific Computing Center

 Yihan Shao,  Zhengting Gan,  E. Epifanovsky,  A. T. B. Gilbert,  M. Wormit,  
 J. Kussmann,  A. W. Lange,  A. Behn,  Jia Deng,  Xintian Feng,  D. Ghosh,  
 M. Goldey,  P. R. Horn,  L. D. Jacobson,  I. Kaliman,  T. Kus,  A. Landau,  
 Jie Liu,  E. I. Proynov,  R. M. Richard,  R. P. Steele,  E. J. Sundstrom,  
 H. L. Woodcock III,  P. M. Zimmerman,  D. Zuev,  B. Albrecht,  E. Alguire,  
 S. A. Baeppler,  D. Barton,  Z. Benda,  Y. A. Bernard,  E. J. Berquist,  
 K. B. Bravaya,  H. Burton,  D. Casanova,  Chun-Min Chang,  Yunqing Chen,  
 A. Chien,  K. D. Closser,  M. P. Coons,  S. Coriani,  S. Dasgupta,  
 A. L. Dempwolff,  M. Diedenhofen,  Hainam Do,  R. G. Edgar,  Po-Tung Fang,  
 S. Faraji,  S. Fatehi,  Qingguo Feng,  K. D. Fenk,  J. Fosso-Tande,  
 J. Gayvert,  Qinghui Ge,  A. Ghysels,  G. Gidofalvi,  J. Gomes,  
 J. Gonthier,  A. Gunina,  D. Hait,  M. W. D. Hanson-Heine,  
 P. H. P. Harbach,  A. W. Hauser,  M. F. Herbst,  J. E. Herr,  
 E. G. Hohenstein,  Z. C. Holden,  Kerwin Hui,  B. C. Huynh,  T.-C. Jagau,  
 Hyunjun Ji,  B. Kaduk,  K. Khistyaev,  Jaehoon Kim,  P. Klunzinger,  K. Koh,  
 D. Kosenkov,  L. Koulias,  T. Kowalczyk,  C. M. Krauter,  A. Kunitsa,  
 Ka Un Lao,  A. Laurent,  K. V. Lawler,  Joonho Lee,  D. Lefrancois,  
 S. Lehtola,  D. S. Levine,  Yi-Pei Li,  You-Sheng Lin,  Fenglai Liu,  
 E. Livshits,  A. Luenser,  P. Manohar,  E. Mansoor,  S. F. Manzer,  
 Shan-Ping Mao,  Yuezhi Mao,  N. Mardirossian,  A. V. Marenich,  
 T. Markovich,  L. A. Martinez-Martinez,  S. A. Maurer,  N. J. Mayhall,  
 S. C. McKenzie,  J.-M. Mewes,  P. Morgante,  A. F. Morrison,  
 J. W. Mullinax,  K. Nanda,  T. S. Nguyen-Beck,  R. Olivares-Amaya,  
 J. A. Parkhill,  Zheng Pei,  T. M. Perrine,  F. Plasser,  P. Pokhilko,  
 S. Prager,  A. Prociuk,  E. Ramos,  D. R. Rehn,  F. Rob,  M. Scheurer,  
 M. Schneider,  N. Sergueev,  S. M. Sharada,  S. Sharma,  D. W. Small,  
 T. Stauch,  T. Stein,  Yu-Chuan Su,  A. J. W. Thom,  A. Tkatchenko,  
 T. Tsuchimochi,  N. M. Tubman,  L. Vogt,  M. L. Vidal,  O. Vydrov,  
 M. A. Watson,  J. Wenzel,  M. de Wergifosse,  T. A. Wesolowski,  A. White,  
 J. Witte,  A. Yamada,  Jun Yang,  K. Yao,  S. Yeganeh,  S. R. Yost,  
 Zhi-Qiang You,  A. Zech,  Igor Ying Zhang,  Xing Zhang,  Yan Zhao,  
 Ying Zhu,  B. R. Brooks,  G. K. L. Chan,  C. J. Cramer,  M. S. Gordon,  
 W. J. Hehre,  A. Klamt,  M. W. Schmidt,  C. D. Sherrill,  D. G. Truhlar,  
 A. Aspuru-Guzik,  R. Baer,  A. T. Bell,  N. A. Besley,  Jeng-Da Chai,  
 A. E. DePrince, III,  R. A. DiStasio Jr.,  A. Dreuw,  B. D. Dunietz,  
 T. R. Furlani,  Chao-Ping Hsu,  Yousung Jung,  Jing Kong,  D. S. Lambrecht,  
 WanZhen Liang,  C. Ochsenfeld,  V. A. Rassolov,  L. V. Slipchenko,  
 J. E. Subotnik,  T. Van Voorhis,  J. M. Herbert,  A. I. Krylov,  
 P. M. W. Gill,  M. Head-Gordon

 Contributors to earlier versions of Q-Chem not listed above: 
 R. D. Adamson,  B. Austin,  J. Baker,  G. J. O. Beran,  K. Brandhorst,  
 S. T. Brown,  E. F. C. Byrd,  A. K. Chakraborty,  C.-L. Cheng,  
 Siu Hung Chien,  D. M. Chipman,  D. L. Crittenden,  H. Dachsel,  
 R. J. Doerksen,  A. D. Dutoi,  L. Fusti-Molnar,  W. A. Goddard III,  
 A. Golubeva-Zadorozhnaya,  S. R. Gwaltney,  G. Hawkins,  A. Heyden,  
 S. Hirata,  G. Kedziora,  F. J. Keil,  C. Kelley,  Jihan Kim,  R. A. King,  
 R. Z. Khaliullin,  P. P. Korambath,  W. Kurlancheek,  A. M. Lee,  M. S. Lee,  
 S. V. Levchenko,  Ching Yeh Lin,  D. Liotard,  R. C. Lochan,  I. Lotan,  
 P. E. Maslen,  N. Nair,  D. P. O'Neill,  D. Neuhauser,  E. Neuscamman,  
 C. M. Oana,  R. Olson,  B. Peters,  R. Peverati,  P. A. Pieniazek,  
 Y. M. Rhee,  J. Ritchie,  M. A. Rohrdanz,  E. Rosta,  N. J. Russ,  
 H. F. Schaefer III,  N. E. Schultz,  N. Shenvi,  A. C. Simmonett,  A. Sodt,  
 D. Stuck,  K. S. Thanthiriwatte,  V. Vanovschi,  Tao Wang,  A. Warshel,  
 C. F. Williams,  Q. Wu,  X. Xu,  W. Zhang

 Please cite Q-Chem as follows:
 Y. Shao et al., Mol. Phys. 113, 184-215 (2015)
 DOI: 10.1080/00268976.2014.952696

 Q-Chem 5.2.0 for Intel X86 EM64T Linux

 Parts of Q-Chem use Armadillo 8.300.2 (Tropical Shenanigans).
 http://arma.sourceforge.net/

 Q-Chem begins on Sun Sep 26 06:39:20 2021  

Host: cori01
0

     Scratch files written to /tmp/qchem47930//Frg1//
 May1019 |scratch|qcdevops|jenkins|workspace|build_RNUM -1
Processing $rem in /global/common/cori/software/qchem/5.2/config/preferences:
	 MEM_TOTAL  96000 
NAlpha2: 58
NElect   58
Mult     1
Symmetry turned off for PCM/SM12/SMD calculation

Checking the input file for inconsistencies... 	...done.

--------------------------------------------------------------
User input:
--------------------------------------------------------------
$molecule
0 1
 6	0.9433614480	2.1614301208	-0.6890476480
 6	1.8803614480	3.3404301208	-0.9560476480
 6	1.2813614480	0.9134301208	-1.4690476480
 6	2.2663614480	0.0334301208	-1.0140476480
 6	0.5753614480	0.6024301208	-2.6340476480
 6	2.5563614480	-1.1345698792	-1.7270476480
 6	0.8583614480	-0.5625698792	-3.3460476480
 6	1.8473614480	-1.4335698792	-2.8930476480
 1	0.9793614480	1.9214301208	0.3749523520
 1	-0.0826385520	2.4564301208	-0.9170476480
 1	2.8923614480	3.0444301208	-0.6740476480
 1	2.8103614480	0.2514301208	-0.1070476480
 1	-0.1996385520	1.2664301208	-2.9900476480
 1	3.3233614480	-1.8095698792	-1.3750476480
 1	0.2993614480	-0.8065698792	-4.2360476480
 1	2.0653614480	-2.3405698792	-3.4410476480
 1	1.5714134480	4.1964401208	-0.3381516480
 1	1.8990494480	3.6027801208	-2.0241406480
$end
$rem
EDA2		1
METHOD		WB97X-V
BASIS		DEF2-TZVPD
XC_GRID		000099000590
NL_GRID		1
UNRESTRICTED		FALSE
MAX_SCF_CYCLES		200
SYMMETRY		FALSE
SYM_IGNORE		TRUE
BASIS_LIN_DEP_THRESH		6
THRESH		14
SCF_CONVERGENCE		8
SCF_PRINT_FRGM		TRUE
SOLVENT_METHOD		SMD
!required keywords
JOBTYPE		SP
SYM_IGNORE		TRUE
SUBSYSTEM		TRUE
GEN_SCFMAN		TRUE
CHILD_INSTRUCTION		2
SYM_IGNORE		TRUE
SCFMI		0
RI_K 0		
PARI_K 0		
MIN_PARI_K 0		
IARI_K 0		
OCC_RI_K 0		
PURECART		1111
MEM_STATIC		2000
MEM_TOTAL		96000
GUI		0
CHILD_MP		1
CHILD_MP_ORDERS		232
FRZ_RELAX		0
FRZ_RELAX_METHOD		0
EDA_CLS_ELEC		1
EDA_CLS_DISP		0
FRZ_ORTHO_DECOMP		1
EDA2		FALSE
FRGM_METHOD		FALSE
CIS_N_ROOTS  0
LOCAL_CIS    0
CIS_RLX_DNS  1
$end
$smx
SOLVENT			WATER
$end
--------------------------------------------------------------
 ----------------------------------------------------------------
             Standard Nuclear Orientation (Angstroms)
    I     Atom           X                Y                Z
 ----------------------------------------------------------------
    1      C       0.9433614480     2.1614301208    -0.6890476480
    2      C       1.8803614480     3.3404301208    -0.9560476480
    3      C       1.2813614480     0.9134301208    -1.4690476480
    4      C       2.2663614480     0.0334301208    -1.0140476480
    5      C       0.5753614480     0.6024301208    -2.6340476480
    6      C       2.5563614480    -1.1345698792    -1.7270476480
    7      C       0.8583614480    -0.5625698792    -3.3460476480
    8      C       1.8473614480    -1.4335698792    -2.8930476480
    9      H       0.9793614480     1.9214301208     0.3749523520
   10      H      -0.0826385520     2.4564301208    -0.9170476480
   11      H       2.8923614480     3.0444301208    -0.6740476480
   12      H       2.8103614480     0.2514301208    -0.1070476480
   13      H      -0.1996385520     1.2664301208    -2.9900476480
   14      H       3.3233614480    -1.8095698792    -1.3750476480
   15      H       0.2993614480    -0.8065698792    -4.2360476480
   16      H       2.0653614480    -2.3405698792    -3.4410476480
   17      H       1.5714134480     4.1964401208    -0.3381516480
   18      H       1.8990494480     3.6027801208    -2.0241406480
 ----------------------------------------------------------------
 Nuclear Repulsion Energy =         339.80731385 hartrees
 There are       29 alpha and       29 beta electrons
 Requested basis set is def2-TZVPD
 There are 154 shells and 386 basis functions

 Total QAlloc Memory Limit  96000 MB
 Mega-Array Size      1956 MB
 MEM_STATIC part      2000 MB
 
 Citation of the SMD model:
 Marenich, A.V.; Cramer, C.J.; Truhlar, D.G.
 J. Phys. Chem. B 2009, 113, 6378-6396.
 iSolventCode=           1
 Solvent: water                                                           
 
 vradii
            1           2           3           4           5           6
    1   1.8500000   1.8500000   1.8500000   1.8500000   1.8500000   1.8500000
            7           8           9          10          11          12
    1   1.8500000   1.8500000   1.2000000   1.2000000   1.2000000   1.2000000
           13          14          15          16          17          18
    1   1.2000000   1.2000000   1.2000000   1.2000000   1.2000000   1.2000000
 Changing PCM_VDW_RADII to SMD_RADIUS
 Discretize the solute cavity surface with Lebedev spheres
	Using 110 Lebedev grid points for each H atom
	Using 194 Lebedev grid points for other atoms
	Atomic van der Waals radii will be scaled by 1.20
 Remove points where switching function is < 1.0e-08
 Keep 1271 surface tesserae and discard 1381 interior tesserae
 Molecular Surface Area = 152.567 Angst**2
 A cutoff of  1.0D-14 yielded  11346 shell pairs
 There are     72664 function pairs (     92071 Cartesian)
 Smallest overlap matrix eigenvalue = 5.38E-07
 Linear dependence detected in AO basis
 Tighter screening thresholds may be required for diffuse basis sets
 Use S2THRESH > 14 and THRESH = 14 in case of SCF convergence issues
 Number of orthogonalized atomic orbitals = 385
 Maximum deviation from orthogonality = 3.462E-10

 Scale SEOQF with 1.000000e-01/1.000000e-01/1.000000e-01

 Standard Electronic Orientation quadrupole field applied
 Nucleus-field energy     =    -0.0000000075 hartrees
 Guess from superposition of atomic densities
 Warning:  Energy on first SCF cycle will be non-variational
 SAD guess density has 57.901037 electrons

 -----------------------------------------------------------------------
  General SCF calculation program by
  Eric Jon Sundstrom, Paul Horn, Yuezhi Mao, Dmitri Zuev, Alec White,
  David Stuck, Shaama M.S., Shane Yost, Joonho Lee, David Small,
  Daniel Levine, Susi Lehtola, Hugh Burton, Evgeny Epifanovsky
 -----------------------------------------------------------------------
 Exchange:     0.1670 Hartree-Fock + 1.0000 wB97X-V + LR-HF
 Correlation:  1.0000 wB97X-V
 Using Euler-Maclaurin-Lebedev (99,590) quadrature formula
 Nonlocal Correlation:  VV10 with C = 0.0100 and b = 6.00 and scale = 1.00000
 Grid used for NLC:  SG-1 standard quadrature
Energy prior to optimization (guess energy) = -310.830280955009
Begin Timing: Total SCF Calculation
begin iterations for algorithm: DIIS         
the SCF tolerance is set to 1.00e-08
    1    -310.8302809550      1.78e-03     00000 
    2    -310.8760461457      1.15e-03     00000 
    3    -310.9023464941      1.37e-04     00000 
    4    -310.9030870864      3.87e-05     00000 
    5    -310.9031351967      1.95e-05     00000 
    6    -310.9031432401      5.30e-06     00000 
    7    -310.9031440869      1.67e-06     00000 
    8    -310.9031441574      4.37e-07     00000 
    9    -310.9031441645      9.48e-08     00000 
   10    -310.9031441651      4.17e-08     00000 
   11    -310.9031441651      1.80e-08     00000 
   12    -310.9031441652      5.14e-09     00000 Convergence criterion met
Timing for Total SCF: 2207.00s (wall), 4385.05s (cpu)
(3)  G-ENP(liq) elect-nuc-pol free energy of system     -310.903144165 a.u.
(4)  G-CDS(liq) cavity-dispersion-solvent structure 
     free energy                                                3.5152 kcal/mol
(6)  G-S(liq) free energy of system                     -310.897542345 a.u.
E_pcm = -0.0078963676
E_cds = 0.0056018197
Multipole orders to be included
        2
        3
computing dipole RHS
computing quadrupole RHS
total number of RHS in solve_reponses: 8
RHS batch sizes
        8
Beginning Block Conjugate Gradient Iterations. Batch Number: 0
computing hessian-vector products by finite difference
              1      5.73e-01     00000 Conjugate Gradient Iteration
computing hessian-vector products by finite difference
              2      1.70e-01     00000 Conjugate Gradient Iteration
computing hessian-vector products by finite difference
              3      4.39e-02     00000 Conjugate Gradient Iteration
computing hessian-vector products by finite difference
              4      1.17e-02     00000 Conjugate Gradient Iteration
computing hessian-vector products by finite difference
              5      2.46e-03     00000 Conjugate Gradient Iteration
computing hessian-vector products by finite difference
              6      5.28e-04     00000 Conjugate Gradient Iteration
computing hessian-vector products by finite difference
              7      1.38e-04     00000 Conjugate Gradient Iteration
computing hessian-vector products by finite difference
              8      2.51e-05     00000 Conjugate Gradient Iteration
computing hessian-vector products by finite difference
              9      4.04e-06     00000 Conjugate Gradient Iteration
computing hessian-vector products by finite difference
             10      6.25e-07     00000 Conjugate Gradient Iteration
computing hessian-vector products by finite difference
             11      8.55e-08     00000 Conjugate Gradient Iteration
computing hessian-vector products by finite difference
             12      1.22e-08     00000 Conjugate Gradient Iteration
computing hessian-vector products by finite difference
             13      2.98e-09     00000 CG Converged
batch 0 complete
Done Calculating Responses
TESTING ORTHOGONALIZATION OF MULTIPOLE BASIS
Multipole virts passed orthogonality test
Virts Per Order
           87
          145
 
 --------------------------------------------------------------
 
                    Orbital Energies (a.u.)
 --------------------------------------------------------------
 
 Alpha MOs
 -- Occupied --
-10.2757 -10.2695 -10.2682 -10.2663 -10.2661 -10.2653 -10.2586 -10.2508
 -0.9924  -0.9157  -0.8737  -0.8482  -0.7507  -0.7251  -0.6914  -0.6230
 -0.5753  -0.5660  -0.5351  -0.5275  -0.5179  -0.5006  -0.4756  -0.4569
 -0.4475  -0.4272  -0.4230  -0.3456  -0.3344
 -- Virtual --
  0.0644   0.0673   0.0719   0.0869   0.0890   0.0959   0.1098   0.1144
  0.1183   0.1372   0.1631   0.1703   0.1727   0.1773   0.1918   0.1944
  0.1993   0.2053   0.2189   0.2212   0.2280   0.2377   0.2465   0.2578
  0.2693   0.2721   0.2742   0.2778   0.2828   0.2886   0.2933   0.2984
  0.3011   0.3046   0.3086   0.3136   0.3242   0.3322   0.3360   0.3393
  0.3520   0.3557   0.3564   0.3596   0.3676   0.3710   0.3768   0.3797
  0.3854   0.3904   0.3949   0.3985   0.4043   0.4105   0.4176   0.4251
  0.4287   0.4375   0.4407   0.4436   0.4492   0.4587   0.4601   0.4660
  0.4684   0.4742   0.4799   0.4874   0.4926   0.4951   0.5010   0.5063
  0.5166   0.5240   0.5279   0.5315   0.5355   0.5423   0.5462   0.5509
  0.5568   0.5612   0.5728   0.5803   0.5874   0.5940   0.5981   0.6118
  0.6198   0.6256   0.6386   0.6459   0.6533   0.6634   0.6734   0.6769
  0.6849   0.6949   0.7095   0.7116   0.7203   0.7264   0.7277   0.7313
  0.7396   0.7551   0.7590   0.7638   0.7710   0.7755   0.7874   0.7879
  0.7969   0.7986   0.8032   0.8044   0.8116   0.8163   0.8228   0.8248
  0.8314   0.8420   0.8463   0.8514   0.8535   0.8586   0.8708   0.8789
  0.8900   0.8954   0.9155   0.9215   0.9380   0.9432   0.9595   0.9747
  1.0074   1.0170   1.0283   1.0492   1.0552   1.0692   1.0832   1.0880
  1.0972   1.1075   1.1123   1.1227   1.1658   1.1811   1.2012   1.2139
  1.2274   1.2920   1.3062   1.3219   1.3403   1.3666   1.3843   1.4036
  1.4154   1.4273   1.4482   1.4643   1.4810   1.4976   1.5231   1.5339
  1.5605   1.5763   1.6283   1.6321   1.6409   1.6583   1.6900   1.7389
  1.7707   1.7938   1.8032   1.8128   1.8263   1.8363   1.8463   1.8871
  1.9026   1.9114   1.9266   1.9284   1.9376   1.9588   1.9892   1.9911
  1.9991   2.0122   2.0192   2.0369   2.0404   2.0551   2.0701   2.0843
  2.0942   2.1078   2.1484   2.1526   2.1828   2.2075   2.2158   2.2270
  2.2466   2.2698   2.3017   2.3152   2.3248   2.3886   2.4034   2.4122
  2.4357   2.4751   2.5171   2.5273   2.5466   2.5595   2.5950   2.6056
  2.6143   2.6275   2.6489   2.6720   2.6937   2.6951   2.7273   2.7444
  2.7575   2.7781   2.7941   2.8081   2.8241   2.8366   2.8563   2.8706
  2.8882   2.9133   2.9192   2.9266   2.9313   2.9457   2.9649   2.9800
  2.9979   3.0112   3.0292   3.0405   3.0487   3.0634   3.0764   3.0828
  3.1147   3.1624   3.1751   3.2000   3.2161   3.2365   3.2556   3.2607
  3.3005   3.3055   3.3284   3.3483   3.3780   3.3945   3.4137   3.4150
  3.4292   3.4382   3.4640   3.4817   3.4923   3.4942   3.5026   3.5059
  3.5179   3.5275   3.5440   3.5499   3.5627   3.5683   3.5736   3.6149
  3.6277   3.6377   3.6425   3.6696   3.6887   3.7040   3.7118   3.7265
  3.7481   3.7714   3.7994   3.8365   3.8628   3.8652   3.9269   3.9602
  3.9751   3.9974   4.0443   4.0598   4.1143   4.1380   4.1853   4.1948
  4.2191   4.2753   4.2893   4.3084   4.3310   4.3429   4.3476   4.3730
  4.3900   4.3988   4.4346   4.4517   4.4735   4.5028   4.5527   4.5819
  4.6505   4.6971   4.7333   4.7591   4.8147   4.8691   4.9170   4.9253
  4.9626   5.0170   5.0271   5.1183   5.1831   5.3151   5.3662   5.3842
  5.5139   5.5367   5.7050   5.8662  22.6407  22.6585  22.7911  22.8922
 22.9362  23.0184  23.0741  23.4322
 --------------------------------------------------------------
 
          Ground-State Mulliken Net Atomic Charges

     Atom                 Charge (a.u.)
  ----------------------------------------
      1 C                    -0.535723
      2 C                    -0.898315
      3 C                     0.754863
      4 C                    -0.331714
      5 C                    -0.413665
      6 C                    -0.650082
      7 C                    -0.647492
      8 C                    -0.562628
      9 H                     0.273844
     10 H                     0.293064
     11 H                     0.264562
     12 H                     0.402634
     13 H                     0.380830
     14 H                     0.378024
     15 H                     0.375969
     16 H                     0.404365
     17 H                     0.231907
     18 H                     0.279557
  ----------------------------------------
  Sum of atomic charges =     0.000000

 -----------------------------------------------------------------
                    Cartesian Multipole Moments
 -----------------------------------------------------------------
    Charge (ESU x 10^10)
                 0.0000
    Dipole Moment (Debye)
         X      -0.1409      Y       0.4356      Z       0.3675
       Tot       0.5871
    Quadrupole Moments (Debye-Ang)
        XX     -48.9814     XY      -2.8883     YY     -46.2490
        XZ       4.2460     YZ       2.0935     ZZ     -47.8646
    Octopole Moments (Debye-Ang^2)
       XXX    -225.0510    XXY     -39.2686    XYY     -71.2779
       YYY     -89.2579    XXZ      99.9495    XYZ       9.3967
       YYZ      82.4333    XZZ     -89.0357    YZZ     -38.8271
       ZZZ     255.1242
    Hexadecapole Moments (Debye-Ang^3)
      XXXX    -923.4106   XXXY    -126.9015   XXYY    -306.0501
      XYYY    -119.9550   YYYY    -970.2419   XXXZ     402.9466
      XXYZ      20.4863   XYYZ     111.4617   YYYZ      21.0131
      XXZZ    -412.9879   XYZZ     -55.6507   YYZZ    -357.0052
      XZZZ     415.8958   YZZZ      43.4140   ZZZZ   -1270.7156
 -----------------------------------------------------------------
Archival summary:
1\1\nid00565\SP\ProcedureUnspecified\BasisUnspecified\810\meili\SunSep2619:25:342021SunSep2619:25:342021\0\\#,ProcedureUnspecified,BasisUnspecified,\\0,1\C\C,1,1.39701\H,2,1.07987,1,120.105\C,1,1.39728,2,119.183,3,-179.045,0\H,4,1.08086,1,120.011,2,179.091,0\C,4,1.39437,1,120.608,2,-0.784579,0\H,6,1.07894,4,120.331,1,178.985,0\C,6,1.39355,4,120.017,1,0.400697,0\H,8,1.08189,6,120.155,4,179.694,0\C,8,1.39701,6,119.85,4,-0.188299,0\H,10,1.08066,8,119.893,6,179.992,0\C,1,1.51002,2,120.677,3,-1.28952,0\H,12,1.09133,1,108.329,2,-38.406,0\H,12,1.09164,1,109.016,2,-154.627,0\C,12,1.52948,1,114.192,2,82.7802,0\H,15,1.09146,12,108.293,1,-60.4724,0\H,15,1.1,12,109.253,1,-179.126,0\H,15,1.1,12,111.331,1,57.4373,0\\\@

 Total job time:  45977.34s(wall), 91325.03s(cpu) 
 Sun Sep 26 19:25:38 2021

        *************************************************************
        *                                                           *
        *  Thank you very much for using Q-Chem.  Have a nice day.  *
        *                                                           *
        *************************************************************


Done Job For Fragment 0
calling putenv with: QCSCRATCH=/global/cscratch1/sd/meili 
calling putenv with: QCLOCALSCR=/tmp 
calling putenv with: QCTHREADS=32 
Creating input file /tmp/qchem47930/Frg2.input
using default PutDataFrgm: nothing
calling putenv with: QCSCRATCH=/tmp/qchem47930/ 
calling putenv with: QCLOCALSCR=/tmp/qchem47930/ 
Spawning Job For Fragment 1
                  Welcome to Q-Chem
     A Quantum Leap Into The Future Of Chemistry


 Q-Chem 5.2, Q-Chem, Inc., Pleasanton, CA (2019)

 License issued to: National Energy Research Scientific Computing Center

 Yihan Shao,  Zhengting Gan,  E. Epifanovsky,  A. T. B. Gilbert,  M. Wormit,  
 J. Kussmann,  A. W. Lange,  A. Behn,  Jia Deng,  Xintian Feng,  D. Ghosh,  
 M. Goldey,  P. R. Horn,  L. D. Jacobson,  I. Kaliman,  T. Kus,  A. Landau,  
 Jie Liu,  E. I. Proynov,  R. M. Richard,  R. P. Steele,  E. J. Sundstrom,  
 H. L. Woodcock III,  P. M. Zimmerman,  D. Zuev,  B. Albrecht,  E. Alguire,  
 S. A. Baeppler,  D. Barton,  Z. Benda,  Y. A. Bernard,  E. J. Berquist,  
 K. B. Bravaya,  H. Burton,  D. Casanova,  Chun-Min Chang,  Yunqing Chen,  
 A. Chien,  K. D. Closser,  M. P. Coons,  S. Coriani,  S. Dasgupta,  
 A. L. Dempwolff,  M. Diedenhofen,  Hainam Do,  R. G. Edgar,  Po-Tung Fang,  
 S. Faraji,  S. Fatehi,  Qingguo Feng,  K. D. Fenk,  J. Fosso-Tande,  
 J. Gayvert,  Qinghui Ge,  A. Ghysels,  G. Gidofalvi,  J. Gomes,  
 J. Gonthier,  A. Gunina,  D. Hait,  M. W. D. Hanson-Heine,  
 P. H. P. Harbach,  A. W. Hauser,  M. F. Herbst,  J. E. Herr,  
 E. G. Hohenstein,  Z. C. Holden,  Kerwin Hui,  B. C. Huynh,  T.-C. Jagau,  
 Hyunjun Ji,  B. Kaduk,  K. Khistyaev,  Jaehoon Kim,  P. Klunzinger,  K. Koh,  
 D. Kosenkov,  L. Koulias,  T. Kowalczyk,  C. M. Krauter,  A. Kunitsa,  
 Ka Un Lao,  A. Laurent,  K. V. Lawler,  Joonho Lee,  D. Lefrancois,  
 S. Lehtola,  D. S. Levine,  Yi-Pei Li,  You-Sheng Lin,  Fenglai Liu,  
 E. Livshits,  A. Luenser,  P. Manohar,  E. Mansoor,  S. F. Manzer,  
 Shan-Ping Mao,  Yuezhi Mao,  N. Mardirossian,  A. V. Marenich,  
 T. Markovich,  L. A. Martinez-Martinez,  S. A. Maurer,  N. J. Mayhall,  
 S. C. McKenzie,  J.-M. Mewes,  P. Morgante,  A. F. Morrison,  
 J. W. Mullinax,  K. Nanda,  T. S. Nguyen-Beck,  R. Olivares-Amaya,  
 J. A. Parkhill,  Zheng Pei,  T. M. Perrine,  F. Plasser,  P. Pokhilko,  
 S. Prager,  A. Prociuk,  E. Ramos,  D. R. Rehn,  F. Rob,  M. Scheurer,  
 M. Schneider,  N. Sergueev,  S. M. Sharada,  S. Sharma,  D. W. Small,  
 T. Stauch,  T. Stein,  Yu-Chuan Su,  A. J. W. Thom,  A. Tkatchenko,  
 T. Tsuchimochi,  N. M. Tubman,  L. Vogt,  M. L. Vidal,  O. Vydrov,  
 M. A. Watson,  J. Wenzel,  M. de Wergifosse,  T. A. Wesolowski,  A. White,  
 J. Witte,  A. Yamada,  Jun Yang,  K. Yao,  S. Yeganeh,  S. R. Yost,  
 Zhi-Qiang You,  A. Zech,  Igor Ying Zhang,  Xing Zhang,  Yan Zhao,  
 Ying Zhu,  B. R. Brooks,  G. K. L. Chan,  C. J. Cramer,  M. S. Gordon,  
 W. J. Hehre,  A. Klamt,  M. W. Schmidt,  C. D. Sherrill,  D. G. Truhlar,  
 A. Aspuru-Guzik,  R. Baer,  A. T. Bell,  N. A. Besley,  Jeng-Da Chai,  
 A. E. DePrince, III,  R. A. DiStasio Jr.,  A. Dreuw,  B. D. Dunietz,  
 T. R. Furlani,  Chao-Ping Hsu,  Yousung Jung,  Jing Kong,  D. S. Lambrecht,  
 WanZhen Liang,  C. Ochsenfeld,  V. A. Rassolov,  L. V. Slipchenko,  
 J. E. Subotnik,  T. Van Voorhis,  J. M. Herbert,  A. I. Krylov,  
 P. M. W. Gill,  M. Head-Gordon

 Contributors to earlier versions of Q-Chem not listed above: 
 R. D. Adamson,  B. Austin,  J. Baker,  G. J. O. Beran,  K. Brandhorst,  
 S. T. Brown,  E. F. C. Byrd,  A. K. Chakraborty,  C.-L. Cheng,  
 Siu Hung Chien,  D. M. Chipman,  D. L. Crittenden,  H. Dachsel,  
 R. J. Doerksen,  A. D. Dutoi,  L. Fusti-Molnar,  W. A. Goddard III,  
 A. Golubeva-Zadorozhnaya,  S. R. Gwaltney,  G. Hawkins,  A. Heyden,  
 S. Hirata,  G. Kedziora,  F. J. Keil,  C. Kelley,  Jihan Kim,  R. A. King,  
 R. Z. Khaliullin,  P. P. Korambath,  W. Kurlancheek,  A. M. Lee,  M. S. Lee,  
 S. V. Levchenko,  Ching Yeh Lin,  D. Liotard,  R. C. Lochan,  I. Lotan,  
 P. E. Maslen,  N. Nair,  D. P. O'Neill,  D. Neuhauser,  E. Neuscamman,  
 C. M. Oana,  R. Olson,  B. Peters,  R. Peverati,  P. A. Pieniazek,  
 Y. M. Rhee,  J. Ritchie,  M. A. Rohrdanz,  E. Rosta,  N. J. Russ,  
 H. F. Schaefer III,  N. E. Schultz,  N. Shenvi,  A. C. Simmonett,  A. Sodt,  
 D. Stuck,  K. S. Thanthiriwatte,  V. Vanovschi,  Tao Wang,  A. Warshel,  
 C. F. Williams,  Q. Wu,  X. Xu,  W. Zhang

 Please cite Q-Chem as follows:
 Y. Shao et al., Mol. Phys. 113, 184-215 (2015)
 DOI: 10.1080/00268976.2014.952696

 Q-Chem 5.2.0 for Intel X86 EM64T Linux

 Parts of Q-Chem use Armadillo 8.300.2 (Tropical Shenanigans).
 http://arma.sourceforge.net/

 Q-Chem begins on Sun Sep 26 19:25:42 2021  

Host: cori01
0

     Scratch files written to /tmp/qchem47930//Frg2//
 May1019 |scratch|qcdevops|jenkins|workspace|build_RNUM -1
Processing $rem in /global/common/cori/software/qchem/5.2/config/preferences:
	 MEM_TOTAL  96000 
NAlpha2: 50
NElect   50
Mult     1
Symmetry turned off for PCM/SM12/SMD calculation

Checking the input file for inconsistencies... 	...done.

--------------------------------------------------------------
User input:
--------------------------------------------------------------
$molecule
0 1
 6	-4.0096385520	0.0084301208	2.8019523520
 6	-0.9436385520	-0.5585698792	0.6429523520
 6	-0.0566385520	-1.1325698792	1.5459523520
 6	-2.2176385520	-0.1815698792	1.0569523520
 6	-2.6256385520	-0.3865698792	2.3709523520
 6	-0.4556385520	-1.3455698792	2.8619523520
 6	-1.7396385520	-0.9725698792	3.2729523520
 1	-0.6546385520	-0.4265698792	-0.3870476480
 1	0.9353614480	-1.4215698792	1.2239523520
 1	-2.8926385520	0.2824301208	0.3529523520
 1	0.2403614480	-1.7805698792	3.5609523520
 1	-4.3246385520	0.8794301208	2.2249523520
 1	-3.9776385520	0.3174301208	3.8479523520
 1	-2.0376385520	-1.1205698792	4.2969523520
 1	-4.7569985520	-0.7905198792	2.6873052520
$end
$rem
EDA2		1
METHOD		WB97X-V
BASIS		DEF2-TZVPD
XC_GRID		000099000590
NL_GRID		1
UNRESTRICTED		FALSE
MAX_SCF_CYCLES		200
SYMMETRY		FALSE
SYM_IGNORE		TRUE
BASIS_LIN_DEP_THRESH		6
THRESH		14
SCF_CONVERGENCE		8
SCF_PRINT_FRGM		TRUE
SOLVENT_METHOD		SMD
!required keywords
JOBTYPE		SP
SYM_IGNORE		TRUE
SUBSYSTEM		TRUE
GEN_SCFMAN		TRUE
CHILD_INSTRUCTION		2
SYM_IGNORE		TRUE
SCFMI		0
RI_K 0		
PARI_K 0		
MIN_PARI_K 0		
IARI_K 0		
OCC_RI_K 0		
PURECART		1111
MEM_STATIC		2000
MEM_TOTAL		96000
GUI		0
CHILD_MP		1
CHILD_MP_ORDERS		232
FRZ_RELAX		0
FRZ_RELAX_METHOD		0
EDA_CLS_ELEC		1
EDA_CLS_DISP		0
FRZ_ORTHO_DECOMP		1
EDA2		FALSE
FRGM_METHOD		FALSE
CIS_N_ROOTS  0
LOCAL_CIS    0
CIS_RLX_DNS  1
$end
$smx
SOLVENT			WATER
$end
--------------------------------------------------------------
 ----------------------------------------------------------------
             Standard Nuclear Orientation (Angstroms)
    I     Atom           X                Y                Z
 ----------------------------------------------------------------
    1      C      -4.0096385520     0.0084301208     2.8019523520
    2      C      -0.9436385520    -0.5585698792     0.6429523520
    3      C      -0.0566385520    -1.1325698792     1.5459523520
    4      C      -2.2176385520    -0.1815698792     1.0569523520
    5      C      -2.6256385520    -0.3865698792     2.3709523520
    6      C      -0.4556385520    -1.3455698792     2.8619523520
    7      C      -1.7396385520    -0.9725698792     3.2729523520
    8      H      -0.6546385520    -0.4265698792    -0.3870476480
    9      H       0.9353614480    -1.4215698792     1.2239523520
   10      H      -2.8926385520     0.2824301208     0.3529523520
   11      H       0.2403614480    -1.7805698792     3.5609523520
   12      H      -4.3246385520     0.8794301208     2.2249523520
   13      H      -3.9776385520     0.3174301208     3.8479523520
   14      H      -2.0376385520    -1.1205698792     4.2969523520
   15      H      -4.7569985520    -0.7905198792     2.6873052520
 ----------------------------------------------------------------
 Nuclear Repulsion Energy =         269.93171191 hartrees
 There are       25 alpha and       25 beta electrons
 Requested basis set is def2-TZVPD
 There are 131 shells and 331 basis functions

 Total QAlloc Memory Limit  96000 MB
 Mega-Array Size      1956 MB
 MEM_STATIC part      2000 MB
 
 Citation of the SMD model:
 Marenich, A.V.; Cramer, C.J.; Truhlar, D.G.
 J. Phys. Chem. B 2009, 113, 6378-6396.
 iSolventCode=           1
 Solvent: water                                                           
 
 vradii
            1           2           3           4           5           6
    1   1.8500000   1.8500000   1.8500000   1.8500000   1.8500000   1.8500000
            7           8           9          10          11          12
    1   1.8500000   1.2000000   1.2000000   1.2000000   1.2000000   1.2000000
           13          14          15
    1   1.2000000   1.2000000   1.2000000
 Changing PCM_VDW_RADII to SMD_RADIUS
 Discretize the solute cavity surface with Lebedev spheres
	Using 110 Lebedev grid points for each H atom
	Using 194 Lebedev grid points for other atoms
	Atomic van der Waals radii will be scaled by 1.20
 Remove points where switching function is < 1.0e-08
 Keep 1080 surface tesserae and discard 1158 interior tesserae
 Molecular Surface Area = 132.106 Angst**2

                       Distance Matrix (Angstroms)
             C (  1)   C (  2)   C (  3)   C (  4)   C (  5)   C (  6)
   C (  2)  3.792509
   C (  3)  4.301817  1.389840
   C (  4)  2.508463  1.391618  2.411108
   C (  5)  1.502412  2.417580  2.799447  1.391073
   C (  6)  3.803660  2.404470  1.391555  2.778051  2.422739
   C (  7)  2.517360  2.778833  2.416737  2.401004  1.393555  1.398823
   H (  8)  4.649190  1.077889  2.143019  2.141992  3.390133  3.382331
   H (  9)  5.384051  2.147783  1.082252  3.392182  3.881695  2.150279
   H ( 10)  2.705617  2.142424  3.386498  1.080063  2.142702  3.858035
   H ( 11)  4.673233  3.377849  2.137367  3.855980  3.401954  1.078073
   H ( 12)  1.091236  4.000216  4.767076  2.632374  2.123835  4.508387
   H ( 13)  1.091156  4.499395  4.772415  3.337107  2.122510  4.017742
   H ( 14)  2.720009  3.855437  3.390060  3.378124  2.143356  2.147690
   H ( 15)  1.100005  4.333001  4.849028  3.078509  2.192248  4.340539
             C (  7)   H (  8)   H (  9)   H ( 10)   H ( 11)   H ( 12)
   H (  8)  3.856286
   H (  9)  3.399357  2.472538
   H ( 10)  3.380952  2.461488  4.279701
   H ( 11)  2.157825  4.268612  2.464442  4.935881
   H ( 12)  3.348198  4.690104  5.827881  2.431341  5.449745
   H ( 13)  2.646388  5.434252  5.834986  3.659710  4.719692  1.752251
   H ( 14)  1.076701  4.932969  4.286334  4.272537  2.483260  3.677438
   H ( 15)  3.079056  5.139403  5.911226  3.174313  5.168855  1.785900
             H ( 13)   H ( 14)
   H ( 14)  2.456226
   H ( 15)  1.783832  3.177234
 
 A cutoff of  1.0D-14 yielded   8359 shell pairs
 There are     54501 function pairs (     69455 Cartesian)
 Smallest overlap matrix eigenvalue = 5.60E-07
 Linear dependence detected in AO basis
 Tighter screening thresholds may be required for diffuse basis sets
 Use S2THRESH > 14 and THRESH = 14 in case of SCF convergence issues
 Number of orthogonalized atomic orbitals = 330
 Maximum deviation from orthogonality = 1.369E-10

 Scale SEOQF with 1.000000e-01/1.000000e-01/1.000000e-01

 Standard Electronic Orientation quadrupole field applied
 Nucleus-field energy     =    -0.0000000178 hartrees
 Guess from superposition of atomic densities
 Warning:  Energy on first SCF cycle will be non-variational
 SAD guess density has 49.913408 electrons

 -----------------------------------------------------------------------
  General SCF calculation program by
  Eric Jon Sundstrom, Paul Horn, Yuezhi Mao, Dmitri Zuev, Alec White,
  David Stuck, Shaama M.S., Shane Yost, Joonho Lee, David Small,
  Daniel Levine, Susi Lehtola, Hugh Burton, Evgeny Epifanovsky
 -----------------------------------------------------------------------
 Exchange:     0.1670 Hartree-Fock + 1.0000 wB97X-V + LR-HF
 Correlation:  1.0000 wB97X-V
 Using Euler-Maclaurin-Lebedev (99,590) quadrature formula
 Nonlocal Correlation:  VV10 with C = 0.0100 and b = 6.00 and scale = 1.00000
 Grid used for NLC:  SG-1 standard quadrature
Energy prior to optimization (guess energy) = -271.520095938778
Begin Timing: Total SCF Calculation
begin iterations for algorithm: DIIS         
the SCF tolerance is set to 1.00e-08
    1    -271.5200959388      1.96e-03     00000 
    2    -271.5610927458      1.28e-03     00000 
    3    -271.5849453880      1.55e-04     00000 
    4    -271.5856417260      4.62e-05     00000 
    5    -271.5856921208      2.11e-05     00000 
    6    -271.5856995842      5.35e-06     00000 
    7    -271.5857002851      1.34e-06     00000 
    8    -271.5857003212      4.63e-07     00000 
    9    -271.5857003261      8.05e-08     00000 
   10    -271.5857003264      3.30e-08     00000 
   11    -271.5857003264      1.29e-08     00000 
   12    -271.5857003264      4.84e-09     00000 Convergence criterion met
Timing for Total SCF: 1364.00s (wall), 2693.01s (cpu)
(3)  G-ENP(liq) elect-nuc-pol free energy of system     -271.585700326 a.u.
(4)  G-CDS(liq) cavity-dispersion-solvent structure 
     free energy                                                3.1711 kcal/mol
(6)  G-S(liq) free energy of system                     -271.580646922 a.u.
E_pcm = -0.0074447534
E_cds = 0.0050534048
Multipole orders to be included
        2
        3
computing dipole RHS
computing quadrupole RHS
total number of RHS in solve_reponses: 8
RHS batch sizes
        8
Beginning Block Conjugate Gradient Iterations. Batch Number: 0
computing hessian-vector products by finite difference
              1      6.26e-01     00000 Conjugate Gradient Iteration
computing hessian-vector products by finite difference
              2      1.95e-01     00000 Conjugate Gradient Iteration
computing hessian-vector products by finite difference
              3      4.62e-02     00000 Conjugate Gradient Iteration
computing hessian-vector products by finite difference
              4      1.13e-02     00000 Conjugate Gradient Iteration
computing hessian-vector products by finite difference
              5      2.16e-03     00000 Conjugate Gradient Iteration
computing hessian-vector products by finite difference
              6      6.17e-04     00000 Conjugate Gradient Iteration
computing hessian-vector products by finite difference
              7      1.71e-04     00000 Conjugate Gradient Iteration
computing hessian-vector products by finite difference
              8      2.81e-05     00000 Conjugate Gradient Iteration
computing hessian-vector products by finite difference
              9      3.62e-06     00000 Conjugate Gradient Iteration
computing hessian-vector products by finite difference
             10      6.73e-07     00000 Conjugate Gradient Iteration
computing hessian-vector products by finite difference
             11      1.15e-07     00000 Conjugate Gradient Iteration
computing hessian-vector products by finite difference
             12      2.01e-08     00000 Conjugate Gradient Iteration
computing hessian-vector products by finite difference
             13      4.04e-09     00000 CG Converged
batch 0 complete
Done Calculating Responses
TESTING ORTHOGONALIZATION OF MULTIPOLE BASIS
Multipole virts passed orthogonality test
Virts Per Order
           75
          125
 
 --------------------------------------------------------------
 
                    Orbital Energies (a.u.)
 --------------------------------------------------------------
 
 Alpha MOs
 -- Occupied --
-10.2766 -10.2684 -10.2671 -10.2650 -10.2647 -10.2634 -10.2535  -0.9932
 -0.9023  -0.8740  -0.8070  -0.7260  -0.6998  -0.6243  -0.5683  -0.5610
 -0.5293  -0.5236  -0.5087  -0.4789  -0.4696  -0.4354  -0.4349  -0.3458
 -0.3353
 -- Virtual --
  0.0666   0.0683   0.0719   0.0844   0.0899   0.1096   0.1159   0.1185
  0.1411   0.1593   0.1714   0.1734   0.1929   0.1940   0.2009   0.2076
  0.2277   0.2294   0.2403   0.2445   0.2562   0.2648   0.2665   0.2742
  0.2871   0.2875   0.2891   0.2977   0.2979   0.3067   0.3077   0.3157
  0.3223   0.3301   0.3387   0.3393   0.3553   0.3578   0.3716   0.3776
  0.3847   0.3864   0.3888   0.3934   0.3950   0.4060   0.4094   0.4141
  0.4160   0.4325   0.4345   0.4407   0.4454   0.4519   0.4556   0.4579
  0.4679   0.4745   0.4789   0.4870   0.4989   0.5012   0.5171   0.5228
  0.5231   0.5298   0.5383   0.5433   0.5457   0.5507   0.5546   0.5721
  0.5886   0.5938   0.5987   0.6061   0.6085   0.6237   0.6448   0.6513
  0.6654   0.6782   0.6874   0.6893   0.6943   0.6986   0.7243   0.7264
  0.7332   0.7350   0.7484   0.7627   0.7673   0.7712   0.7827   0.7926
  0.7944   0.7973   0.8031   0.8081   0.8114   0.8263   0.8309   0.8386
  0.8401   0.8420   0.8451   0.8580   0.8603   0.8811   0.8926   0.9008
  0.9113   0.9197   0.9372   0.9491   0.9561   1.0186   1.0244   1.0463
  1.0484   1.0625   1.0763   1.0854   1.0902   1.0982   1.1070   1.1451
  1.1694   1.1863   1.2514   1.2821   1.2979   1.3227   1.3519   1.3567
  1.3846   1.4394   1.4550   1.4631   1.4688   1.4918   1.5296   1.5432
  1.6033   1.6062   1.6207   1.6292   1.6725   1.6832   1.7433   1.7841
  1.7997   1.8022   1.8092   1.8178   1.8366   1.8746   1.8913   1.9176
  1.9248   1.9342   1.9604   1.9624   1.9882   1.9997   2.0187   2.0288
  2.0352   2.0531   2.0751   2.1032   2.1218   2.1269   2.1764   2.1799
  2.2026   2.2406   2.2454   2.2741   2.2933   2.3160   2.4005   2.4015
  2.4091   2.4120   2.4907   2.5147   2.5384   2.5551   2.5685   2.6192
  2.6206   2.6265   2.6750   2.6832   2.7031   2.7168   2.7584   2.7778
  2.7923   2.8150   2.8279   2.8521   2.8664   2.9099   2.9129   2.9204
  2.9418   2.9458   2.9619   2.9804   2.9986   3.0221   3.0287   3.0542
  3.0661   3.0928   3.1082   3.1358   3.1850   3.1938   3.2110   3.2312
  3.2349   3.2407   3.2949   3.3162   3.3298   3.3579   3.3693   3.3827
  3.4034   3.4457   3.4529   3.4568   3.4647   3.4757   3.4959   3.5048
  3.5141   3.5346   3.5440   3.5483   3.5670   3.5742   3.5959   3.6102
  3.6169   3.6392   3.6568   3.6931   3.7156   3.7556   3.7890   3.8167
  3.8389   3.8962   3.9155   3.9608   3.9677   3.9968   4.0401   4.0580
  4.1209   4.2062   4.2782   4.2839   4.3001   4.3219   4.3276   4.3331
  4.3522   4.3731   4.3896   4.4067   4.4409   4.4540   4.4774   4.5358
  4.6048   4.6356   4.7582   4.7605   4.8345   4.8964   4.9079   4.9505
  5.0296   5.0533   5.1758   5.2681   5.3738   5.3882   5.5099   5.5357
  5.6758   5.8550  22.5821  22.6757  22.8966  22.9022  23.0177  23.0834
 23.4308
 --------------------------------------------------------------
 
          Ground-State Mulliken Net Atomic Charges

     Atom                 Charge (a.u.)
  ----------------------------------------
      1 C                    -1.092608
      2 C                    -0.554149
      3 C                    -0.556930
      4 C                    -0.402372
      5 C                     0.822567
      6 C                    -0.559856
      7 C                    -0.421648
      8 H                     0.377761
      9 H                     0.394477
     10 H                     0.388321
     11 H                     0.377295
     12 H                     0.295130
     13 H                     0.292359
     14 H                     0.396543
     15 H                     0.243113
  ----------------------------------------
  Sum of atomic charges =     0.000000

 -----------------------------------------------------------------
                    Cartesian Multipole Moments
 -----------------------------------------------------------------
    Charge (ESU x 10^10)
                -0.0000
    Dipole Moment (Debye)
         X      -0.4925      Y       0.1489      Z       0.1470
       Tot       0.5351
    Quadrupole Moments (Debye-Ang)
        XX     -36.6082     XY      -2.7842     YY     -45.0956
        XZ      -2.0735     YZ      -1.6403     ZZ     -37.4722
    Octopole Moments (Debye-Ang^2)
       XXX     204.2891    XXY      29.4895    XYY      81.8205
       YYY      87.6884    XXZ     -74.8923    XYZ      -2.0886
       YYZ     -91.3189    XZZ      63.3418    YZZ      17.2027
       ZZZ    -238.8533
    Hexadecapole Moments (Debye-Ang^3)
      XXXX   -1272.5590   XXXY     -67.3685   XXYY    -267.9671
      XYYY     -77.2371   YYYY    -247.9156   XXXZ     478.2759
      XXYZ      57.4408   XYYZ     187.9136   YYYZ     195.9783
      XXZZ    -418.4818   XYZZ     -21.4049   YYZZ    -277.0692
      XZZZ     470.0176   YZZZ     139.1872   ZZZZ   -1301.6675
 -----------------------------------------------------------------
Archival summary:
1\1\nid00565\SP\ProcedureUnspecified\BasisUnspecified\78\meili\MonSep2702:51:402021MonSep2702:51:402021\0\\#,ProcedureUnspecified,BasisUnspecified,\\0,1\C\C,1,1.39107\H,2,1.08006,1,119.716\C,2,1.39162,1,120.637,3,179.466,0\H,4,1.07789,2,119.773,1,177.754,0\C,4,1.38984,2,120.189,1,-0.729362,0\H,6,1.08225,4,120.13,2,-179.742,0\C,6,1.39156,4,119.648,2,0.895984,0\H,8,1.07807,6,119.329,4,-179.292,0\C,1,1.39356,2,119.137,3,-179.285,0\H,10,1.0767,1,119.829,2,178.924,0\C,1,1.50241,2,120.16,3,1.31993,0\H,12,1.09116,1,108.81,2,-147.88,0\H,12,1.09124,1,108.91,2,-31.7916,0\H,12,1.10001,1,113.892,2,90.317,0\\\@

 Total job time:  26760.76s(wall), 53108.00s(cpu) 
 Mon Sep 27 02:51:43 2021

        *************************************************************
        *                                                           *
        *  Thank you very much for using Q-Chem.  Have a nice day.  *
        *                                                           *
        *************************************************************


Done Job For Fragment 1
calling putenv with: QCSCRATCH=/global/cscratch1/sd/meili 
calling putenv with: QCLOCALSCR=/tmp 
calling putenv with: QCTHREADS=32 
Doing General SCFMI
 Exchange:     0.1670 Hartree-Fock + 1.0000 wB97X-V + LR-HF
 Correlation:  1.0000 wB97X-V
 Using Euler-Maclaurin-Lebedev (99,590) quadrature formula
 Nonlocal Correlation:  VV10 with C = 0.0100 and b = 6.00 and scale = 1.00000
 Grid used for NLC:  SG-1 standard quadrature
performing fock build before subrot guess so that all methods have access
Printing subrot_rss_gen Method Specification:
Occupied Subspace Method is 0
Virtual Subspace Method is 0
Energy of the unrelaxed supersystem initial determinant -582.476569580685
performing fock build before subrot guess so that all methods have access
Printing subrot_rss_gen Method Specification:
Occupied Subspace Method is 0
Virtual Subspace Method is 0
Energy of the unrelaxed supersystem initial determinant w/ solvent -582.490557649190
write pseudocanon occs and virts to disk
write pseudocanon orbital energies to disk
Tolerance of ortho_decomp_scf: 1.00e-06
GDM subspace size: 20
Beginning the Orthogonal Decomposition of the Initial Supersystem Wavefunction
    1    -582.4508359931      2.18e-02     ortho_decomp Preconditoned Steepest Descent
    2    -582.4532860796      5.78e-04     ortho_decomp BFGS Step
    3    -582.4532949103      4.81e-05     ortho_decomp BFGS Step
    4    -582.4532949307      2.15e-06     ortho_decomp BFGS Step
    5    -582.4532949307      7.62e-08     ortho_decomp 00000 Convergence criterion met
 Hartree-Fock
 Hartree-Fock
 Hartree-Fock
Doing General SCFMI
 Exchange:     0.1670 Hartree-Fock + 1.0000 wB97X-V + LR-HF
 Correlation:  1.0000 wB97X-V
 Using Euler-Maclaurin-Lebedev (99,590) quadrature formula
 Nonlocal Correlation:  VV10 with C = 0.0100 and b = 6.00 and scale = 1.00000
 Grid used for NLC:  SG-1 standard quadrature
performing fock build at end of subrot_r(subrot) constructor so that all methods have access
<S^2> of initial wavefunction before polarization iterations 0.0000000000
Beginning iterations for the determination of the polarized wavefunction
Energy prior to optimization (guess energy) = -582.490557649189
Begin Timing: Total SCF Calculation
begin iterations for algorithm: DIIS         
the SCF tolerance is set to 1.00e-08
    1    -582.4905576492      4.77e-05     00000 
    2    -582.4908160245      2.11e-05     00000 
    3    -582.4908488836      1.15e-05     00000 
    4    -582.4908608807      3.72e-06     00000 
    5    -582.4908626049      2.19e-06     00000 
    6    -582.4908631842      9.33e-07     00000 
    7    -582.4908632600      4.32e-07     00000 
    8    -582.4908632704      2.05e-07     00000 
    9    -582.4908632732      7.98e-08     00000 
   10    -582.4908632741      3.87e-08     00000 
   11    -582.4908632743      1.86e-08     00000 
   12    -582.4908632744      6.17e-09     00000 Convergence criterion met
write pseudocanon occs and virts to disk
write pseudocanon orbital energies to disk
Timing for Total SCF: 12981.00s (wall), 25859.09s (cpu)
<S^2> of polarized wavefunction after polarization iterations 0.0000000000
relaxing scfmi constraint to allow all rotations in the entire AO span
Doing General SCFMI
 Exchange:     0.1670 Hartree-Fock + 1.0000 wB97X-V + LR-HF
 Correlation:  1.0000 wB97X-V
 Using Euler-Maclaurin-Lebedev (99,590) quadrature formula
 Nonlocal Correlation:  VV10 with C = 0.0100 and b = 6.00 and scale = 1.00000
 Grid used for NLC:  SG-1 standard quadrature
performing fock build at end of subrot_r(subrot) constructor so that all methods have access
<S^2> of polarized wavefunction before ct-allowed iterations 0.0000000000
Beginning iterations for the determination of the CT-Allowed wavefunction
Energy prior to optimization (guess energy) = -582.490863274369
Begin Timing: Total SCF Calculation
begin iterations for algorithm: DIIS         
the SCF tolerance is set to 1.00e-08
    1    -582.4908632744      6.62e-05     00000 
    2    -582.4920073313      7.15e-06     00000 
    3    -582.4920441845      1.24e-06     00000 
    4    -582.4920455417      5.25e-07     00000 
    5    -582.4920456285      1.57e-07     00000 
    6    -582.4920456422      4.12e-08     00000 
    7    -582.4920456429      1.49e-08     00000 
    8    -582.4920456431      4.26e-09     00000 Convergence criterion met
write pseudocanon occs and virts to disk
write pseudocanon orbital energies to disk
Timing for Total SCF: 7979.00s (wall), 15887.51s (cpu)
<S^2> of ct_allowed wavefunction after ct-allowed iterations 0.0000000000

================================
        Results of EDA2         
================================
Basic EDA Quantities
--------------------
Fragment Energies (Ha):
1 -310.8975423455
2 -271.5806469216
--------------------
  E_prp (kJ/mol) = 0.0000
  E_sol (kJ/mol) = 1.4245
  E_frz (kJ/mol) = -8.0504
  E_pol (kJ/mol) = -0.8024
  E_vct (kJ/mol) = -3.1043
  E_int (kJ/mol) = -10.5327
--------------------


Initial Wavefunction Decomposition
--------------------
  --------------------
  Orthogonal Fragment Subspace Decomposition:
  --------------------
     E_elec   (ELEC)   (kJ/mol) = -27.7404
     E_pauli  (PAULI)  (kJ/mol) = 41.3211
     E_disp   (DISP)   (kJ/mol) = -21.6312
     --------------------
     Terms summing to E_pauli:
     --------------------
        E_kep_pauli       (kJ/mol) = 53.0579
        E_disp_free_pauli (kJ/mol) = -11.7367
  --------------------
  Classical Frozen Decomposition:
  --------------------
     E_cls_elec  (CLS ELEC)  (kJ/mol) = -12.6909
     E_cls_pauli (CLS PAULI) (kJ/mol) = 4.6405
    [E_mod_pauli (MOD PAULI) (kJ/mol) = 26.2717 (CLS PAULI - DISP from orthogonal decomposition) ]
  --------------------
--------------------

Simplified EDA Summary (kJ/mol)
--------------------
 PREPARATION     0.0000
 SOLVATION       1.4245
 FROZEN          13.5808      (does not include dispersion)
[PAULI           41.3211]     (if this is negligible, then frozen describes electrostatics)
 DISPERSION      -21.6312
 POLARIZATION    -0.8024
 CHARGE TRANSFER -3.1043
 TOTAL           -10.5327     (PRP + SOL + FRZ + DISP + POL + CT)
--------------------
 
 --------------------------------------------------------------
 
                    Orbital Energies (a.u.)
 --------------------------------------------------------------
 
 Alpha MOs
 -- Occupied --
-10.2763 -10.2753 -10.2697 -10.2684 -10.2681 -10.2666 -10.2658 -10.2653
-10.2651 -10.2642 -10.2640 -10.2628 -10.2586 -10.2533 -10.2508  -0.9935
 -0.9917  -0.9158  -0.9018  -0.8738  -0.8733  -0.8483  -0.8067  -0.7509
 -0.7256  -0.7250  -0.6992  -0.6914  -0.6245  -0.6228  -0.5753  -0.5680
 -0.5659  -0.5617  -0.5355  -0.5292  -0.5276  -0.5243  -0.5179  -0.5097
 -0.4971  -0.4787  -0.4754  -0.4695  -0.4564  -0.4475  -0.4350  -0.4340
 -0.4271  -0.4229  -0.3457  -0.3449  -0.3363  -0.3317
 -- Virtual --
  0.0574   0.0625   0.0676   0.0714   0.0741   0.0748   0.0803   0.0842
  0.0940   0.0982   0.1031   0.1096   0.1141   0.1198   0.1241   0.1275
  0.1336   0.1385   0.1508   0.1586   0.1604   0.1704   0.1751   0.1795
  0.1832   0.1860   0.1926   0.1957   0.2029   0.2073   0.2100   0.2160
  0.2232   0.2257   0.2267   0.2289   0.2350   0.2408   0.2452   0.2464
  0.2530   0.2588   0.2598   0.2670   0.2688   0.2729   0.2740   0.2763
  0.2809   0.2843   0.2867   0.2897   0.2909   0.2959   0.2981   0.2999
  0.3024   0.3083   0.3099   0.3141   0.3197   0.3209   0.3258   0.3287
  0.3300   0.3321   0.3340   0.3414   0.3438   0.3466   0.3500   0.3526
  0.3557   0.3584   0.3611   0.3626   0.3668   0.3703   0.3720   0.3777
  0.3786   0.3809   0.3828   0.3852   0.3866   0.3898   0.3942   0.3966
  0.3992   0.4039   0.4077   0.4098   0.4132   0.4155   0.4237   0.4246
  0.4290   0.4297   0.4323   0.4359   0.4396   0.4417   0.4444   0.4467
  0.4494   0.4510   0.4547   0.4556   0.4621   0.4652   0.4699   0.4722
  0.4732   0.4759   0.4789   0.4804   0.4876   0.4889   0.4940   0.4954
  0.5004   0.5048   0.5077   0.5104   0.5142   0.5172   0.5216   0.5227
  0.5271   0.5315   0.5325   0.5351   0.5384   0.5435   0.5457   0.5506
  0.5538   0.5604   0.5639   0.5680   0.5711   0.5754   0.5780   0.5826
  0.5901   0.5918   0.5940   0.6002   0.6029   0.6069   0.6116   0.6133
  0.6209   0.6234   0.6264   0.6332   0.6341   0.6433   0.6436   0.6475
  0.6584   0.6633   0.6655   0.6694   0.6760   0.6777   0.6806   0.6834
  0.6961   0.6969   0.7000   0.7051   0.7062   0.7085   0.7148   0.7201
  0.7224   0.7269   0.7303   0.7331   0.7382   0.7405   0.7443   0.7479
  0.7506   0.7544   0.7556   0.7591   0.7626   0.7707   0.7737   0.7752
  0.7770   0.7804   0.7823   0.7895   0.7918   0.7964   0.7971   0.8024
  0.8048   0.8082   0.8110   0.8173   0.8206   0.8260   0.8275   0.8310
  0.8322   0.8359   0.8399   0.8409   0.8468   0.8492   0.8558   0.8575
  0.8601   0.8646   0.8664   0.8706   0.8772   0.8785   0.8818   0.8870
  0.8907   0.8959   0.8975   0.9076   0.9128   0.9144   0.9189   0.9214
  0.9279   0.9326   0.9361   0.9444   0.9503   0.9522   0.9570   0.9604
  0.9725   0.9808   0.9901   0.9937   0.9974   1.0098   1.0125   1.0216
  1.0259   1.0370   1.0527   1.0561   1.0597   1.0691   1.0755   1.0815
  1.0893   1.0958   1.1044   1.1115   1.1143   1.1194   1.1219   1.1284
  1.1320   1.1380   1.1527   1.1609   1.1660   1.1857   1.1912   1.1980
  1.2019   1.2135   1.2259   1.2400   1.2443   1.2796   1.2837   1.2961
  1.3035   1.3227   1.3268   1.3358   1.3487   1.3587   1.3645   1.3758
  1.3817   1.3900   1.4059   1.4164   1.4284   1.4343   1.4447   1.4468
  1.4607   1.4676   1.4854   1.4944   1.5010   1.5043   1.5117   1.5157
  1.5349   1.5447   1.5521   1.5624   1.5644   1.5851   1.6007   1.6197
  1.6231   1.6267   1.6353   1.6551   1.6657   1.6697   1.6817   1.6862
  1.6953   1.7083   1.7241   1.7397   1.7907   1.8001   1.8033   1.8093
  1.8148   1.8195   1.8273   1.8337   1.8416   1.8519   1.8603   1.8909
  1.8981   1.9099   1.9190   1.9266   1.9348   1.9363   1.9462   1.9514
  1.9566   1.9662   1.9718   1.9765   1.9921   1.9983   2.0048   2.0095
  2.0153   2.0197   2.0217   2.0347   2.0439   2.0523   2.0580   2.0630
  2.0704   2.0764   2.0852   2.0965   2.1023   2.1148   2.1239   2.1359
  2.1395   2.1446   2.1581   2.1695   2.1732   2.1817   2.1959   2.2016
  2.2232   2.2294   2.2415   2.2510   2.2536   2.2630   2.2760   2.2881
  2.2985   2.3015   2.3109   2.3196   2.3439   2.3523   2.3665   2.3717
  2.3967   2.4138   2.4215   2.4253   2.4333   2.4415   2.4556   2.4751
  2.4832   2.5024   2.5201   2.5369   2.5515   2.5718   2.5780   2.5852
  2.5906   2.5996   2.6142   2.6225   2.6247   2.6287   2.6362   2.6490
  2.6554   2.6584   2.6795   2.6953   2.7071   2.7114   2.7200   2.7314
  2.7441   2.7466   2.7548   2.7615   2.7737   2.7890   2.7995   2.8032
  2.8059   2.8182   2.8244   2.8408   2.8490   2.8565   2.8644   2.8748
  2.8794   2.8945   2.8963   2.9081   2.9223   2.9336   2.9374   2.9478
  2.9511   2.9540   2.9650   2.9652   2.9694   2.9812   2.9964   3.0000
  3.0150   3.0203   3.0262   3.0332   3.0380   3.0453   3.0511   3.0556
  3.0665   3.0805   3.0834   3.0997   3.1030   3.1117   3.1156   3.1262
  3.1399   3.1462   3.1561   3.1963   3.2048   3.2150   3.2280   3.2389
  3.2412   3.2577   3.2639   3.2710   3.2831   3.2905   3.3031   3.3208
  3.3277   3.3318   3.3420   3.3648   3.3668   3.3765   3.3814   3.3888
  3.4048   3.4075   3.4129   3.4275   3.4300   3.4378   3.4457   3.4508
  3.4632   3.4656   3.4737   3.4752   3.4775   3.4925   3.4941   3.5005
  3.5106   3.5200   3.5266   3.5344   3.5414   3.5491   3.5530   3.5553
  3.5571   3.5608   3.5648   3.5709   3.5767   3.5777   3.5877   3.5992
  3.6052   3.6149   3.6226   3.6270   3.6300   3.6428   3.6468   3.6536
  3.6610   3.6689   3.6804   3.6868   3.6984   3.7010   3.7140   3.7171
  3.7243   3.7319   3.7380   3.7467   3.7752   3.7914   3.8003   3.8108
  3.8368   3.8447   3.8569   3.8760   3.9025   3.9131   3.9416   3.9653
  3.9708   3.9806   3.9936   4.0017   4.0098   4.0194   4.0576   4.0610
  4.0818   4.0999   4.1319   4.1496   4.1613   4.1976   4.2188   4.2396
  4.2429   4.2844   4.2997   4.3027   4.3108   4.3173   4.3229   4.3347
  4.3377   4.3519   4.3544   4.3600   4.3647   4.3738   4.3779   4.3857
  4.4058   4.4133   4.4172   4.4309   4.4514   4.4614   4.4671   4.4849
  4.4905   4.5052   4.5278   4.5633   4.5808   4.6076   4.6290   4.6442
  4.6648   4.7171   4.7420   4.7623   4.7674   4.7747   4.8310   4.8441
  4.8817   4.9062   4.9307   4.9449   4.9531   4.9726   4.9899   5.0383
  5.0512   5.0650   5.0861   5.1436   5.1929   5.2020   5.2899   5.3298
  5.3755   5.3818   5.3935   5.3964   5.5180   5.5264   5.5322   5.5482
  5.7026   5.7234   5.8323   5.8358  22.6648  22.6711  22.6938  22.7539
 22.8696  22.9097  22.9365  22.9603  23.0117  23.0524  23.0661  23.1057
 23.1360  23.4486  23.4535
 --------------------------------------------------------------
 
          Ground-State Mulliken Net Atomic Charges

     Atom                 Charge (a.u.)
  ----------------------------------------
      1 C                    -0.427259
      2 C                    -1.132777
      3 C                     0.244930
      4 C                    -0.284618
      5 C                    -0.232054
      6 C                    -0.590034
      7 C                    -0.528481
      8 C                    -0.468871
      9 H                     0.265430
     10 H                     0.303402
     11 H                     0.283514
     12 H                     0.437338
     13 H                     0.383709
     14 H                     0.387966
     15 H                     0.390574
     16 H                     0.427843
     17 H                     0.273265
     18 H                     0.294272
     19 C                    -1.143922
     20 C                    -0.326408
     21 C                    -0.381331
     22 C                    -0.713080
     23 C                     0.634602
     24 C                    -0.641925
     25 C                    -0.493646
     26 H                     0.461954
     27 H                     0.472814
     28 H                     0.419636
     29 H                     0.401570
     30 H                     0.304565
     31 H                     0.301817
     32 H                     0.428317
     33 H                     0.246887
  ----------------------------------------
  Sum of atomic charges =     0.000000

 -----------------------------------------------------------------
                    Cartesian Multipole Moments
 -----------------------------------------------------------------
    Charge (ESU x 10^10)
                 0.0000
    Dipole Moment (Debye)
         X      -0.5694      Y       0.6106      Z       0.4577
       Tot       0.9521
    Quadrupole Moments (Debye-Ang)
        XX     -85.7985     XY      -5.7365     YY     -91.4760
        XZ       2.3062     YZ       0.5373     ZZ     -85.6306
    Octopole Moments (Debye-Ang^2)
       XXX     -20.3316    XXY      -9.8397    XYY      10.6324
       YYY      -1.3495    XXZ      24.8259    XYZ       7.3764
       YYZ      -8.9470    XZZ     -25.4311    YZZ     -21.5769
       ZZZ      15.6188
    Hexadecapole Moments (Debye-Ang^3)
      XXXX   -2198.9179   XXXY    -194.7252   XXYY    -574.4466
      XYYY    -197.3920   YYYY   -1219.2967   XXXZ     882.6563
      XXYZ      78.3220   XYYZ     299.5801   YYYZ     217.3021
      XXZZ    -832.8884   XYZZ     -77.6015   YYZZ    -634.7757
      XZZZ     887.4646   YZZZ     183.8044   ZZZZ   -2576.3790
 -----------------------------------------------------------------
Archival summary:
1\1\nid00565\SP\ProcedureUnspecified\BasisUnspecified\1518\meili\MonSep2713:46:432021MonSep2713:46:432021\0\\#,ProcedureUnspecified,BasisUnspecified,\\0,1\C\C,1,1.39701\H,2,1.07987,1,120.105\C,1,1.39728,2,119.183,3,-179.045,0\H,4,1.08086,1,120.011,2,179.091,0\C,4,1.39437,1,120.608,2,-0.784579,0\H,6,1.07894,4,120.331,1,178.985,0\C,6,1.39355,4,120.017,1,0.400697,0\H,8,1.08189,6,120.155,4,179.694,0\C,8,1.39701,6,119.85,4,-0.188299,0\H,10,1.08066,8,119.893,6,179.992,0\C,1,1.51002,2,120.677,3,-1.28952,0\H,12,1.09133,1,108.329,2,-38.406,0\H,12,1.09164,1,109.016,2,-154.627,0\C,12,1.52948,1,114.192,2,82.7802,0\H,15,1.09146,12,108.293,1,-60.4724,0\H,15,1.1,12,109.253,1,-179.126,0\H,15,1.1,12,111.331,1,57.4373,0\H,1,2.59122,2,93.7293,3,-96.4807,0\C,19,1.07789,1,131.503,2,71.0717,0\C,20,1.38984,19,120.021,1,-60.0746,0\H,21,1.08225,20,120.13,19,1.77836,0\C,21,1.39156,20,119.648,19,-177.584,0\H,23,1.07807,21,119.329,20,-179.292,0\C,20,1.39162,19,119.773,1,121.439,0\H,25,1.08006,20,119.644,19,-2.77937,0\C,25,1.39107,20,120.637,19,177.754,0\C,27,1.39356,25,119.137,20,0.181275,0\H,28,1.0767,27,119.829,25,178.924,0\C,27,1.50241,25,120.16,20,-179.214,0\H,30,1.09116,27,108.81,25,-147.88,0\H,30,1.09124,27,108.91,25,-31.7916,0\H,30,1.10001,27,113.892,25,90.317,0\\\@

 Total job time:  112052.01s(wall), 78331.89s(cpu) 
 Mon Sep 27 13:46:44 2021

        *************************************************************
        *                                                           *
        *  Thank you very much for using Q-Chem.  Have a nice day.  *
        *                                                           *
        *************************************************************


