
Running Job 1 of 1 SSI-083ASP-136ARG-1_SMD_TZVPD.in
qchem SSI-083ASP-136ARG-1_SMD_TZVPD.in_6644.0 /tmp/qchem6644/ 0
/global/common/cori/software/qchem/5.2/exe/qcprog.exe_s SSI-083ASP-136ARG-1_SMD_TZVPD.in_6644.0 /tmp/qchem6644/
                  Welcome to Q-Chem
     A Quantum Leap Into The Future Of Chemistry


 Q-Chem 5.2, Q-Chem, Inc., Pleasanton, CA (2019)

 License issued to: National Energy Research Scientific Computing Center

 Yihan Shao,  Zhengting Gan,  E. Epifanovsky,  A. T. B. Gilbert,  M. Wormit,  
 J. Kussmann,  A. W. Lange,  A. Behn,  Jia Deng,  Xintian Feng,  D. Ghosh,  
 M. Goldey,  P. R. Horn,  L. D. Jacobson,  I. Kaliman,  T. Kus,  A. Landau,  
 Jie Liu,  E. I. Proynov,  R. M. Richard,  R. P. Steele,  E. J. Sundstrom,  
 H. L. Woodcock III,  P. M. Zimmerman,  D. Zuev,  B. Albrecht,  E. Alguire,  
 S. A. Baeppler,  D. Barton,  Z. Benda,  Y. A. Bernard,  E. J. Berquist,  
 K. B. Bravaya,  H. Burton,  D. Casanova,  Chun-Min Chang,  Yunqing Chen,  
 A. Chien,  K. D. Closser,  M. P. Coons,  S. Coriani,  S. Dasgupta,  
 A. L. Dempwolff,  M. Diedenhofen,  Hainam Do,  R. G. Edgar,  Po-Tung Fang,  
 S. Faraji,  S. Fatehi,  Qingguo Feng,  K. D. Fenk,  J. Fosso-Tande,  
 J. Gayvert,  Qinghui Ge,  A. Ghysels,  G. Gidofalvi,  J. Gomes,  
 J. Gonthier,  A. Gunina,  D. Hait,  M. W. D. Hanson-Heine,  
 P. H. P. Harbach,  A. W. Hauser,  M. F. Herbst,  J. E. Herr,  
 E. G. Hohenstein,  Z. C. Holden,  Kerwin Hui,  B. C. Huynh,  T.-C. Jagau,  
 Hyunjun Ji,  B. Kaduk,  K. Khistyaev,  Jaehoon Kim,  P. Klunzinger,  K. Koh,  
 D. Kosenkov,  L. Koulias,  T. Kowalczyk,  C. M. Krauter,  A. Kunitsa,  
 Ka Un Lao,  A. Laurent,  K. V. Lawler,  Joonho Lee,  D. Lefrancois,  
 S. Lehtola,  D. S. Levine,  Yi-Pei Li,  You-Sheng Lin,  Fenglai Liu,  
 E. Livshits,  A. Luenser,  P. Manohar,  E. Mansoor,  S. F. Manzer,  
 Shan-Ping Mao,  Yuezhi Mao,  N. Mardirossian,  A. V. Marenich,  
 T. Markovich,  L. A. Martinez-Martinez,  S. A. Maurer,  N. J. Mayhall,  
 S. C. McKenzie,  J.-M. Mewes,  P. Morgante,  A. F. Morrison,  
 J. W. Mullinax,  K. Nanda,  T. S. Nguyen-Beck,  R. Olivares-Amaya,  
 J. A. Parkhill,  Zheng Pei,  T. M. Perrine,  F. Plasser,  P. Pokhilko,  
 S. Prager,  A. Prociuk,  E. Ramos,  D. R. Rehn,  F. Rob,  M. Scheurer,  
 M. Schneider,  N. Sergueev,  S. M. Sharada,  S. Sharma,  D. W. Small,  
 T. Stauch,  T. Stein,  Yu-Chuan Su,  A. J. W. Thom,  A. Tkatchenko,  
 T. Tsuchimochi,  N. M. Tubman,  L. Vogt,  M. L. Vidal,  O. Vydrov,  
 M. A. Watson,  J. Wenzel,  M. de Wergifosse,  T. A. Wesolowski,  A. White,  
 J. Witte,  A. Yamada,  Jun Yang,  K. Yao,  S. Yeganeh,  S. R. Yost,  
 Zhi-Qiang You,  A. Zech,  Igor Ying Zhang,  Xing Zhang,  Yan Zhao,  
 Ying Zhu,  B. R. Brooks,  G. K. L. Chan,  C. J. Cramer,  M. S. Gordon,  
 W. J. Hehre,  A. Klamt,  M. W. Schmidt,  C. D. Sherrill,  D. G. Truhlar,  
 A. Aspuru-Guzik,  R. Baer,  A. T. Bell,  N. A. Besley,  Jeng-Da Chai,  
 A. E. DePrince, III,  R. A. DiStasio Jr.,  A. Dreuw,  B. D. Dunietz,  
 T. R. Furlani,  Chao-Ping Hsu,  Yousung Jung,  Jing Kong,  D. S. Lambrecht,  
 WanZhen Liang,  C. Ochsenfeld,  V. A. Rassolov,  L. V. Slipchenko,  
 J. E. Subotnik,  T. Van Voorhis,  J. M. Herbert,  A. I. Krylov,  
 P. M. W. Gill,  M. Head-Gordon

 Contributors to earlier versions of Q-Chem not listed above: 
 R. D. Adamson,  B. Austin,  J. Baker,  G. J. O. Beran,  K. Brandhorst,  
 S. T. Brown,  E. F. C. Byrd,  A. K. Chakraborty,  C.-L. Cheng,  
 Siu Hung Chien,  D. M. Chipman,  D. L. Crittenden,  H. Dachsel,  
 R. J. Doerksen,  A. D. Dutoi,  L. Fusti-Molnar,  W. A. Goddard III,  
 A. Golubeva-Zadorozhnaya,  S. R. Gwaltney,  G. Hawkins,  A. Heyden,  
 S. Hirata,  G. Kedziora,  F. J. Keil,  C. Kelley,  Jihan Kim,  R. A. King,  
 R. Z. Khaliullin,  P. P. Korambath,  W. Kurlancheek,  A. M. Lee,  M. S. Lee,  
 S. V. Levchenko,  Ching Yeh Lin,  D. Liotard,  R. C. Lochan,  I. Lotan,  
 P. E. Maslen,  N. Nair,  D. P. O'Neill,  D. Neuhauser,  E. Neuscamman,  
 C. M. Oana,  R. Olson,  B. Peters,  R. Peverati,  P. A. Pieniazek,  
 Y. M. Rhee,  J. Ritchie,  M. A. Rohrdanz,  E. Rosta,  N. J. Russ,  
 H. F. Schaefer III,  N. E. Schultz,  N. Shenvi,  A. C. Simmonett,  A. Sodt,  
 D. Stuck,  K. S. Thanthiriwatte,  V. Vanovschi,  Tao Wang,  A. Warshel,  
 C. F. Williams,  Q. Wu,  X. Xu,  W. Zhang

 Please cite Q-Chem as follows:
 Y. Shao et al., Mol. Phys. 113, 184-215 (2015)
 DOI: 10.1080/00268976.2014.952696

 Q-Chem 5.2.0 for Intel X86 EM64T Linux

 Parts of Q-Chem use Armadillo 8.300.2 (Tropical Shenanigans).
 http://arma.sourceforge.net/

 Q-Chem begins on Sun Sep 26 11:45:55 2021  

Host: cori01
0

     Scratch files written to /tmp/qchem6644//
 May1019 |scratch|qcdevops|jenkins|workspace|build_RNUM -1
Processing $rem in /global/common/cori/software/qchem/5.2/config/preferences:
	 MEM_TOTAL  96000 
NAlpha2: 80
NElect   80
Mult     1
Symmetry turned off for PCM/SM12/SMD calculation

 Q-Chem warning in module libgen/rem_setup.C, line 2803:

 Neither GIA nor STOLL is specified by user. Use STOLL as the default


Checking the input file for inconsistencies... 	...done.

--------------------------------------------------------------
User input:
--------------------------------------------------------------
$comment
SSI-083ASP-136ARG-1.pdb
$end

$molecule
0 1
--
-1 1
C    1.330640856115   -1.906213226437    2.653969113154
C    0.169640856115   -1.000213226437    2.302969113154
O   -0.976359143885   -1.484213226437    2.310969113154
O    0.420640856115    0.188786773563    2.004969113154
H    1.952640856115   -1.443213226437    3.422969113154
H    1.941640856115   -2.015213226437    1.756969113154
H    0.991790856115   -2.899023226437    2.984909113154
--
1 1
C    0.717640856115   -0.469213226437   -1.273030886846
C    1.138640856115   -1.618213226437   -2.187030886846
C   -0.682359143885    1.556786773563   -1.466030886846
N    0.114640856115    0.647786773563   -2.011030886846
N   -0.984359143885    1.510786773563   -0.181030886846
N   -1.177359143885    2.526786773563   -2.209030886846
H   -0.010359143885   -0.860213226437   -0.559030886846
H    1.591640856115   -0.115213226437   -0.723030886846
H    2.025640856115   -1.320213226437   -2.745030886846
H    0.332640856115   -1.836213226437   -2.889030886846
H    0.339640856115    0.740786773563   -2.993030886846
H   -0.541359143885    0.838786773563    0.448969113154
H   -1.564359143885    2.236786773563    0.217969113154
H   -1.026359143885    2.516786773563   -3.210030886846
H   -1.954359143885    3.055786773563   -1.842030886846
H    1.342330856115   -2.515753226437   -1.584590886846
$end

$rem
JOBTYPE			EDA
EDA2			1
method			wB97X-V
BASIS			def2-TZVPD
XC_GRID			000099000590
NL_GRID			1
UNRESTRICTED		FALSE
MAX_SCF_CYCLES		200
SYMMETRY		FALSE
SYM_IGNORE		TRUE
MEM_STATIC		2000
BASIS_LIN_DEP_THRESH 	6
THRESH 			14
SCF_CONVERGENCE 	8
SCF_PRINT_FRGM 		TRUE
SOLVENT_METHOD          SMD
$end

$SMX
SOLVENT			WATER
$END
--------------------------------------------------------------
 ----------------------------------------------------------------
             Standard Nuclear Orientation (Angstroms)
    I     Atom           X                Y                Z
 ----------------------------------------------------------------
    1      C       1.3306408561    -1.9062132264     2.6539691132
    2      C       0.1696408561    -1.0002132264     2.3029691132
    3      O      -0.9763591439    -1.4842132264     2.3109691132
    4      O       0.4206408561     0.1887867736     2.0049691132
    5      H       1.9526408561    -1.4432132264     3.4229691132
    6      H       1.9416408561    -2.0152132264     1.7569691132
    7      H       0.9917908561    -2.8990232264     2.9849091132
    8      C       0.7176408561    -0.4692132264    -1.2730308868
    9      C       1.1386408561    -1.6182132264    -2.1870308868
   10      C      -0.6823591439     1.5567867736    -1.4660308868
   11      N       0.1146408561     0.6477867736    -2.0110308868
   12      N      -0.9843591439     1.5107867736    -0.1810308868
   13      N      -1.1773591439     2.5267867736    -2.2090308868
   14      H      -0.0103591439    -0.8602132264    -0.5590308868
   15      H       1.5916408561    -0.1152132264    -0.7230308868
   16      H       2.0256408561    -1.3202132264    -2.7450308868
   17      H       0.3326408561    -1.8362132264    -2.8890308868
   18      H       0.3396408561     0.7407867736    -2.9930308868
   19      H      -0.5413591439     0.8387867736     0.4489691132
   20      H      -1.5643591439     2.2367867736     0.2179691132
   21      H      -1.0263591439     2.5167867736    -3.2100308868
   22      H      -1.9543591439     3.0557867736    -1.8420308868
   23      H       1.3423308561    -2.5157532264    -1.5845908868
 ----------------------------------------------------------------
 Nuclear Repulsion Energy =         547.12788626 hartrees
 There are       40 alpha and       40 beta electrons
 Requested basis set is def2-TZVPD
 There are 197 shells and 493 basis functions

 Total QAlloc Memory Limit  96000 MB
 Mega-Array Size      1956 MB
 MEM_STATIC part      2000 MB
 
 Citation of the SMD model:
 Marenich, A.V.; Cramer, C.J.; Truhlar, D.G.
 J. Phys. Chem. B 2009, 113, 6378-6396.
 iSolventCode=           1
 Solvent: water                                                           
 
 vradii
            1           2           3           4           5           6
    1   1.8500000   1.8500000   1.5200000   1.5200000   1.2000000   1.2000000
            7           8           9          10          11          12
    1   1.2000000   1.8500000   1.8500000   1.8500000   1.8900000   1.8900000
           13          14          15          16          17          18
    1   1.8900000   1.2000000   1.2000000   1.2000000   1.2000000   1.2000000
           19          20          21          22          23
    1   1.2000000   1.2000000   1.2000000   1.2000000   1.2000000
 Changing PCM_VDW_RADII to SMD_RADIUS
 Discretize the solute cavity surface with Lebedev spheres
	Using 110 Lebedev grid points for each H atom
	Using 194 Lebedev grid points for other atoms
	Atomic van der Waals radii will be scaled by 1.20
 Remove points where switching function is < 1.0e-08
 Keep 1721 surface tesserae and discard 1649 interior tesserae
 Molecular Surface Area = 204.096 Angst**2
 A cutoff of  1.0D-14 yielded  17315 shell pairs
 There are    108895 function pairs (    136254 Cartesian)
 Smallest overlap matrix eigenvalue = 4.62E-06

 Scale SEOQF with 1.000000e-01/1.000000e-01/1.000000e-01

 Standard Electronic Orientation quadrupole field applied
 Nucleus-field energy     =    -0.0000000190 hartrees

 -----------------------------------------------------------------------
  General SCF calculation program by
  Eric Jon Sundstrom, Paul Horn, Yuezhi Mao, Dmitri Zuev, Alec White,
  David Stuck, Shaama M.S., Shane Yost, Joonho Lee, David Small,
  Daniel Levine, Susi Lehtola, Hugh Burton, Evgeny Epifanovsky
 -----------------------------------------------------------------------
================================================================
                 ALMO-EDA with the EDA2 driver                  
================================================================
 The second-generation ALMO-EDA (for DFT):                      
 P. R. Horn, Y. Mao and M. Head-Gordon, PCCP, 18, 23067 (2016)  
 Decomposition of the frozen energy:                            
 P. R. Horn, Y. Mao and M. Head-Gordon, JCP, 144, 114107 (2016) 
 FERF model for polarization:                                   
 P. R. Horn and M. Head-Gordon, JCP, 143, 114111 (2015)         
Using eda2 option set 1
Option set summary: Frozen orbital wavefunction, initial wavefunction decomposition, and nDQ polarization.
--------------------------------
Printing EDA Options
--------------------------------
eda_child_super_basis      0
fragmo_guess_mode          0
child_mp                   1
child_mp_orders            232
cls_elec                   1
cls_disp                   0
scfmi_mode                 1
scfmi_occs                 0
scfmi_virts                0
frz_relax                  0
frz_relax_method           0
dc_pen_start               0
dc_pen_conv                0
dc_pen_increment           0
dc_pen_steps               0
dc_pen_thresh_factor       0
dc_pen_pre_newton_thresh   0
frz_ortho_decomp           1
frz_ortho_decomp_conv      6
frgm_method                2
scfmi_freeze_ss            0
separate_rehyb             0
plot_diff_den              0
eda_nocv                   0
eda_vct_relax              1
disp_free_x                0
disp_free_c                0
eda_bsse                   0
eda_pct_a                  0
eda_covp                   0
--------------------------------
Attempting to make child job directory: /tmp/qchem6644//Frg1/
Attempting to make child job directory: /tmp/qchem6644//Frg2/
Creating input file /tmp/qchem6644/Frg1.input
using default PutDataFrgm: nothing
calling putenv with: QCSCRATCH=/tmp/qchem6644/ 
calling putenv with: QCLOCALSCR=/tmp/qchem6644/ 
Spawning Job For Fragment 0
                  Welcome to Q-Chem
     A Quantum Leap Into The Future Of Chemistry


 Q-Chem 5.2, Q-Chem, Inc., Pleasanton, CA (2019)

 License issued to: National Energy Research Scientific Computing Center

 Yihan Shao,  Zhengting Gan,  E. Epifanovsky,  A. T. B. Gilbert,  M. Wormit,  
 J. Kussmann,  A. W. Lange,  A. Behn,  Jia Deng,  Xintian Feng,  D. Ghosh,  
 M. Goldey,  P. R. Horn,  L. D. Jacobson,  I. Kaliman,  T. Kus,  A. Landau,  
 Jie Liu,  E. I. Proynov,  R. M. Richard,  R. P. Steele,  E. J. Sundstrom,  
 H. L. Woodcock III,  P. M. Zimmerman,  D. Zuev,  B. Albrecht,  E. Alguire,  
 S. A. Baeppler,  D. Barton,  Z. Benda,  Y. A. Bernard,  E. J. Berquist,  
 K. B. Bravaya,  H. Burton,  D. Casanova,  Chun-Min Chang,  Yunqing Chen,  
 A. Chien,  K. D. Closser,  M. P. Coons,  S. Coriani,  S. Dasgupta,  
 A. L. Dempwolff,  M. Diedenhofen,  Hainam Do,  R. G. Edgar,  Po-Tung Fang,  
 S. Faraji,  S. Fatehi,  Qingguo Feng,  K. D. Fenk,  J. Fosso-Tande,  
 J. Gayvert,  Qinghui Ge,  A. Ghysels,  G. Gidofalvi,  J. Gomes,  
 J. Gonthier,  A. Gunina,  D. Hait,  M. W. D. Hanson-Heine,  
 P. H. P. Harbach,  A. W. Hauser,  M. F. Herbst,  J. E. Herr,  
 E. G. Hohenstein,  Z. C. Holden,  Kerwin Hui,  B. C. Huynh,  T.-C. Jagau,  
 Hyunjun Ji,  B. Kaduk,  K. Khistyaev,  Jaehoon Kim,  P. Klunzinger,  K. Koh,  
 D. Kosenkov,  L. Koulias,  T. Kowalczyk,  C. M. Krauter,  A. Kunitsa,  
 Ka Un Lao,  A. Laurent,  K. V. Lawler,  Joonho Lee,  D. Lefrancois,  
 S. Lehtola,  D. S. Levine,  Yi-Pei Li,  You-Sheng Lin,  Fenglai Liu,  
 E. Livshits,  A. Luenser,  P. Manohar,  E. Mansoor,  S. F. Manzer,  
 Shan-Ping Mao,  Yuezhi Mao,  N. Mardirossian,  A. V. Marenich,  
 T. Markovich,  L. A. Martinez-Martinez,  S. A. Maurer,  N. J. Mayhall,  
 S. C. McKenzie,  J.-M. Mewes,  P. Morgante,  A. F. Morrison,  
 J. W. Mullinax,  K. Nanda,  T. S. Nguyen-Beck,  R. Olivares-Amaya,  
 J. A. Parkhill,  Zheng Pei,  T. M. Perrine,  F. Plasser,  P. Pokhilko,  
 S. Prager,  A. Prociuk,  E. Ramos,  D. R. Rehn,  F. Rob,  M. Scheurer,  
 M. Schneider,  N. Sergueev,  S. M. Sharada,  S. Sharma,  D. W. Small,  
 T. Stauch,  T. Stein,  Yu-Chuan Su,  A. J. W. Thom,  A. Tkatchenko,  
 T. Tsuchimochi,  N. M. Tubman,  L. Vogt,  M. L. Vidal,  O. Vydrov,  
 M. A. Watson,  J. Wenzel,  M. de Wergifosse,  T. A. Wesolowski,  A. White,  
 J. Witte,  A. Yamada,  Jun Yang,  K. Yao,  S. Yeganeh,  S. R. Yost,  
 Zhi-Qiang You,  A. Zech,  Igor Ying Zhang,  Xing Zhang,  Yan Zhao,  
 Ying Zhu,  B. R. Brooks,  G. K. L. Chan,  C. J. Cramer,  M. S. Gordon,  
 W. J. Hehre,  A. Klamt,  M. W. Schmidt,  C. D. Sherrill,  D. G. Truhlar,  
 A. Aspuru-Guzik,  R. Baer,  A. T. Bell,  N. A. Besley,  Jeng-Da Chai,  
 A. E. DePrince, III,  R. A. DiStasio Jr.,  A. Dreuw,  B. D. Dunietz,  
 T. R. Furlani,  Chao-Ping Hsu,  Yousung Jung,  Jing Kong,  D. S. Lambrecht,  
 WanZhen Liang,  C. Ochsenfeld,  V. A. Rassolov,  L. V. Slipchenko,  
 J. E. Subotnik,  T. Van Voorhis,  J. M. Herbert,  A. I. Krylov,  
 P. M. W. Gill,  M. Head-Gordon

 Contributors to earlier versions of Q-Chem not listed above: 
 R. D. Adamson,  B. Austin,  J. Baker,  G. J. O. Beran,  K. Brandhorst,  
 S. T. Brown,  E. F. C. Byrd,  A. K. Chakraborty,  C.-L. Cheng,  
 Siu Hung Chien,  D. M. Chipman,  D. L. Crittenden,  H. Dachsel,  
 R. J. Doerksen,  A. D. Dutoi,  L. Fusti-Molnar,  W. A. Goddard III,  
 A. Golubeva-Zadorozhnaya,  S. R. Gwaltney,  G. Hawkins,  A. Heyden,  
 S. Hirata,  G. Kedziora,  F. J. Keil,  C. Kelley,  Jihan Kim,  R. A. King,  
 R. Z. Khaliullin,  P. P. Korambath,  W. Kurlancheek,  A. M. Lee,  M. S. Lee,  
 S. V. Levchenko,  Ching Yeh Lin,  D. Liotard,  R. C. Lochan,  I. Lotan,  
 P. E. Maslen,  N. Nair,  D. P. O'Neill,  D. Neuhauser,  E. Neuscamman,  
 C. M. Oana,  R. Olson,  B. Peters,  R. Peverati,  P. A. Pieniazek,  
 Y. M. Rhee,  J. Ritchie,  M. A. Rohrdanz,  E. Rosta,  N. J. Russ,  
 H. F. Schaefer III,  N. E. Schultz,  N. Shenvi,  A. C. Simmonett,  A. Sodt,  
 D. Stuck,  K. S. Thanthiriwatte,  V. Vanovschi,  Tao Wang,  A. Warshel,  
 C. F. Williams,  Q. Wu,  X. Xu,  W. Zhang

 Please cite Q-Chem as follows:
 Y. Shao et al., Mol. Phys. 113, 184-215 (2015)
 DOI: 10.1080/00268976.2014.952696

 Q-Chem 5.2.0 for Intel X86 EM64T Linux

 Parts of Q-Chem use Armadillo 8.300.2 (Tropical Shenanigans).
 http://arma.sourceforge.net/

 Q-Chem begins on Sun Sep 26 11:45:59 2021  

Host: cori01
0

     Scratch files written to /tmp/qchem6644//Frg1//
 May1019 |scratch|qcdevops|jenkins|workspace|build_RNUM -1
Processing $rem in /global/common/cori/software/qchem/5.2/config/preferences:
	 MEM_TOTAL  96000 
NAlpha2: 32
NElect   32
Mult     1
Symmetry turned off for PCM/SM12/SMD calculation

Checking the input file for inconsistencies... 	...done.

--------------------------------------------------------------
User input:
--------------------------------------------------------------
$molecule
-1 1
 6	1.3306408561	-1.9062132264	2.6539691132
 6	0.1696408561	-1.0002132264	2.3029691132
 8	-0.9763591439	-1.4842132264	2.3109691132
 8	0.4206408561	0.1887867736	2.0049691132
 1	1.9526408561	-1.4432132264	3.4229691132
 1	1.9416408561	-2.0152132264	1.7569691132
 1	0.9917908561	-2.8990232264	2.9849091132
$end
$rem
EDA2		1
METHOD		WB97X-V
BASIS		DEF2-TZVPD
XC_GRID		000099000590
NL_GRID		1
UNRESTRICTED		FALSE
MAX_SCF_CYCLES		200
SYMMETRY		FALSE
SYM_IGNORE		TRUE
BASIS_LIN_DEP_THRESH		6
THRESH		14
SCF_CONVERGENCE		8
SCF_PRINT_FRGM		TRUE
SOLVENT_METHOD		SMD
!required keywords
JOBTYPE		SP
SYM_IGNORE		TRUE
SUBSYSTEM		TRUE
GEN_SCFMAN		TRUE
CHILD_INSTRUCTION		2
SYM_IGNORE		TRUE
SCFMI		0
RI_K 0		
PARI_K 0		
MIN_PARI_K 0		
IARI_K 0		
OCC_RI_K 0		
PURECART		1111
MEM_STATIC		2000
MEM_TOTAL		96000
GUI		0
CHILD_MP		1
CHILD_MP_ORDERS		232
FRZ_RELAX		0
FRZ_RELAX_METHOD		0
EDA_CLS_ELEC		1
EDA_CLS_DISP		0
FRZ_ORTHO_DECOMP		1
EDA2		FALSE
FRGM_METHOD		FALSE
CIS_N_ROOTS  0
LOCAL_CIS    0
CIS_RLX_DNS  1
$end
$smx
SOLVENT			WATER
$end
--------------------------------------------------------------
 ----------------------------------------------------------------
             Standard Nuclear Orientation (Angstroms)
    I     Atom           X                Y                Z
 ----------------------------------------------------------------
    1      C       1.3306408561    -1.9062132264     2.6539691132
    2      C       0.1696408561    -1.0002132264     2.3029691132
    3      O      -0.9763591439    -1.4842132264     2.3109691132
    4      O       0.4206408561     0.1887867736     2.0049691132
    5      H       1.9526408561    -1.4432132264     3.4229691132
    6      H       1.9416408561    -2.0152132264     1.7569691132
    7      H       0.9917908561    -2.8990232264     2.9849091132
 ----------------------------------------------------------------
 Nuclear Repulsion Energy =         113.02935262 hartrees
 There are       16 alpha and       16 beta electrons
 Requested basis set is def2-TZVPD
 There are 69 shells and 181 basis functions

 Total QAlloc Memory Limit  96000 MB
 Mega-Array Size      1956 MB
 MEM_STATIC part      2000 MB
 
 Citation of the SMD model:
 Marenich, A.V.; Cramer, C.J.; Truhlar, D.G.
 J. Phys. Chem. B 2009, 113, 6378-6396.
 iSolventCode=           1
 Solvent: water                                                           
 
 vradii
            1           2           3           4           5           6
    1   1.8500000   1.8500000   1.5200000   1.5200000   1.2000000   1.2000000
            7
    1   1.2000000
 Changing PCM_VDW_RADII to SMD_RADIUS
 Discretize the solute cavity surface with Lebedev spheres
	Using 110 Lebedev grid points for each H atom
	Using 194 Lebedev grid points for other atoms
	Atomic van der Waals radii will be scaled by 1.20
 Remove points where switching function is < 1.0e-08
 Keep 643 surface tesserae and discard 463 interior tesserae
 Molecular Surface Area = 79.735 Angst**2

                       Distance Matrix (Angstroms)
             C (  1)   C (  2)   O (  3)   O (  4)   H (  5)   H (  6)
   C (  2)  1.513921
   O (  3)  2.370228  1.244040
   O (  4)  2.374516  1.251210  2.200948
   H (  5)  1.092069  2.151683  3.133252  2.649749
   H (  6)  1.090785  2.113841  3.017217  2.689342  1.761494
   H (  7)  1.100006  2.178635  2.515849  3.289539  1.798475  1.786385

 
 A cutoff of  1.0D-14 yielded   2391 shell pairs
 There are     16695 function pairs (     21491 Cartesian)
 Smallest overlap matrix eigenvalue = 1.61E-05

 Scale SEOQF with 1.000000e-01/1.000000e-01/1.000000e-01

 Standard Electronic Orientation quadrupole field applied
 Nucleus-field energy     =    -0.0000000132 hartrees
 Guess from superposition of atomic densities
 Warning:  Energy on first SCF cycle will be non-variational
 SAD guess density has 30.625312 electrons

 -----------------------------------------------------------------------
  General SCF calculation program by
  Eric Jon Sundstrom, Paul Horn, Yuezhi Mao, Dmitri Zuev, Alec White,
  David Stuck, Shaama M.S., Shane Yost, Joonho Lee, David Small,
  Daniel Levine, Susi Lehtola, Hugh Burton, Evgeny Epifanovsky
 -----------------------------------------------------------------------
 Exchange:     0.1670 Hartree-Fock + 1.0000 wB97X-V + LR-HF
 Correlation:  1.0000 wB97X-V
 Using Euler-Maclaurin-Lebedev (99,590) quadrature formula
 Nonlocal Correlation:  VV10 with C = 0.0100 and b = 6.00 and scale = 1.00000
 Grid used for NLC:  SG-1 standard quadrature
Energy prior to optimization (guess energy) = -227.767792445222
Begin Timing: Total SCF Calculation
begin iterations for algorithm: DIIS         
the SCF tolerance is set to 1.00e-08
    1    -227.7677924452      1.66e-02     00000 
    2    -225.6506490990      2.48e-02     00000 
    3    -228.6069297299      4.07e-03     00000 
    4    -228.6595800599      1.38e-03     00000 
    5    -228.6654503225      2.60e-04     00000 
    6    -228.6656993189      1.78e-04     00000 
    7    -228.6657824051      5.23e-05     00000 
    8    -228.6657925401      1.31e-05     00000 
    9    -228.6657936273      3.68e-06     00000 
   10    -228.6657937313      1.08e-06     00000 
   11    -228.6657937409      2.18e-07     00000 
   12    -228.6657937412      4.83e-08     00000 
   13    -228.6657937413      1.19e-08     00000 
   14    -228.6657937413      2.98e-09     00000 Convergence criterion met
Timing for Total SCF: 283.00s (wall), 555.35s (cpu)
(3)  G-ENP(liq) elect-nuc-pol free energy of system     -228.665793741 a.u.
(4)  G-CDS(liq) cavity-dispersion-solvent structure 
     free energy                                                3.9139 kcal/mol
(6)  G-S(liq) free energy of system                     -228.659556566 a.u.
E_pcm = -0.1303771164
E_cds = 0.0062371748
Multipole orders to be included
        2
        3
computing dipole RHS
computing quadrupole RHS
total number of RHS in solve_reponses: 8
RHS batch sizes
        8
Beginning Block Conjugate Gradient Iterations. Batch Number: 0
computing hessian-vector products by finite difference
              1      6.81e-01     00000 Conjugate Gradient Iteration
computing hessian-vector products by finite difference
              2      2.18e-01     00000 Conjugate Gradient Iteration
computing hessian-vector products by finite difference
              3      5.78e-02     00000 Conjugate Gradient Iteration
computing hessian-vector products by finite difference
              4      1.50e-02     00000 Conjugate Gradient Iteration
computing hessian-vector products by finite difference
              5      2.26e-03     00000 Conjugate Gradient Iteration
computing hessian-vector products by finite difference
              6      5.86e-04     00000 Conjugate Gradient Iteration
computing hessian-vector products by finite difference
              7      8.54e-05     00000 Conjugate Gradient Iteration
computing hessian-vector products by finite difference
              8      1.06e-05     00000 Conjugate Gradient Iteration
computing hessian-vector products by finite difference
              9      1.59e-06     00000 Conjugate Gradient Iteration
computing hessian-vector products by finite difference
             10      1.57e-07     00000 Conjugate Gradient Iteration
computing hessian-vector products by finite difference
             11      2.11e-08     00000 Conjugate Gradient Iteration
computing hessian-vector products by finite difference
             12      6.09e-09     00000 CG Converged
batch 0 complete
Done Calculating Responses
TESTING ORTHOGONALIZATION OF MULTIPOLE BASIS
Multipole virts passed orthogonality test
Virts Per Order
        48
        80
 
 --------------------------------------------------------------
 
                    Orbital Energies (a.u.)
 --------------------------------------------------------------
 
 Alpha MOs
 -- Occupied --
-19.1532 -19.1517 -10.3521 -10.2450  -1.1670  -1.0677  -0.8406  -0.6166
 -0.5485  -0.5466  -0.5428  -0.4833  -0.4617  -0.3661  -0.3562  -0.3456
 -- Virtual --
  0.0671   0.0999   0.1009   0.1076   0.1354   0.1449   0.1459   0.1498
  0.1581   0.1915   0.2027   0.2259   0.2327   0.2396   0.2606   0.2656
  0.2996   0.3154   0.3338   0.3455   0.3527   0.3622   0.3731   0.3851
  0.3890   0.3974   0.4143   0.4270   0.4303   0.4567   0.4668   0.4727
  0.4837   0.4913   0.5044   0.5095   0.5478   0.5583   0.5849   0.6013
  0.6074   0.6269   0.6276   0.6480   0.6575   0.6712   0.6797   0.6993
  0.7095   0.7252   0.7697   0.7941   0.8068   0.8112   0.8328   0.8520
  0.8627   0.9525   0.9697   0.9758   0.9847   1.0332   1.0379   1.1082
  1.1603   1.1918   1.2435   1.2617   1.2843   1.3048   1.3313   1.3435
  1.4386   1.5610   1.5836   1.7316   1.8076   1.8407   1.8553   1.8959
  1.9082   1.9441   1.9528   1.9592   2.0053   2.1077   2.1140   2.1495
  2.1934   2.2087   2.3071   2.3289   2.3979   2.4325   2.4673   2.4792
  2.5626   2.5768   2.6000   2.6538   2.7876   2.8081   2.8790   2.9118
  2.9339   2.9832   3.0094   3.1747   3.1849   3.2493   3.2621   3.3030
  3.3274   3.3367   3.3860   3.3992   3.4285   3.5221   3.5435   3.5574
  3.6025   3.6417   3.6796   3.7166   3.7665   3.8834   3.9317   4.0473
  4.0797   4.1872   4.3529   4.5520   4.6171   4.6581   4.7789   4.8147
  4.9715   5.2965   5.3248   5.3349   5.3418   5.4787   5.6946   5.7347
  5.7955   5.9999   6.2267   6.3151   6.3290   6.5983   6.6099   6.6824
  6.7139   6.7280   6.9388   6.9433   7.0147   7.2165   7.3454   7.3610
  7.3892  22.5947  23.7510  44.1905  44.3234
 --------------------------------------------------------------
 
          Ground-State Mulliken Net Atomic Charges

     Atom                 Charge (a.u.)
  ----------------------------------------
      1 C                    -0.576042
      2 C                     0.492489
      3 O                    -0.761320
      4 O                    -0.782393
      5 H                     0.218424
      6 H                     0.195804
      7 H                     0.213037
  ----------------------------------------
  Sum of atomic charges =    -1.000000

 -----------------------------------------------------------------
                    Cartesian Multipole Moments
 -----------------------------------------------------------------
    Charge (ESU x 10^10)
                -4.8032
    Dipole Moment (Debye)
         X       3.0539      Y       1.7243      Z      -9.8456
       Tot      10.4516
    Quadrupole Moments (Debye-Ang)
        XX     -30.2904     XY      -7.2170     YY     -31.4074
        XZ       7.5118     YZ       4.5170     ZZ     -45.2675
    Octopole Moments (Debye-Ang^2)
       XXX     -18.5688    XXY      33.1213    XYY       2.3239
       YYY      93.7650    XXZ     -70.1832    XYZ     -16.1873
       YYZ     -73.3108    XZZ      11.7160    YZZ      38.9445
       ZZZ    -217.0481
    Hexadecapole Moments (Debye-Ang^3)
      XXXX    -175.5778   XXXY      27.1877   XXYY     -92.9778
      XYYY      18.5682   YYYY    -340.3955   XXXZ     -51.8034
      XXYZ      83.8939   XYYZ       1.2528   YYYZ     232.1720
      XXZZ    -196.2831   XYZZ     -26.6490   YYZZ    -232.2864
      XZZZ      -9.8386   YZZZ     237.1626   ZZZZ    -947.7865
 -----------------------------------------------------------------
Archival summary:
1\1\nid00511\SP\ProcedureUnspecified\BasisUnspecified\223(1-,1)\meili\SunSep2613:02:502021SunSep2613:02:502021\0\\#,ProcedureUnspecified,BasisUnspecified,\\-1,1\C\O,1,1.24404\O,1,1.25121,2,123.782\C,1,1.51392,2,118.172,3,-179.059,0\H,4,1.09078,1,107.38,2,113.941,0\H,4,1.09207,1,110.263,2,-129.103,0\H,4,1.10001,1,111.941,2,-5.96706,0\\\@

 Total job time:  4612.17s(wall), 8885.22s(cpu) 
 Sun Sep 26 13:02:51 2021

        *************************************************************
        *                                                           *
        *  Thank you very much for using Q-Chem.  Have a nice day.  *
        *                                                           *
        *************************************************************


Done Job For Fragment 0
calling putenv with: QCSCRATCH=/global/cscratch1/sd/meili 
calling putenv with: QCLOCALSCR=/tmp 
calling putenv with: QCTHREADS=32 
Creating input file /tmp/qchem6644/Frg2.input
using default PutDataFrgm: nothing
calling putenv with: QCSCRATCH=/tmp/qchem6644/ 
calling putenv with: QCLOCALSCR=/tmp/qchem6644/ 
Spawning Job For Fragment 1
                  Welcome to Q-Chem
     A Quantum Leap Into The Future Of Chemistry


 Q-Chem 5.2, Q-Chem, Inc., Pleasanton, CA (2019)

 License issued to: National Energy Research Scientific Computing Center

 Yihan Shao,  Zhengting Gan,  E. Epifanovsky,  A. T. B. Gilbert,  M. Wormit,  
 J. Kussmann,  A. W. Lange,  A. Behn,  Jia Deng,  Xintian Feng,  D. Ghosh,  
 M. Goldey,  P. R. Horn,  L. D. Jacobson,  I. Kaliman,  T. Kus,  A. Landau,  
 Jie Liu,  E. I. Proynov,  R. M. Richard,  R. P. Steele,  E. J. Sundstrom,  
 H. L. Woodcock III,  P. M. Zimmerman,  D. Zuev,  B. Albrecht,  E. Alguire,  
 S. A. Baeppler,  D. Barton,  Z. Benda,  Y. A. Bernard,  E. J. Berquist,  
 K. B. Bravaya,  H. Burton,  D. Casanova,  Chun-Min Chang,  Yunqing Chen,  
 A. Chien,  K. D. Closser,  M. P. Coons,  S. Coriani,  S. Dasgupta,  
 A. L. Dempwolff,  M. Diedenhofen,  Hainam Do,  R. G. Edgar,  Po-Tung Fang,  
 S. Faraji,  S. Fatehi,  Qingguo Feng,  K. D. Fenk,  J. Fosso-Tande,  
 J. Gayvert,  Qinghui Ge,  A. Ghysels,  G. Gidofalvi,  J. Gomes,  
 J. Gonthier,  A. Gunina,  D. Hait,  M. W. D. Hanson-Heine,  
 P. H. P. Harbach,  A. W. Hauser,  M. F. Herbst,  J. E. Herr,  
 E. G. Hohenstein,  Z. C. Holden,  Kerwin Hui,  B. C. Huynh,  T.-C. Jagau,  
 Hyunjun Ji,  B. Kaduk,  K. Khistyaev,  Jaehoon Kim,  P. Klunzinger,  K. Koh,  
 D. Kosenkov,  L. Koulias,  T. Kowalczyk,  C. M. Krauter,  A. Kunitsa,  
 Ka Un Lao,  A. Laurent,  K. V. Lawler,  Joonho Lee,  D. Lefrancois,  
 S. Lehtola,  D. S. Levine,  Yi-Pei Li,  You-Sheng Lin,  Fenglai Liu,  
 E. Livshits,  A. Luenser,  P. Manohar,  E. Mansoor,  S. F. Manzer,  
 Shan-Ping Mao,  Yuezhi Mao,  N. Mardirossian,  A. V. Marenich,  
 T. Markovich,  L. A. Martinez-Martinez,  S. A. Maurer,  N. J. Mayhall,  
 S. C. McKenzie,  J.-M. Mewes,  P. Morgante,  A. F. Morrison,  
 J. W. Mullinax,  K. Nanda,  T. S. Nguyen-Beck,  R. Olivares-Amaya,  
 J. A. Parkhill,  Zheng Pei,  T. M. Perrine,  F. Plasser,  P. Pokhilko,  
 S. Prager,  A. Prociuk,  E. Ramos,  D. R. Rehn,  F. Rob,  M. Scheurer,  
 M. Schneider,  N. Sergueev,  S. M. Sharada,  S. Sharma,  D. W. Small,  
 T. Stauch,  T. Stein,  Yu-Chuan Su,  A. J. W. Thom,  A. Tkatchenko,  
 T. Tsuchimochi,  N. M. Tubman,  L. Vogt,  M. L. Vidal,  O. Vydrov,  
 M. A. Watson,  J. Wenzel,  M. de Wergifosse,  T. A. Wesolowski,  A. White,  
 J. Witte,  A. Yamada,  Jun Yang,  K. Yao,  S. Yeganeh,  S. R. Yost,  
 Zhi-Qiang You,  A. Zech,  Igor Ying Zhang,  Xing Zhang,  Yan Zhao,  
 Ying Zhu,  B. R. Brooks,  G. K. L. Chan,  C. J. Cramer,  M. S. Gordon,  
 W. J. Hehre,  A. Klamt,  M. W. Schmidt,  C. D. Sherrill,  D. G. Truhlar,  
 A. Aspuru-Guzik,  R. Baer,  A. T. Bell,  N. A. Besley,  Jeng-Da Chai,  
 A. E. DePrince, III,  R. A. DiStasio Jr.,  A. Dreuw,  B. D. Dunietz,  
 T. R. Furlani,  Chao-Ping Hsu,  Yousung Jung,  Jing Kong,  D. S. Lambrecht,  
 WanZhen Liang,  C. Ochsenfeld,  V. A. Rassolov,  L. V. Slipchenko,  
 J. E. Subotnik,  T. Van Voorhis,  J. M. Herbert,  A. I. Krylov,  
 P. M. W. Gill,  M. Head-Gordon

 Contributors to earlier versions of Q-Chem not listed above: 
 R. D. Adamson,  B. Austin,  J. Baker,  G. J. O. Beran,  K. Brandhorst,  
 S. T. Brown,  E. F. C. Byrd,  A. K. Chakraborty,  C.-L. Cheng,  
 Siu Hung Chien,  D. M. Chipman,  D. L. Crittenden,  H. Dachsel,  
 R. J. Doerksen,  A. D. Dutoi,  L. Fusti-Molnar,  W. A. Goddard III,  
 A. Golubeva-Zadorozhnaya,  S. R. Gwaltney,  G. Hawkins,  A. Heyden,  
 S. Hirata,  G. Kedziora,  F. J. Keil,  C. Kelley,  Jihan Kim,  R. A. King,  
 R. Z. Khaliullin,  P. P. Korambath,  W. Kurlancheek,  A. M. Lee,  M. S. Lee,  
 S. V. Levchenko,  Ching Yeh Lin,  D. Liotard,  R. C. Lochan,  I. Lotan,  
 P. E. Maslen,  N. Nair,  D. P. O'Neill,  D. Neuhauser,  E. Neuscamman,  
 C. M. Oana,  R. Olson,  B. Peters,  R. Peverati,  P. A. Pieniazek,  
 Y. M. Rhee,  J. Ritchie,  M. A. Rohrdanz,  E. Rosta,  N. J. Russ,  
 H. F. Schaefer III,  N. E. Schultz,  N. Shenvi,  A. C. Simmonett,  A. Sodt,  
 D. Stuck,  K. S. Thanthiriwatte,  V. Vanovschi,  Tao Wang,  A. Warshel,  
 C. F. Williams,  Q. Wu,  X. Xu,  W. Zhang

 Please cite Q-Chem as follows:
 Y. Shao et al., Mol. Phys. 113, 184-215 (2015)
 DOI: 10.1080/00268976.2014.952696

 Q-Chem 5.2.0 for Intel X86 EM64T Linux

 Parts of Q-Chem use Armadillo 8.300.2 (Tropical Shenanigans).
 http://arma.sourceforge.net/

 Q-Chem begins on Sun Sep 26 13:02:53 2021  

Host: cori01
0

     Scratch files written to /tmp/qchem6644//Frg2//
 May1019 |scratch|qcdevops|jenkins|workspace|build_RNUM -1
Processing $rem in /global/common/cori/software/qchem/5.2/config/preferences:
	 MEM_TOTAL  96000 
NAlpha2: 48
NElect   48
Mult     1
Symmetry turned off for PCM/SM12/SMD calculation

Checking the input file for inconsistencies... 	...done.

--------------------------------------------------------------
User input:
--------------------------------------------------------------
$molecule
1 1
 6	0.7176408561	-0.4692132264	-1.2730308868
 6	1.1386408561	-1.6182132264	-2.1870308868
 6	-0.6823591439	1.5567867736	-1.4660308868
 7	0.1146408561	0.6477867736	-2.0110308868
 7	-0.9843591439	1.5107867736	-0.1810308868
 7	-1.1773591439	2.5267867736	-2.2090308868
 1	-0.0103591439	-0.8602132264	-0.5590308868
 1	1.5916408561	-0.1152132264	-0.7230308868
 1	2.0256408561	-1.3202132264	-2.7450308868
 1	0.3326408561	-1.8362132264	-2.8890308868
 1	0.3396408561	0.7407867736	-2.9930308868
 1	-0.5413591439	0.8387867736	0.4489691132
 1	-1.5643591439	2.2367867736	0.2179691132
 1	-1.0263591439	2.5167867736	-3.2100308868
 1	-1.9543591439	3.0557867736	-1.8420308868
 1	1.3423308561	-2.5157532264	-1.5845908868
$end
$rem
EDA2		1
METHOD		WB97X-V
BASIS		DEF2-TZVPD
XC_GRID		000099000590
NL_GRID		1
UNRESTRICTED		FALSE
MAX_SCF_CYCLES		200
SYMMETRY		FALSE
SYM_IGNORE		TRUE
BASIS_LIN_DEP_THRESH		6
THRESH		14
SCF_CONVERGENCE		8
SCF_PRINT_FRGM		TRUE
SOLVENT_METHOD		SMD
!required keywords
JOBTYPE		SP
SYM_IGNORE		TRUE
SUBSYSTEM		TRUE
GEN_SCFMAN		TRUE
CHILD_INSTRUCTION		2
SYM_IGNORE		TRUE
SCFMI		0
RI_K 0		
PARI_K 0		
MIN_PARI_K 0		
IARI_K 0		
OCC_RI_K 0		
PURECART		1111
MEM_STATIC		2000
MEM_TOTAL		96000
GUI		0
CHILD_MP		1
CHILD_MP_ORDERS		232
FRZ_RELAX		0
FRZ_RELAX_METHOD		0
EDA_CLS_ELEC		1
EDA_CLS_DISP		0
FRZ_ORTHO_DECOMP		1
EDA2		FALSE
FRGM_METHOD		FALSE
CIS_N_ROOTS  0
LOCAL_CIS    0
CIS_RLX_DNS  1
$end
$smx
SOLVENT			WATER
$end
--------------------------------------------------------------
 ----------------------------------------------------------------
             Standard Nuclear Orientation (Angstroms)
    I     Atom           X                Y                Z
 ----------------------------------------------------------------
    1      C       0.7176408561    -0.4692132264    -1.2730308868
    2      C       1.1386408561    -1.6182132264    -2.1870308868
    3      C      -0.6823591439     1.5567867736    -1.4660308868
    4      N       0.1146408561     0.6477867736    -2.0110308868
    5      N      -0.9843591439     1.5107867736    -0.1810308868
    6      N      -1.1773591439     2.5267867736    -2.2090308868
    7      H      -0.0103591439    -0.8602132264    -0.5590308868
    8      H       1.5916408561    -0.1152132264    -0.7230308868
    9      H       2.0256408561    -1.3202132264    -2.7450308868
   10      H       0.3326408561    -1.8362132264    -2.8890308868
   11      H       0.3396408561     0.7407867736    -2.9930308868
   12      H      -0.5413591439     0.8387867736     0.4489691132
   13      H      -1.5643591439     2.2367867736     0.2179691132
   14      H      -1.0263591439     2.5167867736    -3.2100308868
   15      H      -1.9543591439     3.0557867736    -1.8420308868
   16      H       1.3423308561    -2.5157532264    -1.5845908868
 ----------------------------------------------------------------
 Nuclear Repulsion Energy =         256.33867019 hartrees
 There are       24 alpha and       24 beta electrons
 Requested basis set is def2-TZVPD
 There are 128 shells and 312 basis functions

 Total QAlloc Memory Limit  96000 MB
 Mega-Array Size      1956 MB
 MEM_STATIC part      2000 MB
 
 Citation of the SMD model:
 Marenich, A.V.; Cramer, C.J.; Truhlar, D.G.
 J. Phys. Chem. B 2009, 113, 6378-6396.
 iSolventCode=           1
 Solvent: water                                                           
 
 vradii
            1           2           3           4           5           6
    1   1.8500000   1.8500000   1.8500000   1.8900000   1.8900000   1.8900000
            7           8           9          10          11          12
    1   1.2000000   1.2000000   1.2000000   1.2000000   1.2000000   1.2000000
           13          14          15          16
    1   1.2000000   1.2000000   1.2000000   1.2000000
 Changing PCM_VDW_RADII to SMD_RADIUS
 Discretize the solute cavity surface with Lebedev spheres
	Using 110 Lebedev grid points for each H atom
	Using 194 Lebedev grid points for other atoms
	Atomic van der Waals radii will be scaled by 1.20
 Remove points where switching function is < 1.0e-08
 Keep 1109 surface tesserae and discard 1155 interior tesserae
 Molecular Surface Area = 133.520 Angst**2
 A cutoff of  1.0D-14 yielded   7895 shell pairs
 There are     47581 function pairs (     59291 Cartesian)
 Smallest overlap matrix eigenvalue = 9.21E-06

 Scale SEOQF with 1.000000e-01/1.000000e-01/1.000000e-01

 Standard Electronic Orientation quadrupole field applied
 Nucleus-field energy     =    -0.0000000058 hartrees
 Guess from superposition of atomic densities
 Warning:  Energy on first SCF cycle will be non-variational
 SAD guess density has 48.375862 electrons

 -----------------------------------------------------------------------
  General SCF calculation program by
  Eric Jon Sundstrom, Paul Horn, Yuezhi Mao, Dmitri Zuev, Alec White,
  David Stuck, Shaama M.S., Shane Yost, Joonho Lee, David Small,
  Daniel Levine, Susi Lehtola, Hugh Burton, Evgeny Epifanovsky
 -----------------------------------------------------------------------
 Exchange:     0.1670 Hartree-Fock + 1.0000 wB97X-V + LR-HF
 Correlation:  1.0000 wB97X-V
 Using Euler-Maclaurin-Lebedev (99,590) quadrature formula
 Nonlocal Correlation:  VV10 with C = 0.0100 and b = 6.00 and scale = 1.00000
 Grid used for NLC:  SG-1 standard quadrature
Energy prior to optimization (guess energy) = -284.034641760377
Begin Timing: Total SCF Calculation
begin iterations for algorithm: DIIS         
the SCF tolerance is set to 1.00e-08
    1    -284.0346417604      6.61e-03     00000 
    2    -284.2766663658      5.20e-03     00000 
    3    -284.5236542784      3.08e-04     00000 
    4    -284.5249671898      1.61e-04     00000 
    5    -284.5252896519      4.63e-05     00000 
    6    -284.5253188325      1.87e-05     00000 
    7    -284.5253235217      3.48e-06     00000 
    8    -284.5253238579      9.40e-07     00000 
    9    -284.5253238815      4.64e-07     00000 
   10    -284.5253238862      1.25e-07     00000 
   11    -284.5253238867      5.55e-08     00000 
   12    -284.5253238868      1.61e-08     00000 
   13    -284.5253238868      2.44e-09     00000 Convergence criterion met
Timing for Total SCF: 1220.00s (wall), 2408.03s (cpu)
(3)  G-ENP(liq) elect-nuc-pol free energy of system     -284.525323887 a.u.
(4)  G-CDS(liq) cavity-dispersion-solvent structure 
     free energy                                                2.8724 kcal/mol
(6)  G-S(liq) free energy of system                     -284.520746430 a.u.
E_pcm = -0.1071041864
E_cds = 0.0045774568
Multipole orders to be included
        2
        3
computing dipole RHS
computing quadrupole RHS
total number of RHS in solve_reponses: 8
RHS batch sizes
        8
Beginning Block Conjugate Gradient Iterations. Batch Number: 0
computing hessian-vector products by finite difference
              1      4.76e-01     00000 Conjugate Gradient Iteration
computing hessian-vector products by finite difference
              2      1.81e-01     00000 Conjugate Gradient Iteration
computing hessian-vector products by finite difference
              3      4.77e-02     00000 Conjugate Gradient Iteration
computing hessian-vector products by finite difference
              4      1.25e-02     00000 Conjugate Gradient Iteration
computing hessian-vector products by finite difference
              5      1.68e-03     00000 Conjugate Gradient Iteration
computing hessian-vector products by finite difference
              6      2.98e-04     00000 Conjugate Gradient Iteration
computing hessian-vector products by finite difference
              7      4.36e-05     00000 Conjugate Gradient Iteration
computing hessian-vector products by finite difference
              8      6.72e-06     00000 Conjugate Gradient Iteration
computing hessian-vector products by finite difference
              9      1.93e-06     00000 Conjugate Gradient Iteration
computing hessian-vector products by finite difference
             10      4.00e-07     00000 Conjugate Gradient Iteration
computing hessian-vector products by finite difference
             11      5.71e-08     00000 Conjugate Gradient Iteration
computing hessian-vector products by finite difference
             12      1.00e-08     00000 Conjugate Gradient Iteration
computing hessian-vector products by finite difference
             13      1.38e-09     00000 CG Converged
batch 0 complete
Done Calculating Responses
TESTING ORTHOGONALIZATION OF MULTIPOLE BASIS
Multipole virts passed orthogonality test
Virts Per Order
           72
          120
 
 --------------------------------------------------------------
 
                    Orbital Energies (a.u.)
 --------------------------------------------------------------
 
 Alpha MOs
 -- Occupied --
-14.4534 -14.4494 -14.4449 -10.4222 -10.3099 -10.2604  -1.1732  -1.0572
 -1.0410  -0.8973  -0.7823  -0.7563  -0.7188  -0.6805  -0.6155  -0.6083
 -0.6012  -0.5753  -0.5521  -0.4958  -0.4739  -0.4636  -0.4001  -0.3754
 -- Virtual --
  0.0598   0.0829   0.0882   0.1010   0.1115   0.1227   0.1281   0.1327
  0.1562   0.1639   0.1676   0.1871   0.1930   0.1961   0.2107   0.2109
  0.2174   0.2284   0.2358   0.2457   0.2536   0.2614   0.2655   0.2718
  0.2780   0.2816   0.2916   0.2993   0.3051   0.3229   0.3288   0.3308
  0.3335   0.3423   0.3488   0.3530   0.3590   0.3630   0.3698   0.3801
  0.3811   0.3893   0.3931   0.4038   0.4055   0.4117   0.4229   0.4314
  0.4393   0.4441   0.4593   0.4652   0.4683   0.4734   0.4804   0.4898
  0.4930   0.5019   0.5055   0.5146   0.5197   0.5243   0.5345   0.5357
  0.5456   0.5591   0.5614   0.5627   0.5724   0.5797   0.5918   0.5927
  0.6090   0.6208   0.6295   0.6366   0.6515   0.6667   0.6709   0.6816
  0.6896   0.7044   0.7261   0.7380   0.7467   0.7609   0.7707   0.7759
  0.7845   0.7938   0.7979   0.8126   0.8273   0.8320   0.8416   0.8451
  0.8535   0.8796   0.8865   0.8962   0.9085   0.9201   0.9336   0.9415
  0.9520   0.9821   0.9967   1.0039   1.0207   1.0292   1.0637   1.0869
  1.0906   1.0992   1.1217   1.1425   1.1592   1.1805   1.1864   1.2066
  1.2295   1.2591   1.2958   1.3040   1.3360   1.3689   1.3993   1.4126
  1.4401   1.4642   1.4685   1.4920   1.5113   1.5636   1.5840   1.6205
  1.6574   1.6780   1.7026   1.7322   1.7592   1.8035   1.8506   1.8759
  1.8813   1.8951   1.9143   1.9250   1.9449   1.9615   1.9707   1.9870
  1.9907   2.0108   2.0311   2.0383   2.0671   2.1038   2.1126   2.1358
  2.1488   2.2065   2.2146   2.2449   2.2501   2.2770   2.3237   2.3595
  2.3938   2.4040   2.4378   2.4419   2.4625   2.5061   2.5200   2.5315
  2.5853   2.5874   2.6179   2.6402   2.6451   2.6519   2.6676   2.6983
  2.7306   2.7712   2.7790   2.8234   2.8357   2.8430   2.8901   2.9093
  2.9159   2.9284   2.9445   2.9719   2.9951   3.0404   3.0927   3.1216
  3.1622   3.1691   3.1891   3.1993   3.2254   3.2528   3.2669   3.2968
  3.3162   3.3455   3.3508   3.3589   3.3744   3.4028   3.4147   3.4388
  3.4554   3.4994   3.5370   3.5422   3.5614   3.5904   3.6326   3.6467
  3.6921   3.7332   3.7501   3.7916   3.8844   3.8959   3.9067   3.9456
  3.9933   4.0537   4.0878   4.1010   4.1540   4.2321   4.2531   4.3186
  4.3544   4.4013   4.4587   4.4976   4.5417   4.5710   4.6169   4.6553
  4.6961   4.7957   4.8623   4.8797   4.8861   4.9570   4.9838   5.0095
  5.0259   5.0773   5.1229   5.1283   5.1539   5.1882   5.2120   5.2415
  5.3087   5.3455   5.3846   5.3993   5.4798   5.4977   5.5132   5.5573
  5.5927   5.6607   5.7090   5.8101   5.8422   5.9168   6.1728   6.1761
  6.3785   6.4785  22.6195  22.8277  23.6728  32.3402  32.5001  32.9089
 --------------------------------------------------------------
 
          Ground-State Mulliken Net Atomic Charges

     Atom                 Charge (a.u.)
  ----------------------------------------
      1 C                    -0.304489
      2 C                    -1.042831
      3 C                     0.363332
      4 N                    -0.090729
      5 N                    -0.286712
      6 N                    -0.314172
      7 H                     0.314703
      8 H                     0.258168
      9 H                     0.257729
     10 H                     0.288118
     11 H                     0.281390
     12 H                     0.222917
     13 H                     0.238867
     14 H                     0.264981
     15 H                     0.268531
     16 H                     0.280198
  ----------------------------------------
  Sum of atomic charges =     1.000000

 -----------------------------------------------------------------
                    Cartesian Multipole Moments
 -----------------------------------------------------------------
    Charge (ESU x 10^10)
                 4.8032
    Dipole Moment (Debye)
         X      -3.1237      Y       6.4905      Z      -7.0888
       Tot      10.1062
    Quadrupole Moments (Debye-Ang)
        XX     -29.0437     XY     -13.1934     YY     -18.5232
        XZ       2.6215     YZ     -11.1748     ZZ     -12.8259
    Octopole Moments (Debye-Ang^2)
       XXX       0.1452    XXY       0.4698    XYY     -32.3289
       YYY     -23.6232    XXZ      48.1850    XYZ      16.7217
       YYZ      28.1173    XZZ      -6.3304    YZZ      18.0144
       ZZZ      97.8521
    Hexadecapole Moments (Debye-Ang^3)
      XXXX    -214.7766   XXXY     109.2032   XXYY     -70.6612
      XYYY      44.0832   YYYY    -484.9963   XXXZ      19.8373
      XXYZ      -1.5288   XYYZ      54.8771   YYYZ       3.5996
      XXZZ    -137.6261   XYZZ       7.5047   YYZZ    -131.2569
      XZZZ      37.6844   YZZZ     -54.5149   ZZZZ    -477.4946
 -----------------------------------------------------------------
Archival summary:
1\1\nid00511\SP\ProcedureUnspecified\BasisUnspecified\3310(1+,1)\meili\SunSep2619:16:582021SunSep2619:16:582021\0\\#,ProcedureUnspecified,BasisUnspecified,\\1,1\N\H,1,1.01173\C,1,1.32609,2,118.005\N,3,1.31832,1,119.894,2,1.42852,0\H,4,1.00909,3,118.026,1,164.492,0\H,4,1.01237,3,119.603,1,6.46741,0\N,3,1.32081,1,120.89,2,-178.173,0\H,7,1.01127,3,119.34,1,177.57,0\H,7,1.02212,3,121.564,1,6.44688,0\C,1,1.46831,2,117.804,3,-178.614,0\H,10,1.09165,1,109.593,2,98.6091,0\H,10,1.09209,1,109.1,2,-142.498,0\C,10,1.52736,1,112.626,2,-22.8453,0\H,13,1.08947,10,108.974,1,72.929,0\H,13,1.09085,10,109.377,1,-46.2175,0\H,13,1.1,10,109.702,1,-165.77,0\\\@

 Total job time:  22448.67s(wall), 44567.28s(cpu) 
 Sun Sep 26 19:17:01 2021

        *************************************************************
        *                                                           *
        *  Thank you very much for using Q-Chem.  Have a nice day.  *
        *                                                           *
        *************************************************************


Done Job For Fragment 1
calling putenv with: QCSCRATCH=/global/cscratch1/sd/meili 
calling putenv with: QCLOCALSCR=/tmp 
calling putenv with: QCTHREADS=32 
Doing General SCFMI
 Exchange:     0.1670 Hartree-Fock + 1.0000 wB97X-V + LR-HF
 Correlation:  1.0000 wB97X-V
 Using Euler-Maclaurin-Lebedev (99,590) quadrature formula
 Nonlocal Correlation:  VV10 with C = 0.0100 and b = 6.00 and scale = 1.00000
 Grid used for NLC:  SG-1 standard quadrature
performing fock build before subrot guess so that all methods have access
Printing subrot_rss_gen Method Specification:
Occupied Subspace Method is 0
Virtual Subspace Method is 0
Energy of the unrelaxed supersystem initial determinant -513.089410413492
performing fock build before subrot guess so that all methods have access
Printing subrot_rss_gen Method Specification:
Occupied Subspace Method is 0
Virtual Subspace Method is 0
Energy of the unrelaxed supersystem initial determinant w/ solvent -513.193833462474
write pseudocanon occs and virts to disk
write pseudocanon orbital energies to disk
Tolerance of ortho_decomp_scf: 1.00e-06
GDM subspace size: 20
Beginning the Orthogonal Decomposition of the Initial Supersystem Wavefunction
    1    -512.9013772960      6.74e-02     ortho_decomp Preconditoned Steepest Descent
    2    -512.9106780747      1.92e-03     ortho_decomp BFGS Step
    3    -512.9107188358      1.63e-04     ortho_decomp BFGS Step
    4    -512.9107189101      7.03e-06     ortho_decomp BFGS Step
    5    -512.9107189104      2.46e-07     ortho_decomp 00000 Convergence criterion met
 Hartree-Fock
 Hartree-Fock
 Hartree-Fock
Doing General SCFMI
 Exchange:     0.1670 Hartree-Fock + 1.0000 wB97X-V + LR-HF
 Correlation:  1.0000 wB97X-V
 Using Euler-Maclaurin-Lebedev (99,590) quadrature formula
 Nonlocal Correlation:  VV10 with C = 0.0100 and b = 6.00 and scale = 1.00000
 Grid used for NLC:  SG-1 standard quadrature
performing fock build at end of subrot_r(subrot) constructor so that all methods have access
<S^2> of initial wavefunction before polarization iterations 0.0000000000
Beginning iterations for the determination of the polarized wavefunction
Energy prior to optimization (guess energy) = -513.193833462474
Begin Timing: Total SCF Calculation
begin iterations for algorithm: DIIS         
the SCF tolerance is set to 1.00e-08
    1    -513.1938334625      1.34e-04     00000 
    2    -513.1949373567      7.00e-05     00000 
    3    -513.1950797182      4.20e-05     00000 
    4    -513.1951381850      1.19e-05     00000 
    5    -513.1951440150      5.17e-06     00000 
    6    -513.1951454453      2.29e-06     00000 
    7    -513.1951457054      9.42e-07     00000 
    8    -513.1951457506      3.48e-07     00000 
    9    -513.1951457549      1.69e-07     00000 
   10    -513.1951457557      5.37e-08     00000 
   11    -513.1951457559      2.08e-08     00000 
   12    -513.1951457559      9.66e-09     00000 Convergence criterion met
write pseudocanon occs and virts to disk
write pseudocanon orbital energies to disk
Timing for Total SCF: 3888.00s (wall), 7718.57s (cpu)
<S^2> of polarized wavefunction after polarization iterations 0.0000000000
relaxing scfmi constraint to allow all rotations in the entire AO span
Doing General SCFMI
 Exchange:     0.1670 Hartree-Fock + 1.0000 wB97X-V + LR-HF
 Correlation:  1.0000 wB97X-V
 Using Euler-Maclaurin-Lebedev (99,590) quadrature formula
 Nonlocal Correlation:  VV10 with C = 0.0100 and b = 6.00 and scale = 1.00000
 Grid used for NLC:  SG-1 standard quadrature
performing fock build at end of subrot_r(subrot) constructor so that all methods have access
<S^2> of polarized wavefunction before ct-allowed iterations 0.0000000000
Beginning iterations for the determination of the CT-Allowed wavefunction
Energy prior to optimization (guess energy) = -513.195145755869
Begin Timing: Total SCF Calculation
begin iterations for algorithm: DIIS         
the SCF tolerance is set to 1.00e-08
    1    -513.1951457559      1.64e-04     00000 
    2    -513.1990572270      2.61e-05     00000 
    3    -513.1992292411      1.24e-05     00000 
    4    -513.1992430078      6.49e-06     00000 
    5    -513.1992479241      1.39e-06     00000 
    6    -513.1992481867      5.65e-07     00000 
    7    -513.1992482513      2.08e-07     00000 
    8    -513.1992482584      5.24e-08     00000 
    9    -513.1992482593      2.22e-08     00000 
   10    -513.1992482595      8.60e-09     00000 Convergence criterion met
write pseudocanon occs and virts to disk
write pseudocanon orbital energies to disk
Timing for Total SCF: 3215.00s (wall), 6376.93s (cpu)
<S^2> of ct_allowed wavefunction after ct-allowed iterations 0.0000000000

================================
        Results of EDA2         
================================
Basic EDA Quantities
--------------------
Fragment Energies (Ha):
1 -228.6595565665
2 -284.5207464300
--------------------
  E_prp (kJ/mol) = -0.0000
  E_sol (kJ/mol) = 344.3445
  E_frz (kJ/mol) = -356.4791
  E_pol (kJ/mol) = -3.4455
  E_vct (kJ/mol) = -10.7713
  E_int (kJ/mol) = -26.3513
--------------------


Initial Wavefunction Decomposition
--------------------
  --------------------
  Orthogonal Fragment Subspace Decomposition:
  --------------------
     E_elec   (ELEC)   (kJ/mol) = -427.3274
     E_pauli  (PAULI)  (kJ/mol) = 91.2267
     E_disp   (DISP)   (kJ/mol) = -20.3785
     --------------------
     Terms summing to E_pauli:
     --------------------
        E_kep_pauli       (kJ/mol) = 112.6810
        E_disp_free_pauli (kJ/mol) = -21.4543
  --------------------
  Classical Frozen Decomposition:
  --------------------
     E_cls_elec  (CLS ELEC)  (kJ/mol) = -390.0532
     E_cls_pauli (CLS PAULI) (kJ/mol) = 33.5741
    [E_mod_pauli (MOD PAULI) (kJ/mol) = 53.9526 (CLS PAULI - DISP from orthogonal decomposition) ]
  --------------------
--------------------

Simplified EDA Summary (kJ/mol)
--------------------
 PREPARATION     -0.0000
 SOLVATION       344.3445
 FROZEN          -336.1006      (does not include dispersion)
[PAULI           91.2267]     (if this is negligible, then frozen describes electrostatics)
 DISPERSION      -20.3785
 POLARIZATION    -3.4455
 CHARGE TRANSFER -10.7713
 TOTAL           -26.3513     (PRP + SOL + FRZ + DISP + POL + CT)
--------------------
 
 --------------------------------------------------------------
 
                    Orbital Energies (a.u.)
 --------------------------------------------------------------
 
 Alpha MOs
 -- Occupied --
-19.1578 -19.1575 -14.4492 -14.4409 -14.4362 -10.4160 -10.3566 -10.3061
-10.2582 -10.2475  -1.1727  -1.1672  -1.0734  -1.0528  -1.0335  -0.8943
 -0.8436  -0.7781  -0.7515  -0.7137  -0.6765  -0.6249  -0.6103  -0.5999
 -0.5972  -0.5726  -0.5519  -0.5510  -0.5471  -0.5448  -0.4932  -0.4862
 -0.4725  -0.4661  -0.4578  -0.3932  -0.3743  -0.3684  -0.3605  -0.3505
 -- Virtual --
  0.0578   0.0751   0.0816   0.0906   0.1028   0.1045   0.1059   0.1117
  0.1297   0.1300   0.1370   0.1409   0.1447   0.1470   0.1535   0.1647
  0.1680   0.1826   0.1873   0.1923   0.1950   0.2050   0.2154   0.2200
  0.2216   0.2259   0.2302   0.2335   0.2436   0.2476   0.2556   0.2566
  0.2621   0.2704   0.2744   0.2777   0.2854   0.2893   0.2929   0.2941
  0.3027   0.3094   0.3102   0.3181   0.3235   0.3263   0.3310   0.3385
  0.3432   0.3443   0.3498   0.3576   0.3616   0.3645   0.3697   0.3733
  0.3753   0.3786   0.3818   0.3881   0.3945   0.3964   0.3975   0.4001
  0.4139   0.4191   0.4253   0.4285   0.4308   0.4371   0.4425   0.4455
  0.4483   0.4604   0.4640   0.4698   0.4708   0.4797   0.4848   0.4908
  0.4935   0.4990   0.5023   0.5083   0.5102   0.5141   0.5175   0.5206
  0.5277   0.5319   0.5338   0.5433   0.5543   0.5570   0.5612   0.5625
  0.5658   0.5736   0.5825   0.5837   0.5934   0.5966   0.6043   0.6068
  0.6161   0.6226   0.6287   0.6325   0.6345   0.6443   0.6498   0.6619
  0.6659   0.6707   0.6740   0.6799   0.6865   0.6979   0.7036   0.7115
  0.7133   0.7172   0.7255   0.7322   0.7407   0.7480   0.7564   0.7661
  0.7674   0.7694   0.7759   0.7804   0.7879   0.7942   0.8020   0.8080
  0.8189   0.8255   0.8281   0.8347   0.8459   0.8492   0.8589   0.8611
  0.8693   0.8760   0.8815   0.8911   0.8972   0.9030   0.9135   0.9227
  0.9337   0.9435   0.9451   0.9608   0.9754   0.9794   0.9849   0.9930
  0.9988   1.0067   1.0188   1.0251   1.0341   1.0372   1.0586   1.0672
  1.0743   1.0950   1.0998   1.1146   1.1205   1.1365   1.1498   1.1678
  1.1766   1.1839   1.1916   1.2115   1.2200   1.2316   1.2354   1.2409
  1.2440   1.2616   1.2864   1.2999   1.3134   1.3251   1.3403   1.3557
  1.3603   1.3625   1.3799   1.4136   1.4204   1.4332   1.4402   1.4553
  1.4822   1.4846   1.5035   1.5132   1.5317   1.5463   1.5890   1.5980
  1.6449   1.6583   1.6798   1.6933   1.7294   1.7406   1.7687   1.7723
  1.7874   1.8275   1.8531   1.8765   1.8876   1.9059   1.9085   1.9185
  1.9266   1.9415   1.9536   1.9583   1.9675   1.9782   1.9881   1.9965
  2.0018   2.0194   2.0231   2.0348   2.0407   2.0523   2.0599   2.0787
  2.1035   2.1255   2.1290   2.1416   2.1617   2.1724   2.1822   2.1940
  2.2067   2.2352   2.2428   2.2683   2.2752   2.2958   2.3096   2.3210
  2.3576   2.3723   2.3779   2.3907   2.4260   2.4305   2.4465   2.4646
  2.4715   2.4823   2.4963   2.5184   2.5386   2.5533   2.5698   2.5870
  2.5996   2.6059   2.6157   2.6246   2.6400   2.6606   2.6685   2.6700
  2.6846   2.6984   2.7163   2.7354   2.7640   2.8010   2.8211   2.8400
  2.8489   2.8715   2.8872   2.9022   2.9106   2.9199   2.9306   2.9367
  2.9530   2.9640   2.9724   2.9758   3.0073   3.0231   3.0653   3.0723
  3.1068   3.1613   3.1729   3.1950   3.1992   3.2185   3.2283   3.2293
  3.2591   3.2691   3.2699   3.2989   3.3089   3.3111   3.3173   3.3407
  3.3488   3.3582   3.3665   3.3769   3.3912   3.4056   3.4099   3.4175
  3.4354   3.4439   3.4457   3.4548   3.4719   3.5058   3.5368   3.5497
  3.5597   3.5747   3.5789   3.6156   3.6333   3.6434   3.6585   3.6663
  3.6728   3.6830   3.7167   3.7353   3.7569   3.7632   3.7860   3.8117
  3.8194   3.9005   3.9075   3.9143   3.9276   3.9588   3.9693   4.0191
  4.0661   4.0747   4.0986   4.1176   4.1266   4.1863   4.2017   4.2550
  4.2743   4.3430   4.3733   4.3825   4.4301   4.4747   4.5163   4.5525
  4.5802   4.5817   4.6302   4.6333   4.6698   4.6783   4.7064   4.8237
  4.8339   4.8511   4.8725   4.8981   4.9238   4.9693   5.0058   5.0092
  5.0418   5.0549   5.0994   5.1502   5.1646   5.1920   5.2105   5.2323
  5.2580   5.3054   5.3196   5.3388   5.3501   5.3572   5.3594   5.4209
  5.4217   5.4849   5.4930   5.5202   5.5461   5.5746   5.6201   5.6942
  5.7041   5.7390   5.7437   5.7961   5.8280   5.8649   5.9343   6.0106
  6.1905   6.1977   6.2561   6.3362   6.3437   6.4102   6.4927   6.6313
  6.6527   6.7287   6.7542   6.7772   6.9662   7.0116   7.0545   7.2333
  7.3524   7.3871   7.4183  22.6153  22.6404  22.8952  23.7036  23.7879
 32.4101  32.5737  32.9848  44.3870  44.4161
 --------------------------------------------------------------
 
          Ground-State Mulliken Net Atomic Charges

     Atom                 Charge (a.u.)
  ----------------------------------------
      1 C                    -0.692647
      2 C                     0.689249
      3 O                    -0.795034
      4 O                    -0.835838
      5 H                     0.255002
      6 H                     0.170012
      7 H                     0.234042
      8 C                    -0.081507
      9 C                    -1.124947
     10 C                     0.357333
     11 N                    -0.061187
     12 N                    -0.139221
     13 N                    -0.315277
     14 H                     0.146617
     15 H                     0.177830
     16 H                     0.268522
     17 H                     0.298416
     18 H                     0.291059
     19 H                     0.069736
     20 H                     0.261762
     21 H                     0.267726
     22 H                     0.271812
     23 H                     0.286539
  ----------------------------------------
  Sum of atomic charges =     0.000000

 -----------------------------------------------------------------
                    Cartesian Multipole Moments
 -----------------------------------------------------------------
    Charge (ESU x 10^10)
                -0.0000
    Dipole Moment (Debye)
         X       0.0628      Y       7.9477      Z     -16.3743
       Tot      18.2013
    Quadrupole Moments (Debye-Ang)
        XX     -59.4743     XY     -20.0588     YY     -50.3332
        XZ      10.1340     YZ      -6.6207     ZZ     -57.9591
    Octopole Moments (Debye-Ang^2)
       XXX     -17.8703    XXY      32.8411    XYY     -29.2258
       YYY      67.9172    XXZ     -20.8790    XYZ      -0.0122
       YYZ     -43.0523    XZZ       5.8596    YZZ      55.3470
       ZZZ    -114.5707
    Hexadecapole Moments (Debye-Ang^3)
      XXXX    -391.2801   XXXY     137.6336   XXYY    -164.6918
      XYYY      64.9646   YYYY    -829.5020   XXXZ     -31.6952
      XXYZ      82.1038   XYYZ      55.6017   YYYZ     236.2926
      XXZZ    -333.4196   XYZZ     -18.0848   YYZZ    -364.2198
      XZZZ      28.4469   YZZZ     181.9768   ZZZZ   -1423.4458
 -----------------------------------------------------------------
Archival summary:
1\1\nid00511\SP\ProcedureUnspecified\BasisUnspecified\23513\meili\SunSep2622:44:072021SunSep2622:44:072021\0\\#,ProcedureUnspecified,BasisUnspecified,\\0,1\O\C,1,1.25121\O,2,1.24404,1,123.782\C,2,1.51392,1,118.039,3,179.06,0\H,4,1.09078,2,107.38,1,-65.1728,0\H,4,1.09207,2,110.263,1,51.7839,0\H,4,1.10001,2,111.941,1,174.919,0\H,1,1.94141,2,114.183,3,-43.6272,0\N,8,1.02212,1,158.262,2,154.17,0\H,9,1.01127,8,118.514,1,-43.7455,0\C,9,1.32081,8,121.564,1,127.449,0\N,11,1.31832,9,119.215,8,-173.157,0\H,12,1.00909,11,118.026,9,-15.9007,0\H,12,1.01237,11,119.603,9,-173.925,0\N,11,1.32609,9,120.89,8,6.44688,0\H,15,1.01173,11,118.005,9,-178.173,0\C,15,1.46831,11,124.175,9,0.345543,0\H,17,1.09165,15,109.593,11,-79.9118,0\H,17,1.09209,15,109.1,11,38.981,0\C,17,1.52736,15,112.626,11,158.634,0\H,20,1.08947,17,108.974,15,72.929,0\H,20,1.09085,17,109.377,15,-46.2175,0\H,20,1.1,17,109.702,15,-165.77,0\\\@

 Total job time:  39495.02s(wall), 24684.74s(cpu) 
 Sun Sep 26 22:44:10 2021

        *************************************************************
        *                                                           *
        *  Thank you very much for using Q-Chem.  Have a nice day.  *
        *                                                           *
        *************************************************************


