
Running Job 1 of 1 SSI-055ASP-069ARG-1_SMD_TZVPD.in
qchem SSI-055ASP-069ARG-1_SMD_TZVPD.in_49620.0 /tmp/qchem49620/ 0
/global/common/cori/software/qchem/5.2/exe/qcprog.exe_s SSI-055ASP-069ARG-1_SMD_TZVPD.in_49620.0 /tmp/qchem49620/
                  Welcome to Q-Chem
     A Quantum Leap Into The Future Of Chemistry


 Q-Chem 5.2, Q-Chem, Inc., Pleasanton, CA (2019)

 License issued to: National Energy Research Scientific Computing Center

 Yihan Shao,  Zhengting Gan,  E. Epifanovsky,  A. T. B. Gilbert,  M. Wormit,  
 J. Kussmann,  A. W. Lange,  A. Behn,  Jia Deng,  Xintian Feng,  D. Ghosh,  
 M. Goldey,  P. R. Horn,  L. D. Jacobson,  I. Kaliman,  T. Kus,  A. Landau,  
 Jie Liu,  E. I. Proynov,  R. M. Richard,  R. P. Steele,  E. J. Sundstrom,  
 H. L. Woodcock III,  P. M. Zimmerman,  D. Zuev,  B. Albrecht,  E. Alguire,  
 S. A. Baeppler,  D. Barton,  Z. Benda,  Y. A. Bernard,  E. J. Berquist,  
 K. B. Bravaya,  H. Burton,  D. Casanova,  Chun-Min Chang,  Yunqing Chen,  
 A. Chien,  K. D. Closser,  M. P. Coons,  S. Coriani,  S. Dasgupta,  
 A. L. Dempwolff,  M. Diedenhofen,  Hainam Do,  R. G. Edgar,  Po-Tung Fang,  
 S. Faraji,  S. Fatehi,  Qingguo Feng,  K. D. Fenk,  J. Fosso-Tande,  
 J. Gayvert,  Qinghui Ge,  A. Ghysels,  G. Gidofalvi,  J. Gomes,  
 J. Gonthier,  A. Gunina,  D. Hait,  M. W. D. Hanson-Heine,  
 P. H. P. Harbach,  A. W. Hauser,  M. F. Herbst,  J. E. Herr,  
 E. G. Hohenstein,  Z. C. Holden,  Kerwin Hui,  B. C. Huynh,  T.-C. Jagau,  
 Hyunjun Ji,  B. Kaduk,  K. Khistyaev,  Jaehoon Kim,  P. Klunzinger,  K. Koh,  
 D. Kosenkov,  L. Koulias,  T. Kowalczyk,  C. M. Krauter,  A. Kunitsa,  
 Ka Un Lao,  A. Laurent,  K. V. Lawler,  Joonho Lee,  D. Lefrancois,  
 S. Lehtola,  D. S. Levine,  Yi-Pei Li,  You-Sheng Lin,  Fenglai Liu,  
 E. Livshits,  A. Luenser,  P. Manohar,  E. Mansoor,  S. F. Manzer,  
 Shan-Ping Mao,  Yuezhi Mao,  N. Mardirossian,  A. V. Marenich,  
 T. Markovich,  L. A. Martinez-Martinez,  S. A. Maurer,  N. J. Mayhall,  
 S. C. McKenzie,  J.-M. Mewes,  P. Morgante,  A. F. Morrison,  
 J. W. Mullinax,  K. Nanda,  T. S. Nguyen-Beck,  R. Olivares-Amaya,  
 J. A. Parkhill,  Zheng Pei,  T. M. Perrine,  F. Plasser,  P. Pokhilko,  
 S. Prager,  A. Prociuk,  E. Ramos,  D. R. Rehn,  F. Rob,  M. Scheurer,  
 M. Schneider,  N. Sergueev,  S. M. Sharada,  S. Sharma,  D. W. Small,  
 T. Stauch,  T. Stein,  Yu-Chuan Su,  A. J. W. Thom,  A. Tkatchenko,  
 T. Tsuchimochi,  N. M. Tubman,  L. Vogt,  M. L. Vidal,  O. Vydrov,  
 M. A. Watson,  J. Wenzel,  M. de Wergifosse,  T. A. Wesolowski,  A. White,  
 J. Witte,  A. Yamada,  Jun Yang,  K. Yao,  S. Yeganeh,  S. R. Yost,  
 Zhi-Qiang You,  A. Zech,  Igor Ying Zhang,  Xing Zhang,  Yan Zhao,  
 Ying Zhu,  B. R. Brooks,  G. K. L. Chan,  C. J. Cramer,  M. S. Gordon,  
 W. J. Hehre,  A. Klamt,  M. W. Schmidt,  C. D. Sherrill,  D. G. Truhlar,  
 A. Aspuru-Guzik,  R. Baer,  A. T. Bell,  N. A. Besley,  Jeng-Da Chai,  
 A. E. DePrince, III,  R. A. DiStasio Jr.,  A. Dreuw,  B. D. Dunietz,  
 T. R. Furlani,  Chao-Ping Hsu,  Yousung Jung,  Jing Kong,  D. S. Lambrecht,  
 WanZhen Liang,  C. Ochsenfeld,  V. A. Rassolov,  L. V. Slipchenko,  
 J. E. Subotnik,  T. Van Voorhis,  J. M. Herbert,  A. I. Krylov,  
 P. M. W. Gill,  M. Head-Gordon

 Contributors to earlier versions of Q-Chem not listed above: 
 R. D. Adamson,  B. Austin,  J. Baker,  G. J. O. Beran,  K. Brandhorst,  
 S. T. Brown,  E. F. C. Byrd,  A. K. Chakraborty,  C.-L. Cheng,  
 Siu Hung Chien,  D. M. Chipman,  D. L. Crittenden,  H. Dachsel,  
 R. J. Doerksen,  A. D. Dutoi,  L. Fusti-Molnar,  W. A. Goddard III,  
 A. Golubeva-Zadorozhnaya,  S. R. Gwaltney,  G. Hawkins,  A. Heyden,  
 S. Hirata,  G. Kedziora,  F. J. Keil,  C. Kelley,  Jihan Kim,  R. A. King,  
 R. Z. Khaliullin,  P. P. Korambath,  W. Kurlancheek,  A. M. Lee,  M. S. Lee,  
 S. V. Levchenko,  Ching Yeh Lin,  D. Liotard,  R. C. Lochan,  I. Lotan,  
 P. E. Maslen,  N. Nair,  D. P. O'Neill,  D. Neuhauser,  E. Neuscamman,  
 C. M. Oana,  R. Olson,  B. Peters,  R. Peverati,  P. A. Pieniazek,  
 Y. M. Rhee,  J. Ritchie,  M. A. Rohrdanz,  E. Rosta,  N. J. Russ,  
 H. F. Schaefer III,  N. E. Schultz,  N. Shenvi,  A. C. Simmonett,  A. Sodt,  
 D. Stuck,  K. S. Thanthiriwatte,  V. Vanovschi,  Tao Wang,  A. Warshel,  
 C. F. Williams,  Q. Wu,  X. Xu,  W. Zhang

 Please cite Q-Chem as follows:
 Y. Shao et al., Mol. Phys. 113, 184-215 (2015)
 DOI: 10.1080/00268976.2014.952696

 Q-Chem 5.2.0 for Intel X86 EM64T Linux

 Parts of Q-Chem use Armadillo 8.300.2 (Tropical Shenanigans).
 http://arma.sourceforge.net/

 Q-Chem begins on Sun Sep 26 08:44:06 2021  

Host: cori01
0

     Scratch files written to /tmp/qchem49620//
 May1019 |scratch|qcdevops|jenkins|workspace|build_RNUM -1
Processing $rem in /global/common/cori/software/qchem/5.2/config/preferences:
	 MEM_TOTAL  96000 
NAlpha2: 72
NElect   72
Mult     1
Symmetry turned off for PCM/SM12/SMD calculation

 Q-Chem warning in module libgen/rem_setup.C, line 2803:

 Neither GIA nor STOLL is specified by user. Use STOLL as the default


Checking the input file for inconsistencies... 	...done.

--------------------------------------------------------------
User input:
--------------------------------------------------------------
$comment
SSI-055ASP-069ARG-1.pdb
$end

$molecule
0 1
--
-1 1
C    1.352434599446   -2.953845759282   -1.630799733132
C    0.592434599446   -1.703845759282   -1.271799733132
O   -0.626565400554   -1.799845759282   -0.988799733132
O    1.274434599446   -0.672845759282   -1.178799733132
H    0.665434599446   -3.745845759282   -1.926799733132
H    1.866434599446   -3.292845759282   -0.727799733132
H    2.100294599446   -2.796060759282   -2.421884733132
--
1 1
C    1.370434599446    2.023154240718    1.168200266868
C   -0.978565400554    1.285154240718    0.968200266868
N   -1.821565400554    0.451154240718    0.375200266868
N    0.299434599446    1.168154240718    0.677200266868
N   -1.417565400554    2.174154240718    1.838200266868
H   -1.427565400554   -0.277845759282   -0.225799733132
H   -2.811565400554    0.436154240718    0.553200266868
H    0.551434599446    0.465154240718   -0.019799733132
H   -0.767565400554    2.761154240718    2.347200266868
H   -2.405565400554    2.295154240718    1.977200266868
H    0.987434599446    3.027154240718    1.352200266868
H    2.125434599446    2.110154240718    0.384200266868
H    1.855664599446    1.620254240718    2.069438266868
$end

$rem
JOBTYPE			EDA
EDA2			1
method			wB97X-V
BASIS			def2-TZVPD
XC_GRID			000099000590
NL_GRID			1
UNRESTRICTED		FALSE
MAX_SCF_CYCLES		200
SYMMETRY		FALSE
SYM_IGNORE		TRUE
MEM_STATIC		2000
BASIS_LIN_DEP_THRESH 	6
THRESH 			14
SCF_CONVERGENCE 	8
SCF_PRINT_FRGM 		TRUE
SOLVENT_METHOD          SMD
$end

$SMX
SOLVENT			WATER
$END
--------------------------------------------------------------
 ----------------------------------------------------------------
             Standard Nuclear Orientation (Angstroms)
    I     Atom           X                Y                Z
 ----------------------------------------------------------------
    1      C       1.3524345994    -2.9538457593    -1.6307997331
    2      C       0.5924345994    -1.7038457593    -1.2717997331
    3      O      -0.6265654006    -1.7998457593    -0.9887997331
    4      O       1.2744345994    -0.6728457593    -1.1787997331
    5      H       0.6654345994    -3.7458457593    -1.9267997331
    6      H       1.8664345994    -3.2928457593    -0.7277997331
    7      H       2.1002945994    -2.7960607593    -2.4218847331
    8      C       1.3704345994     2.0231542407     1.1682002669
    9      C      -0.9785654006     1.2851542407     0.9682002669
   10      N      -1.8215654006     0.4511542407     0.3752002669
   11      N       0.2994345994     1.1681542407     0.6772002669
   12      N      -1.4175654006     2.1741542407     1.8382002669
   13      H      -1.4275654006    -0.2778457593    -0.2257997331
   14      H      -2.8115654006     0.4361542407     0.5532002669
   15      H       0.5514345994     0.4651542407    -0.0197997331
   16      H      -0.7675654006     2.7611542407     2.3472002669
   17      H      -2.4055654006     2.2951542407     1.9772002669
   18      H       0.9874345994     3.0271542407     1.3522002669
   19      H       2.1254345994     2.1101542407     0.3842002669
   20      H       1.8556645994     1.6202542407     2.0694382669
 ----------------------------------------------------------------
 Nuclear Repulsion Energy =         467.99464921 hartrees
 There are       36 alpha and       36 beta electrons
 Requested basis set is def2-TZVPD
 There are 174 shells and 438 basis functions

 Total QAlloc Memory Limit  96000 MB
 Mega-Array Size      1956 MB
 MEM_STATIC part      2000 MB
 
 Citation of the SMD model:
 Marenich, A.V.; Cramer, C.J.; Truhlar, D.G.
 J. Phys. Chem. B 2009, 113, 6378-6396.
 iSolventCode=           1
 Solvent: water                                                           
 
 vradii
            1           2           3           4           5           6
    1   1.8500000   1.8500000   1.5200000   1.5200000   1.2000000   1.2000000
            7           8           9          10          11          12
    1   1.2000000   1.8500000   1.8500000   1.8900000   1.8900000   1.8900000
           13          14          15          16          17          18
    1   1.2000000   1.2000000   1.2000000   1.2000000   1.2000000   1.2000000
           19          20
    1   1.2000000   1.2000000
 Changing PCM_VDW_RADII to SMD_RADIUS
 Discretize the solute cavity surface with Lebedev spheres
	Using 110 Lebedev grid points for each H atom
	Using 194 Lebedev grid points for other atoms
	Atomic van der Waals radii will be scaled by 1.20
 Remove points where switching function is < 1.0e-08
 Keep 1484 surface tesserae and discard 1472 interior tesserae
 Molecular Surface Area = 177.605 Angst**2
 A cutoff of  1.0D-14 yielded  13681 shell pairs
 There are     87895 function pairs (    110645 Cartesian)
 Smallest overlap matrix eigenvalue = 7.65E-06

 Scale SEOQF with 1.000000e-01/1.000000e-01/1.000000e-01

 Standard Electronic Orientation quadrupole field applied
 Nucleus-field energy     =     0.0000000093 hartrees

 -----------------------------------------------------------------------
  General SCF calculation program by
  Eric Jon Sundstrom, Paul Horn, Yuezhi Mao, Dmitri Zuev, Alec White,
  David Stuck, Shaama M.S., Shane Yost, Joonho Lee, David Small,
  Daniel Levine, Susi Lehtola, Hugh Burton, Evgeny Epifanovsky
 -----------------------------------------------------------------------
================================================================
                 ALMO-EDA with the EDA2 driver                  
================================================================
 The second-generation ALMO-EDA (for DFT):                      
 P. R. Horn, Y. Mao and M. Head-Gordon, PCCP, 18, 23067 (2016)  
 Decomposition of the frozen energy:                            
 P. R. Horn, Y. Mao and M. Head-Gordon, JCP, 144, 114107 (2016) 
 FERF model for polarization:                                   
 P. R. Horn and M. Head-Gordon, JCP, 143, 114111 (2015)         
Using eda2 option set 1
Option set summary: Frozen orbital wavefunction, initial wavefunction decomposition, and nDQ polarization.
--------------------------------
Printing EDA Options
--------------------------------
eda_child_super_basis      0
fragmo_guess_mode          0
child_mp                   1
child_mp_orders            232
cls_elec                   1
cls_disp                   0
scfmi_mode                 1
scfmi_occs                 0
scfmi_virts                0
frz_relax                  0
frz_relax_method           0
dc_pen_start               0
dc_pen_conv                0
dc_pen_increment           0
dc_pen_steps               0
dc_pen_thresh_factor       0
dc_pen_pre_newton_thresh   0
frz_ortho_decomp           1
frz_ortho_decomp_conv      6
frgm_method                2
scfmi_freeze_ss            0
separate_rehyb             0
plot_diff_den              0
eda_nocv                   0
eda_vct_relax              1
disp_free_x                0
disp_free_c                0
eda_bsse                   0
eda_pct_a                  0
eda_covp                   0
--------------------------------
Attempting to make child job directory: /tmp/qchem49620//Frg1/
Attempting to make child job directory: /tmp/qchem49620//Frg2/
Creating input file /tmp/qchem49620/Frg1.input
using default PutDataFrgm: nothing
calling putenv with: QCSCRATCH=/tmp/qchem49620/ 
calling putenv with: QCLOCALSCR=/tmp/qchem49620/ 
Spawning Job For Fragment 0
                  Welcome to Q-Chem
     A Quantum Leap Into The Future Of Chemistry


 Q-Chem 5.2, Q-Chem, Inc., Pleasanton, CA (2019)

 License issued to: National Energy Research Scientific Computing Center

 Yihan Shao,  Zhengting Gan,  E. Epifanovsky,  A. T. B. Gilbert,  M. Wormit,  
 J. Kussmann,  A. W. Lange,  A. Behn,  Jia Deng,  Xintian Feng,  D. Ghosh,  
 M. Goldey,  P. R. Horn,  L. D. Jacobson,  I. Kaliman,  T. Kus,  A. Landau,  
 Jie Liu,  E. I. Proynov,  R. M. Richard,  R. P. Steele,  E. J. Sundstrom,  
 H. L. Woodcock III,  P. M. Zimmerman,  D. Zuev,  B. Albrecht,  E. Alguire,  
 S. A. Baeppler,  D. Barton,  Z. Benda,  Y. A. Bernard,  E. J. Berquist,  
 K. B. Bravaya,  H. Burton,  D. Casanova,  Chun-Min Chang,  Yunqing Chen,  
 A. Chien,  K. D. Closser,  M. P. Coons,  S. Coriani,  S. Dasgupta,  
 A. L. Dempwolff,  M. Diedenhofen,  Hainam Do,  R. G. Edgar,  Po-Tung Fang,  
 S. Faraji,  S. Fatehi,  Qingguo Feng,  K. D. Fenk,  J. Fosso-Tande,  
 J. Gayvert,  Qinghui Ge,  A. Ghysels,  G. Gidofalvi,  J. Gomes,  
 J. Gonthier,  A. Gunina,  D. Hait,  M. W. D. Hanson-Heine,  
 P. H. P. Harbach,  A. W. Hauser,  M. F. Herbst,  J. E. Herr,  
 E. G. Hohenstein,  Z. C. Holden,  Kerwin Hui,  B. C. Huynh,  T.-C. Jagau,  
 Hyunjun Ji,  B. Kaduk,  K. Khistyaev,  Jaehoon Kim,  P. Klunzinger,  K. Koh,  
 D. Kosenkov,  L. Koulias,  T. Kowalczyk,  C. M. Krauter,  A. Kunitsa,  
 Ka Un Lao,  A. Laurent,  K. V. Lawler,  Joonho Lee,  D. Lefrancois,  
 S. Lehtola,  D. S. Levine,  Yi-Pei Li,  You-Sheng Lin,  Fenglai Liu,  
 E. Livshits,  A. Luenser,  P. Manohar,  E. Mansoor,  S. F. Manzer,  
 Shan-Ping Mao,  Yuezhi Mao,  N. Mardirossian,  A. V. Marenich,  
 T. Markovich,  L. A. Martinez-Martinez,  S. A. Maurer,  N. J. Mayhall,  
 S. C. McKenzie,  J.-M. Mewes,  P. Morgante,  A. F. Morrison,  
 J. W. Mullinax,  K. Nanda,  T. S. Nguyen-Beck,  R. Olivares-Amaya,  
 J. A. Parkhill,  Zheng Pei,  T. M. Perrine,  F. Plasser,  P. Pokhilko,  
 S. Prager,  A. Prociuk,  E. Ramos,  D. R. Rehn,  F. Rob,  M. Scheurer,  
 M. Schneider,  N. Sergueev,  S. M. Sharada,  S. Sharma,  D. W. Small,  
 T. Stauch,  T. Stein,  Yu-Chuan Su,  A. J. W. Thom,  A. Tkatchenko,  
 T. Tsuchimochi,  N. M. Tubman,  L. Vogt,  M. L. Vidal,  O. Vydrov,  
 M. A. Watson,  J. Wenzel,  M. de Wergifosse,  T. A. Wesolowski,  A. White,  
 J. Witte,  A. Yamada,  Jun Yang,  K. Yao,  S. Yeganeh,  S. R. Yost,  
 Zhi-Qiang You,  A. Zech,  Igor Ying Zhang,  Xing Zhang,  Yan Zhao,  
 Ying Zhu,  B. R. Brooks,  G. K. L. Chan,  C. J. Cramer,  M. S. Gordon,  
 W. J. Hehre,  A. Klamt,  M. W. Schmidt,  C. D. Sherrill,  D. G. Truhlar,  
 A. Aspuru-Guzik,  R. Baer,  A. T. Bell,  N. A. Besley,  Jeng-Da Chai,  
 A. E. DePrince, III,  R. A. DiStasio Jr.,  A. Dreuw,  B. D. Dunietz,  
 T. R. Furlani,  Chao-Ping Hsu,  Yousung Jung,  Jing Kong,  D. S. Lambrecht,  
 WanZhen Liang,  C. Ochsenfeld,  V. A. Rassolov,  L. V. Slipchenko,  
 J. E. Subotnik,  T. Van Voorhis,  J. M. Herbert,  A. I. Krylov,  
 P. M. W. Gill,  M. Head-Gordon

 Contributors to earlier versions of Q-Chem not listed above: 
 R. D. Adamson,  B. Austin,  J. Baker,  G. J. O. Beran,  K. Brandhorst,  
 S. T. Brown,  E. F. C. Byrd,  A. K. Chakraborty,  C.-L. Cheng,  
 Siu Hung Chien,  D. M. Chipman,  D. L. Crittenden,  H. Dachsel,  
 R. J. Doerksen,  A. D. Dutoi,  L. Fusti-Molnar,  W. A. Goddard III,  
 A. Golubeva-Zadorozhnaya,  S. R. Gwaltney,  G. Hawkins,  A. Heyden,  
 S. Hirata,  G. Kedziora,  F. J. Keil,  C. Kelley,  Jihan Kim,  R. A. King,  
 R. Z. Khaliullin,  P. P. Korambath,  W. Kurlancheek,  A. M. Lee,  M. S. Lee,  
 S. V. Levchenko,  Ching Yeh Lin,  D. Liotard,  R. C. Lochan,  I. Lotan,  
 P. E. Maslen,  N. Nair,  D. P. O'Neill,  D. Neuhauser,  E. Neuscamman,  
 C. M. Oana,  R. Olson,  B. Peters,  R. Peverati,  P. A. Pieniazek,  
 Y. M. Rhee,  J. Ritchie,  M. A. Rohrdanz,  E. Rosta,  N. J. Russ,  
 H. F. Schaefer III,  N. E. Schultz,  N. Shenvi,  A. C. Simmonett,  A. Sodt,  
 D. Stuck,  K. S. Thanthiriwatte,  V. Vanovschi,  Tao Wang,  A. Warshel,  
 C. F. Williams,  Q. Wu,  X. Xu,  W. Zhang

 Please cite Q-Chem as follows:
 Y. Shao et al., Mol. Phys. 113, 184-215 (2015)
 DOI: 10.1080/00268976.2014.952696

 Q-Chem 5.2.0 for Intel X86 EM64T Linux

 Parts of Q-Chem use Armadillo 8.300.2 (Tropical Shenanigans).
 http://arma.sourceforge.net/

 Q-Chem begins on Sun Sep 26 08:44:10 2021  

Host: cori01
0

     Scratch files written to /tmp/qchem49620//Frg1//
 May1019 |scratch|qcdevops|jenkins|workspace|build_RNUM -1
Processing $rem in /global/common/cori/software/qchem/5.2/config/preferences:
	 MEM_TOTAL  96000 
NAlpha2: 32
NElect   32
Mult     1
Symmetry turned off for PCM/SM12/SMD calculation

Checking the input file for inconsistencies... 	...done.

--------------------------------------------------------------
User input:
--------------------------------------------------------------
$molecule
-1 1
 6	1.3524345994	-2.9538457593	-1.6307997331
 6	0.5924345994	-1.7038457593	-1.2717997331
 8	-0.6265654006	-1.7998457593	-0.9887997331
 8	1.2744345994	-0.6728457593	-1.1787997331
 1	0.6654345994	-3.7458457593	-1.9267997331
 1	1.8664345994	-3.2928457593	-0.7277997331
 1	2.1002945994	-2.7960607593	-2.4218847331
$end
$rem
EDA2		1
METHOD		WB97X-V
BASIS		DEF2-TZVPD
XC_GRID		000099000590
NL_GRID		1
UNRESTRICTED		FALSE
MAX_SCF_CYCLES		200
SYMMETRY		FALSE
SYM_IGNORE		TRUE
BASIS_LIN_DEP_THRESH		6
THRESH		14
SCF_CONVERGENCE		8
SCF_PRINT_FRGM		TRUE
SOLVENT_METHOD		SMD
!required keywords
JOBTYPE		SP
SYM_IGNORE		TRUE
SUBSYSTEM		TRUE
GEN_SCFMAN		TRUE
CHILD_INSTRUCTION		2
SYM_IGNORE		TRUE
SCFMI		0
RI_K 0		
PARI_K 0		
MIN_PARI_K 0		
IARI_K 0		
OCC_RI_K 0		
PURECART		1111
MEM_STATIC		2000
MEM_TOTAL		96000
GUI		0
CHILD_MP		1
CHILD_MP_ORDERS		232
FRZ_RELAX		0
FRZ_RELAX_METHOD		0
EDA_CLS_ELEC		1
EDA_CLS_DISP		0
FRZ_ORTHO_DECOMP		1
EDA2		FALSE
FRGM_METHOD		FALSE
CIS_N_ROOTS  0
LOCAL_CIS    0
CIS_RLX_DNS  1
$end
$smx
SOLVENT			WATER
$end
--------------------------------------------------------------
 ----------------------------------------------------------------
             Standard Nuclear Orientation (Angstroms)
    I     Atom           X                Y                Z
 ----------------------------------------------------------------
    1      C       1.3524345994    -2.9538457593    -1.6307997331
    2      C       0.5924345994    -1.7038457593    -1.2717997331
    3      O      -0.6265654006    -1.7998457593    -0.9887997331
    4      O       1.2744345994    -0.6728457593    -1.1787997331
    5      H       0.6654345994    -3.7458457593    -1.9267997331
    6      H       1.8664345994    -3.2928457593    -0.7277997331
    7      H       2.1002945994    -2.7960607593    -2.4218847331
 ----------------------------------------------------------------
 Nuclear Repulsion Energy =         113.21389910 hartrees
 There are       16 alpha and       16 beta electrons
 Requested basis set is def2-TZVPD
 There are 69 shells and 181 basis functions

 Total QAlloc Memory Limit  96000 MB
 Mega-Array Size      1956 MB
 MEM_STATIC part      2000 MB
 
 Citation of the SMD model:
 Marenich, A.V.; Cramer, C.J.; Truhlar, D.G.
 J. Phys. Chem. B 2009, 113, 6378-6396.
 iSolventCode=           1
 Solvent: water                                                           
 
 vradii
            1           2           3           4           5           6
    1   1.8500000   1.8500000   1.5200000   1.5200000   1.2000000   1.2000000
            7
    1   1.2000000
 Changing PCM_VDW_RADII to SMD_RADIUS
 Discretize the solute cavity surface with Lebedev spheres
	Using 110 Lebedev grid points for each H atom
	Using 194 Lebedev grid points for other atoms
	Atomic van der Waals radii will be scaled by 1.20
 Remove points where switching function is < 1.0e-08
 Keep 648 surface tesserae and discard 458 interior tesserae
 Molecular Surface Area = 79.654 Angst**2

                       Distance Matrix (Angstroms)
             C (  1)   C (  2)   O (  3)   O (  4)   H (  5)   H (  6)
   C (  2)  1.506314
   O (  3)  2.379143  1.255096
   O (  4)  2.326660  1.239651  2.218114
   H (  5)  1.089426  2.145721  2.517146  3.220825
   H (  6)  1.092944  2.108064  2.917571  2.723649  1.756477
   H (  7)  1.100003  2.188440  3.237583  2.595255  1.790537  1.780845

 
 A cutoff of  1.0D-14 yielded   2391 shell pairs
 There are     16695 function pairs (     21491 Cartesian)
 Smallest overlap matrix eigenvalue = 1.69E-05

 Scale SEOQF with 1.000000e-01/1.000000e-01/1.000000e-01

 Standard Electronic Orientation quadrupole field applied
 Nucleus-field energy     =     0.0000000049 hartrees
 Guess from superposition of atomic densities
 Warning:  Energy on first SCF cycle will be non-variational
 SAD guess density has 30.625312 electrons

 -----------------------------------------------------------------------
  General SCF calculation program by
  Eric Jon Sundstrom, Paul Horn, Yuezhi Mao, Dmitri Zuev, Alec White,
  David Stuck, Shaama M.S., Shane Yost, Joonho Lee, David Small,
  Daniel Levine, Susi Lehtola, Hugh Burton, Evgeny Epifanovsky
 -----------------------------------------------------------------------
 Exchange:     0.1670 Hartree-Fock + 1.0000 wB97X-V + LR-HF
 Correlation:  1.0000 wB97X-V
 Using Euler-Maclaurin-Lebedev (99,590) quadrature formula
 Nonlocal Correlation:  VV10 with C = 0.0100 and b = 6.00 and scale = 1.00000
 Grid used for NLC:  SG-1 standard quadrature
Energy prior to optimization (guess energy) = -227.771804390666
Begin Timing: Total SCF Calculation
begin iterations for algorithm: DIIS         
the SCF tolerance is set to 1.00e-08
    1    -227.7718043907      1.65e-02     00000 
    2    -225.6847019637      2.47e-02     00000 
    3    -228.6061149811      4.07e-03     00000 
    4    -228.6585512530      1.40e-03     00000 
    5    -228.6644445814      3.23e-04     00000 
    6    -228.6647364864      2.21e-04     00000 
    7    -228.6648696597      4.58e-05     00000 
    8    -228.6648784457      1.26e-05     00000 
    9    -228.6648794828      3.48e-06     00000 
   10    -228.6648795788      1.04e-06     00000 
   11    -228.6648795875      2.09e-07     00000 
   12    -228.6648795878      4.69e-08     00000 
   13    -228.6648795879      1.12e-08     00000 
   14    -228.6648795879      2.75e-09     00000 Convergence criterion met
Timing for Total SCF: 284.00s (wall), 549.72s (cpu)
(3)  G-ENP(liq) elect-nuc-pol free energy of system     -228.664879588 a.u.
(4)  G-CDS(liq) cavity-dispersion-solvent structure 
     free energy                                                3.8972 kcal/mol
(6)  G-S(liq) free energy of system                     -228.658669012 a.u.
E_pcm = -0.1293404412
E_cds = 0.0062105758
Multipole orders to be included
        2
        3
computing dipole RHS
computing quadrupole RHS
total number of RHS in solve_reponses: 8
RHS batch sizes
        8
Beginning Block Conjugate Gradient Iterations. Batch Number: 0
computing hessian-vector products by finite difference
              1      7.24e-01     00000 Conjugate Gradient Iteration
computing hessian-vector products by finite difference
              2      2.28e-01     00000 Conjugate Gradient Iteration
computing hessian-vector products by finite difference
              3      6.16e-02     00000 Conjugate Gradient Iteration
computing hessian-vector products by finite difference
              4      1.62e-02     00000 Conjugate Gradient Iteration
computing hessian-vector products by finite difference
              5      2.42e-03     00000 Conjugate Gradient Iteration
computing hessian-vector products by finite difference
              6      6.36e-04     00000 Conjugate Gradient Iteration
computing hessian-vector products by finite difference
              7      8.94e-05     00000 Conjugate Gradient Iteration
computing hessian-vector products by finite difference
              8      1.09e-05     00000 Conjugate Gradient Iteration
computing hessian-vector products by finite difference
              9      1.70e-06     00000 Conjugate Gradient Iteration
computing hessian-vector products by finite difference
             10      1.71e-07     00000 Conjugate Gradient Iteration
computing hessian-vector products by finite difference
             11      2.05e-08     00000 Conjugate Gradient Iteration
computing hessian-vector products by finite difference
             12      5.30e-09     00000 CG Converged
batch 0 complete
Done Calculating Responses
TESTING ORTHOGONALIZATION OF MULTIPOLE BASIS
Multipole virts passed orthogonality test
Virts Per Order
        48
        80
 
 --------------------------------------------------------------
 
                    Orbital Energies (a.u.)
 --------------------------------------------------------------
 
 Alpha MOs
 -- Occupied --
-19.1539 -19.1530 -10.3519 -10.2430  -1.1670  -1.0703  -0.8402  -0.6175
 -0.5491  -0.5474  -0.5434  -0.4825  -0.4603  -0.3675  -0.3545  -0.3476
 -- Virtual --
  0.0668   0.0999   0.1011   0.1073   0.1356   0.1422   0.1456   0.1503
  0.1600   0.1914   0.2049   0.2219   0.2365   0.2415   0.2583   0.2667
  0.2985   0.3130   0.3340   0.3455   0.3568   0.3622   0.3737   0.3806
  0.3881   0.4058   0.4141   0.4244   0.4324   0.4560   0.4653   0.4721
  0.4834   0.4891   0.5036   0.5133   0.5460   0.5684   0.5757   0.5956
  0.6102   0.6284   0.6382   0.6446   0.6481   0.6772   0.6876   0.6955
  0.7123   0.7273   0.7765   0.7932   0.8089   0.8134   0.8309   0.8509
  0.8628   0.9547   0.9728   0.9812   0.9913   1.0282   1.0488   1.0913
  1.1320   1.2097   1.2383   1.2585   1.2678   1.3053   1.3444   1.3727
  1.4279   1.5552   1.5790   1.7407   1.8074   1.8515   1.8597   1.8850
  1.9241   1.9402   1.9508   1.9586   2.0164   2.1025   2.1135   2.1711
  2.1795   2.2256   2.2766   2.3198   2.4029   2.4390   2.4506   2.4926
  2.5591   2.5836   2.6259   2.6456   2.7738   2.8016   2.8679   2.8794
  2.9431   3.0135   3.0443   3.1476   3.2037   3.2337   3.2579   3.3011
  3.3290   3.3402   3.3800   3.4016   3.4158   3.4990   3.5612   3.5773
  3.5850   3.6458   3.6929   3.7306   3.7568   3.8672   3.9377   4.0621
  4.0937   4.2049   4.3510   4.5588   4.6392   4.6625   4.7682   4.8157
  4.9661   5.2949   5.3262   5.3332   5.3473   5.4956   5.6990   5.7128
  5.7834   6.0015   6.2546   6.3016   6.3259   6.6004   6.6267   6.6660
  6.7167   6.7272   6.9333   6.9394   7.0256   7.2053   7.3440   7.3794
  7.3953  22.6058  23.7519  44.1962  44.3406
 --------------------------------------------------------------
 
          Ground-State Mulliken Net Atomic Charges

     Atom                 Charge (a.u.)
  ----------------------------------------
      1 C                    -0.599812
      2 C                     0.494195
      3 O                    -0.777088
      4 O                    -0.756370
      5 H                     0.214887
      6 H                     0.189954
      7 H                     0.234233
  ----------------------------------------
  Sum of atomic charges =    -1.000000

 -----------------------------------------------------------------
                    Cartesian Multipole Moments
 -----------------------------------------------------------------
    Charge (ESU x 10^10)
                -4.8032
    Dipole Moment (Debye)
         X      -0.3920      Y       4.1718      Z       4.6319
       Tot       6.2460
    Quadrupole Moments (Debye-Ang)
        XX     -32.6258     XY      -5.2518     YY     -30.6561
        XZ       0.9688     YZ      -3.3582     ZZ     -29.4073
    Octopole Moments (Debye-Ang^2)
       XXX     -59.3295    XXY      51.7262    XYY      -3.9056
       YYY     149.9873    XXZ      40.6484    XYZ       4.9404
       YYZ      36.3866    XZZ     -17.9335    YZZ      48.3156
       ZZZ     100.3304
    Hexadecapole Moments (Debye-Ang^3)
      XXXX    -227.4857   XXXY     103.9640   XXYY    -151.4754
      XYYY      77.6511   YYYY    -696.0148   XXXZ      87.0394
      XXYZ     -69.8185   XYYZ      15.1899   YYYZ    -200.8846
      XXZZ     -91.1113   XYZZ      26.6762   YYZZ    -161.5321
      XZZZ      77.5335   YZZZ    -191.2335   ZZZZ    -293.7267
 -----------------------------------------------------------------
Archival summary:
1\1\nid00563\SP\ProcedureUnspecified\BasisUnspecified\223(1-,1)\meili\SunSep2609:58:232021SunSep2609:58:232021\0\\#,ProcedureUnspecified,BasisUnspecified,\\-1,1\C\O,1,1.23965\O,1,1.2551,2,125.523\C,1,1.50631,2,115.497,3,-173.871,0\H,4,1.08943,1,110.479,2,-166.252,0\H,4,1.09294,1,107.323,2,77.1981,0\H,4,1.1,1,113.29,2,-42.6696,0\\\@

 Total job time:  4452.96s(wall), 8712.60s(cpu) 
 Sun Sep 26 09:58:23 2021

        *************************************************************
        *                                                           *
        *  Thank you very much for using Q-Chem.  Have a nice day.  *
        *                                                           *
        *************************************************************


Done Job For Fragment 0
calling putenv with: QCSCRATCH=/global/cscratch1/sd/meili 
calling putenv with: QCLOCALSCR=/tmp 
calling putenv with: QCTHREADS=32 
Creating input file /tmp/qchem49620/Frg2.input
using default PutDataFrgm: nothing
calling putenv with: QCSCRATCH=/tmp/qchem49620/ 
calling putenv with: QCLOCALSCR=/tmp/qchem49620/ 
Spawning Job For Fragment 1
                  Welcome to Q-Chem
     A Quantum Leap Into The Future Of Chemistry


 Q-Chem 5.2, Q-Chem, Inc., Pleasanton, CA (2019)

 License issued to: National Energy Research Scientific Computing Center

 Yihan Shao,  Zhengting Gan,  E. Epifanovsky,  A. T. B. Gilbert,  M. Wormit,  
 J. Kussmann,  A. W. Lange,  A. Behn,  Jia Deng,  Xintian Feng,  D. Ghosh,  
 M. Goldey,  P. R. Horn,  L. D. Jacobson,  I. Kaliman,  T. Kus,  A. Landau,  
 Jie Liu,  E. I. Proynov,  R. M. Richard,  R. P. Steele,  E. J. Sundstrom,  
 H. L. Woodcock III,  P. M. Zimmerman,  D. Zuev,  B. Albrecht,  E. Alguire,  
 S. A. Baeppler,  D. Barton,  Z. Benda,  Y. A. Bernard,  E. J. Berquist,  
 K. B. Bravaya,  H. Burton,  D. Casanova,  Chun-Min Chang,  Yunqing Chen,  
 A. Chien,  K. D. Closser,  M. P. Coons,  S. Coriani,  S. Dasgupta,  
 A. L. Dempwolff,  M. Diedenhofen,  Hainam Do,  R. G. Edgar,  Po-Tung Fang,  
 S. Faraji,  S. Fatehi,  Qingguo Feng,  K. D. Fenk,  J. Fosso-Tande,  
 J. Gayvert,  Qinghui Ge,  A. Ghysels,  G. Gidofalvi,  J. Gomes,  
 J. Gonthier,  A. Gunina,  D. Hait,  M. W. D. Hanson-Heine,  
 P. H. P. Harbach,  A. W. Hauser,  M. F. Herbst,  J. E. Herr,  
 E. G. Hohenstein,  Z. C. Holden,  Kerwin Hui,  B. C. Huynh,  T.-C. Jagau,  
 Hyunjun Ji,  B. Kaduk,  K. Khistyaev,  Jaehoon Kim,  P. Klunzinger,  K. Koh,  
 D. Kosenkov,  L. Koulias,  T. Kowalczyk,  C. M. Krauter,  A. Kunitsa,  
 Ka Un Lao,  A. Laurent,  K. V. Lawler,  Joonho Lee,  D. Lefrancois,  
 S. Lehtola,  D. S. Levine,  Yi-Pei Li,  You-Sheng Lin,  Fenglai Liu,  
 E. Livshits,  A. Luenser,  P. Manohar,  E. Mansoor,  S. F. Manzer,  
 Shan-Ping Mao,  Yuezhi Mao,  N. Mardirossian,  A. V. Marenich,  
 T. Markovich,  L. A. Martinez-Martinez,  S. A. Maurer,  N. J. Mayhall,  
 S. C. McKenzie,  J.-M. Mewes,  P. Morgante,  A. F. Morrison,  
 J. W. Mullinax,  K. Nanda,  T. S. Nguyen-Beck,  R. Olivares-Amaya,  
 J. A. Parkhill,  Zheng Pei,  T. M. Perrine,  F. Plasser,  P. Pokhilko,  
 S. Prager,  A. Prociuk,  E. Ramos,  D. R. Rehn,  F. Rob,  M. Scheurer,  
 M. Schneider,  N. Sergueev,  S. M. Sharada,  S. Sharma,  D. W. Small,  
 T. Stauch,  T. Stein,  Yu-Chuan Su,  A. J. W. Thom,  A. Tkatchenko,  
 T. Tsuchimochi,  N. M. Tubman,  L. Vogt,  M. L. Vidal,  O. Vydrov,  
 M. A. Watson,  J. Wenzel,  M. de Wergifosse,  T. A. Wesolowski,  A. White,  
 J. Witte,  A. Yamada,  Jun Yang,  K. Yao,  S. Yeganeh,  S. R. Yost,  
 Zhi-Qiang You,  A. Zech,  Igor Ying Zhang,  Xing Zhang,  Yan Zhao,  
 Ying Zhu,  B. R. Brooks,  G. K. L. Chan,  C. J. Cramer,  M. S. Gordon,  
 W. J. Hehre,  A. Klamt,  M. W. Schmidt,  C. D. Sherrill,  D. G. Truhlar,  
 A. Aspuru-Guzik,  R. Baer,  A. T. Bell,  N. A. Besley,  Jeng-Da Chai,  
 A. E. DePrince, III,  R. A. DiStasio Jr.,  A. Dreuw,  B. D. Dunietz,  
 T. R. Furlani,  Chao-Ping Hsu,  Yousung Jung,  Jing Kong,  D. S. Lambrecht,  
 WanZhen Liang,  C. Ochsenfeld,  V. A. Rassolov,  L. V. Slipchenko,  
 J. E. Subotnik,  T. Van Voorhis,  J. M. Herbert,  A. I. Krylov,  
 P. M. W. Gill,  M. Head-Gordon

 Contributors to earlier versions of Q-Chem not listed above: 
 R. D. Adamson,  B. Austin,  J. Baker,  G. J. O. Beran,  K. Brandhorst,  
 S. T. Brown,  E. F. C. Byrd,  A. K. Chakraborty,  C.-L. Cheng,  
 Siu Hung Chien,  D. M. Chipman,  D. L. Crittenden,  H. Dachsel,  
 R. J. Doerksen,  A. D. Dutoi,  L. Fusti-Molnar,  W. A. Goddard III,  
 A. Golubeva-Zadorozhnaya,  S. R. Gwaltney,  G. Hawkins,  A. Heyden,  
 S. Hirata,  G. Kedziora,  F. J. Keil,  C. Kelley,  Jihan Kim,  R. A. King,  
 R. Z. Khaliullin,  P. P. Korambath,  W. Kurlancheek,  A. M. Lee,  M. S. Lee,  
 S. V. Levchenko,  Ching Yeh Lin,  D. Liotard,  R. C. Lochan,  I. Lotan,  
 P. E. Maslen,  N. Nair,  D. P. O'Neill,  D. Neuhauser,  E. Neuscamman,  
 C. M. Oana,  R. Olson,  B. Peters,  R. Peverati,  P. A. Pieniazek,  
 Y. M. Rhee,  J. Ritchie,  M. A. Rohrdanz,  E. Rosta,  N. J. Russ,  
 H. F. Schaefer III,  N. E. Schultz,  N. Shenvi,  A. C. Simmonett,  A. Sodt,  
 D. Stuck,  K. S. Thanthiriwatte,  V. Vanovschi,  Tao Wang,  A. Warshel,  
 C. F. Williams,  Q. Wu,  X. Xu,  W. Zhang

 Please cite Q-Chem as follows:
 Y. Shao et al., Mol. Phys. 113, 184-215 (2015)
 DOI: 10.1080/00268976.2014.952696

 Q-Chem 5.2.0 for Intel X86 EM64T Linux

 Parts of Q-Chem use Armadillo 8.300.2 (Tropical Shenanigans).
 http://arma.sourceforge.net/

 Q-Chem begins on Sun Sep 26 09:58:24 2021  

Host: cori01
0

     Scratch files written to /tmp/qchem49620//Frg2//
 May1019 |scratch|qcdevops|jenkins|workspace|build_RNUM -1
Processing $rem in /global/common/cori/software/qchem/5.2/config/preferences:
	 MEM_TOTAL  96000 
NAlpha2: 40
NElect   40
Mult     1
Symmetry turned off for PCM/SM12/SMD calculation

Checking the input file for inconsistencies... 	...done.

--------------------------------------------------------------
User input:
--------------------------------------------------------------
$molecule
1 1
 6	1.3704345994	2.0231542407	1.1682002669
 6	-0.9785654006	1.2851542407	0.9682002669
 7	-1.8215654006	0.4511542407	0.3752002669
 7	0.2994345994	1.1681542407	0.6772002669
 7	-1.4175654006	2.1741542407	1.8382002669
 1	-1.4275654006	-0.2778457593	-0.2257997331
 1	-2.8115654006	0.4361542407	0.5532002669
 1	0.5514345994	0.4651542407	-0.0197997331
 1	-0.7675654006	2.7611542407	2.3472002669
 1	-2.4055654006	2.2951542407	1.9772002669
 1	0.9874345994	3.0271542407	1.3522002669
 1	2.1254345994	2.1101542407	0.3842002669
 1	1.8556645994	1.6202542407	2.0694382669
$end
$rem
EDA2		1
METHOD		WB97X-V
BASIS		DEF2-TZVPD
XC_GRID		000099000590
NL_GRID		1
UNRESTRICTED		FALSE
MAX_SCF_CYCLES		200
SYMMETRY		FALSE
SYM_IGNORE		TRUE
BASIS_LIN_DEP_THRESH		6
THRESH		14
SCF_CONVERGENCE		8
SCF_PRINT_FRGM		TRUE
SOLVENT_METHOD		SMD
!required keywords
JOBTYPE		SP
SYM_IGNORE		TRUE
SUBSYSTEM		TRUE
GEN_SCFMAN		TRUE
CHILD_INSTRUCTION		2
SYM_IGNORE		TRUE
SCFMI		0
RI_K 0		
PARI_K 0		
MIN_PARI_K 0		
IARI_K 0		
OCC_RI_K 0		
PURECART		1111
MEM_STATIC		2000
MEM_TOTAL		96000
GUI		0
CHILD_MP		1
CHILD_MP_ORDERS		232
FRZ_RELAX		0
FRZ_RELAX_METHOD		0
EDA_CLS_ELEC		1
EDA_CLS_DISP		0
FRZ_ORTHO_DECOMP		1
EDA2		FALSE
FRGM_METHOD		FALSE
CIS_N_ROOTS  0
LOCAL_CIS    0
CIS_RLX_DNS  1
$end
$smx
SOLVENT			WATER
$end
--------------------------------------------------------------
 ----------------------------------------------------------------
             Standard Nuclear Orientation (Angstroms)
    I     Atom           X                Y                Z
 ----------------------------------------------------------------
    1      C       1.3704345994     2.0231542407     1.1682002669
    2      C      -0.9785654006     1.2851542407     0.9682002669
    3      N      -1.8215654006     0.4511542407     0.3752002669
    4      N       0.2994345994     1.1681542407     0.6772002669
    5      N      -1.4175654006     2.1741542407     1.8382002669
    6      H      -1.4275654006    -0.2778457593    -0.2257997331
    7      H      -2.8115654006     0.4361542407     0.5532002669
    8      H       0.5514345994     0.4651542407    -0.0197997331
    9      H      -0.7675654006     2.7611542407     2.3472002669
   10      H      -2.4055654006     2.2951542407     1.9772002669
   11      H       0.9874345994     3.0271542407     1.3522002669
   12      H       2.1254345994     2.1101542407     0.3842002669
   13      H       1.8556645994     1.6202542407     2.0694382669
 ----------------------------------------------------------------
 Nuclear Repulsion Energy =         194.24222240 hartrees
 There are       20 alpha and       20 beta electrons
 Requested basis set is def2-TZVPD
 There are 105 shells and 257 basis functions

 Total QAlloc Memory Limit  96000 MB
 Mega-Array Size      1956 MB
 MEM_STATIC part      2000 MB
 
 Citation of the SMD model:
 Marenich, A.V.; Cramer, C.J.; Truhlar, D.G.
 J. Phys. Chem. B 2009, 113, 6378-6396.
 iSolventCode=           1
 Solvent: water                                                           
 
 vradii
            1           2           3           4           5           6
    1   1.8500000   1.8500000   1.8900000   1.8900000   1.8900000   1.2000000
            7           8           9          10          11          12
    1   1.2000000   1.2000000   1.2000000   1.2000000   1.2000000   1.2000000
           13
    1   1.2000000
 Changing PCM_VDW_RADII to SMD_RADIUS
 Discretize the solute cavity surface with Lebedev spheres
	Using 110 Lebedev grid points for each H atom
	Using 194 Lebedev grid points for other atoms
	Atomic van der Waals radii will be scaled by 1.20
 Remove points where switching function is < 1.0e-08
 Keep 906 surface tesserae and discard 944 interior tesserae
 Molecular Surface Area = 113.699 Angst**2

                       Distance Matrix (Angstroms)
             C (  1)   C (  2)   N (  3)   N (  4)   N (  5)   H (  6)
   C (  2)  2.470313
   N (  3)  3.645394  1.325841
   N (  4)  1.455729  1.315923  2.259189
   N (  5)  2.871349  1.319069  2.296152  2.303920
   H (  6)  3.881577  2.017475  1.023659  2.426696  3.205074
   H (  7)  4.515077  2.062260  1.005987  3.198362  2.571985  1.741291
   H (  8)  2.123551  1.997359  2.405691  1.021529  3.201532  2.123894
   H (  9)  2.550633  2.030945  3.214934  2.542644  1.012991  4.036267
   H ( 10)  3.871258  2.018542  2.511533  3.205800  1.005040  3.525624
   H ( 11)  1.090211  2.654652  3.934563  2.094003  2.597659  4.386950
   H ( 12)  1.091902  3.264429  4.281492  2.075449  3.830282  4.324171
   H ( 13)  1.100003  3.059065  4.214173  2.136486  3.327809  4.432888
             H (  7)   H (  8)   H (  9)   H ( 10)   H ( 11)   H ( 12)
   H (  8)  3.411589
   H (  9)  3.577988  3.551629
   H ( 10)  2.376656  4.010082  1.742728
   H ( 11)  4.667342  2.938762  2.034897  3.526882
   H ( 12)  5.215823  2.312297  3.556209  4.806437  1.752985
   H ( 13)  5.048179  2.720329  2.874046  4.315331  1.802116  1.775614

 
 A cutoff of  1.0D-14 yielded   5443 shell pairs
 There are     33171 function pairs (     41504 Cartesian)
 Smallest overlap matrix eigenvalue = 1.64E-05

 Scale SEOQF with 1.000000e-01/1.000000e-01/1.000000e-01

 Standard Electronic Orientation quadrupole field applied
 Nucleus-field energy     =     0.0000000044 hartrees
 Guess from superposition of atomic densities
 Warning:  Energy on first SCF cycle will be non-variational
 SAD guess density has 40.388232 electrons

 -----------------------------------------------------------------------
  General SCF calculation program by
  Eric Jon Sundstrom, Paul Horn, Yuezhi Mao, Dmitri Zuev, Alec White,
  David Stuck, Shaama M.S., Shane Yost, Joonho Lee, David Small,
  Daniel Levine, Susi Lehtola, Hugh Burton, Evgeny Epifanovsky
 -----------------------------------------------------------------------
 Exchange:     0.1670 Hartree-Fock + 1.0000 wB97X-V + LR-HF
 Correlation:  1.0000 wB97X-V
 Using Euler-Maclaurin-Lebedev (99,590) quadrature formula
 Nonlocal Correlation:  VV10 with C = 0.0100 and b = 6.00 and scale = 1.00000
 Grid used for NLC:  SG-1 standard quadrature
Energy prior to optimization (guess energy) = -244.725264050613
Begin Timing: Total SCF Calculation
begin iterations for algorithm: DIIS         
the SCF tolerance is set to 1.00e-08
    1    -244.7252640506      7.93e-03     00000 
    2    -244.9647937992      6.23e-03     00000 
    3    -245.2045637315      3.15e-04     00000 
    4    -245.2054638296      1.60e-04     00000 
    5    -245.2056676526      4.41e-05     00000 
    6    -245.2056843146      1.85e-05     00000 
    7    -245.2056870838      3.30e-06     00000 
    8    -245.2056872562      8.74e-07     00000 
    9    -245.2056872671      3.53e-07     00000 
   10    -245.2056872692      7.64e-08     00000 
   11    -245.2056872694      2.13e-08     00000 
   12    -245.2056872694      1.09e-08     00000 
   13    -245.2056872694      2.37e-09     00000 Convergence criterion met
Timing for Total SCF: 731.00s (wall), 1449.04s (cpu)
(3)  G-ENP(liq) elect-nuc-pol free energy of system     -245.205687269 a.u.
(4)  G-CDS(liq) cavity-dispersion-solvent structure 
     free energy                                                2.8107 kcal/mol
(6)  G-S(liq) free energy of system                     -245.201208061 a.u.
E_pcm = -0.1082444385
E_cds = 0.0044792088
Multipole orders to be included
        2
        3
computing dipole RHS
computing quadrupole RHS
total number of RHS in solve_reponses: 8
RHS batch sizes
        8
Beginning Block Conjugate Gradient Iterations. Batch Number: 0
computing hessian-vector products by finite difference
              1      4.82e-01     00000 Conjugate Gradient Iteration
computing hessian-vector products by finite difference
              2      1.83e-01     00000 Conjugate Gradient Iteration
computing hessian-vector products by finite difference
              3      5.36e-02     00000 Conjugate Gradient Iteration
computing hessian-vector products by finite difference
              4      1.49e-02     00000 Conjugate Gradient Iteration
computing hessian-vector products by finite difference
              5      2.13e-03     00000 Conjugate Gradient Iteration
computing hessian-vector products by finite difference
              6      3.70e-04     00000 Conjugate Gradient Iteration
computing hessian-vector products by finite difference
              7      4.96e-05     00000 Conjugate Gradient Iteration
computing hessian-vector products by finite difference
              8      6.55e-06     00000 Conjugate Gradient Iteration
computing hessian-vector products by finite difference
              9      9.58e-07     00000 Conjugate Gradient Iteration
computing hessian-vector products by finite difference
             10      1.25e-07     00000 Conjugate Gradient Iteration
computing hessian-vector products by finite difference
             11      1.91e-08     00000 Conjugate Gradient Iteration
computing hessian-vector products by finite difference
             12      2.79e-09     00000 CG Converged
batch 0 complete
Done Calculating Responses
TESTING ORTHOGONALIZATION OF MULTIPOLE BASIS
Multipole virts passed orthogonality test
Virts Per Order
           60
          100
 
 --------------------------------------------------------------
 
                    Orbital Energies (a.u.)
 --------------------------------------------------------------
 
 Alpha MOs
 -- Occupied --
-14.4555 -14.4487 -14.4444 -10.4224 -10.3042  -1.1737  -1.0554  -1.0414
 -0.8546  -0.7645  -0.7202  -0.6879  -0.6185  -0.6068  -0.5963  -0.5704
 -0.5260  -0.5050  -0.3994  -0.3756
 -- Virtual --
  0.0585   0.0854   0.0981   0.1041   0.1237   0.1261   0.1387   0.1510
  0.1708   0.1745   0.1951   0.1981   0.2052   0.2119   0.2248   0.2404
  0.2417   0.2469   0.2476   0.2738   0.2808   0.2848   0.2926   0.3058
  0.3104   0.3214   0.3257   0.3281   0.3373   0.3461   0.3540   0.3618
  0.3708   0.3715   0.3799   0.3931   0.4044   0.4118   0.4180   0.4290
  0.4411   0.4459   0.4635   0.4667   0.4789   0.4816   0.4843   0.4970
  0.5015   0.5126   0.5159   0.5241   0.5326   0.5443   0.5505   0.5532
  0.5654   0.5710   0.5803   0.5890   0.6053   0.6191   0.6376   0.6525
  0.6616   0.6807   0.6863   0.7035   0.7282   0.7400   0.7463   0.7671
  0.8011   0.8053   0.8190   0.8265   0.8354   0.8450   0.8617   0.8689
  0.8793   0.8908   0.9027   0.9240   0.9362   0.9793   0.9899   0.9959
  1.0374   1.0653   1.0715   1.0956   1.1029   1.1152   1.1352   1.1475
  1.1573   1.1834   1.2146   1.2600   1.2753   1.3476   1.3665   1.4146
  1.4312   1.4540   1.4822   1.4916   1.5599   1.5745   1.6337   1.6776
  1.6895   1.7173   1.7542   1.7922   1.8424   1.8575   1.8853   1.8949
  1.9072   1.9157   1.9434   1.9573   2.0076   2.0112   2.0436   2.0724
  2.1178   2.1332   2.1764   2.2137   2.2239   2.2418   2.2516   2.3075
  2.3294   2.3368   2.3859   2.4100   2.4450   2.4726   2.5054   2.5134
  2.5604   2.5886   2.6241   2.6474   2.6638   2.6732   2.7128   2.7184
  2.7928   2.8112   2.8647   2.8713   2.8930   2.9040   2.9597   2.9701
  3.0450   3.1319   3.1434   3.1555   3.1758   3.1925   3.2347   3.2528
  3.2777   3.2820   3.3065   3.3410   3.3632   3.4057   3.4117   3.4437
  3.4724   3.5104   3.5397   3.5949   3.6025   3.6521   3.6968   3.7500
  3.8191   3.8956   3.9370   3.9971   4.0567   4.1319   4.1826   4.2313
  4.2901   4.3227   4.3384   4.3556   4.4023   4.4761   4.5906   4.6236
  4.6732   4.8403   4.8701   4.8797   4.9328   4.9934   5.0152   5.0571
  5.1032   5.1108   5.1317   5.1548   5.2066   5.2373   5.2913   5.3793
  5.4045   5.4232   5.4419   5.4551   5.4866   5.5151   5.5788   5.6487
  5.7067   5.7830   5.8127   5.8820   6.1332   6.2201   6.3907   6.4826
 22.6705  23.6577  32.3341  32.4632  32.8329
 --------------------------------------------------------------
 
          Ground-State Mulliken Net Atomic Charges

     Atom                 Charge (a.u.)
  ----------------------------------------
      1 C                    -0.810423
      2 C                     0.463652
      3 N                    -0.315165
      4 N                    -0.114984
      5 N                    -0.295201
      6 H                     0.256432
      7 H                     0.233723
      8 H                     0.291207
      9 H                     0.219803
     10 H                     0.244571
     11 H                     0.293389
     12 H                     0.281225
     13 H                     0.251772
  ----------------------------------------
  Sum of atomic charges =     1.000000

 -----------------------------------------------------------------
                    Cartesian Multipole Moments
 -----------------------------------------------------------------
    Charge (ESU x 10^10)
                 4.8032
    Dipole Moment (Debye)
         X      -4.0412      Y       6.2469      Z       4.5349
       Tot       8.7133
    Quadrupole Moments (Debye-Ang)
        XX     -11.3665     XY      -3.6366     YY     -14.5861
        XZ      -5.6054     YZ      13.7427     ZZ     -21.2371
    Octopole Moments (Debye-Ang^2)
       XXX      -0.9307    XXY     -20.7045    XYY       4.3568
       YYY     -91.9163    XXZ      -9.7418    XYZ     -13.7269
       YYZ       3.8581    XZZ       4.8366    YZZ     -16.9614
       ZZZ     -73.9422
    Hexadecapole Moments (Debye-Ang^3)
      XXXX    -224.0368   XXXY     -19.3311   XXYY    -100.3839
      XYYY       2.1833   YYYY    -401.0901   XXXZ     -13.9459
      XXYZ     -13.2116   XYYZ     -19.0284   YYYZ     -72.0792
      XXZZ     -75.3207   XYZZ     -19.4339   YYZZ     -55.3581
      XZZZ      22.0375   YZZZ    -107.8504   ZZZZ    -241.4998
 -----------------------------------------------------------------
Archival summary:
1\1\nid00563\SP\ProcedureUnspecified\BasisUnspecified\328(1+,1)\meili\SunSep2613:28:102021SunSep2613:28:102021\0\\#,ProcedureUnspecified,BasisUnspecified,\\1,1\C\N,1,1.31592\H,2,1.02153,1,116.85\N,1,1.31907,2,121.938,3,-178.945,0\H,4,1.00504,1,119.969,2,174.482,0\H,4,1.01299,1,120.557,2,-3.41183,0\N,1,1.32584,2,117.559,3,2.55098,0\H,7,1.00599,1,123.777,2,177.751,0\H,7,1.02366,1,117.764,2,4.08231,0\C,2,1.45573,1,125.994,3,174.292,0\H,10,1.09021,2,109.837,1,-29.8908,0\H,10,1.0919,2,108.26,1,-146.281,0\H,10,1.1,2,112.691,1,94.0779,0\\\@

 Total job time:  12587.61s(wall), 24958.40s(cpu) 
 Sun Sep 26 13:28:11 2021

        *************************************************************
        *                                                           *
        *  Thank you very much for using Q-Chem.  Have a nice day.  *
        *                                                           *
        *************************************************************


Done Job For Fragment 1
calling putenv with: QCSCRATCH=/global/cscratch1/sd/meili 
calling putenv with: QCLOCALSCR=/tmp 
calling putenv with: QCTHREADS=32 
Doing General SCFMI
 Exchange:     0.1670 Hartree-Fock + 1.0000 wB97X-V + LR-HF
 Correlation:  1.0000 wB97X-V
 Using Euler-Maclaurin-Lebedev (99,590) quadrature formula
 Nonlocal Correlation:  VV10 with C = 0.0100 and b = 6.00 and scale = 1.00000
 Grid used for NLC:  SG-1 standard quadrature
performing fock build before subrot guess so that all methods have access
Printing subrot_rss_gen Method Specification:
Occupied Subspace Method is 0
Virtual Subspace Method is 0
Energy of the unrelaxed supersystem initial determinant -473.795265161201
performing fock build before subrot guess so that all methods have access
Printing subrot_rss_gen Method Specification:
Occupied Subspace Method is 0
Virtual Subspace Method is 0
Energy of the unrelaxed supersystem initial determinant w/ solvent -473.867856561005
write pseudocanon occs and virts to disk
write pseudocanon orbital energies to disk
Tolerance of ortho_decomp_scf: 1.00e-06
GDM subspace size: 20
Beginning the Orthogonal Decomposition of the Initial Supersystem Wavefunction
    1    -473.5141208162      1.13e-01     ortho_decomp Preconditoned Steepest Descent
    2    -473.5357231714      3.38e-03     ortho_decomp BFGS Step
    3    -473.5358230243      2.88e-04     ortho_decomp BFGS Step
    4    -473.5358232147      1.31e-05     ortho_decomp BFGS Step
    5    -473.5358232153      5.12e-07     ortho_decomp 00000 Convergence criterion met
 Hartree-Fock
 Hartree-Fock
 Hartree-Fock
Doing General SCFMI
 Exchange:     0.1670 Hartree-Fock + 1.0000 wB97X-V + LR-HF
 Correlation:  1.0000 wB97X-V
 Using Euler-Maclaurin-Lebedev (99,590) quadrature formula
 Nonlocal Correlation:  VV10 with C = 0.0100 and b = 6.00 and scale = 1.00000
 Grid used for NLC:  SG-1 standard quadrature
performing fock build at end of subrot_r(subrot) constructor so that all methods have access
<S^2> of initial wavefunction before polarization iterations 0.0000000000
Beginning iterations for the determination of the polarized wavefunction
Energy prior to optimization (guess energy) = -473.867856561005
Begin Timing: Total SCF Calculation
begin iterations for algorithm: DIIS         
the SCF tolerance is set to 1.00e-08
    1    -473.8678565610      2.68e-04     00000 
    2    -473.8712802825      1.19e-04     00000 
    3    -473.8716755121      7.08e-05     00000 
    4    -473.8718203327      1.87e-05     00000 
    5    -473.8718373953      8.11e-06     00000 
    6    -473.8718418525      3.25e-06     00000 
    7    -473.8718425214      1.55e-06     00000 
    8    -473.8718426455      6.11e-07     00000 
    9    -473.8718426619      2.68e-07     00000 
   10    -473.8718426637      9.74e-08     00000 
   11    -473.8718426640      3.98e-08     00000 
   12    -473.8718426641      1.86e-08     00000 
   13    -473.8718426641      6.19e-09     00000 Convergence criterion met
write pseudocanon occs and virts to disk
write pseudocanon orbital energies to disk
Timing for Total SCF: 2947.00s (wall), 5856.92s (cpu)
<S^2> of polarized wavefunction after polarization iterations 0.0000000000
relaxing scfmi constraint to allow all rotations in the entire AO span
Doing General SCFMI
 Exchange:     0.1670 Hartree-Fock + 1.0000 wB97X-V + LR-HF
 Correlation:  1.0000 wB97X-V
 Using Euler-Maclaurin-Lebedev (99,590) quadrature formula
 Nonlocal Correlation:  VV10 with C = 0.0100 and b = 6.00 and scale = 1.00000
 Grid used for NLC:  SG-1 standard quadrature
performing fock build at end of subrot_r(subrot) constructor so that all methods have access
<S^2> of polarized wavefunction before ct-allowed iterations 0.0000000000
Beginning iterations for the determination of the CT-Allowed wavefunction
Energy prior to optimization (guess energy) = -473.871842664094
Begin Timing: Total SCF Calculation
begin iterations for algorithm: DIIS         
the SCF tolerance is set to 1.00e-08
    1    -473.8718426641      3.05e-04     00000 
    2    -473.8829007167      5.29e-05     00000 
    3    -473.8833989730      2.48e-05     00000 
    4    -473.8834435690      1.04e-05     00000 
    5    -473.8834541633      2.22e-06     00000 
    6    -473.8834547798      7.39e-07     00000 
    7    -473.8834548751      3.68e-07     00000 
    8    -473.8834548869      1.05e-07     00000 
    9    -473.8834548885      3.74e-08     00000 
   10    -473.8834548888      1.28e-08     00000 
   11    -473.8834548888      4.05e-09     00000 Convergence criterion met
write pseudocanon occs and virts to disk
write pseudocanon orbital energies to disk
Timing for Total SCF: 2478.00s (wall), 4922.24s (cpu)
<S^2> of ct_allowed wavefunction after ct-allowed iterations 0.0000000000

================================
        Results of EDA2         
================================
Basic EDA Quantities
--------------------
Fragment Energies (Ha):
1 -228.6586690121
2 -245.2012080606
--------------------
  E_prp (kJ/mol) = 0.0000
  E_sol (kJ/mol) = 426.8924
  E_frz (kJ/mol) = -426.0796
  E_pol (kJ/mol) = -10.4656
  E_vct (kJ/mol) = -30.4883
  E_int (kJ/mol) = -40.1411
--------------------


Initial Wavefunction Decomposition
--------------------
  --------------------
  Orthogonal Fragment Subspace Decomposition:
  --------------------
     E_elec   (ELEC)   (kJ/mol) = -610.5724
     E_pauli  (PAULI)  (kJ/mol) = 211.3333
     E_disp   (DISP)   (kJ/mol) = -26.8405
     --------------------
     Terms summing to E_pauli:
     --------------------
        E_kep_pauli       (kJ/mol) = 255.0934
        E_disp_free_pauli (kJ/mol) = -43.7600
  --------------------
  Classical Frozen Decomposition:
  --------------------
     E_cls_elec  (CLS ELEC)  (kJ/mol) = -536.2062
     E_cls_pauli (CLS PAULI) (kJ/mol) = 110.1267
    [E_mod_pauli (MOD PAULI) (kJ/mol) = 136.9672 (CLS PAULI - DISP from orthogonal decomposition) ]
  --------------------
--------------------

Simplified EDA Summary (kJ/mol)
--------------------
 PREPARATION     0.0000
 SOLVATION       426.8924
 FROZEN          -399.2391      (does not include dispersion)
[PAULI           211.3333]     (if this is negligible, then frozen describes electrostatics)
 DISPERSION      -26.8405
 POLARIZATION    -10.4656
 CHARGE TRANSFER -30.4883
 TOTAL           -40.1411     (PRP + SOL + FRZ + DISP + POL + CT)
--------------------
 
 --------------------------------------------------------------
 
                    Orbital Energies (a.u.)
 --------------------------------------------------------------
 
 Alpha MOs
 -- Occupied --
-19.1650 -19.1649 -14.4399 -14.4324 -14.4243 -10.4086 -10.3621 -10.2977
-10.2469  -1.1807  -1.1598  -1.0836  -1.0421  -1.0282  -0.8461  -0.8446
 -0.7540  -0.7094  -0.6764  -0.6368  -0.6070  -0.5943  -0.5855  -0.5641
 -0.5567  -0.5544  -0.5437  -0.5185  -0.4980  -0.4874  -0.4664  -0.3897
 -0.3798  -0.3628  -0.3608  -0.3588
 -- Virtual --
  0.0580   0.0786   0.0840   0.0944   0.1047   0.1092   0.1169   0.1246
  0.1283   0.1367   0.1407   0.1481   0.1533   0.1619   0.1650   0.1771
  0.1862   0.1942   0.1981   0.2027   0.2113   0.2210   0.2263   0.2339
  0.2375   0.2471   0.2536   0.2570   0.2601   0.2704   0.2789   0.2809
  0.2835   0.2902   0.2933   0.2978   0.3055   0.3170   0.3197   0.3263
  0.3294   0.3363   0.3387   0.3469   0.3492   0.3539   0.3556   0.3652
  0.3656   0.3701   0.3738   0.3802   0.3815   0.3824   0.3938   0.4017
  0.4043   0.4069   0.4137   0.4216   0.4234   0.4265   0.4379   0.4442
  0.4521   0.4639   0.4648   0.4685   0.4717   0.4737   0.4832   0.4861
  0.4949   0.4976   0.5009   0.5085   0.5198   0.5234   0.5249   0.5298
  0.5382   0.5406   0.5466   0.5554   0.5610   0.5630   0.5736   0.5754
  0.5807   0.5867   0.5934   0.6056   0.6063   0.6203   0.6259   0.6384
  0.6433   0.6507   0.6576   0.6647   0.6673   0.6713   0.6846   0.6931
  0.6976   0.7046   0.7126   0.7231   0.7283   0.7364   0.7394   0.7493
  0.7561   0.7709   0.7764   0.7816   0.7843   0.7907   0.8043   0.8114
  0.8136   0.8200   0.8244   0.8369   0.8478   0.8508   0.8520   0.8617
  0.8696   0.8755   0.8826   0.9001   0.9117   0.9220   0.9292   0.9353
  0.9442   0.9539   0.9785   0.9815   0.9936   1.0056   1.0244   1.0299
  1.0461   1.0574   1.0660   1.0766   1.0823   1.0983   1.1095   1.1320
  1.1379   1.1498   1.1660   1.1764   1.1777   1.1915   1.2052   1.2137
  1.2339   1.2500   1.2643   1.2744   1.2902   1.3026   1.3083   1.3282
  1.3386   1.3442   1.3623   1.3876   1.3954   1.4113   1.4435   1.4592
  1.4863   1.5031   1.5195   1.5436   1.5686   1.6101   1.6317   1.6507
  1.6811   1.6951   1.7194   1.7468   1.7548   1.7669   1.7763   1.8555
  1.8702   1.8839   1.8908   1.8984   1.9133   1.9223   1.9287   1.9359
  1.9516   1.9591   1.9682   1.9721   1.9786   1.9848   2.0251   2.0323
  2.0385   2.0613   2.0744   2.0989   2.1246   2.1423   2.1589   2.1687
  2.1817   2.2051   2.2275   2.2516   2.2568   2.2667   2.2859   2.2990
  2.3171   2.3383   2.3485   2.3712   2.3913   2.4050   2.4338   2.4461
  2.4685   2.4819   2.4874   2.5177   2.5363   2.5630   2.5659   2.5898
  2.6028   2.6083   2.6531   2.6679   2.6713   2.6832   2.6917   2.7274
  2.7311   2.7418   2.7451   2.7777   2.8124   2.8281   2.8578   2.8744
  2.8882   2.9008   2.9143   2.9234   2.9340   2.9623   2.9963   3.0112
  3.0225   3.0636   3.0898   3.1104   3.1725   3.1779   3.1986   3.2067
  3.2196   3.2395   3.2459   3.2557   3.2802   3.2922   3.3027   3.3039
  3.3246   3.3321   3.3538   3.3693   3.3822   3.3874   3.3979   3.4218
  3.4425   3.4474   3.4519   3.4578   3.4784   3.5189   3.5408   3.5426
  3.5664   3.5925   3.6132   3.6204   3.6447   3.6707   3.6866   3.6982
  3.7232   3.7345   3.7499   3.7774   3.7884   3.8443   3.8777   3.9268
  3.9641   3.9852   4.0288   4.0857   4.0963   4.1096   4.1669   4.2105
  4.2303   4.2669   4.3270   4.3430   4.3687   4.3811   4.4011   4.4295
  4.5047   4.5738   4.6166   4.6482   4.6551   4.6815   4.7030   4.8341
  4.8556   4.8680   4.8917   4.9163   4.9782   4.9911   5.0343   5.0616
  5.1023   5.1344   5.1519   5.1645   5.1959   5.2278   5.2660   5.3026
  5.3243   5.3384   5.3637   5.3789   5.4165   5.4416   5.4488   5.4758
  5.5032   5.5053   5.5429   5.5667   5.6074   5.6988   5.7097   5.7320
  5.7653   5.7776   5.8213   5.8522   5.9244   6.0194   6.1757   6.2484
  6.2736   6.3184   6.3422   6.4371   6.5143   6.6535   6.6654   6.7061
  6.7602   6.8322   6.9690   6.9963   7.0341   7.2407   7.3860   7.4057
  7.4546  22.6235  22.7070  23.7087  23.7842  32.3983  32.5700  32.9996
 44.2664  44.4022
 --------------------------------------------------------------
 
          Ground-State Mulliken Net Atomic Charges

     Atom                 Charge (a.u.)
  ----------------------------------------
      1 C                    -0.812615
      2 C                     0.674458
      3 O                    -0.825031
      4 O                    -0.833598
      5 H                     0.240080
      6 H                     0.199379
      7 H                     0.260313
      8 C                    -0.882585
      9 C                     0.427975
     10 N                    -0.155057
     11 N                     0.084726
     12 N                    -0.287772
     13 H                     0.149221
     14 H                     0.238065
     15 H                     0.188976
     16 H                     0.214893
     17 H                     0.253669
     18 H                     0.336790
     19 H                     0.271122
     20 H                     0.256991
  ----------------------------------------
  Sum of atomic charges =     0.000000

 -----------------------------------------------------------------
                    Cartesian Multipole Moments
 -----------------------------------------------------------------
    Charge (ESU x 10^10)
                -0.0000
    Dipole Moment (Debye)
         X      -3.9589      Y       9.2903      Z       8.2847
       Tot      13.0621
    Quadrupole Moments (Debye-Ang)
        XX     -44.6772     XY      -8.7773     YY     -45.3696
        XZ      -4.5982     YZ      10.0949     ZZ     -50.8099
    Octopole Moments (Debye-Ang^2)
       XXX     -56.8237    XXY      27.5132    XYY       1.6802
       YYY      49.1825    XXZ      28.1555    XYZ      -7.9019
       YYZ      35.8375    XZZ     -11.7741    YZZ      27.9091
       ZZZ      22.1975
    Hexadecapole Moments (Debye-Ang^3)
      XXXX    -458.7241   XXXY      84.7803   XXYY    -253.2254
      XYYY      77.5982   YYYY   -1094.2984   XXXZ      73.3390
      XXYZ     -83.9427   XYYZ      -4.4181   YYYZ    -273.1342
      XXZZ    -167.4588   XYZZ       7.1200   YYZZ    -217.7247
      XZZZ      99.2148   YZZZ    -300.4823   ZZZZ    -536.5569
 -----------------------------------------------------------------
Archival summary:
1\1\nid00563\SP\ProcedureUnspecified\BasisUnspecified\23411\meili\SunSep2616:00:522021SunSep2616:00:522021\0\\#,ProcedureUnspecified,BasisUnspecified,\\0,1\N\H,1,1.02153\C,1,1.31592,2,116.85\N,3,1.31907,1,121.938,2,-178.945,0\H,4,1.00504,3,119.969,1,174.482,0\H,4,1.01299,3,120.557,1,-3.41183,0\N,3,1.32584,1,117.559,2,2.55098,0\H,7,1.00599,3,123.777,1,177.751,0\H,7,1.02366,3,117.764,1,4.08231,0\C,1,1.45573,2,116.926,3,-174.822,0\H,10,1.09021,1,109.837,2,144.397,0\H,10,1.0919,1,108.26,2,28.0073,0\H,10,1.1,1,112.691,2,-91.634,0\O,2,1.77794,1,170.26,3,-178.082,0\C,14,1.23965,2,110.948,1,149.02,0\O,15,1.2551,14,125.523,2,22.7967,0\C,15,1.50631,14,115.497,2,-151.074,0\H,17,1.08943,15,110.479,14,-166.252,0\H,17,1.09294,15,107.323,14,77.1981,0\H,17,1.1,15,113.29,14,-42.6696,0\\\@

 Total job time:  26207.56s(wall), 18219.62s(cpu) 
 Sun Sep 26 16:00:54 2021

        *************************************************************
        *                                                           *
        *  Thank you very much for using Q-Chem.  Have a nice day.  *
        *                                                           *
        *************************************************************


