
Running Job 1 of 1 SSI-078TYR-082PHE-1_PCM_TZVPD.in
qchem SSI-078TYR-082PHE-1_PCM_TZVPD.in_3277.0 /tmp/qchem3277/ 0
/global/common/cori/software/qchem/5.2/exe/qcprog.exe_s SSI-078TYR-082PHE-1_PCM_TZVPD.in_3277.0 /tmp/qchem3277/
                  Welcome to Q-Chem
     A Quantum Leap Into The Future Of Chemistry


 Q-Chem 5.2, Q-Chem, Inc., Pleasanton, CA (2019)

 License issued to: National Energy Research Scientific Computing Center

 Yihan Shao,  Zhengting Gan,  E. Epifanovsky,  A. T. B. Gilbert,  M. Wormit,  
 J. Kussmann,  A. W. Lange,  A. Behn,  Jia Deng,  Xintian Feng,  D. Ghosh,  
 M. Goldey,  P. R. Horn,  L. D. Jacobson,  I. Kaliman,  T. Kus,  A. Landau,  
 Jie Liu,  E. I. Proynov,  R. M. Richard,  R. P. Steele,  E. J. Sundstrom,  
 H. L. Woodcock III,  P. M. Zimmerman,  D. Zuev,  B. Albrecht,  E. Alguire,  
 S. A. Baeppler,  D. Barton,  Z. Benda,  Y. A. Bernard,  E. J. Berquist,  
 K. B. Bravaya,  H. Burton,  D. Casanova,  Chun-Min Chang,  Yunqing Chen,  
 A. Chien,  K. D. Closser,  M. P. Coons,  S. Coriani,  S. Dasgupta,  
 A. L. Dempwolff,  M. Diedenhofen,  Hainam Do,  R. G. Edgar,  Po-Tung Fang,  
 S. Faraji,  S. Fatehi,  Qingguo Feng,  K. D. Fenk,  J. Fosso-Tande,  
 J. Gayvert,  Qinghui Ge,  A. Ghysels,  G. Gidofalvi,  J. Gomes,  
 J. Gonthier,  A. Gunina,  D. Hait,  M. W. D. Hanson-Heine,  
 P. H. P. Harbach,  A. W. Hauser,  M. F. Herbst,  J. E. Herr,  
 E. G. Hohenstein,  Z. C. Holden,  Kerwin Hui,  B. C. Huynh,  T.-C. Jagau,  
 Hyunjun Ji,  B. Kaduk,  K. Khistyaev,  Jaehoon Kim,  P. Klunzinger,  K. Koh,  
 D. Kosenkov,  L. Koulias,  T. Kowalczyk,  C. M. Krauter,  A. Kunitsa,  
 Ka Un Lao,  A. Laurent,  K. V. Lawler,  Joonho Lee,  D. Lefrancois,  
 S. Lehtola,  D. S. Levine,  Yi-Pei Li,  You-Sheng Lin,  Fenglai Liu,  
 E. Livshits,  A. Luenser,  P. Manohar,  E. Mansoor,  S. F. Manzer,  
 Shan-Ping Mao,  Yuezhi Mao,  N. Mardirossian,  A. V. Marenich,  
 T. Markovich,  L. A. Martinez-Martinez,  S. A. Maurer,  N. J. Mayhall,  
 S. C. McKenzie,  J.-M. Mewes,  P. Morgante,  A. F. Morrison,  
 J. W. Mullinax,  K. Nanda,  T. S. Nguyen-Beck,  R. Olivares-Amaya,  
 J. A. Parkhill,  Zheng Pei,  T. M. Perrine,  F. Plasser,  P. Pokhilko,  
 S. Prager,  A. Prociuk,  E. Ramos,  D. R. Rehn,  F. Rob,  M. Scheurer,  
 M. Schneider,  N. Sergueev,  S. M. Sharada,  S. Sharma,  D. W. Small,  
 T. Stauch,  T. Stein,  Yu-Chuan Su,  A. J. W. Thom,  A. Tkatchenko,  
 T. Tsuchimochi,  N. M. Tubman,  L. Vogt,  M. L. Vidal,  O. Vydrov,  
 M. A. Watson,  J. Wenzel,  M. de Wergifosse,  T. A. Wesolowski,  A. White,  
 J. Witte,  A. Yamada,  Jun Yang,  K. Yao,  S. Yeganeh,  S. R. Yost,  
 Zhi-Qiang You,  A. Zech,  Igor Ying Zhang,  Xing Zhang,  Yan Zhao,  
 Ying Zhu,  B. R. Brooks,  G. K. L. Chan,  C. J. Cramer,  M. S. Gordon,  
 W. J. Hehre,  A. Klamt,  M. W. Schmidt,  C. D. Sherrill,  D. G. Truhlar,  
 A. Aspuru-Guzik,  R. Baer,  A. T. Bell,  N. A. Besley,  Jeng-Da Chai,  
 A. E. DePrince, III,  R. A. DiStasio Jr.,  A. Dreuw,  B. D. Dunietz,  
 T. R. Furlani,  Chao-Ping Hsu,  Yousung Jung,  Jing Kong,  D. S. Lambrecht,  
 WanZhen Liang,  C. Ochsenfeld,  V. A. Rassolov,  L. V. Slipchenko,  
 J. E. Subotnik,  T. Van Voorhis,  J. M. Herbert,  A. I. Krylov,  
 P. M. W. Gill,  M. Head-Gordon

 Contributors to earlier versions of Q-Chem not listed above: 
 R. D. Adamson,  B. Austin,  J. Baker,  G. J. O. Beran,  K. Brandhorst,  
 S. T. Brown,  E. F. C. Byrd,  A. K. Chakraborty,  C.-L. Cheng,  
 Siu Hung Chien,  D. M. Chipman,  D. L. Crittenden,  H. Dachsel,  
 R. J. Doerksen,  A. D. Dutoi,  L. Fusti-Molnar,  W. A. Goddard III,  
 A. Golubeva-Zadorozhnaya,  S. R. Gwaltney,  G. Hawkins,  A. Heyden,  
 S. Hirata,  G. Kedziora,  F. J. Keil,  C. Kelley,  Jihan Kim,  R. A. King,  
 R. Z. Khaliullin,  P. P. Korambath,  W. Kurlancheek,  A. M. Lee,  M. S. Lee,  
 S. V. Levchenko,  Ching Yeh Lin,  D. Liotard,  R. C. Lochan,  I. Lotan,  
 P. E. Maslen,  N. Nair,  D. P. O'Neill,  D. Neuhauser,  E. Neuscamman,  
 C. M. Oana,  R. Olson,  B. Peters,  R. Peverati,  P. A. Pieniazek,  
 Y. M. Rhee,  J. Ritchie,  M. A. Rohrdanz,  E. Rosta,  N. J. Russ,  
 H. F. Schaefer III,  N. E. Schultz,  N. Shenvi,  A. C. Simmonett,  A. Sodt,  
 D. Stuck,  K. S. Thanthiriwatte,  V. Vanovschi,  Tao Wang,  A. Warshel,  
 C. F. Williams,  Q. Wu,  X. Xu,  W. Zhang

 Please cite Q-Chem as follows:
 Y. Shao et al., Mol. Phys. 113, 184-215 (2015)
 DOI: 10.1080/00268976.2014.952696

 Q-Chem 5.2.0 for Intel X86 EM64T Linux

 Parts of Q-Chem use Armadillo 8.300.2 (Tropical Shenanigans).
 http://arma.sourceforge.net/

 Q-Chem begins on Sun Sep 26 11:25:12 2021  

Host: cori01
0

     Scratch files written to /tmp/qchem3277//
 May1019 |scratch|qcdevops|jenkins|workspace|build_RNUM -1
Processing $rem in /global/common/cori/software/qchem/5.2/config/preferences:
	 MEM_TOTAL  96000 
NAlpha2: 108
NElect   108
Mult     1
Symmetry turned off for PCM/SM12/SMD calculation

 Q-Chem warning in module libgen/rem_setup.C, line 2803:

 Neither GIA nor STOLL is specified by user. Use STOLL as the default


Checking the input file for inconsistencies... 	...done.

--------------------------------------------------------------
User input:
--------------------------------------------------------------
$comment
SSI-078TYR-082PHE-1.pdb
$end

$molecule
0 1
--
0 1
C    1.291834684489    2.911317764712    0.996055653947
C    0.509834684489    0.516317764712    0.929055653947
C    1.447834684489    1.455317764712    1.350055653947
C    0.648834684489   -0.824682235288    1.268055653947
C    2.535834684489    1.029317764712    2.103055653947
C    1.743834684489   -1.238682235288    2.029055653947
C    2.684834684489   -0.311682235288    2.446055653947
O    1.891834684489   -2.552682235288    2.373055653947
H   -0.340165315511    0.831317764712    0.338055653947
H   -0.064165315511   -1.546682235288    0.898055653947
H    0.424834684489    3.031317764712    0.345055653947
H    2.172834684489    3.222317764712    0.433055653947
H    3.276834684489    1.746317764712    2.432055653947
H    3.529834684489   -0.636682235288    3.036055653947
H    1.205834684489   -3.112682235288    1.977055653947
H    1.175004684489    3.563567764712    1.874075653947
--
0 1
C   -0.592165315511    1.805317764712   -2.828944346053
C   -2.442165315511    0.838317764712   -1.438944346053
C   -1.388165315511    0.640317764712   -2.324944346053
C   -3.165165315511   -0.246682235288   -0.941944346053
C   -2.832165315511   -1.541682235288   -1.334944346053
C   -1.055165315511   -0.655682235288   -2.710944346053
C   -1.778165315511   -1.747682235288   -2.218944346053
H   -2.707165315511    1.841317764712   -1.138944346053
H   -3.991165315511   -0.081682235288   -0.264944346053
H    0.373834684489    1.448317764712   -3.183944346053
H   -0.386165315511    2.471317764712   -1.989944346053
H   -3.395165315511   -2.383682235288   -0.960944346053
H   -0.242165315511   -0.825682235288   -3.402944346053
H   -1.521165315511   -2.749682235288   -2.535944346053
H   -1.075415315511    2.385507764712   -3.628853346053
$end

$rem
JOBTYPE			EDA
EDA2			1
method			wB97X-V
BASIS			def2-TZVPD
XC_GRID			000099000590
NL_GRID			1
UNRESTRICTED		FALSE
MAX_SCF_CYCLES		200
SYMMETRY		FALSE
SYM_IGNORE		TRUE
MEM_STATIC		2000
BASIS_LIN_DEP_THRESH 	6
THRESH 			14
SCF_CONVERGENCE 	8
SCF_PRINT_FRGM 		TRUE
SOLVENT_METHOD          PCM
$end

$PCM
THEORY                  CPCM
METHOD                  SWIG
SOLVER                  INVERSION
RADII                   UFF
HPOINTS                 302
HEAVYPOINTS             302
PRINTLEVEL              0
$END

$SOLVENT
DIELECTRIC              78.390000 ! water
$END
--------------------------------------------------------------
 ----------------------------------------------------------------
             Standard Nuclear Orientation (Angstroms)
    I     Atom           X                Y                Z
 ----------------------------------------------------------------
    1      C       1.2918346845     2.9113177647     0.9960556539
    2      C       0.5098346845     0.5163177647     0.9290556539
    3      C       1.4478346845     1.4553177647     1.3500556539
    4      C       0.6488346845    -0.8246822353     1.2680556539
    5      C       2.5358346845     1.0293177647     2.1030556539
    6      C       1.7438346845    -1.2386822353     2.0290556539
    7      C       2.6848346845    -0.3116822353     2.4460556539
    8      O       1.8918346845    -2.5526822353     2.3730556539
    9      H      -0.3401653155     0.8313177647     0.3380556539
   10      H      -0.0641653155    -1.5466822353     0.8980556539
   11      H       0.4248346845     3.0313177647     0.3450556539
   12      H       2.1728346845     3.2223177647     0.4330556539
   13      H       3.2768346845     1.7463177647     2.4320556539
   14      H       3.5298346845    -0.6366822353     3.0360556539
   15      H       1.2058346845    -3.1126822353     1.9770556539
   16      H       1.1750046845     3.5635677647     1.8740756539
   17      C      -0.5921653155     1.8053177647    -2.8289443461
   18      C      -2.4421653155     0.8383177647    -1.4389443461
   19      C      -1.3881653155     0.6403177647    -2.3249443461
   20      C      -3.1651653155    -0.2466822353    -0.9419443461
   21      C      -2.8321653155    -1.5416822353    -1.3349443461
   22      C      -1.0551653155    -0.6556822353    -2.7109443461
   23      C      -1.7781653155    -1.7476822353    -2.2189443461
   24      H      -2.7071653155     1.8413177647    -1.1389443461
   25      H      -3.9911653155    -0.0816822353    -0.2649443461
   26      H       0.3738346845     1.4483177647    -3.1839443461
   27      H      -0.3861653155     2.4713177647    -1.9899443461
   28      H      -3.3951653155    -2.3836822353    -0.9609443461
   29      H      -0.2421653155    -0.8256822353    -3.4029443461
   30      H      -1.5211653155    -2.7496822353    -2.5359443461
   31      H      -1.0754153155     2.3855077647    -3.6288533461
 ----------------------------------------------------------------
 Nuclear Repulsion Energy =         895.65972983 hartrees
 There are       54 alpha and       54 beta electrons
 Requested basis set is def2-TZVPD
 There are 276 shells and 702 basis functions

 Total QAlloc Memory Limit  96000 MB
 Mega-Array Size      1956 MB
 MEM_STATIC part      2000 MB
 Discretize the solute cavity surface with Lebedev spheres
	Using 302 Lebedev grid points for each H atom
	Using 302 Lebedev grid points for other atoms
	Atomic van der Waals radii will be scaled by 1.20
 Remove points where switching function is < 1.0e-08
 Keep 3418 surface tesserae and discard 5944 interior tesserae
 Molecular Surface Area = 328.458 Angst**2
 A cutoff of  1.0D-14 yielded  32718 shell pairs
 There are    212338 function pairs (    268327 Cartesian)
 Smallest overlap matrix eigenvalue = 4.06E-07
 Linear dependence detected in AO basis
 Tighter screening thresholds may be required for diffuse basis sets
 Use S2THRESH > 14 and THRESH = 14 in case of SCF convergence issues
 Number of orthogonalized atomic orbitals = 698
 Maximum deviation from orthogonality = 1.841E-10

 Scale SEOQF with 1.000000e-01/1.000000e-01/1.000000e-01

 Standard Electronic Orientation quadrupole field applied
 Nucleus-field energy     =    -0.0000000102 hartrees

 -----------------------------------------------------------------------
  General SCF calculation program by
  Eric Jon Sundstrom, Paul Horn, Yuezhi Mao, Dmitri Zuev, Alec White,
  David Stuck, Shaama M.S., Shane Yost, Joonho Lee, David Small,
  Daniel Levine, Susi Lehtola, Hugh Burton, Evgeny Epifanovsky
 -----------------------------------------------------------------------
================================================================
                 ALMO-EDA with the EDA2 driver                  
================================================================
 The second-generation ALMO-EDA (for DFT):                      
 P. R. Horn, Y. Mao and M. Head-Gordon, PCCP, 18, 23067 (2016)  
 Decomposition of the frozen energy:                            
 P. R. Horn, Y. Mao and M. Head-Gordon, JCP, 144, 114107 (2016) 
 FERF model for polarization:                                   
 P. R. Horn and M. Head-Gordon, JCP, 143, 114111 (2015)         
Using eda2 option set 1
Option set summary: Frozen orbital wavefunction, initial wavefunction decomposition, and nDQ polarization.
--------------------------------
Printing EDA Options
--------------------------------
eda_child_super_basis      0
fragmo_guess_mode          0
child_mp                   1
child_mp_orders            232
cls_elec                   1
cls_disp                   0
scfmi_mode                 1
scfmi_occs                 0
scfmi_virts                0
frz_relax                  0
frz_relax_method           0
dc_pen_start               0
dc_pen_conv                0
dc_pen_increment           0
dc_pen_steps               0
dc_pen_thresh_factor       0
dc_pen_pre_newton_thresh   0
frz_ortho_decomp           1
frz_ortho_decomp_conv      6
frgm_method                2
scfmi_freeze_ss            0
separate_rehyb             0
plot_diff_den              0
eda_nocv                   0
eda_vct_relax              1
disp_free_x                0
disp_free_c                0
eda_bsse                   0
eda_pct_a                  0
eda_covp                   0
--------------------------------
Attempting to make child job directory: /tmp/qchem3277//Frg1/
Attempting to make child job directory: /tmp/qchem3277//Frg2/
Creating input file /tmp/qchem3277/Frg1.input
using default PutDataFrgm: nothing
calling putenv with: QCSCRATCH=/tmp/qchem3277/ 
calling putenv with: QCLOCALSCR=/tmp/qchem3277/ 
Spawning Job For Fragment 0
                  Welcome to Q-Chem
     A Quantum Leap Into The Future Of Chemistry


 Q-Chem 5.2, Q-Chem, Inc., Pleasanton, CA (2019)

 License issued to: National Energy Research Scientific Computing Center

 Yihan Shao,  Zhengting Gan,  E. Epifanovsky,  A. T. B. Gilbert,  M. Wormit,  
 J. Kussmann,  A. W. Lange,  A. Behn,  Jia Deng,  Xintian Feng,  D. Ghosh,  
 M. Goldey,  P. R. Horn,  L. D. Jacobson,  I. Kaliman,  T. Kus,  A. Landau,  
 Jie Liu,  E. I. Proynov,  R. M. Richard,  R. P. Steele,  E. J. Sundstrom,  
 H. L. Woodcock III,  P. M. Zimmerman,  D. Zuev,  B. Albrecht,  E. Alguire,  
 S. A. Baeppler,  D. Barton,  Z. Benda,  Y. A. Bernard,  E. J. Berquist,  
 K. B. Bravaya,  H. Burton,  D. Casanova,  Chun-Min Chang,  Yunqing Chen,  
 A. Chien,  K. D. Closser,  M. P. Coons,  S. Coriani,  S. Dasgupta,  
 A. L. Dempwolff,  M. Diedenhofen,  Hainam Do,  R. G. Edgar,  Po-Tung Fang,  
 S. Faraji,  S. Fatehi,  Qingguo Feng,  K. D. Fenk,  J. Fosso-Tande,  
 J. Gayvert,  Qinghui Ge,  A. Ghysels,  G. Gidofalvi,  J. Gomes,  
 J. Gonthier,  A. Gunina,  D. Hait,  M. W. D. Hanson-Heine,  
 P. H. P. Harbach,  A. W. Hauser,  M. F. Herbst,  J. E. Herr,  
 E. G. Hohenstein,  Z. C. Holden,  Kerwin Hui,  B. C. Huynh,  T.-C. Jagau,  
 Hyunjun Ji,  B. Kaduk,  K. Khistyaev,  Jaehoon Kim,  P. Klunzinger,  K. Koh,  
 D. Kosenkov,  L. Koulias,  T. Kowalczyk,  C. M. Krauter,  A. Kunitsa,  
 Ka Un Lao,  A. Laurent,  K. V. Lawler,  Joonho Lee,  D. Lefrancois,  
 S. Lehtola,  D. S. Levine,  Yi-Pei Li,  You-Sheng Lin,  Fenglai Liu,  
 E. Livshits,  A. Luenser,  P. Manohar,  E. Mansoor,  S. F. Manzer,  
 Shan-Ping Mao,  Yuezhi Mao,  N. Mardirossian,  A. V. Marenich,  
 T. Markovich,  L. A. Martinez-Martinez,  S. A. Maurer,  N. J. Mayhall,  
 S. C. McKenzie,  J.-M. Mewes,  P. Morgante,  A. F. Morrison,  
 J. W. Mullinax,  K. Nanda,  T. S. Nguyen-Beck,  R. Olivares-Amaya,  
 J. A. Parkhill,  Zheng Pei,  T. M. Perrine,  F. Plasser,  P. Pokhilko,  
 S. Prager,  A. Prociuk,  E. Ramos,  D. R. Rehn,  F. Rob,  M. Scheurer,  
 M. Schneider,  N. Sergueev,  S. M. Sharada,  S. Sharma,  D. W. Small,  
 T. Stauch,  T. Stein,  Yu-Chuan Su,  A. J. W. Thom,  A. Tkatchenko,  
 T. Tsuchimochi,  N. M. Tubman,  L. Vogt,  M. L. Vidal,  O. Vydrov,  
 M. A. Watson,  J. Wenzel,  M. de Wergifosse,  T. A. Wesolowski,  A. White,  
 J. Witte,  A. Yamada,  Jun Yang,  K. Yao,  S. Yeganeh,  S. R. Yost,  
 Zhi-Qiang You,  A. Zech,  Igor Ying Zhang,  Xing Zhang,  Yan Zhao,  
 Ying Zhu,  B. R. Brooks,  G. K. L. Chan,  C. J. Cramer,  M. S. Gordon,  
 W. J. Hehre,  A. Klamt,  M. W. Schmidt,  C. D. Sherrill,  D. G. Truhlar,  
 A. Aspuru-Guzik,  R. Baer,  A. T. Bell,  N. A. Besley,  Jeng-Da Chai,  
 A. E. DePrince, III,  R. A. DiStasio Jr.,  A. Dreuw,  B. D. Dunietz,  
 T. R. Furlani,  Chao-Ping Hsu,  Yousung Jung,  Jing Kong,  D. S. Lambrecht,  
 WanZhen Liang,  C. Ochsenfeld,  V. A. Rassolov,  L. V. Slipchenko,  
 J. E. Subotnik,  T. Van Voorhis,  J. M. Herbert,  A. I. Krylov,  
 P. M. W. Gill,  M. Head-Gordon

 Contributors to earlier versions of Q-Chem not listed above: 
 R. D. Adamson,  B. Austin,  J. Baker,  G. J. O. Beran,  K. Brandhorst,  
 S. T. Brown,  E. F. C. Byrd,  A. K. Chakraborty,  C.-L. Cheng,  
 Siu Hung Chien,  D. M. Chipman,  D. L. Crittenden,  H. Dachsel,  
 R. J. Doerksen,  A. D. Dutoi,  L. Fusti-Molnar,  W. A. Goddard III,  
 A. Golubeva-Zadorozhnaya,  S. R. Gwaltney,  G. Hawkins,  A. Heyden,  
 S. Hirata,  G. Kedziora,  F. J. Keil,  C. Kelley,  Jihan Kim,  R. A. King,  
 R. Z. Khaliullin,  P. P. Korambath,  W. Kurlancheek,  A. M. Lee,  M. S. Lee,  
 S. V. Levchenko,  Ching Yeh Lin,  D. Liotard,  R. C. Lochan,  I. Lotan,  
 P. E. Maslen,  N. Nair,  D. P. O'Neill,  D. Neuhauser,  E. Neuscamman,  
 C. M. Oana,  R. Olson,  B. Peters,  R. Peverati,  P. A. Pieniazek,  
 Y. M. Rhee,  J. Ritchie,  M. A. Rohrdanz,  E. Rosta,  N. J. Russ,  
 H. F. Schaefer III,  N. E. Schultz,  N. Shenvi,  A. C. Simmonett,  A. Sodt,  
 D. Stuck,  K. S. Thanthiriwatte,  V. Vanovschi,  Tao Wang,  A. Warshel,  
 C. F. Williams,  Q. Wu,  X. Xu,  W. Zhang

 Please cite Q-Chem as follows:
 Y. Shao et al., Mol. Phys. 113, 184-215 (2015)
 DOI: 10.1080/00268976.2014.952696

 Q-Chem 5.2.0 for Intel X86 EM64T Linux

 Parts of Q-Chem use Armadillo 8.300.2 (Tropical Shenanigans).
 http://arma.sourceforge.net/

 Q-Chem begins on Sun Sep 26 11:33:42 2021  

Host: cori01
0

     Scratch files written to /tmp/qchem3277//Frg1//
 May1019 |scratch|qcdevops|jenkins|workspace|build_RNUM -1
Processing $rem in /global/common/cori/software/qchem/5.2/config/preferences:
	 MEM_TOTAL  96000 
NAlpha2: 58
NElect   58
Mult     1
Symmetry turned off for PCM/SM12/SMD calculation

Checking the input file for inconsistencies... 	...done.

--------------------------------------------------------------
User input:
--------------------------------------------------------------
$molecule
0 1
 6	1.2918346845	2.9113177647	0.9960556539
 6	0.5098346845	0.5163177647	0.9290556539
 6	1.4478346845	1.4553177647	1.3500556539
 6	0.6488346845	-0.8246822353	1.2680556539
 6	2.5358346845	1.0293177647	2.1030556539
 6	1.7438346845	-1.2386822353	2.0290556539
 6	2.6848346845	-0.3116822353	2.4460556539
 8	1.8918346845	-2.5526822353	2.3730556539
 1	-0.3401653155	0.8313177647	0.3380556539
 1	-0.0641653155	-1.5466822353	0.8980556539
 1	0.4248346845	3.0313177647	0.3450556539
 1	2.1728346845	3.2223177647	0.4330556539
 1	3.2768346845	1.7463177647	2.4320556539
 1	3.5298346845	-0.6366822353	3.0360556539
 1	1.2058346845	-3.1126822353	1.9770556539
 1	1.1750046845	3.5635677647	1.8740756539
$end
$rem
EDA2		1
METHOD		WB97X-V
BASIS		DEF2-TZVPD
XC_GRID		000099000590
NL_GRID		1
UNRESTRICTED		FALSE
MAX_SCF_CYCLES		200
SYMMETRY		FALSE
SYM_IGNORE		TRUE
BASIS_LIN_DEP_THRESH		6
THRESH		14
SCF_CONVERGENCE		8
SCF_PRINT_FRGM		TRUE
SOLVENT_METHOD		PCM
!required keywords
JOBTYPE		SP
SYM_IGNORE		TRUE
SUBSYSTEM		TRUE
GEN_SCFMAN		TRUE
CHILD_INSTRUCTION		2
SYM_IGNORE		TRUE
SCFMI		0
RI_K 0		
PARI_K 0		
MIN_PARI_K 0		
IARI_K 0		
OCC_RI_K 0		
PURECART		1111
MEM_STATIC		2000
MEM_TOTAL		96000
GUI		0
CHILD_MP		1
CHILD_MP_ORDERS		232
FRZ_RELAX		0
FRZ_RELAX_METHOD		0
EDA_CLS_ELEC		1
EDA_CLS_DISP		0
FRZ_ORTHO_DECOMP		1
EDA2		FALSE
FRGM_METHOD		FALSE
CIS_N_ROOTS  0
LOCAL_CIS    0
CIS_RLX_DNS  1
$end
$pcm
THEORY                  CPCM
METHOD                  SWIG
SOLVER                  INVERSION
RADII                   UFF
HPOINTS                 302
HEAVYPOINTS             302
PRINTLEVEL              0
$end
$solvent
DIELECTRIC              78.390000 ! water
$end
--------------------------------------------------------------
 ----------------------------------------------------------------
             Standard Nuclear Orientation (Angstroms)
    I     Atom           X                Y                Z
 ----------------------------------------------------------------
    1      C       1.2918346845     2.9113177647     0.9960556539
    2      C       0.5098346845     0.5163177647     0.9290556539
    3      C       1.4478346845     1.4553177647     1.3500556539
    4      C       0.6488346845    -0.8246822353     1.2680556539
    5      C       2.5358346845     1.0293177647     2.1030556539
    6      C       1.7438346845    -1.2386822353     2.0290556539
    7      C       2.6848346845    -0.3116822353     2.4460556539
    8      O       1.8918346845    -2.5526822353     2.3730556539
    9      H      -0.3401653155     0.8313177647     0.3380556539
   10      H      -0.0641653155    -1.5466822353     0.8980556539
   11      H       0.4248346845     3.0313177647     0.3450556539
   12      H       2.1728346845     3.2223177647     0.4330556539
   13      H       3.2768346845     1.7463177647     2.4320556539
   14      H       3.5298346845    -0.6366822353     3.0360556539
   15      H       1.2058346845    -3.1126822353     1.9770556539
   16      H       1.1750046845     3.5635677647     1.8740756539
 ----------------------------------------------------------------
 Nuclear Repulsion Energy =         343.28951107 hartrees
 There are       29 alpha and       29 beta electrons
 Requested basis set is def2-TZVPD
 There are 145 shells and 371 basis functions

 Total QAlloc Memory Limit  96000 MB
 Mega-Array Size      1956 MB
 MEM_STATIC part      2000 MB
 Discretize the solute cavity surface with Lebedev spheres
	Using 302 Lebedev grid points for each H atom
	Using 302 Lebedev grid points for other atoms
	Atomic van der Waals radii will be scaled by 1.20
 Remove points where switching function is < 1.0e-08
 Keep 1884 surface tesserae and discard 2948 interior tesserae
 Molecular Surface Area = 190.417 Angst**2
 A cutoff of  1.0D-14 yielded  10045 shell pairs
 There are     67097 function pairs (     85799 Cartesian)
 Smallest overlap matrix eigenvalue = 5.46E-07
 Linear dependence detected in AO basis
 Tighter screening thresholds may be required for diffuse basis sets
 Use S2THRESH > 14 and THRESH = 14 in case of SCF convergence issues
 Number of orthogonalized atomic orbitals = 370
 Maximum deviation from orthogonality = 1.428E-10

 Scale SEOQF with 1.000000e-01/1.000000e-01/1.000000e-01

 Standard Electronic Orientation quadrupole field applied
 Nucleus-field energy     =    -0.0000000002 hartrees
 Guess from superposition of atomic densities
 Warning:  Energy on first SCF cycle will be non-variational
 SAD guess density has 57.738434 electrons

 -----------------------------------------------------------------------
  General SCF calculation program by
  Eric Jon Sundstrom, Paul Horn, Yuezhi Mao, Dmitri Zuev, Alec White,
  David Stuck, Shaama M.S., Shane Yost, Joonho Lee, David Small,
  Daniel Levine, Susi Lehtola, Hugh Burton, Evgeny Epifanovsky
 -----------------------------------------------------------------------
 Exchange:     0.1670 Hartree-Fock + 1.0000 wB97X-V + LR-HF
 Correlation:  1.0000 wB97X-V
 Using Euler-Maclaurin-Lebedev (99,590) quadrature formula
 Nonlocal Correlation:  VV10 with C = 0.0100 and b = 6.00 and scale = 1.00000
 Grid used for NLC:  SG-1 standard quadrature
Energy prior to optimization (guess energy) = -346.496315589168
Begin Timing: Total SCF Calculation
begin iterations for algorithm: DIIS         
the SCF tolerance is set to 1.00e-08
    1    -346.4963155892      5.17e-03     00000 
    2    -346.4285587927      5.62e-03     00000 
    3    -346.8124147353      5.39e-04     00000 
    4    -346.8165883056      1.82e-04     00000 
    5    -346.8172053887      2.52e-05     00000 
    6    -346.8172248864      1.28e-05     00000 
    7    -346.8172282440      3.97e-06     00000 
    8    -346.8172286680      1.25e-06     00000 
    9    -346.8172287225      5.53e-07     00000 
   10    -346.8172287319      1.32e-07     00000 
   11    -346.8172287334      6.02e-08     00000 
   12    -346.8172287336      3.11e-08     00000 
   13    -346.8172287337      6.32e-09     00000 Convergence criterion met
Timing for Total SCF: 2141.00s (wall), 4253.04s (cpu)

************** Final PCM Free Energy Summary **************
 G_electrostatic  =      -0.00557854 hartree =      -3.50058442 kcal/mol
 G_cavitation     =       0.00000000 hartree =       0.00000000 kcal/mol
 G_dispersion     =       0.00000000 hartree =       0.00000000 kcal/mol
 G_repulsion      =       0.00000000 hartree =       0.00000000 kcal/mol
 --------------------------------------------------
 Non-electrostatic Free Energy =       0.00000000 hartree =       0.00000000 kcal/mol
 Total                         =      -0.00557854 hartree =      -3.50058442 kcal/mol
 --------------------------------------------------
 SCF Energy (H0 + V/2)                       =    -346.81722873 
 Solute Internal Energy (H0)                 =    -346.81165020 
 Total Free Energy (H0 + V/2 + non-elec)     =    -346.81722873 hartree
                                             = -217631.09573634 kcal/mol
***********************************************************

E_pcm = -0.0055785364
Multipole orders to be included
        2
        3
computing dipole RHS
computing quadrupole RHS
total number of RHS in solve_reponses: 8
RHS batch sizes
        8
Beginning Block Conjugate Gradient Iterations. Batch Number: 0
computing hessian-vector products by finite difference
              1      6.15e-01     00000 Conjugate Gradient Iteration
computing hessian-vector products by finite difference
              2      1.94e-01     00000 Conjugate Gradient Iteration
computing hessian-vector products by finite difference
              3      4.89e-02     00000 Conjugate Gradient Iteration
computing hessian-vector products by finite difference
              4      1.46e-02     00000 Conjugate Gradient Iteration
computing hessian-vector products by finite difference
              5      3.94e-03     00000 Conjugate Gradient Iteration
computing hessian-vector products by finite difference
              6      1.48e-03     00000 Conjugate Gradient Iteration
computing hessian-vector products by finite difference
              7      3.72e-04     00000 Conjugate Gradient Iteration
computing hessian-vector products by finite difference
              8      7.38e-05     00000 Conjugate Gradient Iteration
computing hessian-vector products by finite difference
              9      1.32e-05     00000 Conjugate Gradient Iteration
computing hessian-vector products by finite difference
             10      1.64e-06     00000 Conjugate Gradient Iteration
computing hessian-vector products by finite difference
             11      2.64e-07     00000 Conjugate Gradient Iteration
computing hessian-vector products by finite difference
             12      4.97e-08     00000 Conjugate Gradient Iteration
computing hessian-vector products by finite difference
             13      7.74e-09     00000 CG Converged
batch 0 complete
Done Calculating Responses
TESTING ORTHOGONALIZATION OF MULTIPOLE BASIS
Multipole virts passed orthogonality test
Virts Per Order
           87
          145
 
 --------------------------------------------------------------
 
                    Orbital Energies (a.u.)
 --------------------------------------------------------------
 
 Alpha MOs
 -- Occupied --
-19.2455 -10.3354 -10.2752 -10.2740 -10.2737 -10.2722 -10.2710 -10.2613
 -1.1927  -0.9967  -0.9025  -0.8848  -0.8106  -0.7484  -0.7146  -0.6660
 -0.6030  -0.5812  -0.5497  -0.5415  -0.5345  -0.5217  -0.5114  -0.4774
 -0.4556  -0.4433  -0.4415  -0.3533  -0.3135
 -- Virtual --
  0.0577   0.0590   0.0681   0.0791   0.0829   0.0942   0.1086   0.1096
  0.1137   0.1309   0.1443   0.1503   0.1550   0.1709   0.1799   0.1904
  0.1939   0.2074   0.2139   0.2259   0.2323   0.2388   0.2461   0.2557
  0.2624   0.2648   0.2704   0.2792   0.2803   0.2932   0.2957   0.3021
  0.3031   0.3082   0.3182   0.3238   0.3330   0.3389   0.3417   0.3495
  0.3504   0.3569   0.3598   0.3662   0.3769   0.3796   0.3819   0.3922
  0.3949   0.3962   0.4045   0.4086   0.4107   0.4192   0.4272   0.4283
  0.4309   0.4553   0.4625   0.4635   0.4704   0.4749   0.4778   0.4840
  0.4868   0.4898   0.5029   0.5083   0.5101   0.5124   0.5332   0.5361
  0.5386   0.5452   0.5505   0.5571   0.5592   0.5654   0.5774   0.5830
  0.5941   0.6026   0.6220   0.6280   0.6348   0.6553   0.6620   0.6737
  0.6773   0.6884   0.6907   0.6931   0.6986   0.7112   0.7123   0.7274
  0.7303   0.7395   0.7469   0.7521   0.7573   0.7708   0.7809   0.7865
  0.7896   0.7926   0.7937   0.8046   0.8124   0.8200   0.8282   0.8304
  0.8420   0.8459   0.8515   0.8574   0.8625   0.8656   0.8865   0.8918
  0.8975   0.9158   0.9345   0.9487   0.9592   0.9805   0.9979   1.0041
  1.0345   1.0381   1.0456   1.0494   1.0569   1.0603   1.0799   1.0864
  1.0937   1.1196   1.1479   1.1602   1.2056   1.2513   1.2538   1.2935
  1.3138   1.3187   1.3275   1.3655   1.3752   1.3787   1.3969   1.4425
  1.4504   1.4595   1.4719   1.4979   1.5301   1.5671   1.6143   1.6192
  1.6449   1.6488   1.6616   1.6755   1.7041   1.7347   1.7420   1.7966
  1.8203   1.8253   1.8368   1.8490   1.8663   1.8775   1.9113   1.9200
  1.9304   1.9510   1.9769   1.9821   2.0017   2.0251   2.0351   2.0516
  2.0577   2.0763   2.0870   2.1092   2.1170   2.1704   2.1975   2.2061
  2.2182   2.2493   2.2568   2.2727   2.3072   2.3116   2.3572   2.3672
  2.4009   2.4060   2.4255   2.4459   2.4992   2.5065   2.5237   2.5519
  2.5808   2.6054   2.6329   2.6500   2.6561   2.6712   2.6830   2.7250
  2.7580   2.7646   2.7806   2.8016   2.8185   2.8349   2.8637   2.8718
  2.9007   2.9309   2.9360   2.9467   2.9663   2.9708   2.9791   3.0050
  3.0236   3.0459   3.0586   3.0745   3.1056   3.1355   3.1521   3.1605
  3.1713   3.2000   3.2058   3.2297   3.2459   3.2531   3.2818   3.2868
  3.3006   3.3732   3.3825   3.3861   3.3978   3.4353   3.4438   3.4521
  3.4597   3.4706   3.4892   3.5130   3.5135   3.5273   3.5387   3.5494
  3.5528   3.5700   3.5774   3.5960   3.6146   3.6311   3.6454   3.6676
  3.6986   3.7115   3.7472   3.7486   3.7790   3.8248   3.8587   3.9251
  3.9396   3.9625   3.9798   4.0024   4.0425   4.0765   4.1428   4.1604
  4.2483   4.2694   4.2902   4.3130   4.3281   4.3400   4.3495   4.3659
  4.3832   4.3961   4.4082   4.4550   4.5117   4.5627   4.5855   4.6165
  4.7386   4.7704   4.7972   4.8083   4.8271   4.9236   5.0272   5.0676
  5.0943   5.1304   5.1620   5.3080   5.3413   5.3928   5.4504   5.5403
  5.6071   5.6517   5.6969   5.7721   5.9418   6.2014   6.4795   6.5808
  6.6323   6.8714   7.0002   7.3029   7.4500  22.6705  22.6885  22.9421
 22.9966  23.0419  23.1903  23.5159  44.4139
 --------------------------------------------------------------
 
          Ground-State Mulliken Net Atomic Charges

     Atom                 Charge (a.u.)
  ----------------------------------------
      1 C                    -1.018664
      2 C                    -0.650078
      3 C                     0.567446
      4 C                    -0.408332
      5 C                    -0.358936
      6 C                     0.803071
      7 C                    -0.696963
      8 O                    -0.489923
      9 H                     0.274728
     10 H                     0.275102
     11 H                     0.261371
     12 H                     0.234615
     13 H                     0.345869
     14 H                     0.331778
     15 H                     0.296388
     16 H                     0.232527
  ----------------------------------------
  Sum of atomic charges =     0.000000

 -----------------------------------------------------------------
                    Cartesian Multipole Moments
 -----------------------------------------------------------------
    Charge (ESU x 10^10)
                -0.0000
    Dipole Moment (Debye)
         X      -1.3285      Y       0.1728      Z      -1.0578
       Tot       1.7070
    Quadrupole Moments (Debye-Ang)
        XX     -49.7121     XY       5.4765     YY     -41.7345
        XZ      -0.9158     YZ       2.3015     ZZ     -53.6163
    Octopole Moments (Debye-Ang^2)
       XXX    -225.2631    XXY       7.6600    XYY     -79.6733
       YYY     -41.1966    XXZ     -76.4599    XYZ      14.4585
       YYZ     -76.2431    XZZ     -78.8762    YZZ       1.1958
       ZZZ    -259.5151
    Hexadecapole Moments (Debye-Ang^3)
      XXXX    -946.0931   XXXY      18.8648   XXYY    -335.5596
      XYYY       2.3816   YYYY    -839.3718   XXXZ    -407.3614
      XXYZ      52.9439   XYYZ    -166.7102   YYYZ      42.3132
      XXZZ    -306.0820   XYZZ      29.0897   YYZZ    -328.0164
      XZZZ    -455.6493   YZZZ      79.3745   ZZZZ   -1040.0099
 -----------------------------------------------------------------
Archival summary:
1\1\nid00562\SP\ProcedureUnspecified\BasisUnspecified\178\meili\SunSep2622:31:322021SunSep2622:31:322021\0\\#,ProcedureUnspecified,BasisUnspecified,\\0,1\C\O,1,1.36632\H,2,0.970058,1,112.074\C,1,1.38517,2,119.619,3,-176.277,0\H,4,1.08062,1,119.624,2,0.265016,0\C,4,1.39217,1,119.852,2,-179.731,0\H,6,1.08232,4,119.337,1,-179.909,0\C,6,1.39005,4,120.826,1,0.320663,0\C,8,1.39241,6,118.972,4,-0.636234,0\H,9,1.08213,8,119.866,6,-179.701,0\C,9,1.39015,8,120.626,6,0.725771,0\H,11,1.08007,9,119.689,8,-177.376,0\C,8,1.50652,6,120.3,4,179.451,0\H,13,1.0908,8,108.252,6,58.9265,0\H,13,1.09082,8,109.2,6,175.81,0\H,13,1.1,8,113.36,6,-62.3696,0\\\@

 Total job time:  39473.64s(wall), 78316.59s(cpu) 
 Sun Sep 26 22:31:35 2021

        *************************************************************
        *                                                           *
        *  Thank you very much for using Q-Chem.  Have a nice day.  *
        *                                                           *
        *************************************************************


Done Job For Fragment 0
calling putenv with: QCSCRATCH=/global/cscratch1/sd/meili 
calling putenv with: QCLOCALSCR=/tmp 
calling putenv with: QCTHREADS=32 
Creating input file /tmp/qchem3277/Frg2.input
using default PutDataFrgm: nothing
calling putenv with: QCSCRATCH=/tmp/qchem3277/ 
calling putenv with: QCLOCALSCR=/tmp/qchem3277/ 
Spawning Job For Fragment 1
                  Welcome to Q-Chem
     A Quantum Leap Into The Future Of Chemistry


 Q-Chem 5.2, Q-Chem, Inc., Pleasanton, CA (2019)

 License issued to: National Energy Research Scientific Computing Center

 Yihan Shao,  Zhengting Gan,  E. Epifanovsky,  A. T. B. Gilbert,  M. Wormit,  
 J. Kussmann,  A. W. Lange,  A. Behn,  Jia Deng,  Xintian Feng,  D. Ghosh,  
 M. Goldey,  P. R. Horn,  L. D. Jacobson,  I. Kaliman,  T. Kus,  A. Landau,  
 Jie Liu,  E. I. Proynov,  R. M. Richard,  R. P. Steele,  E. J. Sundstrom,  
 H. L. Woodcock III,  P. M. Zimmerman,  D. Zuev,  B. Albrecht,  E. Alguire,  
 S. A. Baeppler,  D. Barton,  Z. Benda,  Y. A. Bernard,  E. J. Berquist,  
 K. B. Bravaya,  H. Burton,  D. Casanova,  Chun-Min Chang,  Yunqing Chen,  
 A. Chien,  K. D. Closser,  M. P. Coons,  S. Coriani,  S. Dasgupta,  
 A. L. Dempwolff,  M. Diedenhofen,  Hainam Do,  R. G. Edgar,  Po-Tung Fang,  
 S. Faraji,  S. Fatehi,  Qingguo Feng,  K. D. Fenk,  J. Fosso-Tande,  
 J. Gayvert,  Qinghui Ge,  A. Ghysels,  G. Gidofalvi,  J. Gomes,  
 J. Gonthier,  A. Gunina,  D. Hait,  M. W. D. Hanson-Heine,  
 P. H. P. Harbach,  A. W. Hauser,  M. F. Herbst,  J. E. Herr,  
 E. G. Hohenstein,  Z. C. Holden,  Kerwin Hui,  B. C. Huynh,  T.-C. Jagau,  
 Hyunjun Ji,  B. Kaduk,  K. Khistyaev,  Jaehoon Kim,  P. Klunzinger,  K. Koh,  
 D. Kosenkov,  L. Koulias,  T. Kowalczyk,  C. M. Krauter,  A. Kunitsa,  
 Ka Un Lao,  A. Laurent,  K. V. Lawler,  Joonho Lee,  D. Lefrancois,  
 S. Lehtola,  D. S. Levine,  Yi-Pei Li,  You-Sheng Lin,  Fenglai Liu,  
 E. Livshits,  A. Luenser,  P. Manohar,  E. Mansoor,  S. F. Manzer,  
 Shan-Ping Mao,  Yuezhi Mao,  N. Mardirossian,  A. V. Marenich,  
 T. Markovich,  L. A. Martinez-Martinez,  S. A. Maurer,  N. J. Mayhall,  
 S. C. McKenzie,  J.-M. Mewes,  P. Morgante,  A. F. Morrison,  
 J. W. Mullinax,  K. Nanda,  T. S. Nguyen-Beck,  R. Olivares-Amaya,  
 J. A. Parkhill,  Zheng Pei,  T. M. Perrine,  F. Plasser,  P. Pokhilko,  
 S. Prager,  A. Prociuk,  E. Ramos,  D. R. Rehn,  F. Rob,  M. Scheurer,  
 M. Schneider,  N. Sergueev,  S. M. Sharada,  S. Sharma,  D. W. Small,  
 T. Stauch,  T. Stein,  Yu-Chuan Su,  A. J. W. Thom,  A. Tkatchenko,  
 T. Tsuchimochi,  N. M. Tubman,  L. Vogt,  M. L. Vidal,  O. Vydrov,  
 M. A. Watson,  J. Wenzel,  M. de Wergifosse,  T. A. Wesolowski,  A. White,  
 J. Witte,  A. Yamada,  Jun Yang,  K. Yao,  S. Yeganeh,  S. R. Yost,  
 Zhi-Qiang You,  A. Zech,  Igor Ying Zhang,  Xing Zhang,  Yan Zhao,  
 Ying Zhu,  B. R. Brooks,  G. K. L. Chan,  C. J. Cramer,  M. S. Gordon,  
 W. J. Hehre,  A. Klamt,  M. W. Schmidt,  C. D. Sherrill,  D. G. Truhlar,  
 A. Aspuru-Guzik,  R. Baer,  A. T. Bell,  N. A. Besley,  Jeng-Da Chai,  
 A. E. DePrince, III,  R. A. DiStasio Jr.,  A. Dreuw,  B. D. Dunietz,  
 T. R. Furlani,  Chao-Ping Hsu,  Yousung Jung,  Jing Kong,  D. S. Lambrecht,  
 WanZhen Liang,  C. Ochsenfeld,  V. A. Rassolov,  L. V. Slipchenko,  
 J. E. Subotnik,  T. Van Voorhis,  J. M. Herbert,  A. I. Krylov,  
 P. M. W. Gill,  M. Head-Gordon

 Contributors to earlier versions of Q-Chem not listed above: 
 R. D. Adamson,  B. Austin,  J. Baker,  G. J. O. Beran,  K. Brandhorst,  
 S. T. Brown,  E. F. C. Byrd,  A. K. Chakraborty,  C.-L. Cheng,  
 Siu Hung Chien,  D. M. Chipman,  D. L. Crittenden,  H. Dachsel,  
 R. J. Doerksen,  A. D. Dutoi,  L. Fusti-Molnar,  W. A. Goddard III,  
 A. Golubeva-Zadorozhnaya,  S. R. Gwaltney,  G. Hawkins,  A. Heyden,  
 S. Hirata,  G. Kedziora,  F. J. Keil,  C. Kelley,  Jihan Kim,  R. A. King,  
 R. Z. Khaliullin,  P. P. Korambath,  W. Kurlancheek,  A. M. Lee,  M. S. Lee,  
 S. V. Levchenko,  Ching Yeh Lin,  D. Liotard,  R. C. Lochan,  I. Lotan,  
 P. E. Maslen,  N. Nair,  D. P. O'Neill,  D. Neuhauser,  E. Neuscamman,  
 C. M. Oana,  R. Olson,  B. Peters,  R. Peverati,  P. A. Pieniazek,  
 Y. M. Rhee,  J. Ritchie,  M. A. Rohrdanz,  E. Rosta,  N. J. Russ,  
 H. F. Schaefer III,  N. E. Schultz,  N. Shenvi,  A. C. Simmonett,  A. Sodt,  
 D. Stuck,  K. S. Thanthiriwatte,  V. Vanovschi,  Tao Wang,  A. Warshel,  
 C. F. Williams,  Q. Wu,  X. Xu,  W. Zhang

 Please cite Q-Chem as follows:
 Y. Shao et al., Mol. Phys. 113, 184-215 (2015)
 DOI: 10.1080/00268976.2014.952696

 Q-Chem 5.2.0 for Intel X86 EM64T Linux

 Parts of Q-Chem use Armadillo 8.300.2 (Tropical Shenanigans).
 http://arma.sourceforge.net/

 Q-Chem begins on Sun Sep 26 22:31:40 2021  

Host: cori01
0

     Scratch files written to /tmp/qchem3277//Frg2//
 May1019 |scratch|qcdevops|jenkins|workspace|build_RNUM -1
Processing $rem in /global/common/cori/software/qchem/5.2/config/preferences:
	 MEM_TOTAL  96000 
NAlpha2: 50
NElect   50
Mult     1
Symmetry turned off for PCM/SM12/SMD calculation

Checking the input file for inconsistencies... 	...done.

--------------------------------------------------------------
User input:
--------------------------------------------------------------
$molecule
0 1
 6	-0.5921653155	1.8053177647	-2.8289443461
 6	-2.4421653155	0.8383177647	-1.4389443461
 6	-1.3881653155	0.6403177647	-2.3249443461
 6	-3.1651653155	-0.2466822353	-0.9419443461
 6	-2.8321653155	-1.5416822353	-1.3349443461
 6	-1.0551653155	-0.6556822353	-2.7109443461
 6	-1.7781653155	-1.7476822353	-2.2189443461
 1	-2.7071653155	1.8413177647	-1.1389443461
 1	-3.9911653155	-0.0816822353	-0.2649443461
 1	0.3738346845	1.4483177647	-3.1839443461
 1	-0.3861653155	2.4713177647	-1.9899443461
 1	-3.3951653155	-2.3836822353	-0.9609443461
 1	-0.2421653155	-0.8256822353	-3.4029443461
 1	-1.5211653155	-2.7496822353	-2.5359443461
 1	-1.0754153155	2.3855077647	-3.6288533461
$end
$rem
EDA2		1
METHOD		WB97X-V
BASIS		DEF2-TZVPD
XC_GRID		000099000590
NL_GRID		1
UNRESTRICTED		FALSE
MAX_SCF_CYCLES		200
SYMMETRY		FALSE
SYM_IGNORE		TRUE
BASIS_LIN_DEP_THRESH		6
THRESH		14
SCF_CONVERGENCE		8
SCF_PRINT_FRGM		TRUE
SOLVENT_METHOD		PCM
!required keywords
JOBTYPE		SP
SYM_IGNORE		TRUE
SUBSYSTEM		TRUE
GEN_SCFMAN		TRUE
CHILD_INSTRUCTION		2
SYM_IGNORE		TRUE
SCFMI		0
RI_K 0		
PARI_K 0		
MIN_PARI_K 0		
IARI_K 0		
OCC_RI_K 0		
PURECART		1111
MEM_STATIC		2000
MEM_TOTAL		96000
GUI		0
CHILD_MP		1
CHILD_MP_ORDERS		232
FRZ_RELAX		0
FRZ_RELAX_METHOD		0
EDA_CLS_ELEC		1
EDA_CLS_DISP		0
FRZ_ORTHO_DECOMP		1
EDA2		FALSE
FRGM_METHOD		FALSE
CIS_N_ROOTS  0
LOCAL_CIS    0
CIS_RLX_DNS  1
$end
$pcm
THEORY                  CPCM
METHOD                  SWIG
SOLVER                  INVERSION
RADII                   UFF
HPOINTS                 302
HEAVYPOINTS             302
PRINTLEVEL              0
$end
$solvent
DIELECTRIC              78.390000 ! water
$end
--------------------------------------------------------------
 ----------------------------------------------------------------
             Standard Nuclear Orientation (Angstroms)
    I     Atom           X                Y                Z
 ----------------------------------------------------------------
    1      C      -0.5921653155     1.8053177647    -2.8289443461
    2      C      -2.4421653155     0.8383177647    -1.4389443461
    3      C      -1.3881653155     0.6403177647    -2.3249443461
    4      C      -3.1651653155    -0.2466822353    -0.9419443461
    5      C      -2.8321653155    -1.5416822353    -1.3349443461
    6      C      -1.0551653155    -0.6556822353    -2.7109443461
    7      C      -1.7781653155    -1.7476822353    -2.2189443461
    8      H      -2.7071653155     1.8413177647    -1.1389443461
    9      H      -3.9911653155    -0.0816822353    -0.2649443461
   10      H       0.3738346845     1.4483177647    -3.1839443461
   11      H      -0.3861653155     2.4713177647    -1.9899443461
   12      H      -3.3951653155    -2.3836822353    -0.9609443461
   13      H      -0.2421653155    -0.8256822353    -3.4029443461
   14      H      -1.5211653155    -2.7496822353    -2.5359443461
   15      H      -1.0754153155     2.3855077647    -3.6288533461
 ----------------------------------------------------------------
 Nuclear Repulsion Energy =         269.86874493 hartrees
 There are       25 alpha and       25 beta electrons
 Requested basis set is def2-TZVPD
 There are 131 shells and 331 basis functions

 Total QAlloc Memory Limit  96000 MB
 Mega-Array Size      1956 MB
 MEM_STATIC part      2000 MB
 Discretize the solute cavity surface with Lebedev spheres
	Using 302 Lebedev grid points for each H atom
	Using 302 Lebedev grid points for other atoms
	Atomic van der Waals radii will be scaled by 1.20
 Remove points where switching function is < 1.0e-08
 Keep 1794 surface tesserae and discard 2736 interior tesserae
 Molecular Surface Area = 177.903 Angst**2

                       Distance Matrix (Angstroms)
             C (  1)   C (  2)   C (  3)   C (  4)   C (  5)   C (  6)
   C (  2)  2.507925
   C (  3)  1.498285  1.391084
   C (  4)  3.793653  1.395336  2.420163
   C (  5)  4.295584  2.413983  2.797563  1.393687
   C (  6)  2.506953  2.402871  1.392660  2.783656  2.415802
   C (  7)  3.795063  2.781491  2.421958  2.409875  1.390974  1.399020
   H (  8)  2.707512  1.079923  2.142139  2.146699  3.390978  3.381612
   H (  9)  4.657045  2.150367  3.397130  1.080662  2.149368  3.864258
   H ( 10)  1.089325  3.368528  2.120233  4.519304  4.757871  2.587003
   H ( 11)  1.090831  2.682802  2.113951  4.025999  4.745114  3.278038
   H ( 12)  5.375310  3.393815  3.877257  2.149426  1.079726  3.394714
   H ( 13)  2.715536  3.386177  2.150478  3.864672  3.390779  1.081080
   H ( 14)  4.657995  3.863340  3.399163  3.392430  2.149508  2.152352
   H ( 15)  1.100002  3.009569  2.200836  4.302901  4.875552  3.176760
             C (  7)   H (  8)   H (  9)   H ( 10)   H ( 11)   H ( 12)
   H (  8)  3.861394
   H (  9)  3.389844  2.471935
   H ( 10)  3.971995  3.718741  5.469432
   H ( 11)  4.448603  2.551106  4.742305  1.746358
   H ( 12)  2.145169  4.284350  2.477667  5.816469  5.803787
   H ( 13)  2.147379  4.279581  4.945258  2.366113  3.589918  4.281604
   H ( 14)  1.081916  4.943226  4.286790  4.651251  5.370771  2.475168
   H ( 15)  4.423230  3.026284  5.089647  1.782300  1.780015  5.936679
             H ( 13)   H ( 14)
   H ( 14)  2.467652
   H ( 15)  3.325219  5.269091
 
 A cutoff of  1.0D-14 yielded   8361 shell pairs
 There are     54511 function pairs (     69465 Cartesian)
 Smallest overlap matrix eigenvalue = 5.63E-07
 Linear dependence detected in AO basis
 Tighter screening thresholds may be required for diffuse basis sets
 Use S2THRESH > 14 and THRESH = 14 in case of SCF convergence issues
 Number of orthogonalized atomic orbitals = 330
 Maximum deviation from orthogonality = 1.003E-10

 Scale SEOQF with 1.000000e-01/1.000000e-01/1.000000e-01

 Standard Electronic Orientation quadrupole field applied
 Nucleus-field energy     =    -0.0000000101 hartrees
 Guess from superposition of atomic densities
 Warning:  Energy on first SCF cycle will be non-variational
 SAD guess density has 49.913408 electrons

 -----------------------------------------------------------------------
  General SCF calculation program by
  Eric Jon Sundstrom, Paul Horn, Yuezhi Mao, Dmitri Zuev, Alec White,
  David Stuck, Shaama M.S., Shane Yost, Joonho Lee, David Small,
  Daniel Levine, Susi Lehtola, Hugh Burton, Evgeny Epifanovsky
 -----------------------------------------------------------------------
 Exchange:     0.1670 Hartree-Fock + 1.0000 wB97X-V + LR-HF
 Correlation:  1.0000 wB97X-V
 Using Euler-Maclaurin-Lebedev (99,590) quadrature formula
 Nonlocal Correlation:  VV10 with C = 0.0100 and b = 6.00 and scale = 1.00000
 Grid used for NLC:  SG-1 standard quadrature
Energy prior to optimization (guess energy) = -271.520023983445
Begin Timing: Total SCF Calculation
begin iterations for algorithm: DIIS         
the SCF tolerance is set to 1.00e-08
    1    -271.5200239834      1.96e-03     00000 
    2    -271.5590298981      1.26e-03     00000 
    3    -271.5809953157      1.39e-04     00000 
    4    -271.5814109281      5.06e-05     00000 
    5    -271.5814474417      1.77e-05     00000 
    6    -271.5814526160      4.84e-06     00000 
    7    -271.5814530411      2.05e-06     00000 
    8    -271.5814531161      3.28e-07     00000 
    9    -271.5814531195      7.95e-08     00000 
   10    -271.5814531198      4.43e-08     00000 
   11    -271.5814531198      1.47e-08     00000 
   12    -271.5814531198      4.94e-09     00000 Convergence criterion met
Timing for Total SCF: 1370.00s (wall), 2720.32s (cpu)

************** Final PCM Free Energy Summary **************
 G_electrostatic  =      -0.00248555 hartree =      -1.55970606 kcal/mol
 G_cavitation     =       0.00000000 hartree =       0.00000000 kcal/mol
 G_dispersion     =       0.00000000 hartree =       0.00000000 kcal/mol
 G_repulsion      =       0.00000000 hartree =       0.00000000 kcal/mol
 --------------------------------------------------
 Non-electrostatic Free Energy =       0.00000000 hartree =       0.00000000 kcal/mol
 Total                         =      -0.00248555 hartree =      -1.55970606 kcal/mol
 --------------------------------------------------
 SCF Energy (H0 + V/2)                       =    -271.58145312 
 Solute Internal Energy (H0)                 =    -271.57896757 
 Total Free Energy (H0 + V/2 + non-elec)     =    -271.58145312 hartree
                                             = -170419.93398064 kcal/mol
***********************************************************

E_pcm = -0.0024855498
Multipole orders to be included
        2
        3
computing dipole RHS
computing quadrupole RHS
total number of RHS in solve_reponses: 8
RHS batch sizes
        8
Beginning Block Conjugate Gradient Iterations. Batch Number: 0
computing hessian-vector products by finite difference
              1      5.86e-01     00000 Conjugate Gradient Iteration
computing hessian-vector products by finite difference
              2      1.92e-01     00000 Conjugate Gradient Iteration
computing hessian-vector products by finite difference
              3      4.48e-02     00000 Conjugate Gradient Iteration
computing hessian-vector products by finite difference
              4      1.05e-02     00000 Conjugate Gradient Iteration
computing hessian-vector products by finite difference
              5      2.08e-03     00000 Conjugate Gradient Iteration
computing hessian-vector products by finite difference
              6      5.87e-04     00000 Conjugate Gradient Iteration
computing hessian-vector products by finite difference
              7      1.78e-04     00000 Conjugate Gradient Iteration
computing hessian-vector products by finite difference
              8      2.70e-05     00000 Conjugate Gradient Iteration
computing hessian-vector products by finite difference
              9      3.41e-06     00000 Conjugate Gradient Iteration
computing hessian-vector products by finite difference
             10      6.87e-07     00000 Conjugate Gradient Iteration
computing hessian-vector products by finite difference
             11      1.40e-07     00000 Conjugate Gradient Iteration
computing hessian-vector products by finite difference
             12      2.50e-08     00000 Conjugate Gradient Iteration
computing hessian-vector products by finite difference
             13      2.70e-09     00000 CG Converged
batch 0 complete
Done Calculating Responses
TESTING ORTHOGONALIZATION OF MULTIPOLE BASIS
Multipole virts passed orthogonality test
Virts Per Order
           75
          125
 
 --------------------------------------------------------------
 
                    Orbital Energies (a.u.)
 --------------------------------------------------------------
 
 Alpha MOs
 -- Occupied --
-10.2814 -10.2743 -10.2741 -10.2709 -10.2705 -10.2699 -10.2618  -0.9974
 -0.9084  -0.8786  -0.8138  -0.7315  -0.7059  -0.6305  -0.5741  -0.5684
 -0.5364  -0.5302  -0.5156  -0.4869  -0.4730  -0.4429  -0.4412  -0.3487
 -0.3388
 -- Virtual --
  0.0620   0.0632   0.0679   0.0789   0.0845   0.1043   0.1103   0.1135
  0.1354   0.1534   0.1655   0.1696   0.1842   0.1895   0.1946   0.1995
  0.2212   0.2247   0.2333   0.2396   0.2495   0.2580   0.2596   0.2697
  0.2793   0.2824   0.2862   0.2907   0.2932   0.2998   0.3024   0.3099
  0.3196   0.3240   0.3310   0.3380   0.3497   0.3516   0.3647   0.3732
  0.3761   0.3816   0.3844   0.3879   0.3907   0.3998   0.4028   0.4062
  0.4126   0.4281   0.4296   0.4349   0.4396   0.4476   0.4509   0.4526
  0.4652   0.4699   0.4728   0.4820   0.4923   0.4965   0.5119   0.5137
  0.5166   0.5234   0.5347   0.5392   0.5442   0.5487   0.5510   0.5663
  0.5789   0.5847   0.5936   0.5968   0.5977   0.6232   0.6362   0.6423
  0.6613   0.6752   0.6812   0.6869   0.6924   0.6963   0.7195   0.7230
  0.7280   0.7335   0.7439   0.7595   0.7619   0.7651   0.7769   0.7848
  0.7907   0.7924   0.7975   0.8013   0.8076   0.8214   0.8255   0.8288
  0.8328   0.8357   0.8464   0.8529   0.8591   0.8698   0.8875   0.8927
  0.9095   0.9169   0.9347   0.9440   0.9509   1.0057   1.0264   1.0374
  1.0449   1.0617   1.0733   1.0750   1.0904   1.0949   1.1022   1.1400
  1.1609   1.1770   1.2539   1.2726   1.2951   1.3281   1.3500   1.3521
  1.3776   1.4359   1.4493   1.4579   1.4633   1.4808   1.5256   1.5349
  1.6008   1.6082   1.6161   1.6241   1.6637   1.6773   1.7347   1.7774
  1.7871   1.7991   1.7999   1.8131   1.8293   1.8651   1.8860   1.9112
  1.9158   1.9203   1.9368   1.9624   1.9842   1.9932   2.0115   2.0251
  2.0301   2.0457   2.0674   2.0906   2.1113   2.1225   2.1736   2.1823
  2.1974   2.2289   2.2421   2.2739   2.2867   2.3113   2.3865   2.3988
  2.4028   2.4129   2.4749   2.5084   2.5367   2.5545   2.5598   2.6084
  2.6171   2.6288   2.6709   2.6798   2.6955   2.7082   2.7537   2.7675
  2.7837   2.8090   2.8112   2.8447   2.8581   2.8936   2.9086   2.9172
  2.9347   2.9389   2.9659   2.9739   2.9893   3.0165   3.0207   3.0485
  3.0589   3.0916   3.0996   3.1186   3.1765   3.1923   3.2027   3.2146
  3.2313   3.2416   3.2855   3.2884   3.3367   3.3557   3.3601   3.3785
  3.4028   3.4416   3.4439   3.4475   3.4575   3.4766   3.4861   3.4943
  3.5050   3.5289   3.5395   3.5444   3.5547   3.5687   3.5788   3.6020
  3.6246   3.6316   3.6532   3.6907   3.7059   3.7481   3.7760   3.8138
  3.8549   3.8942   3.9091   3.9496   3.9527   3.9997   4.0346   4.0498
  4.1192   4.2003   4.2661   4.2727   4.2870   4.3113   4.3282   4.3394
  4.3462   4.3660   4.3900   4.3945   4.4258   4.4453   4.4833   4.5291
  4.5932   4.6215   4.7470   4.7707   4.8315   4.8733   4.9050   4.9462
  5.0195   5.0478   5.1663   5.2621   5.3641   5.3795   5.5020   5.5325
  5.6650   5.8513  22.5783  22.6806  22.8846  22.8906  23.0039  23.0721
 23.4216
 --------------------------------------------------------------
 
          Ground-State Mulliken Net Atomic Charges

     Atom                 Charge (a.u.)
  ----------------------------------------
      1 C                    -1.045881
      2 C                    -0.327052
      3 C                     0.893889
      4 C                    -0.483736
      5 C                    -0.485761
      6 C                    -0.388311
      7 C                    -0.517787
      8 H                     0.340704
      9 H                     0.315308
     10 H                     0.276775
     11 H                     0.253594
     12 H                     0.335115
     13 H                     0.303746
     14 H                     0.310515
     15 H                     0.218881
  ----------------------------------------
  Sum of atomic charges =     0.000000

 -----------------------------------------------------------------
                    Cartesian Multipole Moments
 -----------------------------------------------------------------
    Charge (ESU x 10^10)
                 0.0000
    Dipole Moment (Debye)
         X       0.2301      Y       0.3912      Z      -0.1639
       Tot       0.4826
    Quadrupole Moments (Debye-Ang)
        XX     -42.2705     XY      -0.2817     YY     -38.1881
        XZ      -4.0954     YZ      -0.3690     ZZ     -42.4430
    Octopole Moments (Debye-Ang^2)
       XXX     233.4407    XXY       2.5401    XYY      69.3218
       YYY       4.8669    XXZ     100.6838    XYZ       2.3913
       YYZ      75.9401    XZZ      94.2357    YZZ       5.0276
       ZZZ     254.4749
    Hexadecapole Moments (Debye-Ang^3)
      XXXX   -1161.2454   XXXY     -83.3190   XXYY    -258.2071
      XYYY     -77.2506   YYYY    -473.4594   XXXZ    -441.0723
      XXYZ      -1.6727   XYYZ    -114.0407   YYYZ      28.5271
      XXZZ    -450.8600   XYZZ     -42.4396   YYZZ    -266.0973
      XZZZ    -427.6912   YZZZ       5.5542   ZZZZ   -1217.7239
 -----------------------------------------------------------------
Archival summary:
1\1\nid00562\SP\ProcedureUnspecified\BasisUnspecified\78\meili\MonSep2706:13:162021MonSep2706:13:162021\0\\#,ProcedureUnspecified,BasisUnspecified,\\0,1\C\C,1,1.39108\H,2,1.07992,1,119.673\C,1,1.39266,2,119.351,3,-179.777,0\H,4,1.08108,1,120.236,2,179.665,0\C,2,1.39534,1,120.582,3,179.565,0\H,6,1.08066,2,120.031,1,-179.14,0\C,6,1.39369,2,119.887,1,-0.0461579,0\H,8,1.07973,6,120.155,2,-179.373,0\C,8,1.39097,6,119.859,2,0.145666,0\H,10,1.08192,8,120.223,6,-179.364,0\C,1,1.49828,2,120.405,3,2.00059,0\H,12,1.08933,1,109.022,2,158.989,0\H,12,1.09083,1,108.441,2,43.4689,0\H,12,1.1,1,114.919,2,-78.3443,0\\\@

 Total job time:  27698.95s(wall), 54895.73s(cpu) 
 Mon Sep 27 06:13:19 2021

        *************************************************************
        *                                                           *
        *  Thank you very much for using Q-Chem.  Have a nice day.  *
        *                                                           *
        *************************************************************


Done Job For Fragment 1
calling putenv with: QCSCRATCH=/global/cscratch1/sd/meili 
calling putenv with: QCLOCALSCR=/tmp 
calling putenv with: QCTHREADS=32 
Doing General SCFMI
 Exchange:     0.1670 Hartree-Fock + 1.0000 wB97X-V + LR-HF
 Correlation:  1.0000 wB97X-V
 Using Euler-Maclaurin-Lebedev (99,590) quadrature formula
 Nonlocal Correlation:  VV10 with C = 0.0100 and b = 6.00 and scale = 1.00000
 Grid used for NLC:  SG-1 standard quadrature
performing fock build before subrot guess so that all methods have access
Printing subrot_rss_gen Method Specification:
Occupied Subspace Method is 0
Virtual Subspace Method is 0
Energy of the unrelaxed supersystem initial determinant -618.394566479410
performing fock build before subrot guess so that all methods have access
Printing subrot_rss_gen Method Specification:
Occupied Subspace Method is 0
Virtual Subspace Method is 0
Energy of the unrelaxed supersystem initial determinant w/ solvent -618.401923321278
write pseudocanon occs and virts to disk
write pseudocanon orbital energies to disk
Tolerance of ortho_decomp_scf: 1.00e-06
GDM subspace size: 20
Beginning the Orthogonal Decomposition of the Initial Supersystem Wavefunction
    1    -618.3778983790      1.47e-02     ortho_decomp Preconditoned Steepest Descent
    2    -618.3789870373      3.50e-04     ortho_decomp BFGS Step
    3    -618.3789901396      2.65e-05     ortho_decomp BFGS Step
    4    -618.3789901460      1.08e-06     ortho_decomp BFGS Step
    5    -618.3789901460      3.49e-08     ortho_decomp 00000 Convergence criterion met
 Hartree-Fock
 Hartree-Fock
 Hartree-Fock
Doing General SCFMI
 Exchange:     0.1670 Hartree-Fock + 1.0000 wB97X-V + LR-HF
 Correlation:  1.0000 wB97X-V
 Using Euler-Maclaurin-Lebedev (99,590) quadrature formula
 Nonlocal Correlation:  VV10 with C = 0.0100 and b = 6.00 and scale = 1.00000
 Grid used for NLC:  SG-1 standard quadrature
performing fock build at end of subrot_r(subrot) constructor so that all methods have access
<S^2> of initial wavefunction before polarization iterations 0.0000000000
Beginning iterations for the determination of the polarized wavefunction
Energy prior to optimization (guess energy) = -618.401923321277
Begin Timing: Total SCF Calculation
begin iterations for algorithm: DIIS         
the SCF tolerance is set to 1.00e-08
    1    -618.4019233213      4.11e-05     00000 
    2    -618.4021467570      1.66e-05     00000 
    3    -618.4021692108      9.70e-06     00000 
    4    -618.4021773512      2.85e-06     00000 
    5    -618.4021783254      1.21e-06     00000 
    6    -618.4021785296      5.65e-07     00000 
    7    -618.4021785600      2.66e-07     00000 
    8    -618.4021785660      1.36e-07     00000 
    9    -618.4021785673      5.75e-08     00000 
   10    -618.4021785674      2.87e-08     00000 
   11    -618.4021785675      1.31e-08     00000 
   12    -618.4021785675      4.84e-09     00000 Convergence criterion met
write pseudocanon occs and virts to disk
write pseudocanon orbital energies to disk
Timing for Total SCF: 12364.00s (wall), 24512.06s (cpu)
<S^2> of polarized wavefunction after polarization iterations 0.0000000000
relaxing scfmi constraint to allow all rotations in the entire AO span
Doing General SCFMI
 Exchange:     0.1670 Hartree-Fock + 1.0000 wB97X-V + LR-HF
 Correlation:  1.0000 wB97X-V
 Using Euler-Maclaurin-Lebedev (99,590) quadrature formula
 Nonlocal Correlation:  VV10 with C = 0.0100 and b = 6.00 and scale = 1.00000
 Grid used for NLC:  SG-1 standard quadrature
performing fock build at end of subrot_r(subrot) constructor so that all methods have access
<S^2> of polarized wavefunction before ct-allowed iterations 0.0000000000
Beginning iterations for the determination of the CT-Allowed wavefunction
Energy prior to optimization (guess energy) = -618.402178567473
Begin Timing: Total SCF Calculation
begin iterations for algorithm: DIIS         
the SCF tolerance is set to 1.00e-08
    1    -618.4021785675      5.76e-05     00000 
    2    -618.4029353424      5.72e-06     00000 
    3    -618.4029567167      9.97e-07     00000 
    4    -618.4029573894      5.59e-07     00000 
    5    -618.4029574723      1.11e-07     00000 
    6    -618.4029574785      4.88e-08     00000 
    7    -618.4029574792      1.13e-08     00000 
    8    -618.4029574793      5.42e-09     00000 Convergence criterion met
write pseudocanon occs and virts to disk
write pseudocanon orbital energies to disk
Timing for Total SCF: 7716.00s (wall), 15344.32s (cpu)
<S^2> of ct_allowed wavefunction after ct-allowed iterations 0.0000000000

================================
        Results of EDA2         
================================
Basic EDA Quantities
--------------------
Fragment Energies (Ha):
1 -346.8172287337
2 -271.5814531198
--------------------
  E_prp (kJ/mol) = 0.0000
  E_sol (kJ/mol) = 1.8569
  E_frz (kJ/mol) = -10.3675
  E_pol (kJ/mol) = -0.6702
  E_vct (kJ/mol) = -2.0451
  E_int (kJ/mol) = -11.2258
--------------------


Initial Wavefunction Decomposition
--------------------
  --------------------
  Orthogonal Fragment Subspace Decomposition:
  --------------------
     E_elec   (ELEC)   (kJ/mol) = -16.7272
     E_pauli  (PAULI)  (kJ/mol) = 23.3256
     E_disp   (DISP)   (kJ/mol) = -16.9658
     --------------------
     Terms summing to E_pauli:
     --------------------
        E_kep_pauli       (kJ/mol) = 30.5287
        E_disp_free_pauli (kJ/mol) = -7.2031
  --------------------
  Classical Frozen Decomposition:
  --------------------
     E_cls_elec  (CLS ELEC)  (kJ/mol) = -6.7444
     E_cls_pauli (CLS PAULI) (kJ/mol) = -3.6230
    [E_mod_pauli (MOD PAULI) (kJ/mol) = 13.3428 (CLS PAULI - DISP from orthogonal decomposition) ]
  --------------------
--------------------

Simplified EDA Summary (kJ/mol)
--------------------
 PREPARATION     0.0000
 SOLVATION       1.8569
 FROZEN          6.5983      (does not include dispersion)
[PAULI           23.3256]     (if this is negligible, then frozen describes electrostatics)
 DISPERSION      -16.9658
 POLARIZATION    -0.6702
 CHARGE TRANSFER -2.0451
 TOTAL           -11.2258     (PRP + SOL + FRZ + DISP + POL + CT)
--------------------
 
 --------------------------------------------------------------
 
                    Orbital Energies (a.u.)
 --------------------------------------------------------------
 
 Alpha MOs
 -- Occupied --
-19.2450 -10.3346 -10.2825 -10.2757 -10.2754 -10.2743 -10.2731 -10.2722
-10.2718 -10.2717 -10.2710 -10.2709 -10.2703 -10.2633 -10.2617  -1.1922
 -0.9988  -0.9956  -0.9097  -0.9020  -0.8836  -0.8798  -0.8151  -0.8103
 -0.7474  -0.7328  -0.7139  -0.7070  -0.6652  -0.6316  -0.6023  -0.5808
 -0.5753  -0.5695  -0.5507  -0.5418  -0.5395  -0.5313  -0.5297  -0.5216
 -0.5166  -0.5114  -0.4887  -0.4778  -0.4728  -0.4547  -0.4440  -0.4429
 -0.4426  -0.4399  -0.3541  -0.3483  -0.3394  -0.3128
 -- Virtual --
  0.0530   0.0553   0.0600   0.0635   0.0667   0.0716   0.0736   0.0840
  0.0871   0.0916   0.0973   0.1008   0.1114   0.1142   0.1158   0.1190
  0.1272   0.1306   0.1389   0.1473   0.1516   0.1540   0.1636   0.1645
  0.1725   0.1776   0.1888   0.1908   0.2002   0.2036   0.2074   0.2127
  0.2153   0.2199   0.2216   0.2290   0.2334   0.2343   0.2387   0.2455
  0.2515   0.2545   0.2607   0.2621   0.2658   0.2699   0.2715   0.2727
  0.2754   0.2794   0.2834   0.2861   0.2879   0.2911   0.2948   0.2981
  0.3054   0.3073   0.3088   0.3127   0.3179   0.3239   0.3260   0.3265
  0.3327   0.3348   0.3362   0.3386   0.3402   0.3465   0.3521   0.3527
  0.3548   0.3558   0.3611   0.3651   0.3657   0.3704   0.3722   0.3743
  0.3764   0.3830   0.3895   0.3899   0.3908   0.3943   0.3981   0.4033
  0.4057   0.4079   0.4112   0.4143   0.4177   0.4228   0.4258   0.4277
  0.4303   0.4325   0.4395   0.4415   0.4437   0.4474   0.4499   0.4550
  0.4551   0.4570   0.4611   0.4650   0.4671   0.4722   0.4733   0.4781
  0.4850   0.4874   0.4882   0.4897   0.4930   0.4990   0.5043   0.5059
  0.5144   0.5162   0.5190   0.5239   0.5250   0.5327   0.5330   0.5396
  0.5441   0.5443   0.5488   0.5551   0.5570   0.5614   0.5646   0.5682
  0.5731   0.5769   0.5807   0.5836   0.5867   0.5890   0.5954   0.6009
  0.6041   0.6165   0.6193   0.6225   0.6249   0.6269   0.6315   0.6359
  0.6430   0.6446   0.6504   0.6541   0.6628   0.6673   0.6712   0.6733
  0.6782   0.6806   0.6843   0.6896   0.6916   0.6984   0.6989   0.7037
  0.7077   0.7126   0.7185   0.7234   0.7272   0.7302   0.7338   0.7401
  0.7467   0.7478   0.7523   0.7535   0.7572   0.7594   0.7657   0.7674
  0.7717   0.7752   0.7781   0.7851   0.7869   0.7888   0.7900   0.7945
  0.7988   0.8009   0.8025   0.8097   0.8112   0.8145   0.8184   0.8206
  0.8257   0.8299   0.8319   0.8367   0.8391   0.8430   0.8518   0.8520
  0.8535   0.8582   0.8609   0.8681   0.8692   0.8773   0.8808   0.8842
  0.8884   0.8919   0.8992   0.9075   0.9115   0.9197   0.9220   0.9264
  0.9325   0.9382   0.9476   0.9499   0.9526   0.9574   0.9660   0.9805
  0.9851   0.9945   0.9980   1.0006   1.0088   1.0151   1.0231   1.0253
  1.0335   1.0454   1.0492   1.0537   1.0627   1.0696   1.0764   1.0859
  1.0902   1.0934   1.1031   1.1049   1.1087   1.1127   1.1225   1.1271
  1.1331   1.1437   1.1453   1.1609   1.1681   1.1806   1.1925   1.2034
  1.2152   1.2259   1.2352   1.2613   1.2699   1.3002   1.3104   1.3149
  1.3218   1.3364   1.3438   1.3537   1.3688   1.3717   1.3828   1.3897
  1.3935   1.3979   1.4166   1.4215   1.4341   1.4569   1.4587   1.4666
  1.4704   1.4755   1.4879   1.5002   1.5053   1.5216   1.5293   1.5458
  1.5460   1.5519   1.5579   1.5969   1.6163   1.6240   1.6350   1.6412
  1.6478   1.6520   1.6665   1.6761   1.6827   1.6864   1.7120   1.7220
  1.7322   1.7603   1.7948   1.8030   1.8073   1.8143   1.8180   1.8311
  1.8430   1.8527   1.8566   1.8741   1.8844   1.8901   1.9020   1.9030
  1.9132   1.9266   1.9344   1.9470   1.9575   1.9616   1.9627   1.9705
  1.9811   1.9901   1.9984   2.0057   2.0166   2.0304   2.0318   2.0359
  2.0432   2.0469   2.0503   2.0613   2.0728   2.0911   2.0990   2.1071
  2.1088   2.1189   2.1253   2.1409   2.1465   2.1535   2.1631   2.1813
  2.1955   2.2123   2.2178   2.2217   2.2365   2.2426   2.2503   2.2629
  2.2805   2.2833   2.2865   2.2976   2.3068   2.3149   2.3229   2.3310
  2.3449   2.3654   2.3757   2.3937   2.4033   2.4167   2.4188   2.4317
  2.4398   2.4511   2.4676   2.4731   2.5116   2.5213   2.5261   2.5520
  2.5586   2.5750   2.5813   2.5836   2.5959   2.6218   2.6314   2.6450
  2.6505   2.6529   2.6639   2.6808   2.6842   2.6924   2.7002   2.7096
  2.7119   2.7326   2.7463   2.7578   2.7687   2.7762   2.7827   2.7908
  2.8118   2.8188   2.8242   2.8347   2.8439   2.8512   2.8580   2.8642
  2.8729   2.8896   2.8970   2.9141   2.9226   2.9360   2.9384   2.9445
  2.9517   2.9634   2.9690   2.9784   2.9816   2.9853   2.9911   3.0007
  3.0119   3.0231   3.0288   3.0418   3.0470   3.0521   3.0709   3.0738
  3.0848   3.0925   3.1065   3.1125   3.1193   3.1368   3.1465   3.1567
  3.1656   3.1822   3.1888   3.2019   3.2164   3.2327   3.2330   3.2488
  3.2508   3.2616   3.2653   3.2783   3.2889   3.2955   3.3022   3.3198
  3.3268   3.3314   3.3485   3.3701   3.3775   3.3917   3.3925   3.4001
  3.4063   3.4175   3.4292   3.4338   3.4405   3.4564   3.4607   3.4652
  3.4710   3.4801   3.4851   3.4890   3.5003   3.5040   3.5120   3.5140
  3.5244   3.5253   3.5371   3.5439   3.5446   3.5517   3.5591   3.5616
  3.5734   3.5758   3.5813   3.5868   3.5953   3.5967   3.6127   3.6174
  3.6221   3.6340   3.6375   3.6407   3.6547   3.6570   3.6679   3.6777
  3.6913   3.7042   3.7102   3.7175   3.7408   3.7478   3.7637   3.7661
  3.7910   3.8056   3.8255   3.8338   3.8690   3.8742   3.9090   3.9314
  3.9459   3.9477   3.9622   3.9744   3.9808   4.0050   4.0219   4.0302
  4.0497   4.0569   4.0696   4.0946   4.1249   4.1528   4.1800   4.2254
  4.2572   4.2772   4.2792   4.2913   4.3000   4.3150   4.3267   4.3370
  4.3424   4.3466   4.3488   4.3584   4.3617   4.3706   4.3786   4.3867
  4.3887   4.4010   4.4072   4.4196   4.4298   4.4462   4.4573   4.4696
  4.4931   4.5252   4.5437   4.5750   4.6012   4.6174   4.6496   4.6533
  4.7530   4.7537   4.7813   4.7872   4.8099   4.8240   4.8389   4.8436
  4.8858   4.9217   4.9558   4.9674   5.0277   5.0439   5.0662   5.0731
  5.1042   5.1433   5.1732   5.1802   5.2717   5.3151   5.3493   5.3678
  5.3819   5.3950   5.4575   5.5091   5.5326   5.5480   5.6089   5.6577
  5.6766   5.7164   5.7770   5.8447   5.9435   6.2070   6.4737   6.5837
  6.6358   6.8772   7.0007   7.3134   7.4547  22.6852  22.7051  22.7131
 22.7313  22.9130  22.9529  22.9846  23.0134  23.0525  23.0639  23.0968
 23.2119  23.4330  23.5523  44.4402
 --------------------------------------------------------------
 
          Ground-State Mulliken Net Atomic Charges

     Atom                 Charge (a.u.)
  ----------------------------------------
      1 C                    -1.014468
      2 C                    -0.226891
      3 C                     0.214499
      4 C                    -0.441946
      5 C                    -0.433678
      6 C                     0.561519
      7 C                    -0.476513
      8 O                    -0.477971
      9 H                     0.290023
     10 H                     0.282578
     11 H                     0.177151
     12 H                     0.230186
     13 H                     0.371611
     14 H                     0.352096
     15 H                     0.310124
     16 H                     0.243194
     17 C                    -1.036650
     18 C                    -0.192416
     19 C                     0.965856
     20 C                    -0.465248
     21 C                    -0.546029
     22 C                    -0.330802
     23 C                    -0.557675
     24 H                     0.327151
     25 H                     0.301377
     26 H                     0.270419
     27 H                     0.094962
     28 H                     0.342423
     29 H                     0.306054
     30 H                     0.313563
     31 H                     0.245502
  ----------------------------------------
  Sum of atomic charges =     0.000000

 -----------------------------------------------------------------
                    Cartesian Multipole Moments
 -----------------------------------------------------------------
    Charge (ESU x 10^10)
                -0.0000
    Dipole Moment (Debye)
         X      -1.2231      Y       0.4780      Z      -1.3630
       Tot       1.8927
    Quadrupole Moments (Debye-Ang)
        XX     -91.9372     XY       5.2995     YY     -80.0359
        XZ      -5.0027     YZ       2.0261     ZZ     -95.9002
    Octopole Moments (Debye-Ang^2)
       XXX       6.6449    XXY       9.9468    XYY     -10.7513
       YYY     -36.7711    XXZ      23.4867    XYZ      16.7609
       YYZ      -0.7571    XZZ      14.6851    YZZ       6.3618
       ZZZ      -6.7487
    Hexadecapole Moments (Debye-Ang^3)
      XXXX   -2105.9538   XXXY     -63.7309   XXYY    -593.5002
      XYYY     -74.2788   YYYY   -1313.9052   XXXZ    -848.8723
      XXYZ      51.6650   XYYZ    -280.4470   YYYZ      71.4954
      XXZZ    -757.5409   XYZZ     -13.1182   YYZZ    -593.2554
      XZZZ    -883.6411   YZZZ      84.4671   ZZZZ   -2255.4132
 -----------------------------------------------------------------
Archival summary:
1\1\nid00562\SP\ProcedureUnspecified\BasisUnspecified\11416\meili\MonSep2716:14:542021MonSep2716:14:542021\0\\#,ProcedureUnspecified,BasisUnspecified,\\0,1\C\H,1,1.08213\C,1,1.39015,2,119.507\H,3,1.08007,1,119.689,2,3.04902,0\C,1,1.39241,2,119.866,3,-179.578,0\C,5,1.39005,1,118.972,2,-179.701,0\H,6,1.08232,5,119.836,1,179.595,0\C,6,1.39217,5,120.826,1,-0.636234,0\H,8,1.08062,6,120.524,5,-179.676,0\C,8,1.38517,6,119.852,5,0.320663,0\O,10,1.36632,8,119.619,6,-179.731,0\H,11,0.970058,10,112.074,8,-176.277,0\C,5,1.50652,1,120.727,2,0.211088,0\H,13,1.0908,5,108.252,1,-120.985,0\H,13,1.09082,5,109.2,1,-4.10088,0\H,13,1.1,5,113.36,1,117.719,0\H,15,2.53447,13,141.247,5,-68.111,0\C,17,1.09083,15,154.68,13,52.4965,0\H,18,1.08933,17,106.456,15,-65.9466,0\H,18,1.1,17,108.678,15,176.791,0\C,18,1.49828,17,108.441,15,51.2303,0\C,21,1.39108,18,120.405,17,43.4689,0\H,22,1.07992,21,119.673,18,2.00059,0\C,21,1.39266,18,120.22,17,-134.738,0\H,24,1.08108,21,120.236,18,-2.10981,0\C,22,1.39534,21,120.582,18,-178.434,0\H,26,1.08066,22,120.031,21,-179.14,0\C,26,1.39369,22,119.887,21,-0.0461579,0\H,28,1.07973,26,120.155,22,-179.373,0\C,28,1.39097,26,119.859,22,0.145666,0\H,30,1.08192,28,120.223,26,-179.364,0\\\@

 Total job time:  103782.76s(wall), 72785.09s(cpu) 
 Mon Sep 27 16:14:55 2021

        *************************************************************
        *                                                           *
        *  Thank you very much for using Q-Chem.  Have a nice day.  *
        *                                                           *
        *************************************************************


