
Running Job 1 of 1 SSI-012PHE-116PHE-1_SMD_TZVPD.in
qchem SSI-012PHE-116PHE-1_SMD_TZVPD.in_54006.0 /tmp/qchem54006/ 0
/global/common/cori/software/qchem/5.2/exe/qcprog.exe_s SSI-012PHE-116PHE-1_SMD_TZVPD.in_54006.0 /tmp/qchem54006/
                  Welcome to Q-Chem
     A Quantum Leap Into The Future Of Chemistry


 Q-Chem 5.2, Q-Chem, Inc., Pleasanton, CA (2019)

 License issued to: National Energy Research Scientific Computing Center

 Yihan Shao,  Zhengting Gan,  E. Epifanovsky,  A. T. B. Gilbert,  M. Wormit,  
 J. Kussmann,  A. W. Lange,  A. Behn,  Jia Deng,  Xintian Feng,  D. Ghosh,  
 M. Goldey,  P. R. Horn,  L. D. Jacobson,  I. Kaliman,  T. Kus,  A. Landau,  
 Jie Liu,  E. I. Proynov,  R. M. Richard,  R. P. Steele,  E. J. Sundstrom,  
 H. L. Woodcock III,  P. M. Zimmerman,  D. Zuev,  B. Albrecht,  E. Alguire,  
 S. A. Baeppler,  D. Barton,  Z. Benda,  Y. A. Bernard,  E. J. Berquist,  
 K. B. Bravaya,  H. Burton,  D. Casanova,  Chun-Min Chang,  Yunqing Chen,  
 A. Chien,  K. D. Closser,  M. P. Coons,  S. Coriani,  S. Dasgupta,  
 A. L. Dempwolff,  M. Diedenhofen,  Hainam Do,  R. G. Edgar,  Po-Tung Fang,  
 S. Faraji,  S. Fatehi,  Qingguo Feng,  K. D. Fenk,  J. Fosso-Tande,  
 J. Gayvert,  Qinghui Ge,  A. Ghysels,  G. Gidofalvi,  J. Gomes,  
 J. Gonthier,  A. Gunina,  D. Hait,  M. W. D. Hanson-Heine,  
 P. H. P. Harbach,  A. W. Hauser,  M. F. Herbst,  J. E. Herr,  
 E. G. Hohenstein,  Z. C. Holden,  Kerwin Hui,  B. C. Huynh,  T.-C. Jagau,  
 Hyunjun Ji,  B. Kaduk,  K. Khistyaev,  Jaehoon Kim,  P. Klunzinger,  K. Koh,  
 D. Kosenkov,  L. Koulias,  T. Kowalczyk,  C. M. Krauter,  A. Kunitsa,  
 Ka Un Lao,  A. Laurent,  K. V. Lawler,  Joonho Lee,  D. Lefrancois,  
 S. Lehtola,  D. S. Levine,  Yi-Pei Li,  You-Sheng Lin,  Fenglai Liu,  
 E. Livshits,  A. Luenser,  P. Manohar,  E. Mansoor,  S. F. Manzer,  
 Shan-Ping Mao,  Yuezhi Mao,  N. Mardirossian,  A. V. Marenich,  
 T. Markovich,  L. A. Martinez-Martinez,  S. A. Maurer,  N. J. Mayhall,  
 S. C. McKenzie,  J.-M. Mewes,  P. Morgante,  A. F. Morrison,  
 J. W. Mullinax,  K. Nanda,  T. S. Nguyen-Beck,  R. Olivares-Amaya,  
 J. A. Parkhill,  Zheng Pei,  T. M. Perrine,  F. Plasser,  P. Pokhilko,  
 S. Prager,  A. Prociuk,  E. Ramos,  D. R. Rehn,  F. Rob,  M. Scheurer,  
 M. Schneider,  N. Sergueev,  S. M. Sharada,  S. Sharma,  D. W. Small,  
 T. Stauch,  T. Stein,  Yu-Chuan Su,  A. J. W. Thom,  A. Tkatchenko,  
 T. Tsuchimochi,  N. M. Tubman,  L. Vogt,  M. L. Vidal,  O. Vydrov,  
 M. A. Watson,  J. Wenzel,  M. de Wergifosse,  T. A. Wesolowski,  A. White,  
 J. Witte,  A. Yamada,  Jun Yang,  K. Yao,  S. Yeganeh,  S. R. Yost,  
 Zhi-Qiang You,  A. Zech,  Igor Ying Zhang,  Xing Zhang,  Yan Zhao,  
 Ying Zhu,  B. R. Brooks,  G. K. L. Chan,  C. J. Cramer,  M. S. Gordon,  
 W. J. Hehre,  A. Klamt,  M. W. Schmidt,  C. D. Sherrill,  D. G. Truhlar,  
 A. Aspuru-Guzik,  R. Baer,  A. T. Bell,  N. A. Besley,  Jeng-Da Chai,  
 A. E. DePrince, III,  R. A. DiStasio Jr.,  A. Dreuw,  B. D. Dunietz,  
 T. R. Furlani,  Chao-Ping Hsu,  Yousung Jung,  Jing Kong,  D. S. Lambrecht,  
 WanZhen Liang,  C. Ochsenfeld,  V. A. Rassolov,  L. V. Slipchenko,  
 J. E. Subotnik,  T. Van Voorhis,  J. M. Herbert,  A. I. Krylov,  
 P. M. W. Gill,  M. Head-Gordon

 Contributors to earlier versions of Q-Chem not listed above: 
 R. D. Adamson,  B. Austin,  J. Baker,  G. J. O. Beran,  K. Brandhorst,  
 S. T. Brown,  E. F. C. Byrd,  A. K. Chakraborty,  C.-L. Cheng,  
 Siu Hung Chien,  D. M. Chipman,  D. L. Crittenden,  H. Dachsel,  
 R. J. Doerksen,  A. D. Dutoi,  L. Fusti-Molnar,  W. A. Goddard III,  
 A. Golubeva-Zadorozhnaya,  S. R. Gwaltney,  G. Hawkins,  A. Heyden,  
 S. Hirata,  G. Kedziora,  F. J. Keil,  C. Kelley,  Jihan Kim,  R. A. King,  
 R. Z. Khaliullin,  P. P. Korambath,  W. Kurlancheek,  A. M. Lee,  M. S. Lee,  
 S. V. Levchenko,  Ching Yeh Lin,  D. Liotard,  R. C. Lochan,  I. Lotan,  
 P. E. Maslen,  N. Nair,  D. P. O'Neill,  D. Neuhauser,  E. Neuscamman,  
 C. M. Oana,  R. Olson,  B. Peters,  R. Peverati,  P. A. Pieniazek,  
 Y. M. Rhee,  J. Ritchie,  M. A. Rohrdanz,  E. Rosta,  N. J. Russ,  
 H. F. Schaefer III,  N. E. Schultz,  N. Shenvi,  A. C. Simmonett,  A. Sodt,  
 D. Stuck,  K. S. Thanthiriwatte,  V. Vanovschi,  Tao Wang,  A. Warshel,  
 C. F. Williams,  Q. Wu,  X. Xu,  W. Zhang

 Please cite Q-Chem as follows:
 Y. Shao et al., Mol. Phys. 113, 184-215 (2015)
 DOI: 10.1080/00268976.2014.952696

 Q-Chem 5.2.0 for Intel X86 EM64T Linux

 Parts of Q-Chem use Armadillo 8.300.2 (Tropical Shenanigans).
 http://arma.sourceforge.net/

 Q-Chem begins on Sun Sep 26 02:59:32 2021  

Host: cori01
0

     Scratch files written to /tmp/qchem54006//
 May1019 |scratch|qcdevops|jenkins|workspace|build_RNUM -1
Processing $rem in /global/common/cori/software/qchem/5.2/config/preferences:
	 MEM_TOTAL  96000 
NAlpha2: 100
NElect   100
Mult     1
Symmetry turned off for PCM/SM12/SMD calculation

 Q-Chem warning in module libgen/rem_setup.C, line 2803:

 Neither GIA nor STOLL is specified by user. Use STOLL as the default


Checking the input file for inconsistencies... 	...done.

--------------------------------------------------------------
User input:
--------------------------------------------------------------
$comment
SSI-012PHE-116PHE-1.pdb
$end

$molecule
0 1
--
0 1
C    0.354519726097   -1.134047060404   -5.380145618179
C   -0.101480273903    0.932952939596   -1.618145618179
C   -0.231480273903    1.653952939596   -2.805145618179
C    0.167519726097   -0.429047060404   -1.667145618179
C   -0.085480273903    1.010952939596   -4.042145618179
C    0.308519726097   -1.065047060404   -2.895145618179
C    0.170519726097   -0.364047060404   -4.094145618179
H   -0.214480273903    1.430952939596   -0.664145618179
H   -0.437480273903    2.714952939596   -2.768145618179
H    0.242519726097   -1.002047060404   -0.757145618179
H   -0.147480273903    1.598952939596   -4.930145618179
H    0.514519726097   -2.126047060404   -2.917145618179
H   -0.255480273903   -2.037047060404   -5.325145618179
H    1.397519726097   -1.439047060404   -5.417145618179
H    0.130003126097   -0.606827060404   -6.319095618179
--
0 1
C   -1.472480273903    0.208952939596    5.242854381821
C    0.977519726097   -0.277047060404    1.753854381821
C    0.128519726097   -1.308047060404    2.157854381821
C    1.015519726097    0.915952939596    2.470854381821
C   -0.673480273903   -1.142047060404    3.283854381821
C    0.210519726097    1.075952939596    3.592854381821
C   -0.638480273903    0.049952939596    4.004854381821
H    1.620519726097   -0.405047060404    0.894854381821
H    0.105519726097   -2.236047060404    1.606854381821
H    1.669519726097    1.714952939596    2.150854381821
H   -1.324480273903   -1.943047060404    3.597854381821
H    0.244519726097    2.001952939596    4.145854381821
H   -2.422480273903   -0.310047060404    5.110854381821
H   -1.701480273903    1.266952939596    5.382854381821
H   -0.972455273903   -0.163557060404    6.149060381821
$end

$rem
JOBTYPE			EDA
EDA2			1
method			wB97X-V
BASIS			def2-TZVPD
XC_GRID			000099000590
NL_GRID			1
UNRESTRICTED		FALSE
MAX_SCF_CYCLES		200
SYMMETRY		FALSE
SYM_IGNORE		TRUE
MEM_STATIC		2000
BASIS_LIN_DEP_THRESH 	6
THRESH 			14
SCF_CONVERGENCE 	8
SCF_PRINT_FRGM 		TRUE
SOLVENT_METHOD          SMD
$end

$SMX
SOLVENT			WATER
$END
--------------------------------------------------------------
 ----------------------------------------------------------------
             Standard Nuclear Orientation (Angstroms)
    I     Atom           X                Y                Z
 ----------------------------------------------------------------
    1      C       0.3545197261    -1.1340470604    -5.3801456182
    2      C      -0.1014802739     0.9329529396    -1.6181456182
    3      C      -0.2314802739     1.6539529396    -2.8051456182
    4      C       0.1675197261    -0.4290470604    -1.6671456182
    5      C      -0.0854802739     1.0109529396    -4.0421456182
    6      C       0.3085197261    -1.0650470604    -2.8951456182
    7      C       0.1705197261    -0.3640470604    -4.0941456182
    8      H      -0.2144802739     1.4309529396    -0.6641456182
    9      H      -0.4374802739     2.7149529396    -2.7681456182
   10      H       0.2425197261    -1.0020470604    -0.7571456182
   11      H      -0.1474802739     1.5989529396    -4.9301456182
   12      H       0.5145197261    -2.1260470604    -2.9171456182
   13      H      -0.2554802739    -2.0370470604    -5.3251456182
   14      H       1.3975197261    -1.4390470604    -5.4171456182
   15      H       0.1300031261    -0.6068270604    -6.3190956182
   16      C      -1.4724802739     0.2089529396     5.2428543818
   17      C       0.9775197261    -0.2770470604     1.7538543818
   18      C       0.1285197261    -1.3080470604     2.1578543818
   19      C       1.0155197261     0.9159529396     2.4708543818
   20      C      -0.6734802739    -1.1420470604     3.2838543818
   21      C       0.2105197261     1.0759529396     3.5928543818
   22      C      -0.6384802739     0.0499529396     4.0048543818
   23      H       1.6205197261    -0.4050470604     0.8948543818
   24      H       0.1055197261    -2.2360470604     1.6068543818
   25      H       1.6695197261     1.7149529396     2.1508543818
   26      H      -1.3244802739    -1.9430470604     3.5978543818
   27      H       0.2445197261     2.0019529396     4.1458543818
   28      H      -2.4224802739    -0.3100470604     5.1108543818
   29      H      -1.7014802739     1.2669529396     5.3828543818
   30      H      -0.9724552739    -0.1635570604     6.1490603818
 ----------------------------------------------------------------
 Nuclear Repulsion Energy =         749.51460301 hartrees
 There are       50 alpha and       50 beta electrons
 Requested basis set is def2-TZVPD
 There are 262 shells and 662 basis functions

 Total QAlloc Memory Limit  96000 MB
 Mega-Array Size      1956 MB
 MEM_STATIC part      2000 MB
 
 Citation of the SMD model:
 Marenich, A.V.; Cramer, C.J.; Truhlar, D.G.
 J. Phys. Chem. B 2009, 113, 6378-6396.
 iSolventCode=           1
 Solvent: water                                                           
 
 vradii
            1           2           3           4           5           6
    1   1.8500000   1.8500000   1.8500000   1.8500000   1.8500000   1.8500000
            7           8           9          10          11          12
    1   1.8500000   1.2000000   1.2000000   1.2000000   1.2000000   1.2000000
           13          14          15          16          17          18
    1   1.2000000   1.2000000   1.2000000   1.8500000   1.8500000   1.8500000
           19          20          21          22          23          24
    1   1.8500000   1.8500000   1.8500000   1.8500000   1.2000000   1.2000000
           25          26          27          28          29          30
    1   1.2000000   1.2000000   1.2000000   1.2000000   1.2000000   1.2000000
 Changing PCM_VDW_RADII to SMD_RADIUS
 Discretize the solute cavity surface with Lebedev spheres
	Using 110 Lebedev grid points for each H atom
	Using 194 Lebedev grid points for other atoms
	Atomic van der Waals radii will be scaled by 1.20
 Remove points where switching function is < 1.0e-08
 Keep 2181 surface tesserae and discard 2295 interior tesserae
 Molecular Surface Area = 259.133 Angst**2
 A cutoff of  1.0D-14 yielded  27787 shell pairs
 There are    177865 function pairs (    224114 Cartesian)
 Smallest overlap matrix eigenvalue = 4.83E-07
 Linear dependence detected in AO basis
 Tighter screening thresholds may be required for diffuse basis sets
 Use S2THRESH > 14 and THRESH = 14 in case of SCF convergence issues
 Number of orthogonalized atomic orbitals = 659
 Maximum deviation from orthogonality = 3.839E-10

 Scale SEOQF with 1.000000e-01/1.000000e-01/1.000000e-02

 Standard Electronic Orientation quadrupole field applied
 Nucleus-field energy     =    -0.0000000033 hartrees

 -----------------------------------------------------------------------
  General SCF calculation program by
  Eric Jon Sundstrom, Paul Horn, Yuezhi Mao, Dmitri Zuev, Alec White,
  David Stuck, Shaama M.S., Shane Yost, Joonho Lee, David Small,
  Daniel Levine, Susi Lehtola, Hugh Burton, Evgeny Epifanovsky
 -----------------------------------------------------------------------
================================================================
                 ALMO-EDA with the EDA2 driver                  
================================================================
 The second-generation ALMO-EDA (for DFT):                      
 P. R. Horn, Y. Mao and M. Head-Gordon, PCCP, 18, 23067 (2016)  
 Decomposition of the frozen energy:                            
 P. R. Horn, Y. Mao and M. Head-Gordon, JCP, 144, 114107 (2016) 
 FERF model for polarization:                                   
 P. R. Horn and M. Head-Gordon, JCP, 143, 114111 (2015)         
Using eda2 option set 1
Option set summary: Frozen orbital wavefunction, initial wavefunction decomposition, and nDQ polarization.
--------------------------------
Printing EDA Options
--------------------------------
eda_child_super_basis      0
fragmo_guess_mode          0
child_mp                   1
child_mp_orders            232
cls_elec                   1
cls_disp                   0
scfmi_mode                 1
scfmi_occs                 0
scfmi_virts                0
frz_relax                  0
frz_relax_method           0
dc_pen_start               0
dc_pen_conv                0
dc_pen_increment           0
dc_pen_steps               0
dc_pen_thresh_factor       0
dc_pen_pre_newton_thresh   0
frz_ortho_decomp           1
frz_ortho_decomp_conv      6
frgm_method                2
scfmi_freeze_ss            0
separate_rehyb             0
plot_diff_den              0
eda_nocv                   0
eda_vct_relax              1
disp_free_x                0
disp_free_c                0
eda_bsse                   0
eda_pct_a                  0
eda_covp                   0
--------------------------------
Attempting to make child job directory: /tmp/qchem54006//Frg1/
Attempting to make child job directory: /tmp/qchem54006//Frg2/
Creating input file /tmp/qchem54006/Frg1.input
using default PutDataFrgm: nothing
calling putenv with: QCSCRATCH=/tmp/qchem54006/ 
calling putenv with: QCLOCALSCR=/tmp/qchem54006/ 
Spawning Job For Fragment 0
                  Welcome to Q-Chem
     A Quantum Leap Into The Future Of Chemistry


 Q-Chem 5.2, Q-Chem, Inc., Pleasanton, CA (2019)

 License issued to: National Energy Research Scientific Computing Center

 Yihan Shao,  Zhengting Gan,  E. Epifanovsky,  A. T. B. Gilbert,  M. Wormit,  
 J. Kussmann,  A. W. Lange,  A. Behn,  Jia Deng,  Xintian Feng,  D. Ghosh,  
 M. Goldey,  P. R. Horn,  L. D. Jacobson,  I. Kaliman,  T. Kus,  A. Landau,  
 Jie Liu,  E. I. Proynov,  R. M. Richard,  R. P. Steele,  E. J. Sundstrom,  
 H. L. Woodcock III,  P. M. Zimmerman,  D. Zuev,  B. Albrecht,  E. Alguire,  
 S. A. Baeppler,  D. Barton,  Z. Benda,  Y. A. Bernard,  E. J. Berquist,  
 K. B. Bravaya,  H. Burton,  D. Casanova,  Chun-Min Chang,  Yunqing Chen,  
 A. Chien,  K. D. Closser,  M. P. Coons,  S. Coriani,  S. Dasgupta,  
 A. L. Dempwolff,  M. Diedenhofen,  Hainam Do,  R. G. Edgar,  Po-Tung Fang,  
 S. Faraji,  S. Fatehi,  Qingguo Feng,  K. D. Fenk,  J. Fosso-Tande,  
 J. Gayvert,  Qinghui Ge,  A. Ghysels,  G. Gidofalvi,  J. Gomes,  
 J. Gonthier,  A. Gunina,  D. Hait,  M. W. D. Hanson-Heine,  
 P. H. P. Harbach,  A. W. Hauser,  M. F. Herbst,  J. E. Herr,  
 E. G. Hohenstein,  Z. C. Holden,  Kerwin Hui,  B. C. Huynh,  T.-C. Jagau,  
 Hyunjun Ji,  B. Kaduk,  K. Khistyaev,  Jaehoon Kim,  P. Klunzinger,  K. Koh,  
 D. Kosenkov,  L. Koulias,  T. Kowalczyk,  C. M. Krauter,  A. Kunitsa,  
 Ka Un Lao,  A. Laurent,  K. V. Lawler,  Joonho Lee,  D. Lefrancois,  
 S. Lehtola,  D. S. Levine,  Yi-Pei Li,  You-Sheng Lin,  Fenglai Liu,  
 E. Livshits,  A. Luenser,  P. Manohar,  E. Mansoor,  S. F. Manzer,  
 Shan-Ping Mao,  Yuezhi Mao,  N. Mardirossian,  A. V. Marenich,  
 T. Markovich,  L. A. Martinez-Martinez,  S. A. Maurer,  N. J. Mayhall,  
 S. C. McKenzie,  J.-M. Mewes,  P. Morgante,  A. F. Morrison,  
 J. W. Mullinax,  K. Nanda,  T. S. Nguyen-Beck,  R. Olivares-Amaya,  
 J. A. Parkhill,  Zheng Pei,  T. M. Perrine,  F. Plasser,  P. Pokhilko,  
 S. Prager,  A. Prociuk,  E. Ramos,  D. R. Rehn,  F. Rob,  M. Scheurer,  
 M. Schneider,  N. Sergueev,  S. M. Sharada,  S. Sharma,  D. W. Small,  
 T. Stauch,  T. Stein,  Yu-Chuan Su,  A. J. W. Thom,  A. Tkatchenko,  
 T. Tsuchimochi,  N. M. Tubman,  L. Vogt,  M. L. Vidal,  O. Vydrov,  
 M. A. Watson,  J. Wenzel,  M. de Wergifosse,  T. A. Wesolowski,  A. White,  
 J. Witte,  A. Yamada,  Jun Yang,  K. Yao,  S. Yeganeh,  S. R. Yost,  
 Zhi-Qiang You,  A. Zech,  Igor Ying Zhang,  Xing Zhang,  Yan Zhao,  
 Ying Zhu,  B. R. Brooks,  G. K. L. Chan,  C. J. Cramer,  M. S. Gordon,  
 W. J. Hehre,  A. Klamt,  M. W. Schmidt,  C. D. Sherrill,  D. G. Truhlar,  
 A. Aspuru-Guzik,  R. Baer,  A. T. Bell,  N. A. Besley,  Jeng-Da Chai,  
 A. E. DePrince, III,  R. A. DiStasio Jr.,  A. Dreuw,  B. D. Dunietz,  
 T. R. Furlani,  Chao-Ping Hsu,  Yousung Jung,  Jing Kong,  D. S. Lambrecht,  
 WanZhen Liang,  C. Ochsenfeld,  V. A. Rassolov,  L. V. Slipchenko,  
 J. E. Subotnik,  T. Van Voorhis,  J. M. Herbert,  A. I. Krylov,  
 P. M. W. Gill,  M. Head-Gordon

 Contributors to earlier versions of Q-Chem not listed above: 
 R. D. Adamson,  B. Austin,  J. Baker,  G. J. O. Beran,  K. Brandhorst,  
 S. T. Brown,  E. F. C. Byrd,  A. K. Chakraborty,  C.-L. Cheng,  
 Siu Hung Chien,  D. M. Chipman,  D. L. Crittenden,  H. Dachsel,  
 R. J. Doerksen,  A. D. Dutoi,  L. Fusti-Molnar,  W. A. Goddard III,  
 A. Golubeva-Zadorozhnaya,  S. R. Gwaltney,  G. Hawkins,  A. Heyden,  
 S. Hirata,  G. Kedziora,  F. J. Keil,  C. Kelley,  Jihan Kim,  R. A. King,  
 R. Z. Khaliullin,  P. P. Korambath,  W. Kurlancheek,  A. M. Lee,  M. S. Lee,  
 S. V. Levchenko,  Ching Yeh Lin,  D. Liotard,  R. C. Lochan,  I. Lotan,  
 P. E. Maslen,  N. Nair,  D. P. O'Neill,  D. Neuhauser,  E. Neuscamman,  
 C. M. Oana,  R. Olson,  B. Peters,  R. Peverati,  P. A. Pieniazek,  
 Y. M. Rhee,  J. Ritchie,  M. A. Rohrdanz,  E. Rosta,  N. J. Russ,  
 H. F. Schaefer III,  N. E. Schultz,  N. Shenvi,  A. C. Simmonett,  A. Sodt,  
 D. Stuck,  K. S. Thanthiriwatte,  V. Vanovschi,  Tao Wang,  A. Warshel,  
 C. F. Williams,  Q. Wu,  X. Xu,  W. Zhang

 Please cite Q-Chem as follows:
 Y. Shao et al., Mol. Phys. 113, 184-215 (2015)
 DOI: 10.1080/00268976.2014.952696

 Q-Chem 5.2.0 for Intel X86 EM64T Linux

 Parts of Q-Chem use Armadillo 8.300.2 (Tropical Shenanigans).
 http://arma.sourceforge.net/

 Q-Chem begins on Sun Sep 26 02:59:41 2021  

Host: cori01
0

     Scratch files written to /tmp/qchem54006//Frg1//
 May1019 |scratch|qcdevops|jenkins|workspace|build_RNUM -1
Processing $rem in /global/common/cori/software/qchem/5.2/config/preferences:
	 MEM_TOTAL  96000 
NAlpha2: 50
NElect   50
Mult     1
Symmetry turned off for PCM/SM12/SMD calculation

Checking the input file for inconsistencies... 	...done.

--------------------------------------------------------------
User input:
--------------------------------------------------------------
$molecule
0 1
 6	0.3545197261	-1.1340470604	-5.3801456182
 6	-0.1014802739	0.9329529396	-1.6181456182
 6	-0.2314802739	1.6539529396	-2.8051456182
 6	0.1675197261	-0.4290470604	-1.6671456182
 6	-0.0854802739	1.0109529396	-4.0421456182
 6	0.3085197261	-1.0650470604	-2.8951456182
 6	0.1705197261	-0.3640470604	-4.0941456182
 1	-0.2144802739	1.4309529396	-0.6641456182
 1	-0.4374802739	2.7149529396	-2.7681456182
 1	0.2425197261	-1.0020470604	-0.7571456182
 1	-0.1474802739	1.5989529396	-4.9301456182
 1	0.5145197261	-2.1260470604	-2.9171456182
 1	-0.2554802739	-2.0370470604	-5.3251456182
 1	1.3975197261	-1.4390470604	-5.4171456182
 1	0.1300031261	-0.6068270604	-6.3190956182
$end
$rem
EDA2		1
METHOD		WB97X-V
BASIS		DEF2-TZVPD
XC_GRID		000099000590
NL_GRID		1
UNRESTRICTED		FALSE
MAX_SCF_CYCLES		200
SYMMETRY		FALSE
SYM_IGNORE		TRUE
BASIS_LIN_DEP_THRESH		6
THRESH		14
SCF_CONVERGENCE		8
SCF_PRINT_FRGM		TRUE
SOLVENT_METHOD		SMD
!required keywords
JOBTYPE		SP
SYM_IGNORE		TRUE
SUBSYSTEM		TRUE
GEN_SCFMAN		TRUE
CHILD_INSTRUCTION		2
SYM_IGNORE		TRUE
SCFMI		0
RI_K 0		
PARI_K 0		
MIN_PARI_K 0		
IARI_K 0		
OCC_RI_K 0		
PURECART		1111
MEM_STATIC		2000
MEM_TOTAL		96000
GUI		0
CHILD_MP		1
CHILD_MP_ORDERS		232
FRZ_RELAX		0
FRZ_RELAX_METHOD		0
EDA_CLS_ELEC		1
EDA_CLS_DISP		0
FRZ_ORTHO_DECOMP		1
EDA2		FALSE
FRGM_METHOD		FALSE
CIS_N_ROOTS  0
LOCAL_CIS    0
CIS_RLX_DNS  1
$end
$smx
SOLVENT			WATER
$end
--------------------------------------------------------------
 ----------------------------------------------------------------
             Standard Nuclear Orientation (Angstroms)
    I     Atom           X                Y                Z
 ----------------------------------------------------------------
    1      C       0.3545197261    -1.1340470604    -5.3801456182
    2      C      -0.1014802739     0.9329529396    -1.6181456182
    3      C      -0.2314802739     1.6539529396    -2.8051456182
    4      C       0.1675197261    -0.4290470604    -1.6671456182
    5      C      -0.0854802739     1.0109529396    -4.0421456182
    6      C       0.3085197261    -1.0650470604    -2.8951456182
    7      C       0.1705197261    -0.3640470604    -4.0941456182
    8      H      -0.2144802739     1.4309529396    -0.6641456182
    9      H      -0.4374802739     2.7149529396    -2.7681456182
   10      H       0.2425197261    -1.0020470604    -0.7571456182
   11      H      -0.1474802739     1.5989529396    -4.9301456182
   12      H       0.5145197261    -2.1260470604    -2.9171456182
   13      H      -0.2554802739    -2.0370470604    -5.3251456182
   14      H       1.3975197261    -1.4390470604    -5.4171456182
   15      H       0.1300031261    -0.6068270604    -6.3190956182
 ----------------------------------------------------------------
 Nuclear Repulsion Energy =         269.40633344 hartrees
 There are       25 alpha and       25 beta electrons
 Requested basis set is def2-TZVPD
 There are 131 shells and 331 basis functions

 Total QAlloc Memory Limit  96000 MB
 Mega-Array Size      1956 MB
 MEM_STATIC part      2000 MB
 
 Citation of the SMD model:
 Marenich, A.V.; Cramer, C.J.; Truhlar, D.G.
 J. Phys. Chem. B 2009, 113, 6378-6396.
 iSolventCode=           1
 Solvent: water                                                           
 
 vradii
            1           2           3           4           5           6
    1   1.8500000   1.8500000   1.8500000   1.8500000   1.8500000   1.8500000
            7           8           9          10          11          12
    1   1.8500000   1.2000000   1.2000000   1.2000000   1.2000000   1.2000000
           13          14          15
    1   1.2000000   1.2000000   1.2000000
 Changing PCM_VDW_RADII to SMD_RADIUS
 Discretize the solute cavity surface with Lebedev spheres
	Using 110 Lebedev grid points for each H atom
	Using 194 Lebedev grid points for other atoms
	Atomic van der Waals radii will be scaled by 1.20
 Remove points where switching function is < 1.0e-08
 Keep 1103 surface tesserae and discard 1135 interior tesserae
 Molecular Surface Area = 131.967 Angst**2

                       Distance Matrix (Angstroms)
             C (  1)   C (  2)   C (  3)   C (  4)   C (  5)   C (  6)
   C (  2)  4.316604
   C (  3)  3.840178  1.394887
   C (  4)  3.783961  1.389175  2.406893
   C (  5)  2.566100  2.425307  1.401761  2.788949
   C (  6)  2.486383  2.406415  2.773565  1.390094  2.404292
   C (  7)  1.510150  2.808339  2.428055  2.427872  1.399595  1.395724
   H (  8)  5.398485  1.082076  2.152649  2.147448  3.406453  3.388349
   H (  9)  4.718539  2.147305  1.081446  3.385700  2.156524  3.855003
   H ( 10)  4.626240  2.145666  3.387228  1.077986  3.866649  2.139946
   H ( 11)  2.814923  3.378612  2.127371  3.854760  1.066833  3.383202
   H ( 12)  2.660081  3.379991  3.854538  2.136052  3.386206  1.081037
   H ( 13)  1.091116  4.752522  4.469279  4.018153  3.311388  2.677271
   H ( 14)  1.087310  4.722900  4.363810  4.073757  3.176856  2.772414
   H ( 15)  1.099998  4.952114  4.194001  4.655497  2.801454  3.459085
             C (  7)   H (  8)   H (  9)   H ( 10)   H ( 11)   H ( 12)
   H (  8)  3.890392
   H (  9)  3.407078  2.474914
   H ( 10)  3.398205  2.477294  4.280492
   H ( 11)  2.157172  4.269832  2.450265  4.932670
   H ( 12)  2.146697  4.273137  4.935969  2.450094  4.285562
   H ( 13)  2.120322  5.809787  5.399340  4.710186  3.658987  2.529681
   H ( 14)  2.100353  5.781561  5.257389  4.820850  3.442911  2.738915
   H ( 15)  2.238523  6.020770  4.895458  5.577109  2.621382  3.745550
             H ( 13)   H ( 14)
   H ( 14)  1.760249
   H ( 15)  1.783834  1.764285
 
 A cutoff of  1.0D-14 yielded   8362 shell pairs
 There are     54494 function pairs (     69447 Cartesian)
 Smallest overlap matrix eigenvalue = 5.82E-07
 Linear dependence detected in AO basis
 Tighter screening thresholds may be required for diffuse basis sets
 Use S2THRESH > 14 and THRESH = 14 in case of SCF convergence issues
 Number of orthogonalized atomic orbitals = 330
 Maximum deviation from orthogonality = 1.531E-10

 Scale SEOQF with 1.000000e-01/1.000000e-01/1.000000e-02

 Standard Electronic Orientation quadrupole field applied
 Nucleus-field energy     =    -0.0000000018 hartrees
 Guess from superposition of atomic densities
 Warning:  Energy on first SCF cycle will be non-variational
 SAD guess density has 49.913408 electrons

 -----------------------------------------------------------------------
  General SCF calculation program by
  Eric Jon Sundstrom, Paul Horn, Yuezhi Mao, Dmitri Zuev, Alec White,
  David Stuck, Shaama M.S., Shane Yost, Joonho Lee, David Small,
  Daniel Levine, Susi Lehtola, Hugh Burton, Evgeny Epifanovsky
 -----------------------------------------------------------------------
 Exchange:     0.1670 Hartree-Fock + 1.0000 wB97X-V + LR-HF
 Correlation:  1.0000 wB97X-V
 Using Euler-Maclaurin-Lebedev (99,590) quadrature formula
 Nonlocal Correlation:  VV10 with C = 0.0100 and b = 6.00 and scale = 1.00000
 Grid used for NLC:  SG-1 standard quadrature
Energy prior to optimization (guess energy) = -271.519239464660
Begin Timing: Total SCF Calculation
begin iterations for algorithm: DIIS         
the SCF tolerance is set to 1.00e-08
    1    -271.5192394647      1.95e-03     00000 
    2    -271.5601172901      1.27e-03     00000 
    3    -271.5835458342      1.55e-04     00000 
    4    -271.5842464791      4.67e-05     00000 
    5    -271.5842976661      2.24e-05     00000 
    6    -271.5843060943      5.70e-06     00000 
    7    -271.5843068741      1.93e-06     00000 
    8    -271.5843069412      4.29e-07     00000 
    9    -271.5843069482      1.16e-07     00000 
   10    -271.5843069490      5.09e-08     00000 
   11    -271.5843069492      2.88e-08     00000 
   12    -271.5843069492      8.61e-09     00000 Convergence criterion met
Timing for Total SCF: 1359.00s (wall), 2626.46s (cpu)
(3)  G-ENP(liq) elect-nuc-pol free energy of system     -271.584306949 a.u.
(4)  G-CDS(liq) cavity-dispersion-solvent structure 
     free energy                                                3.1804 kcal/mol
(6)  G-S(liq) free energy of system                     -271.579238620 a.u.
E_pcm = -0.0075582634
E_cds = 0.0050683293
Multipole orders to be included
        2
        3
computing dipole RHS
computing quadrupole RHS
total number of RHS in solve_reponses: 8
RHS batch sizes
        8
Beginning Block Conjugate Gradient Iterations. Batch Number: 0
computing hessian-vector products by finite difference
              1      6.30e-01     00000 Conjugate Gradient Iteration
computing hessian-vector products by finite difference
              2      1.96e-01     00000 Conjugate Gradient Iteration
computing hessian-vector products by finite difference
              3      4.66e-02     00000 Conjugate Gradient Iteration
computing hessian-vector products by finite difference
              4      1.21e-02     00000 Conjugate Gradient Iteration
computing hessian-vector products by finite difference
              5      2.17e-03     00000 Conjugate Gradient Iteration
computing hessian-vector products by finite difference
              6      6.40e-04     00000 Conjugate Gradient Iteration
computing hessian-vector products by finite difference
              7      1.50e-04     00000 Conjugate Gradient Iteration
computing hessian-vector products by finite difference
              8      2.92e-05     00000 Conjugate Gradient Iteration
computing hessian-vector products by finite difference
              9      4.04e-06     00000 Conjugate Gradient Iteration
computing hessian-vector products by finite difference
             10      7.22e-07     00000 Conjugate Gradient Iteration
computing hessian-vector products by finite difference
             11      1.62e-07     00000 Conjugate Gradient Iteration
computing hessian-vector products by finite difference
             12      2.90e-08     00000 Conjugate Gradient Iteration
computing hessian-vector products by finite difference
             13      5.42e-09     00000 CG Converged
batch 0 complete
Done Calculating Responses
TESTING ORTHOGONALIZATION OF MULTIPOLE BASIS
Multipole virts passed orthogonality test
Virts Per Order
           75
          125
 
 --------------------------------------------------------------
 
                    Orbital Energies (a.u.)
 --------------------------------------------------------------
 
 Alpha MOs
 -- Occupied --
-10.2803 -10.2691 -10.2673 -10.2653 -10.2650 -10.2634 -10.2547  -0.9920
 -0.9013  -0.8739  -0.8075  -0.7243  -0.7009  -0.6240  -0.5670  -0.5616
 -0.5293  -0.5233  -0.5093  -0.4810  -0.4683  -0.4361  -0.4347  -0.3457
 -0.3336
 -- Virtual --
  0.0659   0.0679   0.0729   0.0841   0.0899   0.1093   0.1153   0.1182
  0.1414   0.1593   0.1697   0.1752   0.1870   0.1963   0.1996   0.2086
  0.2292   0.2344   0.2367   0.2480   0.2504   0.2598   0.2646   0.2778
  0.2834   0.2841   0.2911   0.2976   0.2994   0.3058   0.3085   0.3190
  0.3278   0.3313   0.3339   0.3461   0.3491   0.3562   0.3703   0.3764
  0.3782   0.3863   0.3919   0.3947   0.3972   0.4022   0.4067   0.4073
  0.4198   0.4311   0.4342   0.4425   0.4480   0.4523   0.4562   0.4596
  0.4698   0.4706   0.4851   0.4904   0.4993   0.5025   0.5162   0.5168
  0.5212   0.5291   0.5350   0.5461   0.5480   0.5565   0.5638   0.5721
  0.5737   0.5806   0.5936   0.5980   0.6025   0.6258   0.6363   0.6479
  0.6632   0.6750   0.6843   0.6894   0.6917   0.7100   0.7216   0.7260
  0.7289   0.7342   0.7473   0.7644   0.7682   0.7700   0.7827   0.7887
  0.7917   0.7953   0.8038   0.8049   0.8173   0.8273   0.8307   0.8332
  0.8356   0.8441   0.8518   0.8550   0.8633   0.8739   0.8897   0.8985
  0.9226   0.9314   0.9494   0.9557   0.9602   1.0068   1.0375   1.0442
  1.0499   1.0676   1.0721   1.0795   1.0926   1.1014   1.1053   1.1429
  1.1631   1.1673   1.2542   1.2827   1.2986   1.3296   1.3544   1.3600
  1.3773   1.4455   1.4526   1.4622   1.4690   1.4800   1.5300   1.5449
  1.6094   1.6130   1.6221   1.6317   1.6478   1.6790   1.7441   1.7710
  1.7880   1.8050   1.8059   1.8249   1.8381   1.8561   1.8933   1.9149
  1.9189   1.9266   1.9442   1.9773   1.9951   1.9988   2.0183   2.0317
  2.0399   2.0507   2.0706   2.0949   2.1252   2.1302   2.1697   2.1784
  2.2101   2.2456   2.2491   2.2702   2.2992   2.3225   2.3792   2.3950
  2.4143   2.4351   2.4591   2.5226   2.5360   2.5608   2.5730   2.6126
  2.6294   2.6406   2.6712   2.6791   2.7161   2.7246   2.7723   2.7799
  2.7910   2.8155   2.8317   2.8519   2.8592   2.8957   2.9106   2.9207
  2.9316   2.9460   2.9644   2.9922   3.0109   3.0186   3.0279   3.0564
  3.0755   3.0942   3.1080   3.1615   3.1725   3.1870   3.1977   3.2170
  3.2376   3.2577   3.2713   3.2940   3.3314   3.3601   3.3710   3.3907
  3.4167   3.4301   3.4481   3.4553   3.4646   3.4697   3.4857   3.5017
  3.5115   3.5276   3.5387   3.5501   3.5534   3.5749   3.5837   3.5909
  3.6135   3.6446   3.6596   3.6906   3.7076   3.7442   3.7591   3.7960
  3.8589   3.9000   3.9403   3.9454   3.9713   4.0040   4.0357   4.0604
  4.1369   4.2125   4.2684   4.2772   4.2847   4.3168   4.3326   4.3510
  4.3530   4.3671   4.3764   4.3944   4.4242   4.4581   4.5139   4.5466
  4.6153   4.6493   4.7444   4.7886   4.8113   4.8456   4.9133   4.9504
  5.0267   5.0379   5.1686   5.2685   5.3739   5.3859   5.4875   5.5294
  5.6756   5.8506  22.5997  22.6835  22.8905  22.9065  23.0111  23.0698
 23.4146
 --------------------------------------------------------------
 
          Ground-State Mulliken Net Atomic Charges

     Atom                 Charge (a.u.)
  ----------------------------------------
      1 C                    -1.072667
      2 C                    -0.536486
      3 C                    -0.519849
      4 C                    -0.567323
      5 C                    -0.534506
      6 C                    -0.300775
      7 C                     0.762423
      8 H                     0.401272
      9 H                     0.368764
     10 H                     0.376312
     11 H                     0.403873
     12 H                     0.404954
     13 H                     0.266381
     14 H                     0.242688
     15 H                     0.304939
  ----------------------------------------
  Sum of atomic charges =     0.000000

 -----------------------------------------------------------------
                    Cartesian Multipole Moments
 -----------------------------------------------------------------
    Charge (ESU x 10^10)
                 0.0000
    Dipole Moment (Debye)
         X       0.1473      Y      -0.3725      Z      -0.4740
       Tot       0.6206
    Quadrupole Moments (Debye-Ang)
        XX     -46.2310     XY      -1.6690     YY     -37.7092
        XZ      -0.8812     YZ       1.2911     ZZ     -34.1732
    Octopole Moments (Debye-Ang^2)
       XXX     -10.9335    XXY      -4.5762    XYY      -5.3216
       YYY      -3.1971    XXZ     148.4201    XYZ       4.5462
       YYZ     124.7347    XZZ       0.3007    YZZ      -5.1959
       ZZZ     354.4856
    Hexadecapole Moments (Debye-Ang^3)
      XXXX     -77.2980   XXXY      32.8117   XXYY     -79.8994
      XYYY      23.8753   YYYY    -347.2558   XXXZ      50.3022
      XXYZ      -6.6600   XYYZ      23.2289   YYYZ     -55.9590
      XXZZ    -587.7664   XYZZ      -4.3666   YYZZ    -557.9036
      XZZZ      36.9987   YZZZ     -47.8220   ZZZZ   -2885.2843
 -----------------------------------------------------------------
Archival summary:
1\1\nid00530\SP\ProcedureUnspecified\BasisUnspecified\78\meili\SunSep2610:48:432021SunSep2610:48:432021\0\\#,ProcedureUnspecified,BasisUnspecified,\\0,1\C\C,1,1.39572\H,2,1.08104,1,119.623\C,2,1.39009,1,121.269,3,-179.081,0\H,4,1.07799,2,119.701,1,177.706,0\C,4,1.38917,2,119.959,1,-0.715337,0\H,6,1.08208,4,120.168,2,179.838,0\C,6,1.39489,4,119.657,2,0.143168,0\H,8,1.08145,6,119.719,4,-179.788,0\C,1,1.39959,2,118.659,3,-179.5,0\H,10,1.06683,1,121.412,2,176.717,0\C,1,1.51015,2,117.607,3,-1.53361,0\H,12,1.08731,1,106.791,2,-66.3465,0\H,12,1.09112,1,108.115,2,49.4289,0\H,12,1.1,1,117.235,2,173.047,0\\\@

 Total job time:  28144.48s(wall), 55879.97s(cpu) 
 Sun Sep 26 10:48:45 2021

        *************************************************************
        *                                                           *
        *  Thank you very much for using Q-Chem.  Have a nice day.  *
        *                                                           *
        *************************************************************


Done Job For Fragment 0
calling putenv with: QCSCRATCH=/global/cscratch1/sd/meili 
calling putenv with: QCLOCALSCR=/tmp 
calling putenv with: QCTHREADS=32 
Creating input file /tmp/qchem54006/Frg2.input
using default PutDataFrgm: nothing
calling putenv with: QCSCRATCH=/tmp/qchem54006/ 
calling putenv with: QCLOCALSCR=/tmp/qchem54006/ 
Spawning Job For Fragment 1
                  Welcome to Q-Chem
     A Quantum Leap Into The Future Of Chemistry


 Q-Chem 5.2, Q-Chem, Inc., Pleasanton, CA (2019)

 License issued to: National Energy Research Scientific Computing Center

 Yihan Shao,  Zhengting Gan,  E. Epifanovsky,  A. T. B. Gilbert,  M. Wormit,  
 J. Kussmann,  A. W. Lange,  A. Behn,  Jia Deng,  Xintian Feng,  D. Ghosh,  
 M. Goldey,  P. R. Horn,  L. D. Jacobson,  I. Kaliman,  T. Kus,  A. Landau,  
 Jie Liu,  E. I. Proynov,  R. M. Richard,  R. P. Steele,  E. J. Sundstrom,  
 H. L. Woodcock III,  P. M. Zimmerman,  D. Zuev,  B. Albrecht,  E. Alguire,  
 S. A. Baeppler,  D. Barton,  Z. Benda,  Y. A. Bernard,  E. J. Berquist,  
 K. B. Bravaya,  H. Burton,  D. Casanova,  Chun-Min Chang,  Yunqing Chen,  
 A. Chien,  K. D. Closser,  M. P. Coons,  S. Coriani,  S. Dasgupta,  
 A. L. Dempwolff,  M. Diedenhofen,  Hainam Do,  R. G. Edgar,  Po-Tung Fang,  
 S. Faraji,  S. Fatehi,  Qingguo Feng,  K. D. Fenk,  J. Fosso-Tande,  
 J. Gayvert,  Qinghui Ge,  A. Ghysels,  G. Gidofalvi,  J. Gomes,  
 J. Gonthier,  A. Gunina,  D. Hait,  M. W. D. Hanson-Heine,  
 P. H. P. Harbach,  A. W. Hauser,  M. F. Herbst,  J. E. Herr,  
 E. G. Hohenstein,  Z. C. Holden,  Kerwin Hui,  B. C. Huynh,  T.-C. Jagau,  
 Hyunjun Ji,  B. Kaduk,  K. Khistyaev,  Jaehoon Kim,  P. Klunzinger,  K. Koh,  
 D. Kosenkov,  L. Koulias,  T. Kowalczyk,  C. M. Krauter,  A. Kunitsa,  
 Ka Un Lao,  A. Laurent,  K. V. Lawler,  Joonho Lee,  D. Lefrancois,  
 S. Lehtola,  D. S. Levine,  Yi-Pei Li,  You-Sheng Lin,  Fenglai Liu,  
 E. Livshits,  A. Luenser,  P. Manohar,  E. Mansoor,  S. F. Manzer,  
 Shan-Ping Mao,  Yuezhi Mao,  N. Mardirossian,  A. V. Marenich,  
 T. Markovich,  L. A. Martinez-Martinez,  S. A. Maurer,  N. J. Mayhall,  
 S. C. McKenzie,  J.-M. Mewes,  P. Morgante,  A. F. Morrison,  
 J. W. Mullinax,  K. Nanda,  T. S. Nguyen-Beck,  R. Olivares-Amaya,  
 J. A. Parkhill,  Zheng Pei,  T. M. Perrine,  F. Plasser,  P. Pokhilko,  
 S. Prager,  A. Prociuk,  E. Ramos,  D. R. Rehn,  F. Rob,  M. Scheurer,  
 M. Schneider,  N. Sergueev,  S. M. Sharada,  S. Sharma,  D. W. Small,  
 T. Stauch,  T. Stein,  Yu-Chuan Su,  A. J. W. Thom,  A. Tkatchenko,  
 T. Tsuchimochi,  N. M. Tubman,  L. Vogt,  M. L. Vidal,  O. Vydrov,  
 M. A. Watson,  J. Wenzel,  M. de Wergifosse,  T. A. Wesolowski,  A. White,  
 J. Witte,  A. Yamada,  Jun Yang,  K. Yao,  S. Yeganeh,  S. R. Yost,  
 Zhi-Qiang You,  A. Zech,  Igor Ying Zhang,  Xing Zhang,  Yan Zhao,  
 Ying Zhu,  B. R. Brooks,  G. K. L. Chan,  C. J. Cramer,  M. S. Gordon,  
 W. J. Hehre,  A. Klamt,  M. W. Schmidt,  C. D. Sherrill,  D. G. Truhlar,  
 A. Aspuru-Guzik,  R. Baer,  A. T. Bell,  N. A. Besley,  Jeng-Da Chai,  
 A. E. DePrince, III,  R. A. DiStasio Jr.,  A. Dreuw,  B. D. Dunietz,  
 T. R. Furlani,  Chao-Ping Hsu,  Yousung Jung,  Jing Kong,  D. S. Lambrecht,  
 WanZhen Liang,  C. Ochsenfeld,  V. A. Rassolov,  L. V. Slipchenko,  
 J. E. Subotnik,  T. Van Voorhis,  J. M. Herbert,  A. I. Krylov,  
 P. M. W. Gill,  M. Head-Gordon

 Contributors to earlier versions of Q-Chem not listed above: 
 R. D. Adamson,  B. Austin,  J. Baker,  G. J. O. Beran,  K. Brandhorst,  
 S. T. Brown,  E. F. C. Byrd,  A. K. Chakraborty,  C.-L. Cheng,  
 Siu Hung Chien,  D. M. Chipman,  D. L. Crittenden,  H. Dachsel,  
 R. J. Doerksen,  A. D. Dutoi,  L. Fusti-Molnar,  W. A. Goddard III,  
 A. Golubeva-Zadorozhnaya,  S. R. Gwaltney,  G. Hawkins,  A. Heyden,  
 S. Hirata,  G. Kedziora,  F. J. Keil,  C. Kelley,  Jihan Kim,  R. A. King,  
 R. Z. Khaliullin,  P. P. Korambath,  W. Kurlancheek,  A. M. Lee,  M. S. Lee,  
 S. V. Levchenko,  Ching Yeh Lin,  D. Liotard,  R. C. Lochan,  I. Lotan,  
 P. E. Maslen,  N. Nair,  D. P. O'Neill,  D. Neuhauser,  E. Neuscamman,  
 C. M. Oana,  R. Olson,  B. Peters,  R. Peverati,  P. A. Pieniazek,  
 Y. M. Rhee,  J. Ritchie,  M. A. Rohrdanz,  E. Rosta,  N. J. Russ,  
 H. F. Schaefer III,  N. E. Schultz,  N. Shenvi,  A. C. Simmonett,  A. Sodt,  
 D. Stuck,  K. S. Thanthiriwatte,  V. Vanovschi,  Tao Wang,  A. Warshel,  
 C. F. Williams,  Q. Wu,  X. Xu,  W. Zhang

 Please cite Q-Chem as follows:
 Y. Shao et al., Mol. Phys. 113, 184-215 (2015)
 DOI: 10.1080/00268976.2014.952696

 Q-Chem 5.2.0 for Intel X86 EM64T Linux

 Parts of Q-Chem use Armadillo 8.300.2 (Tropical Shenanigans).
 http://arma.sourceforge.net/

 Q-Chem begins on Sun Sep 26 10:48:49 2021  

Host: cori01
0

     Scratch files written to /tmp/qchem54006//Frg2//
 May1019 |scratch|qcdevops|jenkins|workspace|build_RNUM -1
Processing $rem in /global/common/cori/software/qchem/5.2/config/preferences:
	 MEM_TOTAL  96000 
NAlpha2: 50
NElect   50
Mult     1
Symmetry turned off for PCM/SM12/SMD calculation

Checking the input file for inconsistencies... 	...done.

--------------------------------------------------------------
User input:
--------------------------------------------------------------
$molecule
0 1
 6	-1.4724802739	0.2089529396	5.2428543818
 6	0.9775197261	-0.2770470604	1.7538543818
 6	0.1285197261	-1.3080470604	2.1578543818
 6	1.0155197261	0.9159529396	2.4708543818
 6	-0.6734802739	-1.1420470604	3.2838543818
 6	0.2105197261	1.0759529396	3.5928543818
 6	-0.6384802739	0.0499529396	4.0048543818
 1	1.6205197261	-0.4050470604	0.8948543818
 1	0.1055197261	-2.2360470604	1.6068543818
 1	1.6695197261	1.7149529396	2.1508543818
 1	-1.3244802739	-1.9430470604	3.5978543818
 1	0.2445197261	2.0019529396	4.1458543818
 1	-2.4224802739	-0.3100470604	5.1108543818
 1	-1.7014802739	1.2669529396	5.3828543818
 1	-0.9724552739	-0.1635570604	6.1490603818
$end
$rem
EDA2		1
METHOD		WB97X-V
BASIS		DEF2-TZVPD
XC_GRID		000099000590
NL_GRID		1
UNRESTRICTED		FALSE
MAX_SCF_CYCLES		200
SYMMETRY		FALSE
SYM_IGNORE		TRUE
BASIS_LIN_DEP_THRESH		6
THRESH		14
SCF_CONVERGENCE		8
SCF_PRINT_FRGM		TRUE
SOLVENT_METHOD		SMD
!required keywords
JOBTYPE		SP
SYM_IGNORE		TRUE
SUBSYSTEM		TRUE
GEN_SCFMAN		TRUE
CHILD_INSTRUCTION		2
SYM_IGNORE		TRUE
SCFMI		0
RI_K 0		
PARI_K 0		
MIN_PARI_K 0		
IARI_K 0		
OCC_RI_K 0		
PURECART		1111
MEM_STATIC		2000
MEM_TOTAL		96000
GUI		0
CHILD_MP		1
CHILD_MP_ORDERS		232
FRZ_RELAX		0
FRZ_RELAX_METHOD		0
EDA_CLS_ELEC		1
EDA_CLS_DISP		0
FRZ_ORTHO_DECOMP		1
EDA2		FALSE
FRGM_METHOD		FALSE
CIS_N_ROOTS  0
LOCAL_CIS    0
CIS_RLX_DNS  1
$end
$smx
SOLVENT			WATER
$end
--------------------------------------------------------------
 ----------------------------------------------------------------
             Standard Nuclear Orientation (Angstroms)
    I     Atom           X                Y                Z
 ----------------------------------------------------------------
    1      C      -1.4724802739     0.2089529396     5.2428543818
    2      C       0.9775197261    -0.2770470604     1.7538543818
    3      C       0.1285197261    -1.3080470604     2.1578543818
    4      C       1.0155197261     0.9159529396     2.4708543818
    5      C      -0.6734802739    -1.1420470604     3.2838543818
    6      C       0.2105197261     1.0759529396     3.5928543818
    7      C      -0.6384802739     0.0499529396     4.0048543818
    8      H       1.6205197261    -0.4050470604     0.8948543818
    9      H       0.1055197261    -2.2360470604     1.6068543818
   10      H       1.6695197261     1.7149529396     2.1508543818
   11      H      -1.3244802739    -1.9430470604     3.5978543818
   12      H       0.2445197261     2.0019529396     4.1458543818
   13      H      -2.4224802739    -0.3100470604     5.1108543818
   14      H      -1.7014802739     1.2669529396     5.3828543818
   15      H      -0.9724552739    -0.1635570604     6.1490603818
 ----------------------------------------------------------------
 Nuclear Repulsion Energy =         269.95210380 hartrees
 There are       25 alpha and       25 beta electrons
 Requested basis set is def2-TZVPD
 There are 131 shells and 331 basis functions

 Total QAlloc Memory Limit  96000 MB
 Mega-Array Size      1956 MB
 MEM_STATIC part      2000 MB
 
 Citation of the SMD model:
 Marenich, A.V.; Cramer, C.J.; Truhlar, D.G.
 J. Phys. Chem. B 2009, 113, 6378-6396.
 iSolventCode=           1
 Solvent: water                                                           
 
 vradii
            1           2           3           4           5           6
    1   1.8500000   1.8500000   1.8500000   1.8500000   1.8500000   1.8500000
            7           8           9          10          11          12
    1   1.8500000   1.2000000   1.2000000   1.2000000   1.2000000   1.2000000
           13          14          15
    1   1.2000000   1.2000000   1.2000000
 Changing PCM_VDW_RADII to SMD_RADIUS
 Discretize the solute cavity surface with Lebedev spheres
	Using 110 Lebedev grid points for each H atom
	Using 194 Lebedev grid points for other atoms
	Atomic van der Waals radii will be scaled by 1.20
 Remove points where switching function is < 1.0e-08
 Keep 1082 surface tesserae and discard 1156 interior tesserae
 Molecular Surface Area = 131.909 Angst**2

                       Distance Matrix (Angstroms)
             C (  1)   C (  2)   C (  3)   C (  4)   C (  5)   C (  6)
   C (  2)  4.290899
   C (  3)  3.792323  1.395342
   C (  4)  3.791303  1.392402  2.414729
   C (  5)  2.510236  2.411416  1.392349  2.783712
   C (  6)  2.511310  2.408489  2.783775  1.390147  2.407584
   C (  7)  1.501160  2.790230  2.417408  2.416367  1.393531  1.393995
   H (  8)  5.371103  1.080608  2.153286  2.143558  3.393070  3.385360
   H (  9)  4.657103  2.149343  1.079497  3.392595  2.148489  3.863232
   H ( 10)  4.658397  2.145818  3.393119  1.080980  3.864685  2.148573
   H ( 11)  2.712754  3.387491  2.141970  3.862591  1.078887  3.386829
   H ( 12)  2.714102  3.384198  3.862862  2.139968  3.386813  1.079093
   H ( 13)  1.090543  4.778131  4.027880  4.504722  2.662547  3.340361
   H ( 14)  1.091515  4.767664  4.514438  3.998129  3.356466  2.626085
   H ( 15)  1.099999  4.809690  4.295548  4.318169  3.042406  3.077337
             C (  7)   H (  8)   H (  9)   H ( 10)   H ( 11)   H ( 12)
   H (  8)  3.870685
   H (  9)  3.395546  2.480873
   H ( 10)  3.396528  2.464617  4.283974
   H ( 11)  2.146694  4.283069  2.468771  4.943562
   H ( 12)  2.147062  4.272707  4.942316  2.468404  4.280781
   H ( 13)  2.129669  5.842048  4.730568  5.441203  2.482229  3.659161
   H ( 14)  2.123662  5.828672  5.458428  4.691500  3.692215  2.420188
   H ( 15)  2.180538  5.864172  5.107728  5.147279  3.130361  3.191128
             H ( 13)   H ( 14)
   H ( 14)  1.755208
   H ( 15)  1.789386  1.779019
 
 A cutoff of  1.0D-14 yielded   8360 shell pairs
 There are     54504 function pairs (     69458 Cartesian)
 Smallest overlap matrix eigenvalue = 5.59E-07
 Linear dependence detected in AO basis
 Tighter screening thresholds may be required for diffuse basis sets
 Use S2THRESH > 14 and THRESH = 14 in case of SCF convergence issues
 Number of orthogonalized atomic orbitals = 330
 Maximum deviation from orthogonality = 1.827E-10

 Scale SEOQF with 1.000000e-01/1.000000e-01/1.000000e-02

 Standard Electronic Orientation quadrupole field applied
 Nucleus-field energy     =    -0.0000000015 hartrees
 Guess from superposition of atomic densities
 Warning:  Energy on first SCF cycle will be non-variational
 SAD guess density has 49.913408 electrons

 -----------------------------------------------------------------------
  General SCF calculation program by
  Eric Jon Sundstrom, Paul Horn, Yuezhi Mao, Dmitri Zuev, Alec White,
  David Stuck, Shaama M.S., Shane Yost, Joonho Lee, David Small,
  Daniel Levine, Susi Lehtola, Hugh Burton, Evgeny Epifanovsky
 -----------------------------------------------------------------------
 Exchange:     0.1670 Hartree-Fock + 1.0000 wB97X-V + LR-HF
 Correlation:  1.0000 wB97X-V
 Using Euler-Maclaurin-Lebedev (99,590) quadrature formula
 Nonlocal Correlation:  VV10 with C = 0.0100 and b = 6.00 and scale = 1.00000
 Grid used for NLC:  SG-1 standard quadrature
Energy prior to optimization (guess energy) = -271.520271359404
Begin Timing: Total SCF Calculation
begin iterations for algorithm: DIIS         
the SCF tolerance is set to 1.00e-08
    1    -271.5202713594      1.96e-03     00000 
    2    -271.5612937003      1.28e-03     00000 
    3    -271.5852038702      1.55e-04     00000 
    4    -271.5859000868      4.63e-05     00000 
    5    -271.5859505406      2.11e-05     00000 
    6    -271.5859579798      5.34e-06     00000 
    7    -271.5859586790      1.31e-06     00000 
    8    -271.5859587136      4.80e-07     00000 
    9    -271.5859587186      8.09e-08     00000 
   10    -271.5859587189      3.67e-08     00000 
   11    -271.5859587189      1.28e-08     00000 
   12    -271.5859587189      4.70e-09     00000 Convergence criterion met
Timing for Total SCF: 1302.00s (wall), 2585.07s (cpu)
(3)  G-ENP(liq) elect-nuc-pol free energy of system     -271.585958719 a.u.
(4)  G-CDS(liq) cavity-dispersion-solvent structure 
     free energy                                                3.1684 kcal/mol
(6)  G-S(liq) free energy of system                     -271.580909609 a.u.
E_pcm = -0.0074607981
E_cds = 0.0050491101
Multipole orders to be included
        2
        3
computing dipole RHS
computing quadrupole RHS
total number of RHS in solve_reponses: 8
RHS batch sizes
        8
Beginning Block Conjugate Gradient Iterations. Batch Number: 0
computing hessian-vector products by finite difference
              1      6.19e-01     00000 Conjugate Gradient Iteration
computing hessian-vector products by finite difference
              2      1.91e-01     00000 Conjugate Gradient Iteration
computing hessian-vector products by finite difference
              3      4.50e-02     00000 Conjugate Gradient Iteration
computing hessian-vector products by finite difference
              4      1.10e-02     00000 Conjugate Gradient Iteration
computing hessian-vector products by finite difference
              5      1.90e-03     00000 Conjugate Gradient Iteration
computing hessian-vector products by finite difference
              6      5.70e-04     00000 Conjugate Gradient Iteration
computing hessian-vector products by finite difference
              7      1.78e-04     00000 Conjugate Gradient Iteration
computing hessian-vector products by finite difference
              8      2.84e-05     00000 Conjugate Gradient Iteration
computing hessian-vector products by finite difference
              9      3.76e-06     00000 Conjugate Gradient Iteration
computing hessian-vector products by finite difference
             10      7.30e-07     00000 Conjugate Gradient Iteration
computing hessian-vector products by finite difference
             11      1.23e-07     00000 Conjugate Gradient Iteration
computing hessian-vector products by finite difference
             12      1.80e-08     00000 Conjugate Gradient Iteration
computing hessian-vector products by finite difference
             13      3.54e-09     00000 CG Converged
batch 0 complete
Done Calculating Responses
TESTING ORTHOGONALIZATION OF MULTIPOLE BASIS
Multipole virts passed orthogonality test
Virts Per Order
           75
          125
 
 --------------------------------------------------------------
 
                    Orbital Energies (a.u.)
 --------------------------------------------------------------
 
 Alpha MOs
 -- Occupied --
-10.2767 -10.2684 -10.2677 -10.2653 -10.2640 -10.2637 -10.2532  -0.9931
 -0.9016  -0.8750  -0.8065  -0.7251  -0.7002  -0.6239  -0.5682  -0.5609
 -0.5293  -0.5249  -0.5075  -0.4790  -0.4693  -0.4352  -0.4349  -0.3468
 -0.3341
 -- Virtual --
  0.0671   0.0683   0.0713   0.0844   0.0899   0.1096   0.1159   0.1184
  0.1412   0.1586   0.1712   0.1736   0.1929   0.1947   0.2005   0.2075
  0.2285   0.2308   0.2401   0.2449   0.2543   0.2642   0.2664   0.2755
  0.2846   0.2873   0.2885   0.2974   0.2988   0.3071   0.3092   0.3163
  0.3247   0.3293   0.3369   0.3396   0.3557   0.3575   0.3723   0.3768
  0.3840   0.3875   0.3886   0.3936   0.3951   0.4063   0.4098   0.4142
  0.4154   0.4327   0.4346   0.4407   0.4459   0.4526   0.4561   0.4574
  0.4665   0.4752   0.4799   0.4864   0.4983   0.4999   0.5173   0.5220
  0.5232   0.5309   0.5403   0.5412   0.5453   0.5511   0.5546   0.5715
  0.5880   0.5927   0.6006   0.6031   0.6081   0.6252   0.6474   0.6493
  0.6666   0.6770   0.6869   0.6899   0.6918   0.7022   0.7259   0.7271
  0.7333   0.7348   0.7487   0.7628   0.7678   0.7701   0.7825   0.7912
  0.7944   0.7974   0.8043   0.8059   0.8118   0.8270   0.8295   0.8381
  0.8405   0.8419   0.8461   0.8565   0.8646   0.8795   0.8920   0.9015
  0.9121   0.9232   0.9356   0.9520   0.9549   1.0183   1.0251   1.0467
  1.0479   1.0653   1.0762   1.0833   1.0902   1.0936   1.1073   1.1469
  1.1698   1.1844   1.2524   1.2788   1.3001   1.3204   1.3506   1.3553
  1.3823   1.4393   1.4568   1.4643   1.4686   1.4913   1.5306   1.5418
  1.6034   1.6053   1.6238   1.6284   1.6707   1.6792   1.7448   1.7834
  1.7991   1.8034   1.8084   1.8215   1.8341   1.8727   1.8912   1.9166
  1.9250   1.9359   1.9592   1.9659   1.9890   2.0011   2.0181   2.0298
  2.0342   2.0529   2.0744   2.0991   2.1200   2.1276   2.1772   2.1809
  2.2002   2.2406   2.2478   2.2711   2.2937   2.3147   2.3988   2.4038
  2.4070   2.4158   2.4885   2.5135   2.5436   2.5580   2.5673   2.6147
  2.6252   2.6285   2.6736   2.6784   2.7021   2.7180   2.7595   2.7720
  2.7943   2.8168   2.8264   2.8526   2.8667   2.9089   2.9135   2.9183
  2.9418   2.9490   2.9640   2.9814   2.9951   3.0216   3.0234   3.0565
  3.0677   3.0935   3.1049   3.1436   3.1838   3.1928   3.2072   3.2317
  3.2359   3.2437   3.2933   3.3145   3.3337   3.3604   3.3749   3.3814
  3.4024   3.4517   3.4525   3.4527   3.4634   3.4789   3.4969   3.5048
  3.5138   3.5278   3.5439   3.5470   3.5669   3.5757   3.5927   3.6092
  3.6170   3.6396   3.6591   3.6903   3.7136   3.7552   3.7913   3.8195
  3.8412   3.8969   3.9116   3.9637   3.9724   3.9964   4.0385   4.0595
  4.1194   4.2053   4.2738   4.2819   4.3004   4.3204   4.3260   4.3276
  4.3531   4.3729   4.3863   4.4116   4.4429   4.4469   4.4831   4.5308
  4.6043   4.6392   4.7607   4.7685   4.8333   4.8949   4.9064   4.9533
  5.0288   5.0545   5.1729   5.2691   5.3741   5.3853   5.5086   5.5360
  5.6759   5.8545  22.5822  22.6794  22.8902  22.9037  23.0201  23.0780
 23.4269
 --------------------------------------------------------------
 
          Ground-State Mulliken Net Atomic Charges

     Atom                 Charge (a.u.)
  ----------------------------------------
      1 C                    -1.088456
      2 C                    -0.548680
      3 C                    -0.563888
      4 C                    -0.565349
      5 C                    -0.413408
      6 C                    -0.419402
      7 C                     0.833809
      8 H                     0.398435
      9 H                     0.376261
     10 H                     0.372988
     11 H                     0.398437
     12 H                     0.387813
     13 H                     0.294165
     14 H                     0.296908
     15 H                     0.240367
  ----------------------------------------
  Sum of atomic charges =     0.000000

 -----------------------------------------------------------------
                    Cartesian Multipole Moments
 -----------------------------------------------------------------
    Charge (ESU x 10^10)
                 0.0000
    Dipole Moment (Debye)
         X      -0.2558      Y       0.0404      Z       0.4788
       Tot       0.5443
    Quadrupole Moments (Debye-Ang)
        XX     -42.1958     XY       2.4286     YY     -38.7277
        XZ      -4.6807     YZ       1.9891     ZZ     -37.2934
    Octopole Moments (Debye-Ang^2)
       XXX      11.2980    XXY       3.3662    XYY       3.8737
       YYY       7.1806    XXZ    -139.4173    XYZ       7.5330
       YYZ    -128.1852    XZZ     -19.2244    YZZ      12.7322
       ZZZ    -380.7279
    Hexadecapole Moments (Debye-Ang^3)
      XXXX    -281.8835   XXXY     -18.5065   XXYY     -88.9890
      XYYY     -14.6290   YYYY    -261.0626   XXXZ     155.4436
      XXYZ      -7.5927   XYYZ      49.9036   YYYZ      -5.8664
      XXZZ    -574.6855   XYZZ      13.0441   YYZZ    -537.1143
      XZZZ      68.3465   YZZZ      25.6863   ZZZZ   -2948.9346
 -----------------------------------------------------------------
Archival summary:
1\1\nid00530\SP\ProcedureUnspecified\BasisUnspecified\78\meili\SunSep2618:13:462021SunSep2618:13:462021\0\\#,ProcedureUnspecified,BasisUnspecified,\\0,1\C\C,1,1.39353\H,2,1.07889,1,119.976\C,2,1.39235,1,120.393,3,-179.967,0\H,4,1.0795,2,120.199,1,179.445,0\C,1,1.39399,2,119.469,3,179.743,0\H,6,1.07909,1,119.955,2,-179.948,0\C,6,1.39015,1,120.432,2,0.115878,0\H,8,1.08098,6,120.278,1,179.71,0\C,8,1.3924,6,119.896,1,-0.139666,0\H,10,1.08061,8,119.642,6,-178.688,0\C,1,1.50116,2,120.221,3,1.89235,0\H,12,1.09054,1,109.496,2,-35.9293,0\H,12,1.09152,1,108.966,2,-152.771,0\H,12,1.1,1,113.016,2,86.481,0\\\@

 Total job time:  26702.06s(wall), 52969.31s(cpu) 
 Sun Sep 26 18:13:51 2021

        *************************************************************
        *                                                           *
        *  Thank you very much for using Q-Chem.  Have a nice day.  *
        *                                                           *
        *************************************************************


Done Job For Fragment 1
calling putenv with: QCSCRATCH=/global/cscratch1/sd/meili 
calling putenv with: QCLOCALSCR=/tmp 
calling putenv with: QCTHREADS=32 
Doing General SCFMI
 Exchange:     0.1670 Hartree-Fock + 1.0000 wB97X-V + LR-HF
 Correlation:  1.0000 wB97X-V
 Using Euler-Maclaurin-Lebedev (99,590) quadrature formula
 Nonlocal Correlation:  VV10 with C = 0.0100 and b = 6.00 and scale = 1.00000
 Grid used for NLC:  SG-1 standard quadrature
performing fock build before subrot guess so that all methods have access
Printing subrot_rss_gen Method Specification:
Occupied Subspace Method is 0
Virtual Subspace Method is 0
Energy of the unrelaxed supersystem initial determinant -543.156181896626
performing fock build before subrot guess so that all methods have access
Printing subrot_rss_gen Method Specification:
Occupied Subspace Method is 0
Virtual Subspace Method is 0
Energy of the unrelaxed supersystem initial determinant w/ solvent -543.170851094558
write pseudocanon occs and virts to disk
write pseudocanon orbital energies to disk
Tolerance of ortho_decomp_scf: 1.00e-06
GDM subspace size: 20
Beginning the Orthogonal Decomposition of the Initial Supersystem Wavefunction
    1    -543.1414793306      1.82e-02     ortho_decomp Preconditoned Steepest Descent
    2    -543.1429464068      4.64e-04     ortho_decomp BFGS Step
    3    -543.1429510893      3.58e-05     ortho_decomp BFGS Step
    4    -543.1429510991      1.53e-06     ortho_decomp BFGS Step
    5    -543.1429510991      4.73e-08     ortho_decomp 00000 Convergence criterion met
 Hartree-Fock
 Hartree-Fock
 Hartree-Fock
Doing General SCFMI
 Exchange:     0.1670 Hartree-Fock + 1.0000 wB97X-V + LR-HF
 Correlation:  1.0000 wB97X-V
 Using Euler-Maclaurin-Lebedev (99,590) quadrature formula
 Nonlocal Correlation:  VV10 with C = 0.0100 and b = 6.00 and scale = 1.00000
 Grid used for NLC:  SG-1 standard quadrature
performing fock build at end of subrot_r(subrot) constructor so that all methods have access
<S^2> of initial wavefunction before polarization iterations 0.0000000000
Beginning iterations for the determination of the polarized wavefunction
Energy prior to optimization (guess energy) = -543.170851094558
Begin Timing: Total SCF Calculation
begin iterations for algorithm: DIIS         
the SCF tolerance is set to 1.00e-08
    1    -543.1708510946      3.44e-05     00000 
    2    -543.1709674270      1.47e-05     00000 
    3    -543.1709808485      8.01e-06     00000 
    4    -543.1709854673      1.83e-06     00000 
    5    -543.1709858530      9.68e-07     00000 
    6    -543.1709859532      3.44e-07     00000 
    7    -543.1709859664      1.36e-07     00000 
    8    -543.1709859678      5.41e-08     00000 
    9    -543.1709859680      1.97e-08     00000 
   10    -543.1709859680      9.83e-09     00000 Convergence criterion met
write pseudocanon occs and virts to disk
write pseudocanon orbital energies to disk
Timing for Total SCF: 7704.00s (wall), 15335.50s (cpu)
<S^2> of polarized wavefunction after polarization iterations 0.0000000000
relaxing scfmi constraint to allow all rotations in the entire AO span
Doing General SCFMI
 Exchange:     0.1670 Hartree-Fock + 1.0000 wB97X-V + LR-HF
 Correlation:  1.0000 wB97X-V
 Using Euler-Maclaurin-Lebedev (99,590) quadrature formula
 Nonlocal Correlation:  VV10 with C = 0.0100 and b = 6.00 and scale = 1.00000
 Grid used for NLC:  SG-1 standard quadrature
performing fock build at end of subrot_r(subrot) constructor so that all methods have access
<S^2> of polarized wavefunction before ct-allowed iterations 0.0000000000
Beginning iterations for the determination of the CT-Allowed wavefunction
Energy prior to optimization (guess energy) = -543.170985967997
Begin Timing: Total SCF Calculation
begin iterations for algorithm: DIIS         
the SCF tolerance is set to 1.00e-08
    1    -543.1709859680      5.47e-05     00000 
    2    -543.1716983594      6.07e-06     00000 
    3    -543.1717193068      8.98e-07     00000 
    4    -543.1717199107      2.83e-07     00000 
    5    -543.1717199362      1.36e-07     00000 
    6    -543.1717199432      2.19e-08     00000 
    7    -543.1717199436      1.21e-08     00000 
    8    -543.1717199436      2.77e-09     00000 Convergence criterion met
write pseudocanon occs and virts to disk
write pseudocanon orbital energies to disk
Timing for Total SCF: 5988.00s (wall), 11916.03s (cpu)
<S^2> of ct_allowed wavefunction after ct-allowed iterations 0.0000000000

================================
        Results of EDA2         
================================
Basic EDA Quantities
--------------------
Fragment Energies (Ha):
1 -271.5792386199
2 -271.5809096088
--------------------
  E_prp (kJ/mol) = 0.0000
  E_sol (kJ/mol) = -0.5679
  E_frz (kJ/mol) = -2.4556
  E_pol (kJ/mol) = -0.3541
  E_vct (kJ/mol) = -1.9271
  E_int (kJ/mol) = -5.3048
--------------------


Initial Wavefunction Decomposition
--------------------
  --------------------
  Orthogonal Fragment Subspace Decomposition:
  --------------------
     E_elec   (ELEC)   (kJ/mol) = -15.4739
     E_pauli  (PAULI)  (kJ/mol) = 25.1915
     E_disp   (DISP)   (kJ/mol) = -12.1733
     --------------------
     Terms summing to E_pauli:
     --------------------
        E_kep_pauli       (kJ/mol) = 32.2822
        E_disp_free_pauli (kJ/mol) = -7.0907
  --------------------
  Classical Frozen Decomposition:
  --------------------
     E_cls_elec  (CLS ELEC)  (kJ/mol) = -6.2782
     E_cls_pauli (CLS PAULI) (kJ/mol) = 3.8225
    [E_mod_pauli (MOD PAULI) (kJ/mol) = 15.9958 (CLS PAULI - DISP from orthogonal decomposition) ]
  --------------------
--------------------

Simplified EDA Summary (kJ/mol)
--------------------
 PREPARATION     0.0000
 SOLVATION       -0.5679
 FROZEN          9.7177      (does not include dispersion)
[PAULI           25.1915]     (if this is negligible, then frozen describes electrostatics)
 DISPERSION      -12.1733
 POLARIZATION    -0.3541
 CHARGE TRANSFER -1.9271
 TOTAL           -5.3048     (PRP + SOL + FRZ + DISP + POL + CT)
--------------------
 
 --------------------------------------------------------------
 
                    Orbital Energies (a.u.)
 --------------------------------------------------------------
 
 Alpha MOs
 -- Occupied --
-10.2801 -10.2766 -10.2691 -10.2684 -10.2676 -10.2663 -10.2652 -10.2650
-10.2647 -10.2641 -10.2638 -10.2631 -10.2546 -10.2531  -0.9933  -0.9917
 -0.9023  -0.9005  -0.8751  -0.8736  -0.8078  -0.8062  -0.7259  -0.7237
 -0.7009  -0.7000  -0.6280  -0.6206  -0.5690  -0.5668  -0.5614  -0.5605
 -0.5294  -0.5291  -0.5254  -0.5235  -0.5103  -0.5055  -0.4809  -0.4790
 -0.4690  -0.4681  -0.4371  -0.4352  -0.4346  -0.4332  -0.3470  -0.3453
 -0.3343  -0.3327
 -- Virtual --
  0.0617   0.0636   0.0679   0.0711   0.0718   0.0731   0.0816   0.0853
  0.0934   0.1039   0.1073   0.1101   0.1160   0.1176   0.1334   0.1362
  0.1437   0.1530   0.1586   0.1601   0.1670   0.1698   0.1813   0.1835
  0.1880   0.1934   0.1990   0.1998   0.2115   0.2129   0.2235   0.2237
  0.2314   0.2348   0.2374   0.2387   0.2430   0.2470   0.2555   0.2588
  0.2616   0.2665   0.2694   0.2702   0.2739   0.2778   0.2787   0.2814
  0.2879   0.2900   0.2914   0.2947   0.2991   0.3039   0.3058   0.3071
  0.3108   0.3148   0.3231   0.3244   0.3298   0.3305   0.3335   0.3395
  0.3454   0.3467   0.3473   0.3522   0.3555   0.3600   0.3624   0.3648
  0.3671   0.3738   0.3755   0.3791   0.3816   0.3827   0.3847   0.3886
  0.3889   0.3932   0.3938   0.3961   0.3992   0.4023   0.4062   0.4120
  0.4138   0.4176   0.4252   0.4267   0.4277   0.4311   0.4381   0.4432
  0.4459   0.4493   0.4534   0.4544   0.4560   0.4596   0.4619   0.4667
  0.4673   0.4720   0.4751   0.4778   0.4822   0.4831   0.4898   0.4935
  0.4955   0.4987   0.5038   0.5080   0.5092   0.5119   0.5151   0.5163
  0.5214   0.5264   0.5294   0.5341   0.5352   0.5372   0.5443   0.5469
  0.5514   0.5534   0.5590   0.5606   0.5675   0.5684   0.5720   0.5758
  0.5773   0.5855   0.5908   0.5917   0.5972   0.6016   0.6106   0.6149
  0.6159   0.6236   0.6277   0.6301   0.6354   0.6392   0.6516   0.6624
  0.6648   0.6698   0.6721   0.6767   0.6804   0.6826   0.6928   0.6945
  0.6987   0.7028   0.7086   0.7102   0.7160   0.7184   0.7243   0.7294
  0.7352   0.7389   0.7416   0.7442   0.7468   0.7495   0.7546   0.7565
  0.7610   0.7639   0.7687   0.7742   0.7789   0.7817   0.7868   0.7903
  0.7916   0.7984   0.7986   0.8019   0.8080   0.8104   0.8149   0.8157
  0.8209   0.8218   0.8272   0.8298   0.8350   0.8364   0.8451   0.8468
  0.8473   0.8506   0.8617   0.8636   0.8644   0.8709   0.8717   0.8759
  0.8781   0.8817   0.8878   0.8909   0.8956   0.9010   0.9068   0.9079
  0.9120   0.9239   0.9302   0.9345   0.9352   0.9417   0.9497   0.9565
  0.9588   0.9729   0.9822   0.9858   0.9948   1.0015   1.0132   1.0214
  1.0339   1.0372   1.0432   1.0613   1.0649   1.0700   1.0749   1.0811
  1.0889   1.0939   1.0958   1.0994   1.1049   1.1082   1.1198   1.1280
  1.1375   1.1469   1.1507   1.1610   1.1672   1.1797   1.1931   1.2086
  1.2145   1.2312   1.2592   1.2776   1.3021   1.3080   1.3214   1.3245
  1.3400   1.3531   1.3649   1.3661   1.3776   1.3806   1.3892   1.4200
  1.4368   1.4544   1.4661   1.4746   1.4760   1.4801   1.4885   1.4957
  1.5012   1.5090   1.5195   1.5477   1.5548   1.5645   1.5702   1.6003
  1.6165   1.6183   1.6309   1.6415   1.6477   1.6563   1.6710   1.6746
  1.6841   1.6947   1.7044   1.7491   1.7808   1.7943   1.7965   1.8016
  1.8044   1.8138   1.8172   1.8270   1.8335   1.8409   1.8477   1.8666
  1.8768   1.8934   1.9060   1.9120   1.9269   1.9400   1.9436   1.9515
  1.9567   1.9619   1.9658   1.9714   1.9923   1.9968   2.0065   2.0082
  2.0143   2.0274   2.0411   2.0448   2.0516   2.0583   2.0633   2.0690
  2.0760   2.0811   2.0914   2.1078   2.1132   2.1287   2.1364   2.1509
  2.1563   2.1701   2.1885   2.1905   2.2045   2.2100   2.2291   2.2397
  2.2444   2.2580   2.2611   2.2653   2.2764   2.2913   2.2982   2.3177
  2.3388   2.3482   2.3567   2.4019   2.4118   2.4153   2.4213   2.4298
  2.4307   2.4448   2.4494   2.4762   2.4961   2.5233   2.5361   2.5589
  2.5606   2.5663   2.5932   2.6073   2.6152   2.6166   2.6221   2.6340
  2.6384   2.6454   2.6665   2.6879   2.6930   2.6947   2.7005   2.7251
  2.7267   2.7379   2.7481   2.7670   2.7806   2.7882   2.7919   2.8033
  2.8183   2.8231   2.8305   2.8380   2.8451   2.8610   2.8650   2.8679
  2.8823   2.9057   2.9148   2.9264   2.9298   2.9359   2.9409   2.9500
  2.9569   2.9663   2.9741   2.9796   2.9827   2.9945   3.0095   3.0170
  3.0218   3.0306   3.0402   3.0418   3.0569   3.0717   3.0741   3.0866
  3.0937   3.1036   3.1143   3.1170   3.1328   3.1601   3.1743   3.1939
  3.1979   3.2034   3.2093   3.2204   3.2273   3.2416   3.2498   3.2600
  3.2687   3.2759   3.2831   3.2938   3.3167   3.3216   3.3368   3.3489
  3.3524   3.3702   3.3744   3.3876   3.3944   3.4103   3.4170   3.4234
  3.4335   3.4482   3.4514   3.4613   3.4637   3.4725   3.4752   3.4784
  3.4792   3.4901   3.4923   3.4999   3.5158   3.5178   3.5265   3.5323
  3.5371   3.5429   3.5473   3.5519   3.5576   3.5602   3.5672   3.5776
  3.5789   3.5889   3.5935   3.6007   3.6071   3.6116   3.6180   3.6350
  3.6402   3.6525   3.6607   3.6658   3.6784   3.6972   3.7069   3.7147
  3.7175   3.7213   3.7565   3.7853   3.8039   3.8130   3.8244   3.8459
  3.8645   3.8999   3.9125   3.9267   3.9448   3.9554   3.9756   3.9788
  3.9849   4.0096   4.0156   4.0458   4.0530   4.0768   4.0904   4.1302
  4.1613   4.2213   4.2437   4.2781   4.2808   4.2836   4.2889   4.3031
  4.3117   4.3221   4.3238   4.3350   4.3381   4.3527   4.3567   4.3613
  4.3661   4.3801   4.3850   4.3880   4.3987   4.4017   4.4258   4.4506
  4.4556   4.4580   4.4781   4.4921   4.5252   4.5448   4.5657   4.6165
  4.6210   4.6443   4.6529   4.7583   4.7677   4.7737   4.7951   4.8146
  4.8347   4.8485   4.9024   4.9155   4.9317   4.9618   4.9717   5.0362
  5.0565   5.0667   5.0799   5.1808   5.1825   5.2762   5.2866   5.3804
  5.3852   5.3883   5.3955   5.4936   5.5109   5.5266   5.5541   5.6869
  5.6943   5.8198   5.8715  22.6284  22.6557  22.6860  22.6950  22.9023
 22.9216  22.9361  22.9582  23.0337  23.0373  23.0851  23.0927  23.4291
 23.4359
 --------------------------------------------------------------
 
          Ground-State Mulliken Net Atomic Charges

     Atom                 Charge (a.u.)
  ----------------------------------------
      1 C                    -1.046420
      2 C                    -0.464101
      3 C                    -0.644434
      4 C                    -0.232999
      5 C                    -0.616933
      6 C                    -0.552531
      7 C                     0.579526
      8 H                     0.448276
      9 H                     0.389700
     10 H                     0.447970
     11 H                     0.424261
     12 H                     0.417871
     13 H                     0.274037
     14 H                     0.243657
     15 H                     0.307498
     16 C                    -1.146202
     17 C                    -0.611430
     18 C                    -0.413668
     19 C                    -0.568348
     20 C                    -0.497932
     21 C                    -0.398612
     22 C                     0.663410
     23 H                     0.526884
     24 H                     0.417458
     25 H                     0.390158
     26 H                     0.412358
     27 H                     0.403646
     28 H                     0.300577
     29 H                     0.302176
     30 H                     0.244147
  ----------------------------------------
  Sum of atomic charges =     0.000000

 -----------------------------------------------------------------
                    Cartesian Multipole Moments
 -----------------------------------------------------------------
    Charge (ESU x 10^10)
                 0.0000
    Dipole Moment (Debye)
         X      -0.0974      Y      -0.3405      Z       0.0149
       Tot       0.3545
    Quadrupole Moments (Debye-Ang)
        XX     -88.4615     XY       0.7593     YY     -76.4875
        XZ      -5.5718     YZ       3.2627     ZZ     -71.6636
    Octopole Moments (Debye-Ang^2)
       XXX       0.3288    XXY      -1.2118    XYY      -1.4649
       YYY       3.9588    XXZ       8.9445    XYZ      12.0968
       YYZ      -3.3852    XZZ     -18.9745    YZZ       7.5572
       ZZZ     -25.9934
    Hexadecapole Moments (Debye-Ang^3)
      XXXX    -359.5920   XXXY      14.3320   XXYY    -169.0104
      XYYY       9.3028   YYYY    -608.6845   XXXZ     205.5269
      XXYZ     -14.2247   XYYZ      73.0905   YYYZ     -61.8601
      XXZZ   -1162.9038   XYZZ       8.8161   YYZZ   -1095.4756
      XZZZ     105.4819   YZZZ     -22.2714   ZZZZ   -5838.1042
 -----------------------------------------------------------------
Archival summary:
1\1\nid00530\SP\ProcedureUnspecified\BasisUnspecified\1416\meili\MonSep2701:38:152021MonSep2701:38:152021\0\\#,ProcedureUnspecified,BasisUnspecified,\\0,1\C\H,1,1.07799\C,1,1.38917,2,120.321\H,3,1.08208,1,120.168,2,1.42645,0\C,1,1.39009,2,119.701,3,-178.416,0\H,5,1.08104,1,119.101,2,-1.37918,0\C,3,1.39489,1,119.657,2,-178.269,0\H,7,1.08145,3,119.719,1,-179.788,0\C,5,1.39572,1,121.269,2,177.706,0\C,9,1.39959,5,118.659,1,1.41959,0\H,10,1.06683,9,121.412,5,176.717,0\C,9,1.51015,5,117.607,1,179.385,0\H,12,1.08731,9,106.791,5,-66.3465,0\H,12,1.09112,9,108.115,5,49.4289,0\H,12,1.1,9,117.235,5,173.047,0\H,2,2.23258,1,121.698,3,-53.775,0\C,16,1.08061,2,104.632,1,121.812,0\C,17,1.3924,16,119.642,2,-126.656,0\H,18,1.08098,17,119.826,16,1.46172,0\C,18,1.39015,17,119.896,16,-178.688,0\H,20,1.07909,18,119.613,17,179.924,0\C,20,1.39399,18,120.432,17,-0.139666,0\C,22,1.39353,20,119.469,18,0.115878,0\H,23,1.07889,22,119.976,20,179.743,0\C,23,1.39235,22,120.393,20,-0.223901,0\H,25,1.0795,23,120.199,22,179.445,0\C,22,1.50116,20,120.275,18,177.966,0\H,27,1.09054,22,109.496,20,146.237,0\H,27,1.09152,22,108.966,20,29.3957,0\H,27,1.1,22,113.016,20,-91.3526,0\\\@

 Total job time:  81529.35s(wall), 53119.68s(cpu) 
 Mon Sep 27 01:38:21 2021

        *************************************************************
        *                                                           *
        *  Thank you very much for using Q-Chem.  Have a nice day.  *
        *                                                           *
        *************************************************************


