
Running Job 1 of 1 SSI-009ARG-023GLU-1_PCM_TZVPD.in
qchem SSI-009ARG-023GLU-1_PCM_TZVPD.in_6011.0 /tmp/qchem6011/ 0
/global/common/cori/software/qchem/5.2/exe/qcprog.exe_s SSI-009ARG-023GLU-1_PCM_TZVPD.in_6011.0 /tmp/qchem6011/
                  Welcome to Q-Chem
     A Quantum Leap Into The Future Of Chemistry


 Q-Chem 5.2, Q-Chem, Inc., Pleasanton, CA (2019)

 License issued to: National Energy Research Scientific Computing Center

 Yihan Shao,  Zhengting Gan,  E. Epifanovsky,  A. T. B. Gilbert,  M. Wormit,  
 J. Kussmann,  A. W. Lange,  A. Behn,  Jia Deng,  Xintian Feng,  D. Ghosh,  
 M. Goldey,  P. R. Horn,  L. D. Jacobson,  I. Kaliman,  T. Kus,  A. Landau,  
 Jie Liu,  E. I. Proynov,  R. M. Richard,  R. P. Steele,  E. J. Sundstrom,  
 H. L. Woodcock III,  P. M. Zimmerman,  D. Zuev,  B. Albrecht,  E. Alguire,  
 S. A. Baeppler,  D. Barton,  Z. Benda,  Y. A. Bernard,  E. J. Berquist,  
 K. B. Bravaya,  H. Burton,  D. Casanova,  Chun-Min Chang,  Yunqing Chen,  
 A. Chien,  K. D. Closser,  M. P. Coons,  S. Coriani,  S. Dasgupta,  
 A. L. Dempwolff,  M. Diedenhofen,  Hainam Do,  R. G. Edgar,  Po-Tung Fang,  
 S. Faraji,  S. Fatehi,  Qingguo Feng,  K. D. Fenk,  J. Fosso-Tande,  
 J. Gayvert,  Qinghui Ge,  A. Ghysels,  G. Gidofalvi,  J. Gomes,  
 J. Gonthier,  A. Gunina,  D. Hait,  M. W. D. Hanson-Heine,  
 P. H. P. Harbach,  A. W. Hauser,  M. F. Herbst,  J. E. Herr,  
 E. G. Hohenstein,  Z. C. Holden,  Kerwin Hui,  B. C. Huynh,  T.-C. Jagau,  
 Hyunjun Ji,  B. Kaduk,  K. Khistyaev,  Jaehoon Kim,  P. Klunzinger,  K. Koh,  
 D. Kosenkov,  L. Koulias,  T. Kowalczyk,  C. M. Krauter,  A. Kunitsa,  
 Ka Un Lao,  A. Laurent,  K. V. Lawler,  Joonho Lee,  D. Lefrancois,  
 S. Lehtola,  D. S. Levine,  Yi-Pei Li,  You-Sheng Lin,  Fenglai Liu,  
 E. Livshits,  A. Luenser,  P. Manohar,  E. Mansoor,  S. F. Manzer,  
 Shan-Ping Mao,  Yuezhi Mao,  N. Mardirossian,  A. V. Marenich,  
 T. Markovich,  L. A. Martinez-Martinez,  S. A. Maurer,  N. J. Mayhall,  
 S. C. McKenzie,  J.-M. Mewes,  P. Morgante,  A. F. Morrison,  
 J. W. Mullinax,  K. Nanda,  T. S. Nguyen-Beck,  R. Olivares-Amaya,  
 J. A. Parkhill,  Zheng Pei,  T. M. Perrine,  F. Plasser,  P. Pokhilko,  
 S. Prager,  A. Prociuk,  E. Ramos,  D. R. Rehn,  F. Rob,  M. Scheurer,  
 M. Schneider,  N. Sergueev,  S. M. Sharada,  S. Sharma,  D. W. Small,  
 T. Stauch,  T. Stein,  Yu-Chuan Su,  A. J. W. Thom,  A. Tkatchenko,  
 T. Tsuchimochi,  N. M. Tubman,  L. Vogt,  M. L. Vidal,  O. Vydrov,  
 M. A. Watson,  J. Wenzel,  M. de Wergifosse,  T. A. Wesolowski,  A. White,  
 J. Witte,  A. Yamada,  Jun Yang,  K. Yao,  S. Yeganeh,  S. R. Yost,  
 Zhi-Qiang You,  A. Zech,  Igor Ying Zhang,  Xing Zhang,  Yan Zhao,  
 Ying Zhu,  B. R. Brooks,  G. K. L. Chan,  C. J. Cramer,  M. S. Gordon,  
 W. J. Hehre,  A. Klamt,  M. W. Schmidt,  C. D. Sherrill,  D. G. Truhlar,  
 A. Aspuru-Guzik,  R. Baer,  A. T. Bell,  N. A. Besley,  Jeng-Da Chai,  
 A. E. DePrince, III,  R. A. DiStasio Jr.,  A. Dreuw,  B. D. Dunietz,  
 T. R. Furlani,  Chao-Ping Hsu,  Yousung Jung,  Jing Kong,  D. S. Lambrecht,  
 WanZhen Liang,  C. Ochsenfeld,  V. A. Rassolov,  L. V. Slipchenko,  
 J. E. Subotnik,  T. Van Voorhis,  J. M. Herbert,  A. I. Krylov,  
 P. M. W. Gill,  M. Head-Gordon

 Contributors to earlier versions of Q-Chem not listed above: 
 R. D. Adamson,  B. Austin,  J. Baker,  G. J. O. Beran,  K. Brandhorst,  
 S. T. Brown,  E. F. C. Byrd,  A. K. Chakraborty,  C.-L. Cheng,  
 Siu Hung Chien,  D. M. Chipman,  D. L. Crittenden,  H. Dachsel,  
 R. J. Doerksen,  A. D. Dutoi,  L. Fusti-Molnar,  W. A. Goddard III,  
 A. Golubeva-Zadorozhnaya,  S. R. Gwaltney,  G. Hawkins,  A. Heyden,  
 S. Hirata,  G. Kedziora,  F. J. Keil,  C. Kelley,  Jihan Kim,  R. A. King,  
 R. Z. Khaliullin,  P. P. Korambath,  W. Kurlancheek,  A. M. Lee,  M. S. Lee,  
 S. V. Levchenko,  Ching Yeh Lin,  D. Liotard,  R. C. Lochan,  I. Lotan,  
 P. E. Maslen,  N. Nair,  D. P. O'Neill,  D. Neuhauser,  E. Neuscamman,  
 C. M. Oana,  R. Olson,  B. Peters,  R. Peverati,  P. A. Pieniazek,  
 Y. M. Rhee,  J. Ritchie,  M. A. Rohrdanz,  E. Rosta,  N. J. Russ,  
 H. F. Schaefer III,  N. E. Schultz,  N. Shenvi,  A. C. Simmonett,  A. Sodt,  
 D. Stuck,  K. S. Thanthiriwatte,  V. Vanovschi,  Tao Wang,  A. Warshel,  
 C. F. Williams,  Q. Wu,  X. Xu,  W. Zhang

 Please cite Q-Chem as follows:
 Y. Shao et al., Mol. Phys. 113, 184-215 (2015)
 DOI: 10.1080/00268976.2014.952696

 Q-Chem 5.2.0 for Intel X86 EM64T Linux

 Parts of Q-Chem use Armadillo 8.300.2 (Tropical Shenanigans).
 http://arma.sourceforge.net/

 Q-Chem begins on Sun Sep 26 02:13:12 2021  

Host: cori01
0

     Scratch files written to /tmp/qchem6011//
 May1019 |scratch|qcdevops|jenkins|workspace|build_RNUM -1
Processing $rem in /global/common/cori/software/qchem/5.2/config/preferences:
	 MEM_TOTAL  96000 
NAlpha2: 72
NElect   72
Mult     1
Symmetry turned off for PCM/SM12/SMD calculation

 Q-Chem warning in module libgen/rem_setup.C, line 2803:

 Neither GIA nor STOLL is specified by user. Use STOLL as the default


Checking the input file for inconsistencies... 	...done.

--------------------------------------------------------------
User input:
--------------------------------------------------------------
$comment
SSI-009ARG-023GLU-1.pdb
$end

$molecule
0 1
--
1 1
C   -0.424421846746    2.577031804889    0.543681378007
C   -1.377421846746    0.560031804889    1.627681378007
N   -0.661421846746    1.138031804889    0.678681378007
N   -1.995421846746    1.286031804889    2.537681378007
N   -1.496421846746   -0.752968195111    1.640681378007
H   -0.135421846746    0.516031804889    0.064681378007
H    0.329578153254    2.893031804889    1.267681378007
H   -1.346421846746    3.138031804889    0.708681378007
H   -1.917421846746    2.287031804889    2.507681378007
H   -2.563421846746    0.845031804889    3.241681378007
H   -0.997421846746   -1.297968195111    0.954681378007
H   -2.053421846746   -1.210968195111    2.342681378007
H   -0.066879846746    2.787051804889   -0.475168621993
--
-1 1
C    0.717578153254   -1.280968195111   -2.993318621993
C    1.548578153254   -1.181968195111   -1.713318621993
O    1.085578153254   -0.593968195111   -0.715318621993
O    2.654578153254   -1.750968195111   -1.676318621993
H    0.165578153254   -2.222968195111   -2.998318621993
H    1.405578153254   -1.306968195111   -3.840318621993
H   -0.000882846746   -0.456998195111   -3.115338621993
$end

$rem
JOBTYPE			EDA
EDA2			1
method			wB97X-V
BASIS			def2-TZVPD
XC_GRID			000099000590
NL_GRID			1
UNRESTRICTED		FALSE
MAX_SCF_CYCLES		200
SYMMETRY		FALSE
SYM_IGNORE		TRUE
MEM_STATIC		2000
BASIS_LIN_DEP_THRESH 	6
THRESH 			14
SCF_CONVERGENCE 	8
SCF_PRINT_FRGM 		TRUE
SOLVENT_METHOD          PCM
$end

$PCM
THEORY                  CPCM
METHOD                  SWIG
SOLVER                  INVERSION
RADII                   UFF
HPOINTS                 302
HEAVYPOINTS             302
PRINTLEVEL              0
$END

$SOLVENT
DIELECTRIC              78.390000 ! water
$END
--------------------------------------------------------------
 ----------------------------------------------------------------
             Standard Nuclear Orientation (Angstroms)
    I     Atom           X                Y                Z
 ----------------------------------------------------------------
    1      C      -0.4244218467     2.5770318049     0.5436813780
    2      C      -1.3774218467     0.5600318049     1.6276813780
    3      N      -0.6614218467     1.1380318049     0.6786813780
    4      N      -1.9954218467     1.2860318049     2.5376813780
    5      N      -1.4964218467    -0.7529681951     1.6406813780
    6      H      -0.1354218467     0.5160318049     0.0646813780
    7      H       0.3295781533     2.8930318049     1.2676813780
    8      H      -1.3464218467     3.1380318049     0.7086813780
    9      H      -1.9174218467     2.2870318049     2.5076813780
   10      H      -2.5634218467     0.8450318049     3.2416813780
   11      H      -0.9974218467    -1.2979681951     0.9546813780
   12      H      -2.0534218467    -1.2109681951     2.3426813780
   13      H      -0.0668798467     2.7870518049    -0.4751686220
   14      C       0.7175781533    -1.2809681951    -2.9933186220
   15      C       1.5485781533    -1.1819681951    -1.7133186220
   16      O       1.0855781533    -0.5939681951    -0.7153186220
   17      O       2.6545781533    -1.7509681951    -1.6763186220
   18      H       0.1655781533    -2.2229681951    -2.9983186220
   19      H       1.4055781533    -1.3069681951    -3.8403186220
   20      H      -0.0008828467    -0.4569981951    -3.1153386220
 ----------------------------------------------------------------
 Nuclear Repulsion Energy =         449.36545030 hartrees
 There are       36 alpha and       36 beta electrons
 Requested basis set is def2-TZVPD
 There are 174 shells and 438 basis functions

 Total QAlloc Memory Limit  96000 MB
 Mega-Array Size      1956 MB
 MEM_STATIC part      2000 MB
 Discretize the solute cavity surface with Lebedev spheres
	Using 302 Lebedev grid points for each H atom
	Using 302 Lebedev grid points for other atoms
	Atomic van der Waals radii will be scaled by 1.20
 Remove points where switching function is < 1.0e-08
 Keep 2416 surface tesserae and discard 3624 interior tesserae
 Molecular Surface Area = 243.924 Angst**2
 A cutoff of  1.0D-14 yielded  13421 shell pairs
 There are     85249 function pairs (    106885 Cartesian)
 Smallest overlap matrix eigenvalue = 1.07E-05

 Scale SEOQF with 1.000000e-01/1.000000e-01/1.000000e-01

 Standard Electronic Orientation quadrupole field applied
 Nucleus-field energy     =    -0.0000000091 hartrees

 -----------------------------------------------------------------------
  General SCF calculation program by
  Eric Jon Sundstrom, Paul Horn, Yuezhi Mao, Dmitri Zuev, Alec White,
  David Stuck, Shaama M.S., Shane Yost, Joonho Lee, David Small,
  Daniel Levine, Susi Lehtola, Hugh Burton, Evgeny Epifanovsky
 -----------------------------------------------------------------------
================================================================
                 ALMO-EDA with the EDA2 driver                  
================================================================
 The second-generation ALMO-EDA (for DFT):                      
 P. R. Horn, Y. Mao and M. Head-Gordon, PCCP, 18, 23067 (2016)  
 Decomposition of the frozen energy:                            
 P. R. Horn, Y. Mao and M. Head-Gordon, JCP, 144, 114107 (2016) 
 FERF model for polarization:                                   
 P. R. Horn and M. Head-Gordon, JCP, 143, 114111 (2015)         
Using eda2 option set 1
Option set summary: Frozen orbital wavefunction, initial wavefunction decomposition, and nDQ polarization.
--------------------------------
Printing EDA Options
--------------------------------
eda_child_super_basis      0
fragmo_guess_mode          0
child_mp                   1
child_mp_orders            232
cls_elec                   1
cls_disp                   0
scfmi_mode                 1
scfmi_occs                 0
scfmi_virts                0
frz_relax                  0
frz_relax_method           0
dc_pen_start               0
dc_pen_conv                0
dc_pen_increment           0
dc_pen_steps               0
dc_pen_thresh_factor       0
dc_pen_pre_newton_thresh   0
frz_ortho_decomp           1
frz_ortho_decomp_conv      6
frgm_method                2
scfmi_freeze_ss            0
separate_rehyb             0
plot_diff_den              0
eda_nocv                   0
eda_vct_relax              1
disp_free_x                0
disp_free_c                0
eda_bsse                   0
eda_pct_a                  0
eda_covp                   0
--------------------------------
Attempting to make child job directory: /tmp/qchem6011//Frg1/
Attempting to make child job directory: /tmp/qchem6011//Frg2/
Creating input file /tmp/qchem6011/Frg1.input
using default PutDataFrgm: nothing
calling putenv with: QCSCRATCH=/tmp/qchem6011/ 
calling putenv with: QCLOCALSCR=/tmp/qchem6011/ 
Spawning Job For Fragment 0
                  Welcome to Q-Chem
     A Quantum Leap Into The Future Of Chemistry


 Q-Chem 5.2, Q-Chem, Inc., Pleasanton, CA (2019)

 License issued to: National Energy Research Scientific Computing Center

 Yihan Shao,  Zhengting Gan,  E. Epifanovsky,  A. T. B. Gilbert,  M. Wormit,  
 J. Kussmann,  A. W. Lange,  A. Behn,  Jia Deng,  Xintian Feng,  D. Ghosh,  
 M. Goldey,  P. R. Horn,  L. D. Jacobson,  I. Kaliman,  T. Kus,  A. Landau,  
 Jie Liu,  E. I. Proynov,  R. M. Richard,  R. P. Steele,  E. J. Sundstrom,  
 H. L. Woodcock III,  P. M. Zimmerman,  D. Zuev,  B. Albrecht,  E. Alguire,  
 S. A. Baeppler,  D. Barton,  Z. Benda,  Y. A. Bernard,  E. J. Berquist,  
 K. B. Bravaya,  H. Burton,  D. Casanova,  Chun-Min Chang,  Yunqing Chen,  
 A. Chien,  K. D. Closser,  M. P. Coons,  S. Coriani,  S. Dasgupta,  
 A. L. Dempwolff,  M. Diedenhofen,  Hainam Do,  R. G. Edgar,  Po-Tung Fang,  
 S. Faraji,  S. Fatehi,  Qingguo Feng,  K. D. Fenk,  J. Fosso-Tande,  
 J. Gayvert,  Qinghui Ge,  A. Ghysels,  G. Gidofalvi,  J. Gomes,  
 J. Gonthier,  A. Gunina,  D. Hait,  M. W. D. Hanson-Heine,  
 P. H. P. Harbach,  A. W. Hauser,  M. F. Herbst,  J. E. Herr,  
 E. G. Hohenstein,  Z. C. Holden,  Kerwin Hui,  B. C. Huynh,  T.-C. Jagau,  
 Hyunjun Ji,  B. Kaduk,  K. Khistyaev,  Jaehoon Kim,  P. Klunzinger,  K. Koh,  
 D. Kosenkov,  L. Koulias,  T. Kowalczyk,  C. M. Krauter,  A. Kunitsa,  
 Ka Un Lao,  A. Laurent,  K. V. Lawler,  Joonho Lee,  D. Lefrancois,  
 S. Lehtola,  D. S. Levine,  Yi-Pei Li,  You-Sheng Lin,  Fenglai Liu,  
 E. Livshits,  A. Luenser,  P. Manohar,  E. Mansoor,  S. F. Manzer,  
 Shan-Ping Mao,  Yuezhi Mao,  N. Mardirossian,  A. V. Marenich,  
 T. Markovich,  L. A. Martinez-Martinez,  S. A. Maurer,  N. J. Mayhall,  
 S. C. McKenzie,  J.-M. Mewes,  P. Morgante,  A. F. Morrison,  
 J. W. Mullinax,  K. Nanda,  T. S. Nguyen-Beck,  R. Olivares-Amaya,  
 J. A. Parkhill,  Zheng Pei,  T. M. Perrine,  F. Plasser,  P. Pokhilko,  
 S. Prager,  A. Prociuk,  E. Ramos,  D. R. Rehn,  F. Rob,  M. Scheurer,  
 M. Schneider,  N. Sergueev,  S. M. Sharada,  S. Sharma,  D. W. Small,  
 T. Stauch,  T. Stein,  Yu-Chuan Su,  A. J. W. Thom,  A. Tkatchenko,  
 T. Tsuchimochi,  N. M. Tubman,  L. Vogt,  M. L. Vidal,  O. Vydrov,  
 M. A. Watson,  J. Wenzel,  M. de Wergifosse,  T. A. Wesolowski,  A. White,  
 J. Witte,  A. Yamada,  Jun Yang,  K. Yao,  S. Yeganeh,  S. R. Yost,  
 Zhi-Qiang You,  A. Zech,  Igor Ying Zhang,  Xing Zhang,  Yan Zhao,  
 Ying Zhu,  B. R. Brooks,  G. K. L. Chan,  C. J. Cramer,  M. S. Gordon,  
 W. J. Hehre,  A. Klamt,  M. W. Schmidt,  C. D. Sherrill,  D. G. Truhlar,  
 A. Aspuru-Guzik,  R. Baer,  A. T. Bell,  N. A. Besley,  Jeng-Da Chai,  
 A. E. DePrince, III,  R. A. DiStasio Jr.,  A. Dreuw,  B. D. Dunietz,  
 T. R. Furlani,  Chao-Ping Hsu,  Yousung Jung,  Jing Kong,  D. S. Lambrecht,  
 WanZhen Liang,  C. Ochsenfeld,  V. A. Rassolov,  L. V. Slipchenko,  
 J. E. Subotnik,  T. Van Voorhis,  J. M. Herbert,  A. I. Krylov,  
 P. M. W. Gill,  M. Head-Gordon

 Contributors to earlier versions of Q-Chem not listed above: 
 R. D. Adamson,  B. Austin,  J. Baker,  G. J. O. Beran,  K. Brandhorst,  
 S. T. Brown,  E. F. C. Byrd,  A. K. Chakraborty,  C.-L. Cheng,  
 Siu Hung Chien,  D. M. Chipman,  D. L. Crittenden,  H. Dachsel,  
 R. J. Doerksen,  A. D. Dutoi,  L. Fusti-Molnar,  W. A. Goddard III,  
 A. Golubeva-Zadorozhnaya,  S. R. Gwaltney,  G. Hawkins,  A. Heyden,  
 S. Hirata,  G. Kedziora,  F. J. Keil,  C. Kelley,  Jihan Kim,  R. A. King,  
 R. Z. Khaliullin,  P. P. Korambath,  W. Kurlancheek,  A. M. Lee,  M. S. Lee,  
 S. V. Levchenko,  Ching Yeh Lin,  D. Liotard,  R. C. Lochan,  I. Lotan,  
 P. E. Maslen,  N. Nair,  D. P. O'Neill,  D. Neuhauser,  E. Neuscamman,  
 C. M. Oana,  R. Olson,  B. Peters,  R. Peverati,  P. A. Pieniazek,  
 Y. M. Rhee,  J. Ritchie,  M. A. Rohrdanz,  E. Rosta,  N. J. Russ,  
 H. F. Schaefer III,  N. E. Schultz,  N. Shenvi,  A. C. Simmonett,  A. Sodt,  
 D. Stuck,  K. S. Thanthiriwatte,  V. Vanovschi,  Tao Wang,  A. Warshel,  
 C. F. Williams,  Q. Wu,  X. Xu,  W. Zhang

 Please cite Q-Chem as follows:
 Y. Shao et al., Mol. Phys. 113, 184-215 (2015)
 DOI: 10.1080/00268976.2014.952696

 Q-Chem 5.2.0 for Intel X86 EM64T Linux

 Parts of Q-Chem use Armadillo 8.300.2 (Tropical Shenanigans).
 http://arma.sourceforge.net/

 Q-Chem begins on Sun Sep 26 02:13:16 2021  

Host: cori01
0

     Scratch files written to /tmp/qchem6011//Frg1//
 May1019 |scratch|qcdevops|jenkins|workspace|build_RNUM -1
Processing $rem in /global/common/cori/software/qchem/5.2/config/preferences:
	 MEM_TOTAL  96000 
NAlpha2: 40
NElect   40
Mult     1
Symmetry turned off for PCM/SM12/SMD calculation

Checking the input file for inconsistencies... 	...done.

--------------------------------------------------------------
User input:
--------------------------------------------------------------
$molecule
1 1
 6	-0.4244218467	2.5770318049	0.5436813780
 6	-1.3774218467	0.5600318049	1.6276813780
 7	-0.6614218467	1.1380318049	0.6786813780
 7	-1.9954218467	1.2860318049	2.5376813780
 7	-1.4964218467	-0.7529681951	1.6406813780
 1	-0.1354218467	0.5160318049	0.0646813780
 1	0.3295781533	2.8930318049	1.2676813780
 1	-1.3464218467	3.1380318049	0.7086813780
 1	-1.9174218467	2.2870318049	2.5076813780
 1	-2.5634218467	0.8450318049	3.2416813780
 1	-0.9974218467	-1.2979681951	0.9546813780
 1	-2.0534218467	-1.2109681951	2.3426813780
 1	-0.0668798467	2.7870518049	-0.4751686220
$end
$rem
EDA2		1
METHOD		WB97X-V
BASIS		DEF2-TZVPD
XC_GRID		000099000590
NL_GRID		1
UNRESTRICTED		FALSE
MAX_SCF_CYCLES		200
SYMMETRY		FALSE
SYM_IGNORE		TRUE
BASIS_LIN_DEP_THRESH		6
THRESH		14
SCF_CONVERGENCE		8
SCF_PRINT_FRGM		TRUE
SOLVENT_METHOD		PCM
!required keywords
JOBTYPE		SP
SYM_IGNORE		TRUE
SUBSYSTEM		TRUE
GEN_SCFMAN		TRUE
CHILD_INSTRUCTION		2
SYM_IGNORE		TRUE
SCFMI		0
RI_K 0		
PARI_K 0		
MIN_PARI_K 0		
IARI_K 0		
OCC_RI_K 0		
PURECART		1111
MEM_STATIC		2000
MEM_TOTAL		96000
GUI		0
CHILD_MP		1
CHILD_MP_ORDERS		232
FRZ_RELAX		0
FRZ_RELAX_METHOD		0
EDA_CLS_ELEC		1
EDA_CLS_DISP		0
FRZ_ORTHO_DECOMP		1
EDA2		FALSE
FRGM_METHOD		FALSE
CIS_N_ROOTS  0
LOCAL_CIS    0
CIS_RLX_DNS  1
$end
$pcm
THEORY                  CPCM
METHOD                  SWIG
SOLVER                  INVERSION
RADII                   UFF
HPOINTS                 302
HEAVYPOINTS             302
PRINTLEVEL              0
$end
$solvent
DIELECTRIC              78.390000 ! water
$end
--------------------------------------------------------------
 ----------------------------------------------------------------
             Standard Nuclear Orientation (Angstroms)
    I     Atom           X                Y                Z
 ----------------------------------------------------------------
    1      C      -0.4244218467     2.5770318049     0.5436813780
    2      C      -1.3774218467     0.5600318049     1.6276813780
    3      N      -0.6614218467     1.1380318049     0.6786813780
    4      N      -1.9954218467     1.2860318049     2.5376813780
    5      N      -1.4964218467    -0.7529681951     1.6406813780
    6      H      -0.1354218467     0.5160318049     0.0646813780
    7      H       0.3295781533     2.8930318049     1.2676813780
    8      H      -1.3464218467     3.1380318049     0.7086813780
    9      H      -1.9174218467     2.2870318049     2.5076813780
   10      H      -2.5634218467     0.8450318049     3.2416813780
   11      H      -0.9974218467    -1.2979681951     0.9546813780
   12      H      -2.0534218467    -1.2109681951     2.3426813780
   13      H      -0.0668798467     2.7870518049    -0.4751686220
 ----------------------------------------------------------------
 Nuclear Repulsion Energy =         194.39525181 hartrees
 There are       20 alpha and       20 beta electrons
 Requested basis set is def2-TZVPD
 There are 105 shells and 257 basis functions

 Total QAlloc Memory Limit  96000 MB
 Mega-Array Size      1956 MB
 MEM_STATIC part      2000 MB
 Discretize the solute cavity surface with Lebedev spheres
	Using 302 Lebedev grid points for each H atom
	Using 302 Lebedev grid points for other atoms
	Atomic van der Waals radii will be scaled by 1.20
 Remove points where switching function is < 1.0e-08
 Keep 1566 surface tesserae and discard 2360 interior tesserae
 Molecular Surface Area = 152.692 Angst**2

                       Distance Matrix (Angstroms)
             C (  1)   C (  2)   N (  3)   N (  4)   N (  5)   H (  6)
   C (  2)  2.480233
   N (  3)  1.464621  1.321870
   N (  4)  2.847939  1.317991  2.292889
   N (  5)  3.666264  1.318446  2.280033  2.282790
   H (  6)  2.135576  1.996865  1.020076  3.188766  2.438536
   H (  7)  1.092038  2.913132  2.099768  3.098544  4.094719  2.704360
   H (  8)  1.091801  2.737080  2.114267  2.682601  4.003874  2.959078
   H (  9)  2.484038  2.012096  2.498595  1.004482  3.189127  3.504314
   H ( 10)  3.854134  2.023071  3.205062  1.006340  2.501059  4.012076
   H ( 11)  3.938639  2.012335  2.474504  3.190447  1.008277  2.196757
   H ( 12)  4.498776  2.025992  3.197555  2.505274  1.006388  3.442461
   H ( 13)  1.100000  3.331534  2.098599  3.879381  4.364877  2.335309
             H (  7)   H (  8)   H (  9)   H ( 10)   H ( 11)   H ( 12)
   H (  8)  1.783671
   H (  9)  2.637014  2.070421
   H ( 10)  4.057145  3.626986  1.742250
   H ( 11)  4.407196  4.456502  4.013781  3.503594
   H ( 12)  4.865915  4.699320  3.504529  2.301182  1.746210
   H ( 13)  1.790513  1.778178  3.545690  4.880485  4.426937  5.279279

 
 A cutoff of  1.0D-14 yielded   5442 shell pairs
 There are     33178 function pairs (     41514 Cartesian)
 Smallest overlap matrix eigenvalue = 1.61E-05

 Scale SEOQF with 1.000000e-01/1.000000e-01/1.000000e-01

 Standard Electronic Orientation quadrupole field applied
 Nucleus-field energy     =    -0.0000000018 hartrees
 Guess from superposition of atomic densities
 Warning:  Energy on first SCF cycle will be non-variational
 SAD guess density has 40.388232 electrons

 -----------------------------------------------------------------------
  General SCF calculation program by
  Eric Jon Sundstrom, Paul Horn, Yuezhi Mao, Dmitri Zuev, Alec White,
  David Stuck, Shaama M.S., Shane Yost, Joonho Lee, David Small,
  Daniel Levine, Susi Lehtola, Hugh Burton, Evgeny Epifanovsky
 -----------------------------------------------------------------------
 Exchange:     0.1670 Hartree-Fock + 1.0000 wB97X-V + LR-HF
 Correlation:  1.0000 wB97X-V
 Using Euler-Maclaurin-Lebedev (99,590) quadrature formula
 Nonlocal Correlation:  VV10 with C = 0.0100 and b = 6.00 and scale = 1.00000
 Grid used for NLC:  SG-1 standard quadrature
Energy prior to optimization (guess energy) = -244.726662687136
Begin Timing: Total SCF Calculation
begin iterations for algorithm: DIIS         
the SCF tolerance is set to 1.00e-08
    1    -244.7266626871      7.93e-03     00000 
    2    -244.9428689815      6.21e-03     00000 
    3    -245.1805891425      3.06e-04     00000 
    4    -245.1811863049      1.77e-04     00000 
    5    -245.1813971429      3.51e-05     00000 
    6    -245.1814062168      1.35e-05     00000 
    7    -245.1814077672      2.21e-06     00000 
    8    -245.1814078451      7.80e-07     00000 
    9    -245.1814078556      3.12e-07     00000 
   10    -245.1814078573      8.73e-08     00000 
   11    -245.1814078575      3.69e-08     00000 
   12    -245.1814078575      1.09e-08     00000 
   13    -245.1814078575      1.51e-09     00000 Convergence criterion met
Timing for Total SCF: 861.00s (wall), 1705.33s (cpu)

************** Final PCM Free Energy Summary **************
 G_electrostatic  =      -0.08154983 hartree =     -51.17329239 kcal/mol
 G_cavitation     =       0.00000000 hartree =       0.00000000 kcal/mol
 G_dispersion     =       0.00000000 hartree =       0.00000000 kcal/mol
 G_repulsion      =       0.00000000 hartree =       0.00000000 kcal/mol
 --------------------------------------------------
 Non-electrostatic Free Energy =       0.00000000 hartree =       0.00000000 kcal/mol
 Total                         =      -0.08154983 hartree =     -51.17329239 kcal/mol
 --------------------------------------------------
 SCF Energy (H0 + V/2)                       =    -245.18140786 
 Solute Internal Energy (H0)                 =    -245.09985802 
 Total Free Energy (H0 + V/2 + non-elec)     =    -245.18140786 hartree
                                             = -153853.65554369 kcal/mol
***********************************************************

E_pcm = -0.0815498327
Multipole orders to be included
        2
        3
computing dipole RHS
computing quadrupole RHS
total number of RHS in solve_reponses: 8
RHS batch sizes
        8
Beginning Block Conjugate Gradient Iterations. Batch Number: 0
computing hessian-vector products by finite difference
              1      4.50e-01     00000 Conjugate Gradient Iteration
computing hessian-vector products by finite difference
              2      1.71e-01     00000 Conjugate Gradient Iteration
computing hessian-vector products by finite difference
              3      4.67e-02     00000 Conjugate Gradient Iteration
computing hessian-vector products by finite difference
              4      1.21e-02     00000 Conjugate Gradient Iteration
computing hessian-vector products by finite difference
              5      1.57e-03     00000 Conjugate Gradient Iteration
computing hessian-vector products by finite difference
              6      2.50e-04     00000 Conjugate Gradient Iteration
computing hessian-vector products by finite difference
              7      3.32e-05     00000 Conjugate Gradient Iteration
computing hessian-vector products by finite difference
              8      4.37e-06     00000 Conjugate Gradient Iteration
computing hessian-vector products by finite difference
              9      6.94e-07     00000 Conjugate Gradient Iteration
computing hessian-vector products by finite difference
             10      1.87e-07     00000 Conjugate Gradient Iteration
computing hessian-vector products by finite difference
             11      3.02e-08     00000 Conjugate Gradient Iteration
computing hessian-vector products by finite difference
             12      3.88e-09     00000 CG Converged
batch 0 complete
Done Calculating Responses
TESTING ORTHOGONALIZATION OF MULTIPOLE BASIS
Multipole virts passed orthogonality test
Virts Per Order
           60
          100
 
 --------------------------------------------------------------
 
                    Orbital Energies (a.u.)
 --------------------------------------------------------------
 
 Alpha MOs
 -- Occupied --
-14.4820 -14.4765 -14.4738 -10.4483 -10.3315  -1.2021  -1.0825  -1.0728
 -0.8803  -0.7936  -0.7524  -0.7172  -0.6473  -0.6428  -0.6221  -0.5962
 -0.5525  -0.5340  -0.4264  -0.4019
 -- Virtual --
  0.0481   0.0752   0.0810   0.0863   0.1132   0.1152   0.1238   0.1412
  0.1587   0.1651   0.1790   0.1863   0.1916   0.1971   0.2090   0.2222
  0.2312   0.2346   0.2401   0.2566   0.2648   0.2719   0.2836   0.2895
  0.2976   0.3060   0.3114   0.3144   0.3244   0.3300   0.3377   0.3497
  0.3524   0.3623   0.3654   0.3841   0.3965   0.3980   0.4035   0.4173
  0.4308   0.4367   0.4443   0.4471   0.4615   0.4633   0.4776   0.4854
  0.4877   0.4942   0.5037   0.5077   0.5168   0.5217   0.5352   0.5367
  0.5443   0.5588   0.5672   0.5761   0.5936   0.6061   0.6249   0.6381
  0.6494   0.6584   0.6643   0.6859   0.7017   0.7142   0.7366   0.7464
  0.7745   0.7819   0.7979   0.8123   0.8210   0.8266   0.8421   0.8508
  0.8607   0.8712   0.8836   0.9025   0.9178   0.9590   0.9693   0.9817
  1.0163   1.0489   1.0584   1.0751   1.0911   1.1002   1.1111   1.1250
  1.1328   1.1581   1.2014   1.2326   1.2462   1.3104   1.3433   1.3925
  1.4018   1.4201   1.4512   1.4788   1.5223   1.5471   1.6051   1.6484
  1.6576   1.6995   1.7275   1.7728   1.8169   1.8385   1.8475   1.8622
  1.8992   1.9040   1.9074   1.9601   1.9765   1.9880   2.0095   2.0413
  2.0679   2.1047   2.1351   2.1755   2.1913   2.2306   2.2378   2.2795
  2.3031   2.3388   2.3648   2.3990   2.4094   2.4415   2.4738   2.5069
  2.5387   2.5550   2.6032   2.6040   2.6267   2.6448   2.6826   2.7155
  2.7670   2.7918   2.8130   2.8656   2.8744   2.8882   2.9230   2.9291
  3.0179   3.1034   3.1112   3.1289   3.1562   3.1757   3.2005   3.2261
  3.2421   3.2680   3.2838   3.2994   3.3471   3.3813   3.3871   3.4187
  3.4463   3.4893   3.5109   3.5743   3.5836   3.6234   3.6575   3.7288
  3.7885   3.8537   3.9214   3.9725   4.0325   4.1340   4.1471   4.2088
  4.2782   4.2812   4.3105   4.3319   4.3891   4.4525   4.5424   4.5923
  4.6502   4.8168   4.8413   4.8441   4.9149   4.9739   5.0039   5.0303
  5.0927   5.0952   5.1124   5.1418   5.1702   5.1962   5.2559   5.3417
  5.3667   5.3862   5.4194   5.4272   5.4702   5.4875   5.5621   5.6321
  5.6864   5.7648   5.7874   5.8743   6.1163   6.1877   6.3619   6.4644
 22.6410  23.6485  32.3108  32.4281  32.8030
 --------------------------------------------------------------
 
          Ground-State Mulliken Net Atomic Charges

     Atom                 Charge (a.u.)
  ----------------------------------------
      1 C                    -0.806992
      2 C                     0.572207
      3 N                    -0.096855
      4 N                    -0.236454
      5 N                    -0.265057
      6 H                     0.239820
      7 H                     0.295178
      8 H                     0.293980
      9 H                     0.165563
     10 H                     0.195717
     11 H                     0.197408
     12 H                     0.195502
     13 H                     0.249983
  ----------------------------------------
  Sum of atomic charges =     1.000000

 -----------------------------------------------------------------
                    Cartesian Multipole Moments
 -----------------------------------------------------------------
    Charge (ESU x 10^10)
                 4.8032
    Dipole Moment (Debye)
         X      -6.1733      Y       3.2483      Z       7.5073
       Tot      10.2480
    Quadrupole Moments (Debye-Ang)
        XX     -17.7558     XY      -2.7538     YY     -13.1025
        XZ     -17.8817     YZ       4.3668     ZZ      -9.9056
    Octopole Moments (Debye-Ang^2)
       XXX      79.3824    XXY     -24.9219    XYY      15.6056
       YYY     -60.6908    XXZ      -0.2511    XYZ      -8.5877
       YYZ     -18.4616    XZZ     -16.6944    YZZ     -17.9122
       ZZZ     -68.3234
    Hexadecapole Moments (Debye-Ang^3)
      XXXX    -297.2624   XXXY      62.0701   XXYY    -103.4857
      XYYY      41.2521   YYYY    -372.9382   XXXZ      95.0452
      XXYZ     -11.8719   XYYZ      20.4343   YYYZ     -55.3277
      XXZZ     -11.2318   XYZZ      -1.0619   YYZZ    -108.5005
      XZZZ      32.1178   YZZZ     -60.6937   ZZZZ    -325.3317
 -----------------------------------------------------------------
Archival summary:
1\1\nid00524\SP\ProcedureUnspecified\BasisUnspecified\328(1+,1)\meili\SunSep2606:25:082021SunSep2606:25:082021\0\\#,ProcedureUnspecified,BasisUnspecified,\\1,1\C\N,1,1.31799\H,2,1.00448,1,119.465\H,2,1.00634,1,120.416,3,178.209,0\N,1,1.31845,2,119.963,3,-178.548,0\H,5,1.00639,1,120.667,2,-0.238086,0\H,5,1.00828,1,119.138,2,-178.286,0\N,1,1.32187,2,120.584,3,-0.144703,0\H,8,1.02008,1,116.411,2,174.092,0\C,8,1.46462,1,125.692,2,2.43825,0\H,10,1.0918,8,110.748,1,-43.8268,0\H,10,1.09204,8,109.568,1,77.099,0\H,10,1.1,8,108.999,1,-163.051,0\\\@

 Total job time:  15114.33s(wall), 29940.11s(cpu) 
 Sun Sep 26 06:25:10 2021

        *************************************************************
        *                                                           *
        *  Thank you very much for using Q-Chem.  Have a nice day.  *
        *                                                           *
        *************************************************************


Done Job For Fragment 0
calling putenv with: QCSCRATCH=/global/cscratch1/sd/meili 
calling putenv with: QCLOCALSCR=/tmp 
calling putenv with: QCTHREADS=32 
Creating input file /tmp/qchem6011/Frg2.input
using default PutDataFrgm: nothing
calling putenv with: QCSCRATCH=/tmp/qchem6011/ 
calling putenv with: QCLOCALSCR=/tmp/qchem6011/ 
Spawning Job For Fragment 1
                  Welcome to Q-Chem
     A Quantum Leap Into The Future Of Chemistry


 Q-Chem 5.2, Q-Chem, Inc., Pleasanton, CA (2019)

 License issued to: National Energy Research Scientific Computing Center

 Yihan Shao,  Zhengting Gan,  E. Epifanovsky,  A. T. B. Gilbert,  M. Wormit,  
 J. Kussmann,  A. W. Lange,  A. Behn,  Jia Deng,  Xintian Feng,  D. Ghosh,  
 M. Goldey,  P. R. Horn,  L. D. Jacobson,  I. Kaliman,  T. Kus,  A. Landau,  
 Jie Liu,  E. I. Proynov,  R. M. Richard,  R. P. Steele,  E. J. Sundstrom,  
 H. L. Woodcock III,  P. M. Zimmerman,  D. Zuev,  B. Albrecht,  E. Alguire,  
 S. A. Baeppler,  D. Barton,  Z. Benda,  Y. A. Bernard,  E. J. Berquist,  
 K. B. Bravaya,  H. Burton,  D. Casanova,  Chun-Min Chang,  Yunqing Chen,  
 A. Chien,  K. D. Closser,  M. P. Coons,  S. Coriani,  S. Dasgupta,  
 A. L. Dempwolff,  M. Diedenhofen,  Hainam Do,  R. G. Edgar,  Po-Tung Fang,  
 S. Faraji,  S. Fatehi,  Qingguo Feng,  K. D. Fenk,  J. Fosso-Tande,  
 J. Gayvert,  Qinghui Ge,  A. Ghysels,  G. Gidofalvi,  J. Gomes,  
 J. Gonthier,  A. Gunina,  D. Hait,  M. W. D. Hanson-Heine,  
 P. H. P. Harbach,  A. W. Hauser,  M. F. Herbst,  J. E. Herr,  
 E. G. Hohenstein,  Z. C. Holden,  Kerwin Hui,  B. C. Huynh,  T.-C. Jagau,  
 Hyunjun Ji,  B. Kaduk,  K. Khistyaev,  Jaehoon Kim,  P. Klunzinger,  K. Koh,  
 D. Kosenkov,  L. Koulias,  T. Kowalczyk,  C. M. Krauter,  A. Kunitsa,  
 Ka Un Lao,  A. Laurent,  K. V. Lawler,  Joonho Lee,  D. Lefrancois,  
 S. Lehtola,  D. S. Levine,  Yi-Pei Li,  You-Sheng Lin,  Fenglai Liu,  
 E. Livshits,  A. Luenser,  P. Manohar,  E. Mansoor,  S. F. Manzer,  
 Shan-Ping Mao,  Yuezhi Mao,  N. Mardirossian,  A. V. Marenich,  
 T. Markovich,  L. A. Martinez-Martinez,  S. A. Maurer,  N. J. Mayhall,  
 S. C. McKenzie,  J.-M. Mewes,  P. Morgante,  A. F. Morrison,  
 J. W. Mullinax,  K. Nanda,  T. S. Nguyen-Beck,  R. Olivares-Amaya,  
 J. A. Parkhill,  Zheng Pei,  T. M. Perrine,  F. Plasser,  P. Pokhilko,  
 S. Prager,  A. Prociuk,  E. Ramos,  D. R. Rehn,  F. Rob,  M. Scheurer,  
 M. Schneider,  N. Sergueev,  S. M. Sharada,  S. Sharma,  D. W. Small,  
 T. Stauch,  T. Stein,  Yu-Chuan Su,  A. J. W. Thom,  A. Tkatchenko,  
 T. Tsuchimochi,  N. M. Tubman,  L. Vogt,  M. L. Vidal,  O. Vydrov,  
 M. A. Watson,  J. Wenzel,  M. de Wergifosse,  T. A. Wesolowski,  A. White,  
 J. Witte,  A. Yamada,  Jun Yang,  K. Yao,  S. Yeganeh,  S. R. Yost,  
 Zhi-Qiang You,  A. Zech,  Igor Ying Zhang,  Xing Zhang,  Yan Zhao,  
 Ying Zhu,  B. R. Brooks,  G. K. L. Chan,  C. J. Cramer,  M. S. Gordon,  
 W. J. Hehre,  A. Klamt,  M. W. Schmidt,  C. D. Sherrill,  D. G. Truhlar,  
 A. Aspuru-Guzik,  R. Baer,  A. T. Bell,  N. A. Besley,  Jeng-Da Chai,  
 A. E. DePrince, III,  R. A. DiStasio Jr.,  A. Dreuw,  B. D. Dunietz,  
 T. R. Furlani,  Chao-Ping Hsu,  Yousung Jung,  Jing Kong,  D. S. Lambrecht,  
 WanZhen Liang,  C. Ochsenfeld,  V. A. Rassolov,  L. V. Slipchenko,  
 J. E. Subotnik,  T. Van Voorhis,  J. M. Herbert,  A. I. Krylov,  
 P. M. W. Gill,  M. Head-Gordon

 Contributors to earlier versions of Q-Chem not listed above: 
 R. D. Adamson,  B. Austin,  J. Baker,  G. J. O. Beran,  K. Brandhorst,  
 S. T. Brown,  E. F. C. Byrd,  A. K. Chakraborty,  C.-L. Cheng,  
 Siu Hung Chien,  D. M. Chipman,  D. L. Crittenden,  H. Dachsel,  
 R. J. Doerksen,  A. D. Dutoi,  L. Fusti-Molnar,  W. A. Goddard III,  
 A. Golubeva-Zadorozhnaya,  S. R. Gwaltney,  G. Hawkins,  A. Heyden,  
 S. Hirata,  G. Kedziora,  F. J. Keil,  C. Kelley,  Jihan Kim,  R. A. King,  
 R. Z. Khaliullin,  P. P. Korambath,  W. Kurlancheek,  A. M. Lee,  M. S. Lee,  
 S. V. Levchenko,  Ching Yeh Lin,  D. Liotard,  R. C. Lochan,  I. Lotan,  
 P. E. Maslen,  N. Nair,  D. P. O'Neill,  D. Neuhauser,  E. Neuscamman,  
 C. M. Oana,  R. Olson,  B. Peters,  R. Peverati,  P. A. Pieniazek,  
 Y. M. Rhee,  J. Ritchie,  M. A. Rohrdanz,  E. Rosta,  N. J. Russ,  
 H. F. Schaefer III,  N. E. Schultz,  N. Shenvi,  A. C. Simmonett,  A. Sodt,  
 D. Stuck,  K. S. Thanthiriwatte,  V. Vanovschi,  Tao Wang,  A. Warshel,  
 C. F. Williams,  Q. Wu,  X. Xu,  W. Zhang

 Please cite Q-Chem as follows:
 Y. Shao et al., Mol. Phys. 113, 184-215 (2015)
 DOI: 10.1080/00268976.2014.952696

 Q-Chem 5.2.0 for Intel X86 EM64T Linux

 Parts of Q-Chem use Armadillo 8.300.2 (Tropical Shenanigans).
 http://arma.sourceforge.net/

 Q-Chem begins on Sun Sep 26 06:25:14 2021  

Host: cori01
0

     Scratch files written to /tmp/qchem6011//Frg2//
 May1019 |scratch|qcdevops|jenkins|workspace|build_RNUM -1
Processing $rem in /global/common/cori/software/qchem/5.2/config/preferences:
	 MEM_TOTAL  96000 
NAlpha2: 32
NElect   32
Mult     1
Symmetry turned off for PCM/SM12/SMD calculation

Checking the input file for inconsistencies... 	...done.

--------------------------------------------------------------
User input:
--------------------------------------------------------------
$molecule
-1 1
 6	0.7175781533	-1.2809681951	-2.9933186220
 6	1.5485781533	-1.1819681951	-1.7133186220
 8	1.0855781533	-0.5939681951	-0.7153186220
 8	2.6545781533	-1.7509681951	-1.6763186220
 1	0.1655781533	-2.2229681951	-2.9983186220
 1	1.4055781533	-1.3069681951	-3.8403186220
 1	-0.0008828467	-0.4569981951	-3.1153386220
$end
$rem
EDA2		1
METHOD		WB97X-V
BASIS		DEF2-TZVPD
XC_GRID		000099000590
NL_GRID		1
UNRESTRICTED		FALSE
MAX_SCF_CYCLES		200
SYMMETRY		FALSE
SYM_IGNORE		TRUE
BASIS_LIN_DEP_THRESH		6
THRESH		14
SCF_CONVERGENCE		8
SCF_PRINT_FRGM		TRUE
SOLVENT_METHOD		PCM
!required keywords
JOBTYPE		SP
SYM_IGNORE		TRUE
SUBSYSTEM		TRUE
GEN_SCFMAN		TRUE
CHILD_INSTRUCTION		2
SYM_IGNORE		TRUE
SCFMI		0
RI_K 0		
PARI_K 0		
MIN_PARI_K 0		
IARI_K 0		
OCC_RI_K 0		
PURECART		1111
MEM_STATIC		2000
MEM_TOTAL		96000
GUI		0
CHILD_MP		1
CHILD_MP_ORDERS		232
FRZ_RELAX		0
FRZ_RELAX_METHOD		0
EDA_CLS_ELEC		1
EDA_CLS_DISP		0
FRZ_ORTHO_DECOMP		1
EDA2		FALSE
FRGM_METHOD		FALSE
CIS_N_ROOTS  0
LOCAL_CIS    0
CIS_RLX_DNS  1
$end
$pcm
THEORY                  CPCM
METHOD                  SWIG
SOLVER                  INVERSION
RADII                   UFF
HPOINTS                 302
HEAVYPOINTS             302
PRINTLEVEL              0
$end
$solvent
DIELECTRIC              78.390000 ! water
$end
--------------------------------------------------------------
 ----------------------------------------------------------------
             Standard Nuclear Orientation (Angstroms)
    I     Atom           X                Y                Z
 ----------------------------------------------------------------
    1      C       0.7175781533    -1.2809681951    -2.9933186220
    2      C       1.5485781533    -1.1819681951    -1.7133186220
    3      O       1.0855781533    -0.5939681951    -0.7153186220
    4      O       2.6545781533    -1.7509681951    -1.6763186220
    5      H       0.1655781533    -2.2229681951    -2.9983186220
    6      H       1.4055781533    -1.3069681951    -3.8403186220
    7      H      -0.0008828467    -0.4569981951    -3.1153386220
 ----------------------------------------------------------------
 Nuclear Repulsion Energy =         112.77961643 hartrees
 There are       16 alpha and       16 beta electrons
 Requested basis set is def2-TZVPD
 There are 69 shells and 181 basis functions

 Total QAlloc Memory Limit  96000 MB
 Mega-Array Size      1956 MB
 MEM_STATIC part      2000 MB
 Discretize the solute cavity surface with Lebedev spheres
	Using 302 Lebedev grid points for each H atom
	Using 302 Lebedev grid points for other atoms
	Atomic van der Waals radii will be scaled by 1.20
 Remove points where switching function is < 1.0e-08
 Keep 1015 surface tesserae and discard 1099 interior tesserae
 Molecular Surface Area = 119.859 Angst**2

                       Distance Matrix (Angstroms)
             C (  1)   C (  2)   O (  3)   O (  4)   H (  5)   H (  6)
   C (  2)  1.529301
   O (  3)  2.407629  1.247444
   O (  4)  2.389008  1.244334  2.173461
   H (  5)  1.091830  2.155828  2.951632  2.857549
   H (  6)  1.091526  2.135463  3.221241  2.537722  1.756593
   H (  7)  1.100001  2.211803  2.638040  3.285820  1.777654  1.796156

 
 A cutoff of  1.0D-14 yielded   2391 shell pairs
 There are     16695 function pairs (     21491 Cartesian)
 Smallest overlap matrix eigenvalue = 1.72E-05

 Scale SEOQF with 1.000000e-01/1.000000e-01/1.000000e-01

 Standard Electronic Orientation quadrupole field applied
 Nucleus-field energy     =    -0.0000000073 hartrees
 Guess from superposition of atomic densities
 Warning:  Energy on first SCF cycle will be non-variational
 SAD guess density has 30.625312 electrons

 -----------------------------------------------------------------------
  General SCF calculation program by
  Eric Jon Sundstrom, Paul Horn, Yuezhi Mao, Dmitri Zuev, Alec White,
  David Stuck, Shaama M.S., Shane Yost, Joonho Lee, David Small,
  Daniel Levine, Susi Lehtola, Hugh Burton, Evgeny Epifanovsky
 -----------------------------------------------------------------------
 Exchange:     0.1670 Hartree-Fock + 1.0000 wB97X-V + LR-HF
 Correlation:  1.0000 wB97X-V
 Using Euler-Maclaurin-Lebedev (99,590) quadrature formula
 Nonlocal Correlation:  VV10 with C = 0.0100 and b = 6.00 and scale = 1.00000
 Grid used for NLC:  SG-1 standard quadrature
Energy prior to optimization (guess energy) = -227.761013129948
Begin Timing: Total SCF Calculation
begin iterations for algorithm: DIIS         
the SCF tolerance is set to 1.00e-08
    1    -227.7610131299      1.66e-02     00000 
    2    -225.5767998643      2.55e-02     00000 
    3    -228.5755013990      4.14e-03     00000 
    4    -228.6347230629      1.40e-03     00000 
    5    -228.6409521354      2.77e-04     00000 
    6    -228.6411846377      2.22e-04     00000 
    7    -228.6413186476      4.83e-05     00000 
    8    -228.6413293699      1.42e-05     00000 
    9    -228.6413307100      2.96e-06     00000 
   10    -228.6413308154      4.10e-07     00000 
   11    -228.6413308183      1.67e-07     00000 
   12    -228.6413308186      6.19e-08     00000 
   13    -228.6413308186      1.68e-08     00000 
   14    -228.6413308186      2.88e-09     00000 Convergence criterion met
Timing for Total SCF: 320.00s (wall), 628.18s (cpu)

************** Final PCM Free Energy Summary **************
 G_electrostatic  =      -0.10213572 hartree =     -64.09112909 kcal/mol
 G_cavitation     =       0.00000000 hartree =       0.00000000 kcal/mol
 G_dispersion     =       0.00000000 hartree =       0.00000000 kcal/mol
 G_repulsion      =       0.00000000 hartree =       0.00000000 kcal/mol
 --------------------------------------------------
 Non-electrostatic Free Energy =       0.00000000 hartree =       0.00000000 kcal/mol
 Total                         =      -0.10213572 hartree =     -64.09112909 kcal/mol
 --------------------------------------------------
 SCF Energy (H0 + V/2)                       =    -228.64133082 
 Solute Internal Energy (H0)                 =    -228.53919510 
 Total Free Energy (H0 + V/2 + non-elec)     =    -228.64133082 hartree
                                             = -143474.60055073 kcal/mol
***********************************************************

E_pcm = -0.1021357160
Multipole orders to be included
        2
        3
computing dipole RHS
computing quadrupole RHS
total number of RHS in solve_reponses: 8
RHS batch sizes
        8
Beginning Block Conjugate Gradient Iterations. Batch Number: 0
computing hessian-vector products by finite difference
              1      6.43e-01     00000 Conjugate Gradient Iteration
computing hessian-vector products by finite difference
              2      2.31e-01     00000 Conjugate Gradient Iteration
computing hessian-vector products by finite difference
              3      6.07e-02     00000 Conjugate Gradient Iteration
computing hessian-vector products by finite difference
              4      1.60e-02     00000 Conjugate Gradient Iteration
computing hessian-vector products by finite difference
              5      2.78e-03     00000 Conjugate Gradient Iteration
computing hessian-vector products by finite difference
              6      6.31e-04     00000 Conjugate Gradient Iteration
computing hessian-vector products by finite difference
              7      1.03e-04     00000 Conjugate Gradient Iteration
computing hessian-vector products by finite difference
              8      1.26e-05     00000 Conjugate Gradient Iteration
computing hessian-vector products by finite difference
              9      1.98e-06     00000 Conjugate Gradient Iteration
computing hessian-vector products by finite difference
             10      2.38e-07     00000 Conjugate Gradient Iteration
computing hessian-vector products by finite difference
             11      5.17e-08     00000 Conjugate Gradient Iteration
computing hessian-vector products by finite difference
             12      1.05e-08     00000 Conjugate Gradient Iteration
computing hessian-vector products by finite difference
             13      1.23e-09     00000 CG Converged
batch 0 complete
Done Calculating Responses
TESTING ORTHOGONALIZATION OF MULTIPOLE BASIS
Multipole virts passed orthogonality test
Virts Per Order
        48
        80
 
 --------------------------------------------------------------
 
                    Orbital Energies (a.u.)
 --------------------------------------------------------------
 
 Alpha MOs
 -- Occupied --
-19.1198 -19.1197 -10.3234 -10.2410  -1.1351  -1.0305  -0.8284  -0.5917
 -0.5281  -0.5186  -0.5153  -0.4636  -0.4439  -0.3279  -0.3272  -0.3059
 -- Virtual --
  0.0633   0.0954   0.0955   0.1054   0.1302   0.1404   0.1421   0.1461
  0.1699   0.1902   0.2004   0.2198   0.2335   0.2350   0.2632   0.2690
  0.2996   0.3097   0.3343   0.3491   0.3566   0.3662   0.3729   0.3747
  0.3870   0.4076   0.4243   0.4294   0.4324   0.4587   0.4724   0.4772
  0.4919   0.4979   0.5031   0.5228   0.5622   0.5817   0.6008   0.6119
  0.6405   0.6407   0.6470   0.6609   0.6706   0.6794   0.6953   0.7106
  0.7211   0.7366   0.7917   0.7971   0.8113   0.8236   0.8494   0.8576
  0.8686   0.9866   0.9968   1.0018   1.0102   1.0421   1.0715   1.1063
  1.1515   1.2310   1.2535   1.2674   1.2939   1.3156   1.3592   1.3910
  1.4401   1.5561   1.6065   1.7418   1.8284   1.8682   1.8893   1.9247
  1.9331   1.9532   1.9625   1.9724   2.0185   2.1110   2.1378   2.1840
  2.2094   2.2289   2.3141   2.3455   2.4229   2.4515   2.4865   2.5081
  2.5657   2.5991   2.6366   2.6565   2.7984   2.8268   2.8528   2.9180
  2.9480   3.0456   3.0845   3.1355   3.2237   3.2484   3.2770   3.2927
  3.3520   3.3573   3.3841   3.4109   3.4264   3.5314   3.5976   3.6039
  3.6126   3.6914   3.7307   3.7492   3.7562   3.8503   3.9621   4.0497
  4.0849   4.2021   4.3312   4.5871   4.6054   4.6665   4.7958   4.8198
  4.9871   5.3343   5.3609   5.3692   5.3799   5.4981   5.7160   5.8037
  5.8356   6.0554   6.2389   6.3543   6.3786   6.6285   6.6341   6.7395
  6.7520   6.7661   6.9612   6.9899   7.0486   7.2604   7.3384   7.4037
  7.4225  22.5812  23.7630  44.2248  44.3800
 --------------------------------------------------------------
 
          Ground-State Mulliken Net Atomic Charges

     Atom                 Charge (a.u.)
  ----------------------------------------
      1 C                    -0.413456
      2 C                     0.294031
      3 O                    -0.676259
      4 O                    -0.672217
      5 H                     0.134507
      6 H                     0.158908
      7 H                     0.174487
  ----------------------------------------
  Sum of atomic charges =    -1.000000

 -----------------------------------------------------------------
                    Cartesian Multipole Moments
 -----------------------------------------------------------------
    Charge (ESU x 10^10)
                -4.8032
    Dipole Moment (Debye)
         X      -9.8556      Y       5.5173      Z       4.3248
       Tot      12.0945
    Quadrupole Moments (Debye-Ang)
        XX     -51.1626     XY      15.4486     YY     -34.8108
        XZ      12.3501     YZ      -7.3624     ZZ     -31.3817
    Octopole Moments (Debye-Ang^2)
       XXX    -182.1543    XXY      75.4399    XYY     -65.9738
       YYY     110.0565    XXZ      85.0628    XYZ     -23.9200
       YYZ      62.1666    XZZ     -56.3561    YZZ      43.8855
       ZZZ     154.0920
    Hexadecapole Moments (Debye-Ang^3)
      XXXX    -651.4949   XXXY     277.1234   XXYY    -205.9476
      XYYY     207.8027   YYYY    -321.4567   XXXZ     300.3458
      XXYZ    -135.1775   XYYZ     112.0691   YYYZ    -216.4786
      XXZZ    -252.9189   XYZZ      91.8645   YYZZ    -190.1548
      XZZZ     219.6459   YZZZ    -214.2511   ZZZZ    -720.2081
 -----------------------------------------------------------------
Archival summary:
1\1\nid00524\SP\ProcedureUnspecified\BasisUnspecified\223(1-,1)\meili\SunSep2607:54:302021SunSep2607:54:302021\0\\#,ProcedureUnspecified,BasisUnspecified,\\-1,1\C\O,1,1.24433\O,1,1.24744,2,121.443\C,1,1.5293,2,118.572,3,-176.592,0\H,4,1.09153,1,107.97,2,-33.6236,0\H,4,1.09183,1,109.536,2,82.715,0\H,4,1.1,1,113.532,2,-155.972,0\\\@

 Total job time:  5358.14s(wall), 10450.72s(cpu) 
 Sun Sep 26 07:54:32 2021

        *************************************************************
        *                                                           *
        *  Thank you very much for using Q-Chem.  Have a nice day.  *
        *                                                           *
        *************************************************************


Done Job For Fragment 1
calling putenv with: QCSCRATCH=/global/cscratch1/sd/meili 
calling putenv with: QCLOCALSCR=/tmp 
calling putenv with: QCTHREADS=32 
Doing General SCFMI
 Exchange:     0.1670 Hartree-Fock + 1.0000 wB97X-V + LR-HF
 Correlation:  1.0000 wB97X-V
 Using Euler-Maclaurin-Lebedev (99,590) quadrature formula
 Nonlocal Correlation:  VV10 with C = 0.0100 and b = 6.00 and scale = 1.00000
 Grid used for NLC:  SG-1 standard quadrature
performing fock build before subrot guess so that all methods have access
Printing subrot_rss_gen Method Specification:
Occupied Subspace Method is 0
Virtual Subspace Method is 0
Energy of the unrelaxed supersystem initial determinant -473.769727020489
performing fock build before subrot guess so that all methods have access
Printing subrot_rss_gen Method Specification:
Occupied Subspace Method is 0
Virtual Subspace Method is 0
Energy of the unrelaxed supersystem initial determinant w/ solvent -473.834345582831
write pseudocanon occs and virts to disk
write pseudocanon orbital energies to disk
Tolerance of ortho_decomp_scf: 1.00e-06
GDM subspace size: 20
Beginning the Orthogonal Decomposition of the Initial Supersystem Wavefunction
    1    -473.5816375137      9.04e-02     ortho_decomp Preconditoned Steepest Descent
    2    -473.5929105258      2.14e-03     ortho_decomp BFGS Step
    3    -473.5929478027      1.96e-04     ortho_decomp BFGS Step
    4    -473.5929479068      8.82e-06     ortho_decomp BFGS Step
    5    -473.5929479072      3.01e-07     ortho_decomp 00000 Convergence criterion met
 Hartree-Fock
 Hartree-Fock
 Hartree-Fock
Doing General SCFMI
 Exchange:     0.1670 Hartree-Fock + 1.0000 wB97X-V + LR-HF
 Correlation:  1.0000 wB97X-V
 Using Euler-Maclaurin-Lebedev (99,590) quadrature formula
 Nonlocal Correlation:  VV10 with C = 0.0100 and b = 6.00 and scale = 1.00000
 Grid used for NLC:  SG-1 standard quadrature
performing fock build at end of subrot_r(subrot) constructor so that all methods have access
<S^2> of initial wavefunction before polarization iterations 0.0000000000
Beginning iterations for the determination of the polarized wavefunction
Energy prior to optimization (guess energy) = -473.834345582831
Begin Timing: Total SCF Calculation
begin iterations for algorithm: DIIS         
the SCF tolerance is set to 1.00e-08
    1    -473.8343455828      2.64e-04     00000 
    2    -473.8383241353      9.78e-05     00000 
    3    -473.8387535829      6.35e-05     00000 
    4    -473.8388845337      2.17e-05     00000 
    5    -473.8389053111      1.05e-05     00000 
    6    -473.8389096998      5.05e-06     00000 
    7    -473.8389106246      1.80e-06     00000 
    8    -473.8389107764      5.78e-07     00000 
    9    -473.8389107979      1.61e-07     00000 
   10    -473.8389107994      8.57e-08     00000 
   11    -473.8389107998      3.25e-08     00000 
   12    -473.8389107998      1.28e-08     00000 
   13    -473.8389107998      6.22e-09     00000 Convergence criterion met
write pseudocanon occs and virts to disk
write pseudocanon orbital energies to disk
Timing for Total SCF: 3243.00s (wall), 6451.37s (cpu)
<S^2> of polarized wavefunction after polarization iterations 0.0000000000
relaxing scfmi constraint to allow all rotations in the entire AO span
Doing General SCFMI
 Exchange:     0.1670 Hartree-Fock + 1.0000 wB97X-V + LR-HF
 Correlation:  1.0000 wB97X-V
 Using Euler-Maclaurin-Lebedev (99,590) quadrature formula
 Nonlocal Correlation:  VV10 with C = 0.0100 and b = 6.00 and scale = 1.00000
 Grid used for NLC:  SG-1 standard quadrature
performing fock build at end of subrot_r(subrot) constructor so that all methods have access
<S^2> of polarized wavefunction before ct-allowed iterations 0.0000000000
Beginning iterations for the determination of the CT-Allowed wavefunction
Energy prior to optimization (guess energy) = -473.838910799846
Begin Timing: Total SCF Calculation
begin iterations for algorithm: DIIS         
the SCF tolerance is set to 1.00e-08
    1    -473.8389107998      2.15e-04     00000 
    2    -473.8440607143      3.52e-05     00000 
    3    -473.8442707702      1.96e-05     00000 
    4    -473.8442956747      8.26e-06     00000 
    5    -473.8443017590      2.32e-06     00000 
    6    -473.8443022273      7.42e-07     00000 
    7    -473.8443023073      3.04e-07     00000 
    8    -473.8443023197      6.71e-08     00000 
    9    -473.8443023208      2.90e-08     00000 
   10    -473.8443023210      1.19e-08     00000 
   11    -473.8443023210      2.90e-09     00000 Convergence criterion met
write pseudocanon occs and virts to disk
write pseudocanon orbital energies to disk
Timing for Total SCF: 2744.00s (wall), 5459.08s (cpu)
<S^2> of ct_allowed wavefunction after ct-allowed iterations 0.0000000000

================================
        Results of EDA2         
================================
Basic EDA Quantities
--------------------
Fragment Energies (Ha):
1 -245.1814078575
2 -228.6413308186
--------------------
  E_prp (kJ/mol) = -0.0000
  E_sol (kJ/mol) = 312.6141
  E_frz (kJ/mol) = -343.0884
  E_pol (kJ/mol) = -11.9861
  E_vct (kJ/mol) = -14.1556
  E_int (kJ/mol) = -56.6160
--------------------


Initial Wavefunction Decomposition
--------------------
  --------------------
  Orthogonal Fragment Subspace Decomposition:
  --------------------
     E_elec   (ELEC)   (kJ/mol) = -427.1319
     E_pauli  (PAULI)  (kJ/mol) = 99.5352
     E_disp   (DISP)   (kJ/mol) = -15.4917
     --------------------
     Terms summing to E_pauli:
     --------------------
        E_kep_pauli       (kJ/mol) = 121.0507
        E_disp_free_pauli (kJ/mol) = -21.5154
  --------------------
  Classical Frozen Decomposition:
  --------------------
     E_cls_elec  (CLS ELEC)  (kJ/mol) = -388.3177
     E_cls_pauli (CLS PAULI) (kJ/mol) = 45.2293
    [E_mod_pauli (MOD PAULI) (kJ/mol) = 60.7210 (CLS PAULI - DISP from orthogonal decomposition) ]
  --------------------
--------------------

Simplified EDA Summary (kJ/mol)
--------------------
 PREPARATION     -0.0000
 SOLVATION       312.6141
 FROZEN          -327.5967      (does not include dispersion)
[PAULI           99.5352]     (if this is negligible, then frozen describes electrostatics)
 DISPERSION      -15.4917
 POLARIZATION    -11.9861
 CHARGE TRANSFER -14.1556
 TOTAL           -56.6160     (PRP + SOL + FRZ + DISP + POL + CT)
--------------------
 
 --------------------------------------------------------------
 
                    Orbital Energies (a.u.)
 --------------------------------------------------------------
 
 Alpha MOs
 -- Occupied --
-19.1400 -19.1310 -14.4662 -14.4614 -14.4540 -10.4332 -10.3383 -10.3211
-10.2474  -1.1873  -1.1508  -1.0649  -1.0614  -1.0466  -0.8671  -0.8359
 -0.7798  -0.7381  -0.7054  -0.6381  -0.6317  -0.6087  -0.6037  -0.5805
 -0.5427  -0.5394  -0.5371  -0.5255  -0.5148  -0.4736  -0.4548  -0.4167
 -0.3846  -0.3443  -0.3419  -0.3220
 -- Virtual --
  0.0501   0.0689   0.0758   0.0857   0.0968   0.0982   0.1041   0.1129
  0.1211   0.1260   0.1314   0.1344   0.1499   0.1545   0.1597   0.1679
  0.1738   0.1806   0.1869   0.1890   0.1939   0.2000   0.2042   0.2218
  0.2281   0.2323   0.2373   0.2411   0.2427   0.2526   0.2596   0.2613
  0.2732   0.2763   0.2827   0.2846   0.2964   0.2987   0.3074   0.3134
  0.3183   0.3214   0.3260   0.3292   0.3373   0.3397   0.3421   0.3493
  0.3541   0.3579   0.3645   0.3669   0.3740   0.3764   0.3835   0.3844
  0.3919   0.3976   0.4058   0.4101   0.4132   0.4238   0.4271   0.4337
  0.4408   0.4451   0.4508   0.4540   0.4595   0.4635   0.4678   0.4724
  0.4814   0.4853   0.4917   0.4947   0.5010   0.5042   0.5106   0.5172
  0.5188   0.5305   0.5316   0.5337   0.5421   0.5551   0.5559   0.5624
  0.5672   0.5720   0.5850   0.5960   0.6001   0.6026   0.6055   0.6121
  0.6220   0.6344   0.6413   0.6494   0.6523   0.6651   0.6723   0.6751
  0.6803   0.6861   0.6871   0.7023   0.7080   0.7169   0.7249   0.7255
  0.7359   0.7523   0.7563   0.7568   0.7736   0.7782   0.7790   0.7903
  0.7925   0.7984   0.8099   0.8157   0.8176   0.8333   0.8403   0.8481
  0.8581   0.8611   0.8699   0.8793   0.8954   0.9076   0.9133   0.9174
  0.9233   0.9332   0.9534   0.9649   0.9875   0.9946   1.0020   1.0045
  1.0347   1.0551   1.0630   1.0742   1.0824   1.0963   1.1028   1.1106
  1.1185   1.1267   1.1345   1.1507   1.1573   1.1796   1.1888   1.1978
  1.2253   1.2351   1.2547   1.2724   1.2805   1.2847   1.3024   1.3146
  1.3375   1.3476   1.3634   1.3734   1.4014   1.4100   1.4182   1.4320
  1.4633   1.4723   1.4792   1.5082   1.5422   1.5628   1.5813   1.6302
  1.6529   1.6888   1.6977   1.7206   1.7329   1.7581   1.7638   1.8251
  1.8538   1.8715   1.8768   1.8825   1.8938   1.9158   1.9200   1.9343
  1.9503   1.9518   1.9608   1.9703   1.9836   1.9935   2.0004   2.0049
  2.0155   2.0275   2.0514   2.0613   2.0867   2.1326   2.1328   2.1524
  2.1665   2.1971   2.2019   2.2119   2.2238   2.2329   2.2626   2.2763
  2.2876   2.3099   2.3235   2.3558   2.3990   2.4017   2.4161   2.4386
  2.4440   2.4574   2.4858   2.5223   2.5237   2.5420   2.5460   2.5676
  2.5809   2.5979   2.6285   2.6426   2.6485   2.6575   2.6613   2.6757
  2.6950   2.7082   2.7415   2.7577   2.8015   2.8346   2.8398   2.8438
  2.8632   2.8826   2.8963   2.9063   2.9180   2.9457   2.9596   2.9844
  2.9996   3.0858   3.0947   3.1126   3.1394   3.1443   3.1537   3.1658
  3.1937   3.2162   3.2250   3.2357   3.2531   3.2679   3.2716   3.3036
  3.3144   3.3187   3.3276   3.3380   3.3701   3.3856   3.4075   3.4109
  3.4194   3.4248   3.4436   3.4595   3.4812   3.4908   3.5172   3.5479
  3.5626   3.5946   3.6104   3.6201   3.6363   3.6590   3.6823   3.6984
  3.7241   3.7379   3.7619   3.7728   3.7877   3.8212   3.8673   3.8825
  3.9686   3.9754   3.9980   4.0621   4.0824   4.0856   4.1678   4.1779
  4.2265   4.2493   4.2978   4.3134   4.3313   4.3451   4.3574   4.4264
  4.4802   4.5785   4.5891   4.6137   4.6331   4.6734   4.6852   4.8139
  4.8407   4.8634   4.8682   4.9059   4.9658   4.9960   5.0126   5.0395
  5.0693   5.1155   5.1246   5.1376   5.1825   5.2079   5.2254   5.3020
  5.3181   5.3407   5.3596   5.3675   5.3775   5.3955   5.4106   5.4439
  5.4536   5.4862   5.5068   5.5270   5.5903   5.6708   5.7010   5.7357
  5.7954   5.8018   5.8204   5.8242   5.9101   6.0818   6.1671   6.2213
  6.2513   6.3694   6.3992   6.4283   6.4963   6.6458   6.6694   6.7562
  6.7641   6.7858   6.9777   7.0046   7.0517   7.2699   7.3523   7.4170
  7.4953  22.5939  22.6681  23.6998  23.8036  32.3524  32.5026  32.9680
 44.3719  44.4075
 --------------------------------------------------------------
 
          Ground-State Mulliken Net Atomic Charges

     Atom                 Charge (a.u.)
  ----------------------------------------
      1 C                    -0.859522
      2 C                     0.561709
      3 N                     0.100032
      4 N                    -0.232320
      5 N                    -0.205605
      6 H                     0.142374
      7 H                     0.293569
      8 H                     0.319861
      9 H                     0.164483
     10 H                     0.194684
     11 H                     0.147286
     12 H                     0.193225
     13 H                     0.244745
     14 C                    -0.482240
     15 C                     0.249647
     16 O                    -0.696462
     17 O                    -0.661160
     18 H                     0.155801
     19 H                     0.186987
     20 H                     0.182904
  ----------------------------------------
  Sum of atomic charges =     0.000000

 -----------------------------------------------------------------
                    Cartesian Multipole Moments
 -----------------------------------------------------------------
    Charge (ESU x 10^10)
                -0.0000
    Dipole Moment (Debye)
         X     -15.0394      Y       7.9713      Z      10.7820
       Tot      20.1489
    Quadrupole Moments (Debye-Ang)
        XX     -68.4740     XY      12.2583     YY     -48.6179
        XZ      -5.3909     YZ      -2.6612     ZZ     -41.1943
    Octopole Moments (Debye-Ang^2)
       XXX     -94.8971    XXY      46.9649    XYY     -46.8080
       YYY      42.3331    XXZ      79.6318    XYZ     -30.3142
       YYZ      39.9266    XZZ     -67.9198    YZZ      22.2200
       ZZZ      75.9794
    Hexadecapole Moments (Debye-Ang^3)
      XXXX    -940.0554   XXXY     333.2278   XXYY    -307.4010
      XYYY     247.2613   YYYY    -705.1902   XXXZ     393.5385
      XXYZ    -144.2637   XYYZ     131.5250   YYYZ    -270.6119
      XXZZ    -264.1346   XYZZ      88.8818   YYZZ    -297.7537
      XZZZ     253.2397   YZZZ    -270.2902   ZZZZ   -1038.7884
 -----------------------------------------------------------------
Archival summary:
1\1\nid00524\SP\ProcedureUnspecified\BasisUnspecified\23411\meili\SunSep2610:38:242021SunSep2610:38:242021\0\\#,ProcedureUnspecified,BasisUnspecified,\\0,1\O\C,1,1.24744\O,2,1.24433,1,121.443\C,2,1.5293,1,119.897,3,176.547,0\H,4,1.09153,2,107.97,1,149.73,0\H,4,1.09183,2,109.536,1,-93.9311,0\H,4,1.1,2,113.532,1,27.3824,0\H,1,1.8252,2,151.265,3,168.96,0\N,8,1.02008,1,166.658,2,-165.021,0\C,9,1.32187,8,116.411,1,-81.7749,0\N,10,1.31799,9,120.584,8,174.092,0\H,11,1.00448,10,119.465,9,-0.144703,0\H,11,1.00634,10,120.416,9,178.064,0\N,10,1.31845,9,119.434,8,-7.49662,0\H,14,1.00639,10,120.667,9,-178.66,0\H,14,1.00828,10,119.138,9,3.29226,0\C,9,1.46462,8,117.398,1,90.5942,0\H,17,1.0918,9,110.748,8,144.594,0\H,17,1.09204,9,109.568,8,-94.4805,0\H,17,1.1,9,108.999,8,25.3695,0\\\@

 Total job time:  30314.99s(wall), 19579.05s(cpu) 
 Sun Sep 26 10:38:27 2021

        *************************************************************
        *                                                           *
        *  Thank you very much for using Q-Chem.  Have a nice day.  *
        *                                                           *
        *************************************************************


