
Running Job 1 of 1 SSI-051GLN-098TYR-1_PCM_TZVPD.in
qchem SSI-051GLN-098TYR-1_PCM_TZVPD.in_23879.0 /tmp/qchem23879/ 0
/global/common/cori/software/qchem/5.2/exe/qcprog.exe_s SSI-051GLN-098TYR-1_PCM_TZVPD.in_23879.0 /tmp/qchem23879/
                  Welcome to Q-Chem
     A Quantum Leap Into The Future Of Chemistry


 Q-Chem 5.2, Q-Chem, Inc., Pleasanton, CA (2019)

 License issued to: National Energy Research Scientific Computing Center

 Yihan Shao,  Zhengting Gan,  E. Epifanovsky,  A. T. B. Gilbert,  M. Wormit,  
 J. Kussmann,  A. W. Lange,  A. Behn,  Jia Deng,  Xintian Feng,  D. Ghosh,  
 M. Goldey,  P. R. Horn,  L. D. Jacobson,  I. Kaliman,  T. Kus,  A. Landau,  
 Jie Liu,  E. I. Proynov,  R. M. Richard,  R. P. Steele,  E. J. Sundstrom,  
 H. L. Woodcock III,  P. M. Zimmerman,  D. Zuev,  B. Albrecht,  E. Alguire,  
 S. A. Baeppler,  D. Barton,  Z. Benda,  Y. A. Bernard,  E. J. Berquist,  
 K. B. Bravaya,  H. Burton,  D. Casanova,  Chun-Min Chang,  Yunqing Chen,  
 A. Chien,  K. D. Closser,  M. P. Coons,  S. Coriani,  S. Dasgupta,  
 A. L. Dempwolff,  M. Diedenhofen,  Hainam Do,  R. G. Edgar,  Po-Tung Fang,  
 S. Faraji,  S. Fatehi,  Qingguo Feng,  K. D. Fenk,  J. Fosso-Tande,  
 J. Gayvert,  Qinghui Ge,  A. Ghysels,  G. Gidofalvi,  J. Gomes,  
 J. Gonthier,  A. Gunina,  D. Hait,  M. W. D. Hanson-Heine,  
 P. H. P. Harbach,  A. W. Hauser,  M. F. Herbst,  J. E. Herr,  
 E. G. Hohenstein,  Z. C. Holden,  Kerwin Hui,  B. C. Huynh,  T.-C. Jagau,  
 Hyunjun Ji,  B. Kaduk,  K. Khistyaev,  Jaehoon Kim,  P. Klunzinger,  K. Koh,  
 D. Kosenkov,  L. Koulias,  T. Kowalczyk,  C. M. Krauter,  A. Kunitsa,  
 Ka Un Lao,  A. Laurent,  K. V. Lawler,  Joonho Lee,  D. Lefrancois,  
 S. Lehtola,  D. S. Levine,  Yi-Pei Li,  You-Sheng Lin,  Fenglai Liu,  
 E. Livshits,  A. Luenser,  P. Manohar,  E. Mansoor,  S. F. Manzer,  
 Shan-Ping Mao,  Yuezhi Mao,  N. Mardirossian,  A. V. Marenich,  
 T. Markovich,  L. A. Martinez-Martinez,  S. A. Maurer,  N. J. Mayhall,  
 S. C. McKenzie,  J.-M. Mewes,  P. Morgante,  A. F. Morrison,  
 J. W. Mullinax,  K. Nanda,  T. S. Nguyen-Beck,  R. Olivares-Amaya,  
 J. A. Parkhill,  Zheng Pei,  T. M. Perrine,  F. Plasser,  P. Pokhilko,  
 S. Prager,  A. Prociuk,  E. Ramos,  D. R. Rehn,  F. Rob,  M. Scheurer,  
 M. Schneider,  N. Sergueev,  S. M. Sharada,  S. Sharma,  D. W. Small,  
 T. Stauch,  T. Stein,  Yu-Chuan Su,  A. J. W. Thom,  A. Tkatchenko,  
 T. Tsuchimochi,  N. M. Tubman,  L. Vogt,  M. L. Vidal,  O. Vydrov,  
 M. A. Watson,  J. Wenzel,  M. de Wergifosse,  T. A. Wesolowski,  A. White,  
 J. Witte,  A. Yamada,  Jun Yang,  K. Yao,  S. Yeganeh,  S. R. Yost,  
 Zhi-Qiang You,  A. Zech,  Igor Ying Zhang,  Xing Zhang,  Yan Zhao,  
 Ying Zhu,  B. R. Brooks,  G. K. L. Chan,  C. J. Cramer,  M. S. Gordon,  
 W. J. Hehre,  A. Klamt,  M. W. Schmidt,  C. D. Sherrill,  D. G. Truhlar,  
 A. Aspuru-Guzik,  R. Baer,  A. T. Bell,  N. A. Besley,  Jeng-Da Chai,  
 A. E. DePrince, III,  R. A. DiStasio Jr.,  A. Dreuw,  B. D. Dunietz,  
 T. R. Furlani,  Chao-Ping Hsu,  Yousung Jung,  Jing Kong,  D. S. Lambrecht,  
 WanZhen Liang,  C. Ochsenfeld,  V. A. Rassolov,  L. V. Slipchenko,  
 J. E. Subotnik,  T. Van Voorhis,  J. M. Herbert,  A. I. Krylov,  
 P. M. W. Gill,  M. Head-Gordon

 Contributors to earlier versions of Q-Chem not listed above: 
 R. D. Adamson,  B. Austin,  J. Baker,  G. J. O. Beran,  K. Brandhorst,  
 S. T. Brown,  E. F. C. Byrd,  A. K. Chakraborty,  C.-L. Cheng,  
 Siu Hung Chien,  D. M. Chipman,  D. L. Crittenden,  H. Dachsel,  
 R. J. Doerksen,  A. D. Dutoi,  L. Fusti-Molnar,  W. A. Goddard III,  
 A. Golubeva-Zadorozhnaya,  S. R. Gwaltney,  G. Hawkins,  A. Heyden,  
 S. Hirata,  G. Kedziora,  F. J. Keil,  C. Kelley,  Jihan Kim,  R. A. King,  
 R. Z. Khaliullin,  P. P. Korambath,  W. Kurlancheek,  A. M. Lee,  M. S. Lee,  
 S. V. Levchenko,  Ching Yeh Lin,  D. Liotard,  R. C. Lochan,  I. Lotan,  
 P. E. Maslen,  N. Nair,  D. P. O'Neill,  D. Neuhauser,  E. Neuscamman,  
 C. M. Oana,  R. Olson,  B. Peters,  R. Peverati,  P. A. Pieniazek,  
 Y. M. Rhee,  J. Ritchie,  M. A. Rohrdanz,  E. Rosta,  N. J. Russ,  
 H. F. Schaefer III,  N. E. Schultz,  N. Shenvi,  A. C. Simmonett,  A. Sodt,  
 D. Stuck,  K. S. Thanthiriwatte,  V. Vanovschi,  Tao Wang,  A. Warshel,  
 C. F. Williams,  Q. Wu,  X. Xu,  W. Zhang

 Please cite Q-Chem as follows:
 Y. Shao et al., Mol. Phys. 113, 184-215 (2015)
 DOI: 10.1080/00268976.2014.952696

 Q-Chem 5.2.0 for Intel X86 EM64T Linux

 Parts of Q-Chem use Armadillo 8.300.2 (Tropical Shenanigans).
 http://arma.sourceforge.net/

 Q-Chem begins on Sun Sep 26 08:20:46 2021  

Host: cori01
0

     Scratch files written to /tmp/qchem23879//
 May1019 |scratch|qcdevops|jenkins|workspace|build_RNUM -1
Processing $rem in /global/common/cori/software/qchem/5.2/config/preferences:
	 MEM_TOTAL  96000 
NAlpha2: 90
NElect   90
Mult     1
Symmetry turned off for PCM/SM12/SMD calculation

 Q-Chem warning in module libgen/rem_setup.C, line 2803:

 Neither GIA nor STOLL is specified by user. Use STOLL as the default


Checking the input file for inconsistencies... 	...done.

--------------------------------------------------------------
User input:
--------------------------------------------------------------
$comment
SSI-051GLN-098TYR-1.pdb
$end

$molecule
0 1
--
0 1
C   -2.042007304796   -2.330852829705    2.782295806026
C   -2.283007304796   -1.066852829705    2.033295806026
O   -2.734007304796   -1.103852829705    0.878295806026
N   -1.962007304796    0.052147170295    2.651295806026
H   -2.753007304796   -3.067852829705    2.418295806026
H   -2.239007304796   -2.193852829705    3.838295806026
H   -2.140007304796    0.930147170295    2.191295806026
H   -1.604007304796    0.021147170295    3.607295806026
H   -0.998207304796   -2.658674829705    2.668175806026
--
0 1
C    0.687992695204   -1.695852829705   -2.971704193974
C    0.523992695204    0.700147170295    0.040295806026
C    1.494992695204    1.660147170295   -0.269704193974
C    0.247992695204   -0.358852829705   -0.837704193974
C    0.921992695204   -0.482852829705   -2.060704193974
C    2.203992695204    1.543147170295   -1.484704193974
C    1.915992695204    0.456147170295   -2.365704193974
O    1.729992695204    2.700147170295    0.600295806026
H   -0.006007304796    0.780147170295    0.975295806026
H   -0.495007304796   -1.094852829705   -0.563704193974
H    2.963992695204    2.268147170295   -1.742704193974
H    2.403992695204    3.301147170295    0.260295806026
H    0.704992695204   -1.399852829705   -4.021704193974
H   -0.297007304796   -2.105852829705   -2.745704193974
H    2.467992695204    0.368147170295   -3.292704193974
H    1.465452695204   -2.445546829705   -2.763104193974
$end

$rem
JOBTYPE			EDA
EDA2			1
method			wB97X-V
BASIS			def2-TZVPD
XC_GRID			000099000590
NL_GRID			1
UNRESTRICTED		FALSE
MAX_SCF_CYCLES		200
SYMMETRY		FALSE
SYM_IGNORE		TRUE
MEM_STATIC		2000
BASIS_LIN_DEP_THRESH 	6
THRESH 			14
SCF_CONVERGENCE 	8
SCF_PRINT_FRGM 		TRUE
SOLVENT_METHOD          PCM
$end

$PCM
THEORY                  CPCM
METHOD                  SWIG
SOLVER                  INVERSION
RADII                   UFF
HPOINTS                 302
HEAVYPOINTS             302
PRINTLEVEL              0
$END

$SOLVENT
DIELECTRIC              78.390000 ! water
$END
--------------------------------------------------------------
 ----------------------------------------------------------------
             Standard Nuclear Orientation (Angstroms)
    I     Atom           X                Y                Z
 ----------------------------------------------------------------
    1      C      -2.0420073048    -2.3308528297     2.7822958060
    2      C      -2.2830073048    -1.0668528297     2.0332958060
    3      O      -2.7340073048    -1.1038528297     0.8782958060
    4      N      -1.9620073048     0.0521471703     2.6512958060
    5      H      -2.7530073048    -3.0678528297     2.4182958060
    6      H      -2.2390073048    -2.1938528297     3.8382958060
    7      H      -2.1400073048     0.9301471703     2.1912958060
    8      H      -1.6040073048     0.0211471703     3.6072958060
    9      H      -0.9982073048    -2.6586748297     2.6681758060
   10      C       0.6879926952    -1.6958528297    -2.9717041940
   11      C       0.5239926952     0.7001471703     0.0402958060
   12      C       1.4949926952     1.6601471703    -0.2697041940
   13      C       0.2479926952    -0.3588528297    -0.8377041940
   14      C       0.9219926952    -0.4828528297    -2.0607041940
   15      C       2.2039926952     1.5431471703    -1.4847041940
   16      C       1.9159926952     0.4561471703    -2.3657041940
   17      O       1.7299926952     2.7001471703     0.6002958060
   18      H      -0.0060073048     0.7801471703     0.9752958060
   19      H      -0.4950073048    -1.0948528297    -0.5637041940
   20      H       2.9639926952     2.2681471703    -1.7427041940
   21      H       2.4039926952     3.3011471703     0.2602958060
   22      H       0.7049926952    -1.3998528297    -4.0217041940
   23      H      -0.2970073048    -2.1058528297    -2.7457041940
   24      H       2.4679926952     0.3681471703    -3.2927041940
   25      H       1.4654526952    -2.4455468297    -2.7631041940
 ----------------------------------------------------------------
 Nuclear Repulsion Energy =         648.09047674 hartrees
 There are       45 alpha and       45 beta electrons
 Requested basis set is def2-TZVPD
 There are 223 shells and 567 basis functions

 Total QAlloc Memory Limit  96000 MB
 Mega-Array Size      1956 MB
 MEM_STATIC part      2000 MB
 Discretize the solute cavity surface with Lebedev spheres
	Using 302 Lebedev grid points for each H atom
	Using 302 Lebedev grid points for other atoms
	Atomic van der Waals radii will be scaled by 1.20
 Remove points where switching function is < 1.0e-08
 Keep 2831 surface tesserae and discard 4719 interior tesserae
 Molecular Surface Area = 289.649 Angst**2
 A cutoff of  1.0D-14 yielded  21377 shell pairs
 There are    138661 function pairs (    174868 Cartesian)
 Smallest overlap matrix eigenvalue = 5.04E-07
 Linear dependence detected in AO basis
 Tighter screening thresholds may be required for diffuse basis sets
 Use S2THRESH > 14 and THRESH = 14 in case of SCF convergence issues
 Number of orthogonalized atomic orbitals = 565
 Maximum deviation from orthogonality = 2.440E-10

 Scale SEOQF with 1.000000e-01/1.000000e-01/1.000000e-01

 Standard Electronic Orientation quadrupole field applied
 Nucleus-field energy     =    -0.0000000121 hartrees

 -----------------------------------------------------------------------
  General SCF calculation program by
  Eric Jon Sundstrom, Paul Horn, Yuezhi Mao, Dmitri Zuev, Alec White,
  David Stuck, Shaama M.S., Shane Yost, Joonho Lee, David Small,
  Daniel Levine, Susi Lehtola, Hugh Burton, Evgeny Epifanovsky
 -----------------------------------------------------------------------
================================================================
                 ALMO-EDA with the EDA2 driver                  
================================================================
 The second-generation ALMO-EDA (for DFT):                      
 P. R. Horn, Y. Mao and M. Head-Gordon, PCCP, 18, 23067 (2016)  
 Decomposition of the frozen energy:                            
 P. R. Horn, Y. Mao and M. Head-Gordon, JCP, 144, 114107 (2016) 
 FERF model for polarization:                                   
 P. R. Horn and M. Head-Gordon, JCP, 143, 114111 (2015)         
Using eda2 option set 1
Option set summary: Frozen orbital wavefunction, initial wavefunction decomposition, and nDQ polarization.
--------------------------------
Printing EDA Options
--------------------------------
eda_child_super_basis      0
fragmo_guess_mode          0
child_mp                   1
child_mp_orders            232
cls_elec                   1
cls_disp                   0
scfmi_mode                 1
scfmi_occs                 0
scfmi_virts                0
frz_relax                  0
frz_relax_method           0
dc_pen_start               0
dc_pen_conv                0
dc_pen_increment           0
dc_pen_steps               0
dc_pen_thresh_factor       0
dc_pen_pre_newton_thresh   0
frz_ortho_decomp           1
frz_ortho_decomp_conv      6
frgm_method                2
scfmi_freeze_ss            0
separate_rehyb             0
plot_diff_den              0
eda_nocv                   0
eda_vct_relax              1
disp_free_x                0
disp_free_c                0
eda_bsse                   0
eda_pct_a                  0
eda_covp                   0
--------------------------------
Attempting to make child job directory: /tmp/qchem23879//Frg1/
Attempting to make child job directory: /tmp/qchem23879//Frg2/
Creating input file /tmp/qchem23879/Frg1.input
using default PutDataFrgm: nothing
calling putenv with: QCSCRATCH=/tmp/qchem23879/ 
calling putenv with: QCLOCALSCR=/tmp/qchem23879/ 
Spawning Job For Fragment 0
                  Welcome to Q-Chem
     A Quantum Leap Into The Future Of Chemistry


 Q-Chem 5.2, Q-Chem, Inc., Pleasanton, CA (2019)

 License issued to: National Energy Research Scientific Computing Center

 Yihan Shao,  Zhengting Gan,  E. Epifanovsky,  A. T. B. Gilbert,  M. Wormit,  
 J. Kussmann,  A. W. Lange,  A. Behn,  Jia Deng,  Xintian Feng,  D. Ghosh,  
 M. Goldey,  P. R. Horn,  L. D. Jacobson,  I. Kaliman,  T. Kus,  A. Landau,  
 Jie Liu,  E. I. Proynov,  R. M. Richard,  R. P. Steele,  E. J. Sundstrom,  
 H. L. Woodcock III,  P. M. Zimmerman,  D. Zuev,  B. Albrecht,  E. Alguire,  
 S. A. Baeppler,  D. Barton,  Z. Benda,  Y. A. Bernard,  E. J. Berquist,  
 K. B. Bravaya,  H. Burton,  D. Casanova,  Chun-Min Chang,  Yunqing Chen,  
 A. Chien,  K. D. Closser,  M. P. Coons,  S. Coriani,  S. Dasgupta,  
 A. L. Dempwolff,  M. Diedenhofen,  Hainam Do,  R. G. Edgar,  Po-Tung Fang,  
 S. Faraji,  S. Fatehi,  Qingguo Feng,  K. D. Fenk,  J. Fosso-Tande,  
 J. Gayvert,  Qinghui Ge,  A. Ghysels,  G. Gidofalvi,  J. Gomes,  
 J. Gonthier,  A. Gunina,  D. Hait,  M. W. D. Hanson-Heine,  
 P. H. P. Harbach,  A. W. Hauser,  M. F. Herbst,  J. E. Herr,  
 E. G. Hohenstein,  Z. C. Holden,  Kerwin Hui,  B. C. Huynh,  T.-C. Jagau,  
 Hyunjun Ji,  B. Kaduk,  K. Khistyaev,  Jaehoon Kim,  P. Klunzinger,  K. Koh,  
 D. Kosenkov,  L. Koulias,  T. Kowalczyk,  C. M. Krauter,  A. Kunitsa,  
 Ka Un Lao,  A. Laurent,  K. V. Lawler,  Joonho Lee,  D. Lefrancois,  
 S. Lehtola,  D. S. Levine,  Yi-Pei Li,  You-Sheng Lin,  Fenglai Liu,  
 E. Livshits,  A. Luenser,  P. Manohar,  E. Mansoor,  S. F. Manzer,  
 Shan-Ping Mao,  Yuezhi Mao,  N. Mardirossian,  A. V. Marenich,  
 T. Markovich,  L. A. Martinez-Martinez,  S. A. Maurer,  N. J. Mayhall,  
 S. C. McKenzie,  J.-M. Mewes,  P. Morgante,  A. F. Morrison,  
 J. W. Mullinax,  K. Nanda,  T. S. Nguyen-Beck,  R. Olivares-Amaya,  
 J. A. Parkhill,  Zheng Pei,  T. M. Perrine,  F. Plasser,  P. Pokhilko,  
 S. Prager,  A. Prociuk,  E. Ramos,  D. R. Rehn,  F. Rob,  M. Scheurer,  
 M. Schneider,  N. Sergueev,  S. M. Sharada,  S. Sharma,  D. W. Small,  
 T. Stauch,  T. Stein,  Yu-Chuan Su,  A. J. W. Thom,  A. Tkatchenko,  
 T. Tsuchimochi,  N. M. Tubman,  L. Vogt,  M. L. Vidal,  O. Vydrov,  
 M. A. Watson,  J. Wenzel,  M. de Wergifosse,  T. A. Wesolowski,  A. White,  
 J. Witte,  A. Yamada,  Jun Yang,  K. Yao,  S. Yeganeh,  S. R. Yost,  
 Zhi-Qiang You,  A. Zech,  Igor Ying Zhang,  Xing Zhang,  Yan Zhao,  
 Ying Zhu,  B. R. Brooks,  G. K. L. Chan,  C. J. Cramer,  M. S. Gordon,  
 W. J. Hehre,  A. Klamt,  M. W. Schmidt,  C. D. Sherrill,  D. G. Truhlar,  
 A. Aspuru-Guzik,  R. Baer,  A. T. Bell,  N. A. Besley,  Jeng-Da Chai,  
 A. E. DePrince, III,  R. A. DiStasio Jr.,  A. Dreuw,  B. D. Dunietz,  
 T. R. Furlani,  Chao-Ping Hsu,  Yousung Jung,  Jing Kong,  D. S. Lambrecht,  
 WanZhen Liang,  C. Ochsenfeld,  V. A. Rassolov,  L. V. Slipchenko,  
 J. E. Subotnik,  T. Van Voorhis,  J. M. Herbert,  A. I. Krylov,  
 P. M. W. Gill,  M. Head-Gordon

 Contributors to earlier versions of Q-Chem not listed above: 
 R. D. Adamson,  B. Austin,  J. Baker,  G. J. O. Beran,  K. Brandhorst,  
 S. T. Brown,  E. F. C. Byrd,  A. K. Chakraborty,  C.-L. Cheng,  
 Siu Hung Chien,  D. M. Chipman,  D. L. Crittenden,  H. Dachsel,  
 R. J. Doerksen,  A. D. Dutoi,  L. Fusti-Molnar,  W. A. Goddard III,  
 A. Golubeva-Zadorozhnaya,  S. R. Gwaltney,  G. Hawkins,  A. Heyden,  
 S. Hirata,  G. Kedziora,  F. J. Keil,  C. Kelley,  Jihan Kim,  R. A. King,  
 R. Z. Khaliullin,  P. P. Korambath,  W. Kurlancheek,  A. M. Lee,  M. S. Lee,  
 S. V. Levchenko,  Ching Yeh Lin,  D. Liotard,  R. C. Lochan,  I. Lotan,  
 P. E. Maslen,  N. Nair,  D. P. O'Neill,  D. Neuhauser,  E. Neuscamman,  
 C. M. Oana,  R. Olson,  B. Peters,  R. Peverati,  P. A. Pieniazek,  
 Y. M. Rhee,  J. Ritchie,  M. A. Rohrdanz,  E. Rosta,  N. J. Russ,  
 H. F. Schaefer III,  N. E. Schultz,  N. Shenvi,  A. C. Simmonett,  A. Sodt,  
 D. Stuck,  K. S. Thanthiriwatte,  V. Vanovschi,  Tao Wang,  A. Warshel,  
 C. F. Williams,  Q. Wu,  X. Xu,  W. Zhang

 Please cite Q-Chem as follows:
 Y. Shao et al., Mol. Phys. 113, 184-215 (2015)
 DOI: 10.1080/00268976.2014.952696

 Q-Chem 5.2.0 for Intel X86 EM64T Linux

 Parts of Q-Chem use Armadillo 8.300.2 (Tropical Shenanigans).
 http://arma.sourceforge.net/

 Q-Chem begins on Sun Sep 26 08:20:51 2021  

Host: cori01
0

     Scratch files written to /tmp/qchem23879//Frg1//
 May1019 |scratch|qcdevops|jenkins|workspace|build_RNUM -1
Processing $rem in /global/common/cori/software/qchem/5.2/config/preferences:
	 MEM_TOTAL  96000 
NAlpha2: 32
NElect   32
Mult     1
Symmetry turned off for PCM/SM12/SMD calculation

Checking the input file for inconsistencies... 	...done.

--------------------------------------------------------------
User input:
--------------------------------------------------------------
$molecule
0 1
 6	-2.0420073048	-2.3308528297	2.7822958060
 6	-2.2830073048	-1.0668528297	2.0332958060
 8	-2.7340073048	-1.1038528297	0.8782958060
 7	-1.9620073048	0.0521471703	2.6512958060
 1	-2.7530073048	-3.0678528297	2.4182958060
 1	-2.2390073048	-2.1938528297	3.8382958060
 1	-2.1400073048	0.9301471703	2.1912958060
 1	-1.6040073048	0.0211471703	3.6072958060
 1	-0.9982073048	-2.6586748297	2.6681758060
$end
$rem
EDA2		1
METHOD		WB97X-V
BASIS		DEF2-TZVPD
XC_GRID		000099000590
NL_GRID		1
UNRESTRICTED		FALSE
MAX_SCF_CYCLES		200
SYMMETRY		FALSE
SYM_IGNORE		TRUE
BASIS_LIN_DEP_THRESH		6
THRESH		14
SCF_CONVERGENCE		8
SCF_PRINT_FRGM		TRUE
SOLVENT_METHOD		PCM
!required keywords
JOBTYPE		SP
SYM_IGNORE		TRUE
SUBSYSTEM		TRUE
GEN_SCFMAN		TRUE
CHILD_INSTRUCTION		2
SYM_IGNORE		TRUE
SCFMI		0
RI_K 0		
PARI_K 0		
MIN_PARI_K 0		
IARI_K 0		
OCC_RI_K 0		
PURECART		1111
MEM_STATIC		2000
MEM_TOTAL		96000
GUI		0
CHILD_MP		1
CHILD_MP_ORDERS		232
FRZ_RELAX		0
FRZ_RELAX_METHOD		0
EDA_CLS_ELEC		1
EDA_CLS_DISP		0
FRZ_ORTHO_DECOMP		1
EDA2		FALSE
FRGM_METHOD		FALSE
CIS_N_ROOTS  0
LOCAL_CIS    0
CIS_RLX_DNS  1
$end
$pcm
THEORY                  CPCM
METHOD                  SWIG
SOLVER                  INVERSION
RADII                   UFF
HPOINTS                 302
HEAVYPOINTS             302
PRINTLEVEL              0
$end
$solvent
DIELECTRIC              78.390000 ! water
$end
--------------------------------------------------------------
 ----------------------------------------------------------------
             Standard Nuclear Orientation (Angstroms)
    I     Atom           X                Y                Z
 ----------------------------------------------------------------
    1      C      -2.0420073048    -2.3308528297     2.7822958060
    2      C      -2.2830073048    -1.0668528297     2.0332958060
    3      O      -2.7340073048    -1.1038528297     0.8782958060
    4      N      -1.9620073048     0.0521471703     2.6512958060
    5      H      -2.7530073048    -3.0678528297     2.4182958060
    6      H      -2.2390073048    -2.1938528297     3.8382958060
    7      H      -2.1400073048     0.9301471703     2.1912958060
    8      H      -1.6040073048     0.0211471703     3.6072958060
    9      H      -0.9982073048    -2.6586748297     2.6681758060
 ----------------------------------------------------------------
 Nuclear Repulsion Energy =         122.77412419 hartrees
 There are       16 alpha and       16 beta electrons
 Requested basis set is def2-TZVPD
 There are 78 shells and 196 basis functions

 Total QAlloc Memory Limit  96000 MB
 Mega-Array Size      1956 MB
 MEM_STATIC part      2000 MB
 Discretize the solute cavity surface with Lebedev spheres
	Using 302 Lebedev grid points for each H atom
	Using 302 Lebedev grid points for other atoms
	Atomic van der Waals radii will be scaled by 1.20
 Remove points where switching function is < 1.0e-08
 Keep 1192 surface tesserae and discard 1526 interior tesserae
 Molecular Surface Area = 128.214 Angst**2

                       Distance Matrix (Angstroms)
             C (  1)   C (  2)   O (  3)   N (  4)   H (  5)   H (  6)
   C (  2)  1.488885
   O (  3)  2.368461  1.240482
   N (  4)  2.387938  1.318001  2.252964
   H (  5)  1.086824  2.091202  2.495848  3.227130
   H (  6)  1.082919  2.128401  3.192918  2.555428  1.744842
   H (  7)  3.315570  2.008338  2.492782  1.007059  4.051087  3.532957
   H (  8)  2.530686  2.030335  3.160691  1.021304  3.503690  2.315774
   H (  9)  1.100004  2.141887  2.938391  2.877108  1.819118  1.767717
             H (  7)   H (  8)
   H (  8)  1.765965
   H (  9)  3.796151  2.903513
 
 A cutoff of  1.0D-14 yielded   3055 shell pairs
 There are     19545 function pairs (     24703 Cartesian)
 Smallest overlap matrix eigenvalue = 9.95E-06

 Scale SEOQF with 1.000000e-01/1.000000e-01/1.000000e-01

 Standard Electronic Orientation quadrupole field applied
 Nucleus-field energy     =    -0.0000000075 hartrees
 Guess from superposition of atomic densities
 Warning:  Energy on first SCF cycle will be non-variational
 SAD guess density has 31.604610 electrons

 -----------------------------------------------------------------------
  General SCF calculation program by
  Eric Jon Sundstrom, Paul Horn, Yuezhi Mao, Dmitri Zuev, Alec White,
  David Stuck, Shaama M.S., Shane Yost, Joonho Lee, David Small,
  Daniel Levine, Susi Lehtola, Hugh Burton, Evgeny Epifanovsky
 -----------------------------------------------------------------------
 Exchange:     0.1670 Hartree-Fock + 1.0000 wB97X-V + LR-HF
 Correlation:  1.0000 wB97X-V
 Using Euler-Maclaurin-Lebedev (99,590) quadrature formula
 Nonlocal Correlation:  VV10 with C = 0.0100 and b = 6.00 and scale = 1.00000
 Grid used for NLC:  SG-1 standard quadrature
Energy prior to optimization (guess energy) = -208.699989714802
Begin Timing: Total SCF Calculation
begin iterations for algorithm: DIIS         
the SCF tolerance is set to 1.00e-08
    1    -208.6999897148      1.26e-02     00000 
    2    -208.2762637104      1.58e-02     00000 
    3    -209.2200618027      2.59e-03     00000 
    4    -209.2416790850      8.56e-04     00000 
    5    -209.2445922024      1.26e-04     00000 
    6    -209.2446963547      5.09e-05     00000 
    7    -209.2447148137      1.19e-05     00000 
    8    -209.2447161283      2.29e-06     00000 
    9    -209.2447162340      9.07e-07     00000 
   10    -209.2447162410      3.61e-07     00000 
   11    -209.2447162422      7.47e-08     00000 
   12    -209.2447162423      1.65e-08     00000 
   13    -209.2447162423      4.52e-09     00000 Convergence criterion met
Timing for Total SCF: 364.00s (wall), 718.90s (cpu)

************** Final PCM Free Energy Summary **************
 G_electrostatic  =      -0.01273302 hartree =      -7.99008763 kcal/mol
 G_cavitation     =       0.00000000 hartree =       0.00000000 kcal/mol
 G_dispersion     =       0.00000000 hartree =       0.00000000 kcal/mol
 G_repulsion      =       0.00000000 hartree =       0.00000000 kcal/mol
 --------------------------------------------------
 Non-electrostatic Free Energy =       0.00000000 hartree =       0.00000000 kcal/mol
 Total                         =      -0.01273302 hartree =      -7.99008763 kcal/mol
 --------------------------------------------------
 SCF Energy (H0 + V/2)                       =    -209.24471624 
 Solute Internal Energy (H0)                 =    -209.23198323 
 Total Free Energy (H0 + V/2 + non-elec)     =    -209.24471624 hartree
                                             = -131303.04119878 kcal/mol
***********************************************************

E_pcm = -0.0127330152
Multipole orders to be included
        2
        3
computing dipole RHS
computing quadrupole RHS
total number of RHS in solve_reponses: 8
RHS batch sizes
        8
Beginning Block Conjugate Gradient Iterations. Batch Number: 0
computing hessian-vector products by finite difference
              1      6.41e-01     00000 Conjugate Gradient Iteration
computing hessian-vector products by finite difference
              2      2.12e-01     00000 Conjugate Gradient Iteration
computing hessian-vector products by finite difference
              3      5.35e-02     00000 Conjugate Gradient Iteration
computing hessian-vector products by finite difference
              4      1.32e-02     00000 Conjugate Gradient Iteration
computing hessian-vector products by finite difference
              5      2.13e-03     00000 Conjugate Gradient Iteration
computing hessian-vector products by finite difference
              6      4.81e-04     00000 Conjugate Gradient Iteration
computing hessian-vector products by finite difference
              7      7.41e-05     00000 Conjugate Gradient Iteration
computing hessian-vector products by finite difference
              8      8.77e-06     00000 Conjugate Gradient Iteration
computing hessian-vector products by finite difference
              9      1.18e-06     00000 Conjugate Gradient Iteration
computing hessian-vector products by finite difference
             10      1.28e-07     00000 Conjugate Gradient Iteration
computing hessian-vector products by finite difference
             11      1.56e-08     00000 Conjugate Gradient Iteration
computing hessian-vector products by finite difference
             12      2.70e-09     00000 CG Converged
batch 0 complete
Done Calculating Responses
TESTING ORTHOGONALIZATION OF MULTIPOLE BASIS
Multipole virts passed orthogonality test
Virts Per Order
        48
        80
 
 --------------------------------------------------------------
 
                    Orbital Energies (a.u.)
 --------------------------------------------------------------
 
 Alpha MOs
 -- Occupied --
-19.1769 -14.4368 -10.3752 -10.2688  -1.1668  -1.0489  -0.8756  -0.7157
 -0.6620  -0.5924  -0.5724  -0.5154  -0.5051  -0.4816  -0.3831  -0.3671
 -- Virtual --
  0.0590   0.0913   0.0920   0.0973   0.1255   0.1288   0.1361   0.1416
  0.1696   0.1806   0.1939   0.2118   0.2237   0.2404   0.2456   0.2572
  0.2589   0.2698   0.2998   0.3093   0.3272   0.3321   0.3413   0.3462
  0.3557   0.3646   0.3713   0.3767   0.3921   0.4045   0.4152   0.4197
  0.4317   0.4497   0.4564   0.4753   0.4790   0.4861   0.4898   0.5021
  0.5253   0.5319   0.5419   0.5671   0.5849   0.5945   0.6242   0.6318
  0.6440   0.6578   0.6743   0.6940   0.7071   0.7181   0.7279   0.7585
  0.7765   0.7822   0.7904   0.8063   0.8164   0.8403   0.8487   0.8636
  0.9142   0.9467   0.9854   0.9938   1.0068   1.0307   1.0523   1.0988
  1.1061   1.1847   1.2252   1.2504   1.2819   1.3265   1.3410   1.3778
  1.4771   1.4955   1.5034   1.6259   1.6659   1.7293   1.7386   1.8091
  1.8439   1.8599   1.9000   1.9186   1.9260   1.9511   1.9936   2.0195
  2.0565   2.0878   2.1470   2.1862   2.2247   2.2406   2.3055   2.3568
  2.3896   2.3957   2.4483   2.4832   2.5429   2.5539   2.5923   2.6361
  2.6780   2.7062   2.7765   2.8175   2.8250   2.9219   2.9568   2.9873
  3.0509   3.0910   3.1304   3.1747   3.2064   3.2310   3.2615   3.2766
  3.3044   3.3338   3.3391   3.4277   3.4555   3.5314   3.5636   3.5873
  3.6241   3.6483   3.6967   3.7806   3.8999   3.9425   4.0251   4.0682
  4.0753   4.1912   4.3150   4.3834   4.5549   4.6032   4.6267   4.6693
  4.7969   4.8876   4.8884   4.9465   5.1510   5.1851   5.2677   5.3445
  5.3828   5.3968   5.4161   5.4710   5.5320   5.7756   5.9115   6.1287
  6.2446   6.5124   6.6444   6.7404   6.8232   6.9803   7.2281   7.3187
 22.6160  23.5983  32.4118  44.3168
 --------------------------------------------------------------
 
          Ground-State Mulliken Net Atomic Charges

     Atom                 Charge (a.u.)
  ----------------------------------------
      1 C                    -0.621526
      2 C                     0.411187
      3 O                    -0.595423
      4 N                    -0.259690
      5 H                     0.189191
      6 H                     0.258779
      7 H                     0.211220
      8 H                     0.203187
      9 H                     0.203075
  ----------------------------------------
  Sum of atomic charges =     0.000000

 -----------------------------------------------------------------
                    Cartesian Multipole Moments
 -----------------------------------------------------------------
    Charge (ESU x 10^10)
                 0.0000
    Dipole Moment (Debye)
         X       1.8839      Y       1.2231      Z       4.8796
       Tot       5.3718
    Quadrupole Moments (Debye-Ang)
        XX     -33.7491     XY      -4.4461     YY     -22.2087
        XZ      -7.6407     YZ      -2.1808     ZZ      -6.3791
    Octopole Moments (Debye-Ang^2)
       XXX     198.7333    XXY      41.3654    XYY      51.7004
       YYY      82.9983    XXZ     -43.2011    XYZ       3.4387
       YYZ     -41.7193    XZZ      24.2826    YZZ      18.9679
       ZZZ     -96.7288
    Hexadecapole Moments (Debye-Ang^3)
      XXXX    -895.9330   XXXY    -228.3875   XXYY    -184.6447
      XYYY    -187.0896   YYYY    -350.7863   XXXZ     332.3250
      XXYZ      55.9218   XYYZ      89.1773   YYYZ     177.3980
      XXZZ    -217.2155   XYZZ     -43.1217   YYZZ    -166.3399
      XZZZ     235.4955   YZZZ     162.7484   ZZZZ    -587.1626
 -----------------------------------------------------------------
Archival summary:
1\1\nid00506\SP\ProcedureUnspecified\BasisUnspecified\1125\meili\SunSep2610:04:352021SunSep2610:04:352021\0\\#,ProcedureUnspecified,BasisUnspecified,\\0,1\C\O,1,1.24048\N,1,1.318,2,123.398\H,3,1.00706,1,118.88,2,3.81617,0\H,3,1.0213,1,119.902,2,179.348,0\C,1,1.48888,2,120.127,3,-178.266,0\H,6,1.08292,1,110.714,2,-145.666,0\H,6,1.08682,1,107.537,2,-29.0227,0\H,6,1.1,1,110.757,2,94.3696,0\\\@

 Total job time:  6223.84s(wall), 12296.48s(cpu) 
 Sun Sep 26 10:04:35 2021

        *************************************************************
        *                                                           *
        *  Thank you very much for using Q-Chem.  Have a nice day.  *
        *                                                           *
        *************************************************************


Done Job For Fragment 0
calling putenv with: QCSCRATCH=/global/cscratch1/sd/meili 
calling putenv with: QCLOCALSCR=/tmp 
calling putenv with: QCTHREADS=32 
Creating input file /tmp/qchem23879/Frg2.input
using default PutDataFrgm: nothing
calling putenv with: QCSCRATCH=/tmp/qchem23879/ 
calling putenv with: QCLOCALSCR=/tmp/qchem23879/ 
Spawning Job For Fragment 1
                  Welcome to Q-Chem
     A Quantum Leap Into The Future Of Chemistry


 Q-Chem 5.2, Q-Chem, Inc., Pleasanton, CA (2019)

 License issued to: National Energy Research Scientific Computing Center

 Yihan Shao,  Zhengting Gan,  E. Epifanovsky,  A. T. B. Gilbert,  M. Wormit,  
 J. Kussmann,  A. W. Lange,  A. Behn,  Jia Deng,  Xintian Feng,  D. Ghosh,  
 M. Goldey,  P. R. Horn,  L. D. Jacobson,  I. Kaliman,  T. Kus,  A. Landau,  
 Jie Liu,  E. I. Proynov,  R. M. Richard,  R. P. Steele,  E. J. Sundstrom,  
 H. L. Woodcock III,  P. M. Zimmerman,  D. Zuev,  B. Albrecht,  E. Alguire,  
 S. A. Baeppler,  D. Barton,  Z. Benda,  Y. A. Bernard,  E. J. Berquist,  
 K. B. Bravaya,  H. Burton,  D. Casanova,  Chun-Min Chang,  Yunqing Chen,  
 A. Chien,  K. D. Closser,  M. P. Coons,  S. Coriani,  S. Dasgupta,  
 A. L. Dempwolff,  M. Diedenhofen,  Hainam Do,  R. G. Edgar,  Po-Tung Fang,  
 S. Faraji,  S. Fatehi,  Qingguo Feng,  K. D. Fenk,  J. Fosso-Tande,  
 J. Gayvert,  Qinghui Ge,  A. Ghysels,  G. Gidofalvi,  J. Gomes,  
 J. Gonthier,  A. Gunina,  D. Hait,  M. W. D. Hanson-Heine,  
 P. H. P. Harbach,  A. W. Hauser,  M. F. Herbst,  J. E. Herr,  
 E. G. Hohenstein,  Z. C. Holden,  Kerwin Hui,  B. C. Huynh,  T.-C. Jagau,  
 Hyunjun Ji,  B. Kaduk,  K. Khistyaev,  Jaehoon Kim,  P. Klunzinger,  K. Koh,  
 D. Kosenkov,  L. Koulias,  T. Kowalczyk,  C. M. Krauter,  A. Kunitsa,  
 Ka Un Lao,  A. Laurent,  K. V. Lawler,  Joonho Lee,  D. Lefrancois,  
 S. Lehtola,  D. S. Levine,  Yi-Pei Li,  You-Sheng Lin,  Fenglai Liu,  
 E. Livshits,  A. Luenser,  P. Manohar,  E. Mansoor,  S. F. Manzer,  
 Shan-Ping Mao,  Yuezhi Mao,  N. Mardirossian,  A. V. Marenich,  
 T. Markovich,  L. A. Martinez-Martinez,  S. A. Maurer,  N. J. Mayhall,  
 S. C. McKenzie,  J.-M. Mewes,  P. Morgante,  A. F. Morrison,  
 J. W. Mullinax,  K. Nanda,  T. S. Nguyen-Beck,  R. Olivares-Amaya,  
 J. A. Parkhill,  Zheng Pei,  T. M. Perrine,  F. Plasser,  P. Pokhilko,  
 S. Prager,  A. Prociuk,  E. Ramos,  D. R. Rehn,  F. Rob,  M. Scheurer,  
 M. Schneider,  N. Sergueev,  S. M. Sharada,  S. Sharma,  D. W. Small,  
 T. Stauch,  T. Stein,  Yu-Chuan Su,  A. J. W. Thom,  A. Tkatchenko,  
 T. Tsuchimochi,  N. M. Tubman,  L. Vogt,  M. L. Vidal,  O. Vydrov,  
 M. A. Watson,  J. Wenzel,  M. de Wergifosse,  T. A. Wesolowski,  A. White,  
 J. Witte,  A. Yamada,  Jun Yang,  K. Yao,  S. Yeganeh,  S. R. Yost,  
 Zhi-Qiang You,  A. Zech,  Igor Ying Zhang,  Xing Zhang,  Yan Zhao,  
 Ying Zhu,  B. R. Brooks,  G. K. L. Chan,  C. J. Cramer,  M. S. Gordon,  
 W. J. Hehre,  A. Klamt,  M. W. Schmidt,  C. D. Sherrill,  D. G. Truhlar,  
 A. Aspuru-Guzik,  R. Baer,  A. T. Bell,  N. A. Besley,  Jeng-Da Chai,  
 A. E. DePrince, III,  R. A. DiStasio Jr.,  A. Dreuw,  B. D. Dunietz,  
 T. R. Furlani,  Chao-Ping Hsu,  Yousung Jung,  Jing Kong,  D. S. Lambrecht,  
 WanZhen Liang,  C. Ochsenfeld,  V. A. Rassolov,  L. V. Slipchenko,  
 J. E. Subotnik,  T. Van Voorhis,  J. M. Herbert,  A. I. Krylov,  
 P. M. W. Gill,  M. Head-Gordon

 Contributors to earlier versions of Q-Chem not listed above: 
 R. D. Adamson,  B. Austin,  J. Baker,  G. J. O. Beran,  K. Brandhorst,  
 S. T. Brown,  E. F. C. Byrd,  A. K. Chakraborty,  C.-L. Cheng,  
 Siu Hung Chien,  D. M. Chipman,  D. L. Crittenden,  H. Dachsel,  
 R. J. Doerksen,  A. D. Dutoi,  L. Fusti-Molnar,  W. A. Goddard III,  
 A. Golubeva-Zadorozhnaya,  S. R. Gwaltney,  G. Hawkins,  A. Heyden,  
 S. Hirata,  G. Kedziora,  F. J. Keil,  C. Kelley,  Jihan Kim,  R. A. King,  
 R. Z. Khaliullin,  P. P. Korambath,  W. Kurlancheek,  A. M. Lee,  M. S. Lee,  
 S. V. Levchenko,  Ching Yeh Lin,  D. Liotard,  R. C. Lochan,  I. Lotan,  
 P. E. Maslen,  N. Nair,  D. P. O'Neill,  D. Neuhauser,  E. Neuscamman,  
 C. M. Oana,  R. Olson,  B. Peters,  R. Peverati,  P. A. Pieniazek,  
 Y. M. Rhee,  J. Ritchie,  M. A. Rohrdanz,  E. Rosta,  N. J. Russ,  
 H. F. Schaefer III,  N. E. Schultz,  N. Shenvi,  A. C. Simmonett,  A. Sodt,  
 D. Stuck,  K. S. Thanthiriwatte,  V. Vanovschi,  Tao Wang,  A. Warshel,  
 C. F. Williams,  Q. Wu,  X. Xu,  W. Zhang

 Please cite Q-Chem as follows:
 Y. Shao et al., Mol. Phys. 113, 184-215 (2015)
 DOI: 10.1080/00268976.2014.952696

 Q-Chem 5.2.0 for Intel X86 EM64T Linux

 Parts of Q-Chem use Armadillo 8.300.2 (Tropical Shenanigans).
 http://arma.sourceforge.net/

 Q-Chem begins on Sun Sep 26 10:04:36 2021  

Host: cori01
0

     Scratch files written to /tmp/qchem23879//Frg2//
 May1019 |scratch|qcdevops|jenkins|workspace|build_RNUM -1
Processing $rem in /global/common/cori/software/qchem/5.2/config/preferences:
	 MEM_TOTAL  96000 
NAlpha2: 58
NElect   58
Mult     1
Symmetry turned off for PCM/SM12/SMD calculation

Checking the input file for inconsistencies... 	...done.

--------------------------------------------------------------
User input:
--------------------------------------------------------------
$molecule
0 1
 6	0.6879926952	-1.6958528297	-2.9717041940
 6	0.5239926952	0.7001471703	0.0402958060
 6	1.4949926952	1.6601471703	-0.2697041940
 6	0.2479926952	-0.3588528297	-0.8377041940
 6	0.9219926952	-0.4828528297	-2.0607041940
 6	2.2039926952	1.5431471703	-1.4847041940
 6	1.9159926952	0.4561471703	-2.3657041940
 8	1.7299926952	2.7001471703	0.6002958060
 1	-0.0060073048	0.7801471703	0.9752958060
 1	-0.4950073048	-1.0948528297	-0.5637041940
 1	2.9639926952	2.2681471703	-1.7427041940
 1	2.4039926952	3.3011471703	0.2602958060
 1	0.7049926952	-1.3998528297	-4.0217041940
 1	-0.2970073048	-2.1058528297	-2.7457041940
 1	2.4679926952	0.3681471703	-3.2927041940
 1	1.4654526952	-2.4455468297	-2.7631041940
$end
$rem
EDA2		1
METHOD		WB97X-V
BASIS		DEF2-TZVPD
XC_GRID		000099000590
NL_GRID		1
UNRESTRICTED		FALSE
MAX_SCF_CYCLES		200
SYMMETRY		FALSE
SYM_IGNORE		TRUE
BASIS_LIN_DEP_THRESH		6
THRESH		14
SCF_CONVERGENCE		8
SCF_PRINT_FRGM		TRUE
SOLVENT_METHOD		PCM
!required keywords
JOBTYPE		SP
SYM_IGNORE		TRUE
SUBSYSTEM		TRUE
GEN_SCFMAN		TRUE
CHILD_INSTRUCTION		2
SYM_IGNORE		TRUE
SCFMI		0
RI_K 0		
PARI_K 0		
MIN_PARI_K 0		
IARI_K 0		
OCC_RI_K 0		
PURECART		1111
MEM_STATIC		2000
MEM_TOTAL		96000
GUI		0
CHILD_MP		1
CHILD_MP_ORDERS		232
FRZ_RELAX		0
FRZ_RELAX_METHOD		0
EDA_CLS_ELEC		1
EDA_CLS_DISP		0
FRZ_ORTHO_DECOMP		1
EDA2		FALSE
FRGM_METHOD		FALSE
CIS_N_ROOTS  0
LOCAL_CIS    0
CIS_RLX_DNS  1
$end
$pcm
THEORY                  CPCM
METHOD                  SWIG
SOLVER                  INVERSION
RADII                   UFF
HPOINTS                 302
HEAVYPOINTS             302
PRINTLEVEL              0
$end
$solvent
DIELECTRIC              78.390000 ! water
$end
--------------------------------------------------------------
 ----------------------------------------------------------------
             Standard Nuclear Orientation (Angstroms)
    I     Atom           X                Y                Z
 ----------------------------------------------------------------
    1      C       0.6879926952    -1.6958528297    -2.9717041940
    2      C       0.5239926952     0.7001471703     0.0402958060
    3      C       1.4949926952     1.6601471703    -0.2697041940
    4      C       0.2479926952    -0.3588528297    -0.8377041940
    5      C       0.9219926952    -0.4828528297    -2.0607041940
    6      C       2.2039926952     1.5431471703    -1.4847041940
    7      C       1.9159926952     0.4561471703    -2.3657041940
    8      O       1.7299926952     2.7001471703     0.6002958060
    9      H      -0.0060073048     0.7801471703     0.9752958060
   10      H      -0.4950073048    -1.0948528297    -0.5637041940
   11      H       2.9639926952     2.2681471703    -1.7427041940
   12      H       2.4039926952     3.3011471703     0.2602958060
   13      H       0.7049926952    -1.3998528297    -4.0217041940
   14      H      -0.2970073048    -2.1058528297    -2.7457041940
   15      H       2.4679926952     0.3681471703    -3.2927041940
   16      H       1.4654526952    -2.4455468297    -2.7631041940
 ----------------------------------------------------------------
 Nuclear Repulsion Energy =         339.62953386 hartrees
 There are       29 alpha and       29 beta electrons
 Requested basis set is def2-TZVPD
 There are 145 shells and 371 basis functions

 Total QAlloc Memory Limit  96000 MB
 Mega-Array Size      1956 MB
 MEM_STATIC part      2000 MB
 Discretize the solute cavity surface with Lebedev spheres
	Using 302 Lebedev grid points for each H atom
	Using 302 Lebedev grid points for other atoms
	Atomic van der Waals radii will be scaled by 1.20
 Remove points where switching function is < 1.0e-08
 Keep 1863 surface tesserae and discard 2969 interior tesserae
 Molecular Surface Area = 191.896 Angst**2
 A cutoff of  1.0D-14 yielded  10030 shell pairs
 There are     66946 function pairs (     85597 Cartesian)
 Smallest overlap matrix eigenvalue = 6.45E-07
 Linear dependence detected in AO basis
 Tighter screening thresholds may be required for diffuse basis sets
 Use S2THRESH > 14 and THRESH = 14 in case of SCF convergence issues
 Number of orthogonalized atomic orbitals = 370
 Maximum deviation from orthogonality = 1.690E-10

 Scale SEOQF with 1.000000e-01/1.000000e-01/1.000000e-01

 Standard Electronic Orientation quadrupole field applied
 Nucleus-field energy     =    -0.0000000046 hartrees
 Guess from superposition of atomic densities
 Warning:  Energy on first SCF cycle will be non-variational
 SAD guess density has 57.738434 electrons

 -----------------------------------------------------------------------
  General SCF calculation program by
  Eric Jon Sundstrom, Paul Horn, Yuezhi Mao, Dmitri Zuev, Alec White,
  David Stuck, Shaama M.S., Shane Yost, Joonho Lee, David Small,
  Daniel Levine, Susi Lehtola, Hugh Burton, Evgeny Epifanovsky
 -----------------------------------------------------------------------
 Exchange:     0.1670 Hartree-Fock + 1.0000 wB97X-V + LR-HF
 Correlation:  1.0000 wB97X-V
 Using Euler-Maclaurin-Lebedev (99,590) quadrature formula
 Nonlocal Correlation:  VV10 with C = 0.0100 and b = 6.00 and scale = 1.00000
 Grid used for NLC:  SG-1 standard quadrature
Energy prior to optimization (guess energy) = -346.496908357625
Begin Timing: Total SCF Calculation
begin iterations for algorithm: DIIS         
the SCF tolerance is set to 1.00e-08
    1    -346.4969083576      5.16e-03     00000 
    2    -346.4202072146      5.66e-03     00000 
    3    -346.8101641495      5.30e-04     00000 
    4    -346.8142776021      1.80e-04     00000 
    5    -346.8148889579      2.54e-05     00000 
    6    -346.8149096932      1.20e-05     00000 
    7    -346.8149128295      3.65e-06     00000 
    8    -346.8149132154      1.17e-06     00000 
    9    -346.8149132655      5.93e-07     00000 
   10    -346.8149132752      1.37e-07     00000 
   11    -346.8149132769      7.02e-08     00000 
   12    -346.8149132771      3.21e-08     00000 
   13    -346.8149132772      6.86e-09     00000 Convergence criterion met
Timing for Total SCF: 2114.00s (wall), 4197.69s (cpu)

************** Final PCM Free Energy Summary **************
 G_electrostatic  =      -0.00574062 hartree =      -3.60229448 kcal/mol
 G_cavitation     =       0.00000000 hartree =       0.00000000 kcal/mol
 G_dispersion     =       0.00000000 hartree =       0.00000000 kcal/mol
 G_repulsion      =       0.00000000 hartree =       0.00000000 kcal/mol
 --------------------------------------------------
 Non-electrostatic Free Energy =       0.00000000 hartree =       0.00000000 kcal/mol
 Total                         =      -0.00574062 hartree =      -3.60229448 kcal/mol
 --------------------------------------------------
 SCF Energy (H0 + V/2)                       =    -346.81491328 
 Solute Internal Energy (H0)                 =    -346.80917266 
 Total Free Energy (H0 + V/2 + non-elec)     =    -346.81491328 hartree
                                             = -217629.64276549 kcal/mol
***********************************************************

E_pcm = -0.0057406217
Multipole orders to be included
        2
        3
computing dipole RHS
computing quadrupole RHS
total number of RHS in solve_reponses: 8
RHS batch sizes
        8
Beginning Block Conjugate Gradient Iterations. Batch Number: 0
computing hessian-vector products by finite difference
              1      5.98e-01     00000 Conjugate Gradient Iteration
computing hessian-vector products by finite difference
              2      1.86e-01     00000 Conjugate Gradient Iteration
computing hessian-vector products by finite difference
              3      4.63e-02     00000 Conjugate Gradient Iteration
computing hessian-vector products by finite difference
              4      1.29e-02     00000 Conjugate Gradient Iteration
computing hessian-vector products by finite difference
              5      3.27e-03     00000 Conjugate Gradient Iteration
computing hessian-vector products by finite difference
              6      1.18e-03     00000 Conjugate Gradient Iteration
computing hessian-vector products by finite difference
              7      3.01e-04     00000 Conjugate Gradient Iteration
computing hessian-vector products by finite difference
              8      5.82e-05     00000 Conjugate Gradient Iteration
computing hessian-vector products by finite difference
              9      1.09e-05     00000 Conjugate Gradient Iteration
computing hessian-vector products by finite difference
             10      1.50e-06     00000 Conjugate Gradient Iteration
computing hessian-vector products by finite difference
             11      2.32e-07     00000 Conjugate Gradient Iteration
computing hessian-vector products by finite difference
             12      4.15e-08     00000 Conjugate Gradient Iteration
computing hessian-vector products by finite difference
             13      8.25e-09     00000 CG Converged
batch 0 complete
Done Calculating Responses
TESTING ORTHOGONALIZATION OF MULTIPOLE BASIS
Multipole virts passed orthogonality test
Virts Per Order
           87
          145
 
 --------------------------------------------------------------
 
                    Orbital Energies (a.u.)
 --------------------------------------------------------------
 
 Alpha MOs
 -- Occupied --
-19.2478 -10.3414 -10.2815 -10.2805 -10.2801 -10.2782 -10.2748 -10.2655
 -1.1918  -0.9895  -0.8992  -0.8787  -0.8108  -0.7476  -0.7130  -0.6636
 -0.5982  -0.5801  -0.5525  -0.5396  -0.5302  -0.5215  -0.5118  -0.4807
 -0.4533  -0.4427  -0.4413  -0.3491  -0.3156
 -- Virtual --
  0.0546   0.0576   0.0676   0.0764   0.0833   0.0941   0.1085   0.1096
  0.1142   0.1307   0.1428   0.1468   0.1541   0.1694   0.1759   0.1918
  0.1972   0.2032   0.2174   0.2241   0.2310   0.2356   0.2464   0.2505
  0.2603   0.2651   0.2662   0.2728   0.2796   0.2916   0.2954   0.3011
  0.3043   0.3070   0.3120   0.3211   0.3331   0.3367   0.3407   0.3468
  0.3513   0.3549   0.3604   0.3684   0.3727   0.3780   0.3802   0.3876
  0.3914   0.3942   0.3969   0.4064   0.4082   0.4140   0.4217   0.4263
  0.4332   0.4477   0.4550   0.4589   0.4685   0.4697   0.4749   0.4791
  0.4810   0.4906   0.4930   0.4977   0.5065   0.5105   0.5217   0.5352
  0.5369   0.5418   0.5491   0.5528   0.5557   0.5654   0.5799   0.5891
  0.5997   0.6033   0.6155   0.6251   0.6351   0.6528   0.6581   0.6721
  0.6747   0.6813   0.6859   0.6888   0.6916   0.6978   0.7140   0.7224
  0.7279   0.7369   0.7443   0.7478   0.7559   0.7734   0.7774   0.7838
  0.7863   0.7908   0.7931   0.7963   0.8017   0.8048   0.8255   0.8324
  0.8415   0.8472   0.8518   0.8534   0.8591   0.8722   0.8798   0.8836
  0.8965   0.9121   0.9195   0.9422   0.9579   0.9693   0.9898   1.0043
  1.0104   1.0279   1.0370   1.0448   1.0470   1.0655   1.0697   1.0761
  1.0956   1.1088   1.1348   1.1692   1.1861   1.2292   1.2524   1.2829
  1.2997   1.3060   1.3205   1.3452   1.3500   1.3785   1.3899   1.4252
  1.4478   1.4609   1.4643   1.4691   1.5148   1.5430   1.5939   1.6129
  1.6206   1.6282   1.6761   1.6763   1.6868   1.7132   1.7797   1.7922
  1.8107   1.8215   1.8284   1.8469   1.8545   1.8736   1.9104   1.9210
  1.9407   1.9555   1.9680   1.9838   1.9963   2.0232   2.0358   2.0499
  2.0514   2.0695   2.0855   2.0952   2.1089   2.1523   2.1903   2.1948
  2.2167   2.2245   2.2555   2.2660   2.2838   2.3108   2.3372   2.3623
  2.3924   2.3931   2.4242   2.4473   2.4882   2.4975   2.5027   2.5447
  2.5700   2.5922   2.5979   2.6267   2.6421   2.6606   2.6760   2.7280
  2.7372   2.7484   2.7685   2.7799   2.8200   2.8280   2.8538   2.8715
  2.8957   2.9044   2.9271   2.9343   2.9420   2.9656   2.9749   2.9942
  3.0056   3.0211   3.0390   3.0795   3.0803   3.1336   3.1441   3.1458
  3.1629   3.1845   3.2024   3.2213   3.2429   3.2541   3.2688   3.2913
  3.3201   3.3435   3.3702   3.3764   3.3935   3.3951   3.4346   3.4494
  3.4595   3.4720   3.4778   3.4935   3.5045   3.5115   3.5190   3.5328
  3.5493   3.5602   3.5624   3.5764   3.5936   3.5996   3.6312   3.6531
  3.6677   3.6864   3.7258   3.7472   3.7847   3.8033   3.8182   3.8737
  3.9194   3.9336   3.9464   3.9762   4.0054   4.0665   4.1100   4.1263
  4.2206   4.2372   4.2543   4.2679   4.2900   4.3051   4.3069   4.3357
  4.3470   4.3538   4.4027   4.4191   4.4466   4.5146   4.5779   4.6002
  4.7029   4.7063   4.7487   4.7672   4.8468   4.9214   4.9955   5.0303
  5.0652   5.1133   5.1392   5.2676   5.2816   5.3788   5.3986   5.5159
  5.6003   5.6059   5.6912   5.7406   5.9173   6.1883   6.4276   6.5777
  6.6215   6.8618   6.9898   7.2971   7.4409  22.6279  22.6735  22.9002
 22.9143  22.9781  23.1108  23.4222  44.3982
 --------------------------------------------------------------
 
          Ground-State Mulliken Net Atomic Charges

     Atom                 Charge (a.u.)
  ----------------------------------------
      1 C                    -0.994398
      2 C                    -0.700294
      3 C                     0.743598
      4 C                    -0.420341
      5 C                     0.537528
      6 C                    -0.431305
      7 C                    -0.563514
      8 O                    -0.480956
      9 H                     0.336355
     10 H                     0.309252
     11 H                     0.279143
     12 H                     0.299371
     13 H                     0.273386
     14 H                     0.271102
     15 H                     0.331033
     16 H                     0.210042
  ----------------------------------------
  Sum of atomic charges =     0.000000

 -----------------------------------------------------------------
                    Cartesian Multipole Moments
 -----------------------------------------------------------------
    Charge (ESU x 10^10)
                 0.0000
    Dipole Moment (Debye)
         X       1.0771      Y       0.0511      Z      -1.3779
       Tot       1.7497
    Quadrupole Moments (Debye-Ang)
        XX     -42.6741     XY       7.5465     YY     -42.7778
        XZ      -4.7399     YZ      -0.8291     ZZ     -45.9733
    Octopole Moments (Debye-Ang^2)
       XXX    -156.4079    XXY       1.4885    XYY     -30.5352
       YYY     -49.7289    XXZ      48.7627    XYZ      -6.7679
       YYZ      51.3839    XZZ     -50.0139    YZZ     -30.7568
       ZZZ     163.5934
    Hexadecapole Moments (Debye-Ang^3)
      XXXX    -593.0483   XXXY    -104.7131   XXYY    -128.0434
      XYYY     -83.5891   YYYY    -605.0286   XXXZ     193.2069
      XXYZ     -50.4073   XYYZ      56.1374   YYYZ    -117.5090
      XXZZ    -242.3853   XYZZ     -62.8064   YYZZ    -287.4720
      XZZZ     178.4389   YZZZ     -93.1668   ZZZZ    -898.7610
 -----------------------------------------------------------------
Archival summary:
1\1\nid00506\SP\ProcedureUnspecified\BasisUnspecified\178\meili\SunSep2621:13:472021SunSep2621:13:472021\0\\#,ProcedureUnspecified,BasisUnspecified,\\0,1\C\O,1,1.37613\H,2,0.964923,1,111.545\C,1,1.40019,2,119.776,3,-178.553,0\H,4,1.07774,1,118.83,2,-1.6812,0\C,4,1.40305,1,121.022,2,178.966,0\H,6,1.08112,4,119.369,1,178.937,0\C,6,1.40192,4,121.205,1,-0.790713,0\C,8,1.40099,6,118.147,4,2.1619,0\H,9,1.08249,8,119.587,6,178.498,0\C,1,1.41159,2,121.401,3,0.743365,0\H,11,1.08157,1,120.179,2,1.16194,0\C,8,1.53494,6,120.955,4,175.643,0\H,13,1.0906,8,108.167,6,24.3874,0\H,13,1.09106,8,110.757,6,143.038,0\H,13,1.1,8,108.56,6,-95.0051,0\\\@

 Total job time:  40151.77s(wall), 79483.78s(cpu) 
 Sun Sep 26 21:13:47 2021

        *************************************************************
        *                                                           *
        *  Thank you very much for using Q-Chem.  Have a nice day.  *
        *                                                           *
        *************************************************************


Done Job For Fragment 1
calling putenv with: QCSCRATCH=/global/cscratch1/sd/meili 
calling putenv with: QCLOCALSCR=/tmp 
calling putenv with: QCTHREADS=32 
Doing General SCFMI
 Exchange:     0.1670 Hartree-Fock + 1.0000 wB97X-V + LR-HF
 Correlation:  1.0000 wB97X-V
 Using Euler-Maclaurin-Lebedev (99,590) quadrature formula
 Nonlocal Correlation:  VV10 with C = 0.0100 and b = 6.00 and scale = 1.00000
 Grid used for NLC:  SG-1 standard quadrature
performing fock build before subrot guess so that all methods have access
Printing subrot_rss_gen Method Specification:
Occupied Subspace Method is 0
Virtual Subspace Method is 0
Energy of the unrelaxed supersystem initial determinant -556.044208989136
performing fock build before subrot guess so that all methods have access
Printing subrot_rss_gen Method Specification:
Occupied Subspace Method is 0
Virtual Subspace Method is 0
Energy of the unrelaxed supersystem initial determinant w/ solvent -556.061031914196
write pseudocanon occs and virts to disk
write pseudocanon orbital energies to disk
Tolerance of ortho_decomp_scf: 1.00e-06
GDM subspace size: 20
Beginning the Orthogonal Decomposition of the Initial Supersystem Wavefunction
    1    -556.0263283090      2.70e-02     ortho_decomp Preconditoned Steepest Descent
    2    -556.0284489828      7.55e-04     ortho_decomp BFGS Step
    3    -556.0284574767      5.42e-05     ortho_decomp BFGS Step
    4    -556.0284574872      2.09e-06     ortho_decomp BFGS Step
    5    -556.0284574873      7.79e-08     ortho_decomp 00000 Convergence criterion met
 Hartree-Fock
 Hartree-Fock
 Hartree-Fock
Doing General SCFMI
 Exchange:     0.1670 Hartree-Fock + 1.0000 wB97X-V + LR-HF
 Correlation:  1.0000 wB97X-V
 Using Euler-Maclaurin-Lebedev (99,590) quadrature formula
 Nonlocal Correlation:  VV10 with C = 0.0100 and b = 6.00 and scale = 1.00000
 Grid used for NLC:  SG-1 standard quadrature
performing fock build at end of subrot_r(subrot) constructor so that all methods have access
<S^2> of initial wavefunction before polarization iterations 0.0000000000
Beginning iterations for the determination of the polarized wavefunction
Energy prior to optimization (guess energy) = -556.061031914195
Begin Timing: Total SCF Calculation
begin iterations for algorithm: DIIS         
the SCF tolerance is set to 1.00e-08
    1    -556.0610319142      4.65e-05     00000 
    2    -556.0612209243      2.30e-05     00000 
    3    -556.0612408300      1.45e-05     00000 
    4    -556.0612498521      4.08e-06     00000 
    5    -556.0612507247      1.83e-06     00000 
    6    -556.0612509469      6.03e-07     00000 
    7    -556.0612509814      2.28e-07     00000 
    8    -556.0612509855      7.69e-08     00000 
    9    -556.0612509860      2.91e-08     00000 
   10    -556.0612509860      1.43e-08     00000 
   11    -556.0612509860      4.26e-09     00000 Convergence criterion met
write pseudocanon occs and virts to disk
write pseudocanon orbital energies to disk
Timing for Total SCF: 5728.00s (wall), 11389.50s (cpu)
<S^2> of polarized wavefunction after polarization iterations 0.0000000000
relaxing scfmi constraint to allow all rotations in the entire AO span
Doing General SCFMI
 Exchange:     0.1670 Hartree-Fock + 1.0000 wB97X-V + LR-HF
 Correlation:  1.0000 wB97X-V
 Using Euler-Maclaurin-Lebedev (99,590) quadrature formula
 Nonlocal Correlation:  VV10 with C = 0.0100 and b = 6.00 and scale = 1.00000
 Grid used for NLC:  SG-1 standard quadrature
performing fock build at end of subrot_r(subrot) constructor so that all methods have access
<S^2> of polarized wavefunction before ct-allowed iterations 0.0000000000
Beginning iterations for the determination of the CT-Allowed wavefunction
Energy prior to optimization (guess energy) = -556.061250986026
Begin Timing: Total SCF Calculation
begin iterations for algorithm: DIIS         
the SCF tolerance is set to 1.00e-08
    1    -556.0612509860      6.47e-05     00000 
    2    -556.0619028140      6.82e-06     00000 
    3    -556.0619210860      1.32e-06     00000 
    4    -556.0619215179      1.16e-06     00000 
    5    -556.0619216718      1.83e-07     00000 
    6    -556.0619216771      9.91e-08     00000 
    7    -556.0619216787      1.67e-08     00000 
    8    -556.0619216788      6.37e-09     00000 Convergence criterion met
write pseudocanon occs and virts to disk
write pseudocanon orbital energies to disk
Timing for Total SCF: 3979.00s (wall), 7915.84s (cpu)
<S^2> of ct_allowed wavefunction after ct-allowed iterations 0.0000000000

================================
        Results of EDA2         
================================
Basic EDA Quantities
--------------------
Fragment Energies (Ha):
1 -209.2447162423
2 -346.8149132772
--------------------
  E_prp (kJ/mol) = -0.0000
  E_sol (kJ/mol) = 4.3340
  E_frz (kJ/mol) = -8.0160
  E_pol (kJ/mol) = -0.5752
  E_vct (kJ/mol) = -1.7609
  E_int (kJ/mol) = -6.0181
--------------------


Initial Wavefunction Decomposition
--------------------
  --------------------
  Orthogonal Fragment Subspace Decomposition:
  --------------------
     E_elec   (ELEC)   (kJ/mol) = -22.0267
     E_pauli  (PAULI)  (kJ/mol) = 25.8918
     E_disp   (DISP)   (kJ/mol) = -11.8811
     --------------------
     Terms summing to E_pauli:
     --------------------
        E_kep_pauli       (kJ/mol) = 33.3400
        E_disp_free_pauli (kJ/mol) = -7.4483
  --------------------
  Classical Frozen Decomposition:
  --------------------
     E_cls_elec  (CLS ELEC)  (kJ/mol) = -9.4906
     E_cls_pauli (CLS PAULI) (kJ/mol) = 1.4746
    [E_mod_pauli (MOD PAULI) (kJ/mol) = 13.3557 (CLS PAULI - DISP from orthogonal decomposition) ]
  --------------------
--------------------

Simplified EDA Summary (kJ/mol)
--------------------
 PREPARATION     -0.0000
 SOLVATION       4.3340
 FROZEN          3.8651      (does not include dispersion)
[PAULI           25.8918]     (if this is negligible, then frozen describes electrostatics)
 DISPERSION      -11.8811
 POLARIZATION    -0.5752
 CHARGE TRANSFER -1.7609
 TOTAL           -6.0181     (PRP + SOL + FRZ + DISP + POL + CT)
--------------------
 
 --------------------------------------------------------------
 
                    Orbital Energies (a.u.)
 --------------------------------------------------------------
 
 Alpha MOs
 -- Occupied --
-19.2472 -19.1785 -14.4387 -10.3767 -10.3401 -10.2797 -10.2792 -10.2789
-10.2747 -10.2726 -10.2695 -10.2646  -1.1911  -1.1686  -1.0509  -0.9878
 -0.8979  -0.8773  -0.8762  -0.8096  -0.7461  -0.7176  -0.7116  -0.6642
 -0.6619  -0.5974  -0.5937  -0.5787  -0.5740  -0.5507  -0.5386  -0.5289
 -0.5207  -0.5165  -0.5103  -0.5058  -0.4822  -0.4793  -0.4516  -0.4415
 -0.4405  -0.3838  -0.3686  -0.3472  -0.3144
 -- Virtual --
  0.0528   0.0553   0.0635   0.0695   0.0744   0.0870   0.0898   0.0926
  0.0971   0.1064   0.1112   0.1205   0.1247   0.1274   0.1326   0.1395
  0.1457   0.1499   0.1542   0.1552   0.1739   0.1750   0.1863   0.1970
  0.1989   0.1993   0.2082   0.2088   0.2130   0.2272   0.2278   0.2303
  0.2375   0.2385   0.2477   0.2509   0.2536   0.2580   0.2664   0.2689
  0.2748   0.2800   0.2813   0.2857   0.2948   0.2965   0.2998   0.3046
  0.3108   0.3143   0.3179   0.3276   0.3306   0.3340   0.3358   0.3399
  0.3418   0.3466   0.3484   0.3538   0.3540   0.3569   0.3603   0.3610
  0.3644   0.3664   0.3716   0.3801   0.3806   0.3832   0.3861   0.3933
  0.3961   0.4014   0.4043   0.4061   0.4093   0.4151   0.4207   0.4265
  0.4285   0.4341   0.4353   0.4409   0.4434   0.4502   0.4546   0.4570
  0.4609   0.4656   0.4722   0.4742   0.4814   0.4826   0.4865   0.4913
  0.4953   0.4975   0.5034   0.5038   0.5097   0.5134   0.5207   0.5229
  0.5288   0.5328   0.5373   0.5405   0.5433   0.5458   0.5531   0.5566
  0.5613   0.5706   0.5725   0.5819   0.5870   0.5907   0.5945   0.5998
  0.6067   0.6144   0.6215   0.6274   0.6382   0.6434   0.6447   0.6524
  0.6584   0.6668   0.6699   0.6788   0.6872   0.6889   0.6951   0.6991
  0.7031   0.7066   0.7072   0.7171   0.7239   0.7283   0.7307   0.7434
  0.7464   0.7503   0.7574   0.7623   0.7625   0.7679   0.7785   0.7830
  0.7846   0.7874   0.7938   0.7959   0.7988   0.8008   0.8137   0.8170
  0.8188   0.8253   0.8296   0.8349   0.8400   0.8420   0.8474   0.8499
  0.8623   0.8669   0.8748   0.8777   0.8830   0.8834   0.8901   0.8990
  0.8996   0.9094   0.9179   0.9232   0.9249   0.9347   0.9403   0.9555
  0.9572   0.9720   0.9747   0.9839   0.9966   1.0084   1.0102   1.0172
  1.0298   1.0367   1.0385   1.0543   1.0614   1.0692   1.0721   1.0867
  1.0949   1.1002   1.1047   1.1099   1.1132   1.1351   1.1371   1.1454
  1.1497   1.1725   1.1981   1.2307   1.2348   1.2458   1.2639   1.2703
  1.2880   1.2991   1.3085   1.3132   1.3215   1.3331   1.3451   1.3567
  1.3654   1.3828   1.3921   1.4022   1.4101   1.4300   1.4543   1.4725
  1.4769   1.4839   1.4894   1.5129   1.5247   1.5421   1.5560   1.5814
  1.6037   1.6298   1.6459   1.6559   1.6820   1.6909   1.6955   1.7112
  1.7159   1.7287   1.7629   1.7851   1.7927   1.8074   1.8316   1.8481
  1.8599   1.8642   1.8683   1.8810   1.8955   1.9141   1.9289   1.9324
  1.9361   1.9425   1.9476   1.9677   1.9747   1.9840   2.0052   2.0090
  2.0113   2.0273   2.0489   2.0601   2.0639   2.0655   2.0715   2.0941
  2.1050   2.1095   2.1235   2.1347   2.1554   2.1703   2.1860   2.1944
  2.2047   2.2083   2.2254   2.2394   2.2535   2.2664   2.2775   2.2806
  2.2944   2.3171   2.3222   2.3369   2.3496   2.3806   2.3980   2.4049
  2.4123   2.4284   2.4304   2.4459   2.4647   2.4828   2.4977   2.5200
  2.5263   2.5293   2.5630   2.5648   2.5885   2.5906   2.6057   2.6155
  2.6408   2.6559   2.6591   2.6735   2.6827   2.6959   2.7090   2.7286
  2.7492   2.7560   2.7821   2.7877   2.7930   2.8245   2.8405   2.8531
  2.8601   2.8645   2.8764   2.8825   2.9135   2.9214   2.9399   2.9436
  2.9577   2.9599   2.9827   2.9851   2.9988   3.0117   3.0197   3.0360
  3.0535   3.0618   3.0981   3.1008   3.1131   3.1352   3.1428   3.1498
  3.1544   3.1645   3.1746   3.1929   3.2109   3.2273   3.2441   3.2459
  3.2524   3.2646   3.2719   3.2831   3.2868   3.2908   3.3077   3.3274
  3.3475   3.3506   3.3565   3.3781   3.3807   3.3982   3.4023   3.4161
  3.4462   3.4529   3.4652   3.4725   3.4818   3.4910   3.5007   3.5031
  3.5215   3.5261   3.5388   3.5547   3.5596   3.5666   3.5717   3.5797
  3.5859   3.5908   3.6061   3.6222   3.6348   3.6484   3.6566   3.6656
  3.6671   3.6763   3.7050   3.7156   3.7210   3.7662   3.7947   3.8008
  3.8088   3.8278   3.8849   3.9247   3.9262   3.9437   3.9528   3.9865
  3.9988   4.0126   4.0461   4.0710   4.0813   4.0921   4.1162   4.1412
  4.2030   4.2295   4.2428   4.2671   4.2927   4.3018   4.3154   4.3298
  4.3402   4.3476   4.3538   4.3708   4.4039   4.4251   4.4303   4.4532
  4.5300   4.5758   4.5845   4.6119   4.6237   4.6436   4.6787   4.7072
  4.7251   4.7538   4.7728   4.8221   4.8547   4.9117   4.9303   4.9524
  4.9681   5.0158   5.0398   5.0834   5.1287   5.1582   5.1712   5.2291
  5.2743   5.2849   5.2898   5.3580   5.3815   5.4057   5.4107   5.4231
  5.4289   5.4987   5.5230   5.5622   5.6022   5.6247   5.7034   5.7419
  5.7865   5.9191   5.9205   6.1398   6.1927   6.2695   6.4247   6.5246
  6.5894   6.6285   6.6950   6.7764   6.8447   6.8657   6.9955   7.0266
  7.2435   7.2976   7.3316   7.4505  22.6256  22.6394  22.7344  22.9179
 22.9500  22.9950  23.1411  23.4404  23.6273  32.4917  44.4019  44.4087
 --------------------------------------------------------------
 
          Ground-State Mulliken Net Atomic Charges

     Atom                 Charge (a.u.)
  ----------------------------------------
      1 C                    -0.782099
      2 C                     0.517485
      3 O                    -0.601544
      4 N                    -0.263053
      5 H                     0.204696
      6 H                     0.300966
      7 H                     0.237239
      8 H                     0.188416
      9 H                     0.204027
     10 C                    -1.039678
     11 C                    -0.438257
     12 C                     0.380692
     13 C                    -0.077088
     14 C                     0.203431
     15 C                    -0.438170
     16 C                    -0.492027
     17 O                    -0.476888
     18 H                     0.328042
     19 H                     0.317205
     20 H                     0.328379
     21 H                     0.292651
     22 H                     0.279007
     23 H                     0.261255
     24 H                     0.352657
     25 H                     0.212654
  ----------------------------------------
  Sum of atomic charges =     0.000000

 -----------------------------------------------------------------
                    Cartesian Multipole Moments
 -----------------------------------------------------------------
    Charge (ESU x 10^10)
                -0.0000
    Dipole Moment (Debye)
         X       2.7517      Y       1.1529      Z       3.5998
       Tot       4.6755
    Quadrupole Moments (Debye-Ang)
        XX     -76.4010     XY       3.1447     YY     -65.0999
        XZ     -12.3408     YZ      -3.1093     ZZ     -52.4786
    Octopole Moments (Debye-Ang^2)
       XXX      40.8384    XXY      42.2572    XYY      20.5333
       YYY      32.6556    XXZ       6.3129    XYZ      -3.0945
       YYZ      10.1288    XZZ     -26.6502    YZZ     -12.0226
       ZZZ      68.4607
    Hexadecapole Moments (Debye-Ang^3)
      XXXX   -1488.6493   XXXY    -333.0321   XXYY    -312.9848
      XYYY    -270.7262   YYYY    -956.8685   XXXZ     525.3480
      XXYZ       5.2046   XYYZ     145.1810   YYYZ      58.8987
      XXZZ    -459.5186   XYZZ    -105.4640   YYZZ    -454.0343
      XZZZ     413.7068   YZZZ      68.0955   ZZZZ   -1486.7793
 -----------------------------------------------------------------
Archival summary:
1\1\nid00506\SP\ProcedureUnspecified\BasisUnspecified\21913\meili\MonSep2702:12:102021MonSep2702:12:102021\0\\#,ProcedureUnspecified,BasisUnspecified,\\0,1\O\C,1,1.24048\N,2,1.318,1,123.398\H,3,1.00706,2,118.88,1,3.81617,0\H,3,1.0213,2,119.902,1,179.348,0\C,2,1.48888,1,120.127,3,-178.266,0\H,6,1.08292,2,110.714,1,-145.666,0\H,6,1.08682,2,107.537,1,-29.0227,0\H,6,1.1,2,110.757,1,94.3696,0\H,4,2.46071,3,91.1054,2,-84.6539,0\C,10,1.07774,4,149.285,3,116.524,0\C,11,1.40019,10,118.83,4,124.656,0\O,12,1.37613,11,119.776,10,-1.6812,0\H,13,0.964923,12,111.545,11,-178.553,0\C,11,1.40305,10,120.145,4,-55.985,0\H,15,1.08112,11,119.369,10,-0.407213,0\C,15,1.40192,11,121.205,10,179.865,0\C,17,1.40099,15,118.147,11,2.1619,0\H,18,1.08249,17,119.587,15,178.498,0\C,12,1.41159,11,118.819,10,179.004,0\H,20,1.08157,12,120.179,11,-179.535,0\C,17,1.53494,15,120.955,11,175.643,0\H,22,1.0906,17,108.167,15,24.3874,0\H,22,1.09106,17,110.757,15,143.038,0\H,22,1.1,17,108.56,15,-95.0051,0\\\@

 Total job time:  64284.04s(wall), 35629.09s(cpu) 
 Mon Sep 27 02:12:10 2021

        *************************************************************
        *                                                           *
        *  Thank you very much for using Q-Chem.  Have a nice day.  *
        *                                                           *
        *************************************************************


