
Running Job 1 of 1 SSI-029PHE-168TYR-1_PCM_TZVPD.in
qchem SSI-029PHE-168TYR-1_PCM_TZVPD.in_20194.0 /tmp/qchem20194/ 0
/global/common/cori/software/qchem/5.2/exe/qcprog.exe_s SSI-029PHE-168TYR-1_PCM_TZVPD.in_20194.0 /tmp/qchem20194/
                  Welcome to Q-Chem
     A Quantum Leap Into The Future Of Chemistry


 Q-Chem 5.2, Q-Chem, Inc., Pleasanton, CA (2019)

 License issued to: National Energy Research Scientific Computing Center

 Yihan Shao,  Zhengting Gan,  E. Epifanovsky,  A. T. B. Gilbert,  M. Wormit,  
 J. Kussmann,  A. W. Lange,  A. Behn,  Jia Deng,  Xintian Feng,  D. Ghosh,  
 M. Goldey,  P. R. Horn,  L. D. Jacobson,  I. Kaliman,  T. Kus,  A. Landau,  
 Jie Liu,  E. I. Proynov,  R. M. Richard,  R. P. Steele,  E. J. Sundstrom,  
 H. L. Woodcock III,  P. M. Zimmerman,  D. Zuev,  B. Albrecht,  E. Alguire,  
 S. A. Baeppler,  D. Barton,  Z. Benda,  Y. A. Bernard,  E. J. Berquist,  
 K. B. Bravaya,  H. Burton,  D. Casanova,  Chun-Min Chang,  Yunqing Chen,  
 A. Chien,  K. D. Closser,  M. P. Coons,  S. Coriani,  S. Dasgupta,  
 A. L. Dempwolff,  M. Diedenhofen,  Hainam Do,  R. G. Edgar,  Po-Tung Fang,  
 S. Faraji,  S. Fatehi,  Qingguo Feng,  K. D. Fenk,  J. Fosso-Tande,  
 J. Gayvert,  Qinghui Ge,  A. Ghysels,  G. Gidofalvi,  J. Gomes,  
 J. Gonthier,  A. Gunina,  D. Hait,  M. W. D. Hanson-Heine,  
 P. H. P. Harbach,  A. W. Hauser,  M. F. Herbst,  J. E. Herr,  
 E. G. Hohenstein,  Z. C. Holden,  Kerwin Hui,  B. C. Huynh,  T.-C. Jagau,  
 Hyunjun Ji,  B. Kaduk,  K. Khistyaev,  Jaehoon Kim,  P. Klunzinger,  K. Koh,  
 D. Kosenkov,  L. Koulias,  T. Kowalczyk,  C. M. Krauter,  A. Kunitsa,  
 Ka Un Lao,  A. Laurent,  K. V. Lawler,  Joonho Lee,  D. Lefrancois,  
 S. Lehtola,  D. S. Levine,  Yi-Pei Li,  You-Sheng Lin,  Fenglai Liu,  
 E. Livshits,  A. Luenser,  P. Manohar,  E. Mansoor,  S. F. Manzer,  
 Shan-Ping Mao,  Yuezhi Mao,  N. Mardirossian,  A. V. Marenich,  
 T. Markovich,  L. A. Martinez-Martinez,  S. A. Maurer,  N. J. Mayhall,  
 S. C. McKenzie,  J.-M. Mewes,  P. Morgante,  A. F. Morrison,  
 J. W. Mullinax,  K. Nanda,  T. S. Nguyen-Beck,  R. Olivares-Amaya,  
 J. A. Parkhill,  Zheng Pei,  T. M. Perrine,  F. Plasser,  P. Pokhilko,  
 S. Prager,  A. Prociuk,  E. Ramos,  D. R. Rehn,  F. Rob,  M. Scheurer,  
 M. Schneider,  N. Sergueev,  S. M. Sharada,  S. Sharma,  D. W. Small,  
 T. Stauch,  T. Stein,  Yu-Chuan Su,  A. J. W. Thom,  A. Tkatchenko,  
 T. Tsuchimochi,  N. M. Tubman,  L. Vogt,  M. L. Vidal,  O. Vydrov,  
 M. A. Watson,  J. Wenzel,  M. de Wergifosse,  T. A. Wesolowski,  A. White,  
 J. Witte,  A. Yamada,  Jun Yang,  K. Yao,  S. Yeganeh,  S. R. Yost,  
 Zhi-Qiang You,  A. Zech,  Igor Ying Zhang,  Xing Zhang,  Yan Zhao,  
 Ying Zhu,  B. R. Brooks,  G. K. L. Chan,  C. J. Cramer,  M. S. Gordon,  
 W. J. Hehre,  A. Klamt,  M. W. Schmidt,  C. D. Sherrill,  D. G. Truhlar,  
 A. Aspuru-Guzik,  R. Baer,  A. T. Bell,  N. A. Besley,  Jeng-Da Chai,  
 A. E. DePrince, III,  R. A. DiStasio Jr.,  A. Dreuw,  B. D. Dunietz,  
 T. R. Furlani,  Chao-Ping Hsu,  Yousung Jung,  Jing Kong,  D. S. Lambrecht,  
 WanZhen Liang,  C. Ochsenfeld,  V. A. Rassolov,  L. V. Slipchenko,  
 J. E. Subotnik,  T. Van Voorhis,  J. M. Herbert,  A. I. Krylov,  
 P. M. W. Gill,  M. Head-Gordon

 Contributors to earlier versions of Q-Chem not listed above: 
 R. D. Adamson,  B. Austin,  J. Baker,  G. J. O. Beran,  K. Brandhorst,  
 S. T. Brown,  E. F. C. Byrd,  A. K. Chakraborty,  C.-L. Cheng,  
 Siu Hung Chien,  D. M. Chipman,  D. L. Crittenden,  H. Dachsel,  
 R. J. Doerksen,  A. D. Dutoi,  L. Fusti-Molnar,  W. A. Goddard III,  
 A. Golubeva-Zadorozhnaya,  S. R. Gwaltney,  G. Hawkins,  A. Heyden,  
 S. Hirata,  G. Kedziora,  F. J. Keil,  C. Kelley,  Jihan Kim,  R. A. King,  
 R. Z. Khaliullin,  P. P. Korambath,  W. Kurlancheek,  A. M. Lee,  M. S. Lee,  
 S. V. Levchenko,  Ching Yeh Lin,  D. Liotard,  R. C. Lochan,  I. Lotan,  
 P. E. Maslen,  N. Nair,  D. P. O'Neill,  D. Neuhauser,  E. Neuscamman,  
 C. M. Oana,  R. Olson,  B. Peters,  R. Peverati,  P. A. Pieniazek,  
 Y. M. Rhee,  J. Ritchie,  M. A. Rohrdanz,  E. Rosta,  N. J. Russ,  
 H. F. Schaefer III,  N. E. Schultz,  N. Shenvi,  A. C. Simmonett,  A. Sodt,  
 D. Stuck,  K. S. Thanthiriwatte,  V. Vanovschi,  Tao Wang,  A. Warshel,  
 C. F. Williams,  Q. Wu,  X. Xu,  W. Zhang

 Please cite Q-Chem as follows:
 Y. Shao et al., Mol. Phys. 113, 184-215 (2015)
 DOI: 10.1080/00268976.2014.952696

 Q-Chem 5.2.0 for Intel X86 EM64T Linux

 Parts of Q-Chem use Armadillo 8.300.2 (Tropical Shenanigans).
 http://arma.sourceforge.net/

 Q-Chem begins on Sun Sep 26 04:42:01 2021  

Host: cori01
0

     Scratch files written to /tmp/qchem20194//
 May1019 |scratch|qcdevops|jenkins|workspace|build_RNUM -1
Processing $rem in /global/common/cori/software/qchem/5.2/config/preferences:
	 MEM_TOTAL  96000 
NAlpha2: 108
NElect   108
Mult     1
Symmetry turned off for PCM/SM12/SMD calculation

 Q-Chem warning in module libgen/rem_setup.C, line 2803:

 Neither GIA nor STOLL is specified by user. Use STOLL as the default


Checking the input file for inconsistencies... 	...done.

--------------------------------------------------------------
User input:
--------------------------------------------------------------
$comment
SSI-029PHE-168TYR-1.pdb
$end

$molecule
0 1
--
0 1
C    0.455962955135    2.629656356887    2.048190773493
C   -0.817037044865    0.497656356887    2.326190773493
C   -0.812037044865    1.852656356887    2.049190773493
C   -2.006037044865   -0.197343643113    2.390190773493
C   -3.202037044865    0.445656356887    2.187190773493
C   -2.011037044865    2.492656356887    1.840190773493
C   -3.202037044865    1.791656356887    1.899190773493
H    0.110962955135   -0.021343643113    2.509190773493
H   -1.997037044865   -1.255343643113    2.616190773493
H    0.361962955135    3.487656356887    1.380190773493
H    1.253962955135    1.996656356887    1.657190773493
H   -4.134037044865   -0.097343643113    2.251190773493
H   -2.028037044865    3.550656356887    1.632190773493
H   -4.140037044865    2.301656356887    1.728190773493
H    0.733647955135    2.978356356887    3.053820773493
--
0 1
C    3.781962955135    0.072656356887   -0.649809226507
C    1.382962955135   -0.665343643113   -0.494809226507
C    2.565962955135   -0.601343643113   -1.232809226507
C    0.227962955135   -1.233343643113   -1.032809226507
C    0.245962955135   -1.755343643113   -2.328809226507
C    2.574962955135   -1.138343643113   -2.531809226507
C    1.431962955135   -1.724343643113   -3.058809226507
O   -0.863037044865   -2.280343643113   -2.925809226507
H    1.354962955135   -0.252343643113    0.504190773493
H   -0.685037044865   -1.254343643113   -0.454809226507
H    3.449962955135    0.775656356887    0.113190773493
H    4.260962955135    0.667656356887   -1.428809226507
H    3.478962955135   -1.096343643113   -3.125809226507
H   -1.652037044865   -2.200343643113   -2.359809226507
H    1.449962955135   -2.160343643113   -4.044809226507
H    4.525649955135   -0.606233643113   -0.207049226507
$end

$rem
JOBTYPE			EDA
EDA2			1
method			wB97X-V
BASIS			def2-TZVPD
XC_GRID			000099000590
NL_GRID			1
UNRESTRICTED		FALSE
MAX_SCF_CYCLES		200
SYMMETRY		FALSE
SYM_IGNORE		TRUE
MEM_STATIC		2000
BASIS_LIN_DEP_THRESH 	6
THRESH 			14
SCF_CONVERGENCE 	8
SCF_PRINT_FRGM 		TRUE
SOLVENT_METHOD          PCM
$end

$PCM
THEORY                  CPCM
METHOD                  SWIG
SOLVER                  INVERSION
RADII                   UFF
HPOINTS                 302
HEAVYPOINTS             302
PRINTLEVEL              0
$END

$SOLVENT
DIELECTRIC              78.390000 ! water
$END
--------------------------------------------------------------
 ----------------------------------------------------------------
             Standard Nuclear Orientation (Angstroms)
    I     Atom           X                Y                Z
 ----------------------------------------------------------------
    1      C       0.4559629551     2.6296563569     2.0481907735
    2      C      -0.8170370449     0.4976563569     2.3261907735
    3      C      -0.8120370449     1.8526563569     2.0491907735
    4      C      -2.0060370449    -0.1973436431     2.3901907735
    5      C      -3.2020370449     0.4456563569     2.1871907735
    6      C      -2.0110370449     2.4926563569     1.8401907735
    7      C      -3.2020370449     1.7916563569     1.8991907735
    8      H       0.1109629551    -0.0213436431     2.5091907735
    9      H      -1.9970370449    -1.2553436431     2.6161907735
   10      H       0.3619629551     3.4876563569     1.3801907735
   11      H       1.2539629551     1.9966563569     1.6571907735
   12      H      -4.1340370449    -0.0973436431     2.2511907735
   13      H      -2.0280370449     3.5506563569     1.6321907735
   14      H      -4.1400370449     2.3016563569     1.7281907735
   15      H       0.7336479551     2.9783563569     3.0538207735
   16      C       3.7819629551     0.0726563569    -0.6498092265
   17      C       1.3829629551    -0.6653436431    -0.4948092265
   18      C       2.5659629551    -0.6013436431    -1.2328092265
   19      C       0.2279629551    -1.2333436431    -1.0328092265
   20      C       0.2459629551    -1.7553436431    -2.3288092265
   21      C       2.5749629551    -1.1383436431    -2.5318092265
   22      C       1.4319629551    -1.7243436431    -3.0588092265
   23      O      -0.8630370449    -2.2803436431    -2.9258092265
   24      H       1.3549629551    -0.2523436431     0.5041907735
   25      H      -0.6850370449    -1.2543436431    -0.4548092265
   26      H       3.4499629551     0.7756563569     0.1131907735
   27      H       4.2609629551     0.6676563569    -1.4288092265
   28      H       3.4789629551    -1.0963436431    -3.1258092265
   29      H      -1.6520370449    -2.2003436431    -2.3598092265
   30      H       1.4499629551    -2.1603436431    -4.0448092265
   31      H       4.5256499551    -0.6062336431    -0.2070492265
 ----------------------------------------------------------------
 Nuclear Repulsion Energy =         878.04545561 hartrees
 There are       54 alpha and       54 beta electrons
 Requested basis set is def2-TZVPD
 There are 276 shells and 702 basis functions

 Total QAlloc Memory Limit  96000 MB
 Mega-Array Size      1956 MB
 MEM_STATIC part      2000 MB
 Discretize the solute cavity surface with Lebedev spheres
	Using 302 Lebedev grid points for each H atom
	Using 302 Lebedev grid points for other atoms
	Atomic van der Waals radii will be scaled by 1.20
 Remove points where switching function is < 1.0e-08
 Keep 3433 surface tesserae and discard 5929 interior tesserae
 Molecular Surface Area = 334.594 Angst**2
 A cutoff of  1.0D-14 yielded  32024 shell pairs
 There are    206130 function pairs (    259656 Cartesian)
 Smallest overlap matrix eigenvalue = 4.09E-07
 Linear dependence detected in AO basis
 Tighter screening thresholds may be required for diffuse basis sets
 Use S2THRESH > 14 and THRESH = 14 in case of SCF convergence issues
 Number of orthogonalized atomic orbitals = 697
 Maximum deviation from orthogonality = 1.334E-10

 Scale SEOQF with 1.000000e-01/1.000000e-01/1.000000e-01

 Standard Electronic Orientation quadrupole field applied
 Nucleus-field energy     =    -0.0000000134 hartrees

 -----------------------------------------------------------------------
  General SCF calculation program by
  Eric Jon Sundstrom, Paul Horn, Yuezhi Mao, Dmitri Zuev, Alec White,
  David Stuck, Shaama M.S., Shane Yost, Joonho Lee, David Small,
  Daniel Levine, Susi Lehtola, Hugh Burton, Evgeny Epifanovsky
 -----------------------------------------------------------------------
================================================================
                 ALMO-EDA with the EDA2 driver                  
================================================================
 The second-generation ALMO-EDA (for DFT):                      
 P. R. Horn, Y. Mao and M. Head-Gordon, PCCP, 18, 23067 (2016)  
 Decomposition of the frozen energy:                            
 P. R. Horn, Y. Mao and M. Head-Gordon, JCP, 144, 114107 (2016) 
 FERF model for polarization:                                   
 P. R. Horn and M. Head-Gordon, JCP, 143, 114111 (2015)         
Using eda2 option set 1
Option set summary: Frozen orbital wavefunction, initial wavefunction decomposition, and nDQ polarization.
--------------------------------
Printing EDA Options
--------------------------------
eda_child_super_basis      0
fragmo_guess_mode          0
child_mp                   1
child_mp_orders            232
cls_elec                   1
cls_disp                   0
scfmi_mode                 1
scfmi_occs                 0
scfmi_virts                0
frz_relax                  0
frz_relax_method           0
dc_pen_start               0
dc_pen_conv                0
dc_pen_increment           0
dc_pen_steps               0
dc_pen_thresh_factor       0
dc_pen_pre_newton_thresh   0
frz_ortho_decomp           1
frz_ortho_decomp_conv      6
frgm_method                2
scfmi_freeze_ss            0
separate_rehyb             0
plot_diff_den              0
eda_nocv                   0
eda_vct_relax              1
disp_free_x                0
disp_free_c                0
eda_bsse                   0
eda_pct_a                  0
eda_covp                   0
--------------------------------
Attempting to make child job directory: /tmp/qchem20194//Frg1/
Attempting to make child job directory: /tmp/qchem20194//Frg2/
Creating input file /tmp/qchem20194/Frg1.input
using default PutDataFrgm: nothing
calling putenv with: QCSCRATCH=/tmp/qchem20194/ 
calling putenv with: QCLOCALSCR=/tmp/qchem20194/ 
Spawning Job For Fragment 0
                  Welcome to Q-Chem
     A Quantum Leap Into The Future Of Chemistry


 Q-Chem 5.2, Q-Chem, Inc., Pleasanton, CA (2019)

 License issued to: National Energy Research Scientific Computing Center

 Yihan Shao,  Zhengting Gan,  E. Epifanovsky,  A. T. B. Gilbert,  M. Wormit,  
 J. Kussmann,  A. W. Lange,  A. Behn,  Jia Deng,  Xintian Feng,  D. Ghosh,  
 M. Goldey,  P. R. Horn,  L. D. Jacobson,  I. Kaliman,  T. Kus,  A. Landau,  
 Jie Liu,  E. I. Proynov,  R. M. Richard,  R. P. Steele,  E. J. Sundstrom,  
 H. L. Woodcock III,  P. M. Zimmerman,  D. Zuev,  B. Albrecht,  E. Alguire,  
 S. A. Baeppler,  D. Barton,  Z. Benda,  Y. A. Bernard,  E. J. Berquist,  
 K. B. Bravaya,  H. Burton,  D. Casanova,  Chun-Min Chang,  Yunqing Chen,  
 A. Chien,  K. D. Closser,  M. P. Coons,  S. Coriani,  S. Dasgupta,  
 A. L. Dempwolff,  M. Diedenhofen,  Hainam Do,  R. G. Edgar,  Po-Tung Fang,  
 S. Faraji,  S. Fatehi,  Qingguo Feng,  K. D. Fenk,  J. Fosso-Tande,  
 J. Gayvert,  Qinghui Ge,  A. Ghysels,  G. Gidofalvi,  J. Gomes,  
 J. Gonthier,  A. Gunina,  D. Hait,  M. W. D. Hanson-Heine,  
 P. H. P. Harbach,  A. W. Hauser,  M. F. Herbst,  J. E. Herr,  
 E. G. Hohenstein,  Z. C. Holden,  Kerwin Hui,  B. C. Huynh,  T.-C. Jagau,  
 Hyunjun Ji,  B. Kaduk,  K. Khistyaev,  Jaehoon Kim,  P. Klunzinger,  K. Koh,  
 D. Kosenkov,  L. Koulias,  T. Kowalczyk,  C. M. Krauter,  A. Kunitsa,  
 Ka Un Lao,  A. Laurent,  K. V. Lawler,  Joonho Lee,  D. Lefrancois,  
 S. Lehtola,  D. S. Levine,  Yi-Pei Li,  You-Sheng Lin,  Fenglai Liu,  
 E. Livshits,  A. Luenser,  P. Manohar,  E. Mansoor,  S. F. Manzer,  
 Shan-Ping Mao,  Yuezhi Mao,  N. Mardirossian,  A. V. Marenich,  
 T. Markovich,  L. A. Martinez-Martinez,  S. A. Maurer,  N. J. Mayhall,  
 S. C. McKenzie,  J.-M. Mewes,  P. Morgante,  A. F. Morrison,  
 J. W. Mullinax,  K. Nanda,  T. S. Nguyen-Beck,  R. Olivares-Amaya,  
 J. A. Parkhill,  Zheng Pei,  T. M. Perrine,  F. Plasser,  P. Pokhilko,  
 S. Prager,  A. Prociuk,  E. Ramos,  D. R. Rehn,  F. Rob,  M. Scheurer,  
 M. Schneider,  N. Sergueev,  S. M. Sharada,  S. Sharma,  D. W. Small,  
 T. Stauch,  T. Stein,  Yu-Chuan Su,  A. J. W. Thom,  A. Tkatchenko,  
 T. Tsuchimochi,  N. M. Tubman,  L. Vogt,  M. L. Vidal,  O. Vydrov,  
 M. A. Watson,  J. Wenzel,  M. de Wergifosse,  T. A. Wesolowski,  A. White,  
 J. Witte,  A. Yamada,  Jun Yang,  K. Yao,  S. Yeganeh,  S. R. Yost,  
 Zhi-Qiang You,  A. Zech,  Igor Ying Zhang,  Xing Zhang,  Yan Zhao,  
 Ying Zhu,  B. R. Brooks,  G. K. L. Chan,  C. J. Cramer,  M. S. Gordon,  
 W. J. Hehre,  A. Klamt,  M. W. Schmidt,  C. D. Sherrill,  D. G. Truhlar,  
 A. Aspuru-Guzik,  R. Baer,  A. T. Bell,  N. A. Besley,  Jeng-Da Chai,  
 A. E. DePrince, III,  R. A. DiStasio Jr.,  A. Dreuw,  B. D. Dunietz,  
 T. R. Furlani,  Chao-Ping Hsu,  Yousung Jung,  Jing Kong,  D. S. Lambrecht,  
 WanZhen Liang,  C. Ochsenfeld,  V. A. Rassolov,  L. V. Slipchenko,  
 J. E. Subotnik,  T. Van Voorhis,  J. M. Herbert,  A. I. Krylov,  
 P. M. W. Gill,  M. Head-Gordon

 Contributors to earlier versions of Q-Chem not listed above: 
 R. D. Adamson,  B. Austin,  J. Baker,  G. J. O. Beran,  K. Brandhorst,  
 S. T. Brown,  E. F. C. Byrd,  A. K. Chakraborty,  C.-L. Cheng,  
 Siu Hung Chien,  D. M. Chipman,  D. L. Crittenden,  H. Dachsel,  
 R. J. Doerksen,  A. D. Dutoi,  L. Fusti-Molnar,  W. A. Goddard III,  
 A. Golubeva-Zadorozhnaya,  S. R. Gwaltney,  G. Hawkins,  A. Heyden,  
 S. Hirata,  G. Kedziora,  F. J. Keil,  C. Kelley,  Jihan Kim,  R. A. King,  
 R. Z. Khaliullin,  P. P. Korambath,  W. Kurlancheek,  A. M. Lee,  M. S. Lee,  
 S. V. Levchenko,  Ching Yeh Lin,  D. Liotard,  R. C. Lochan,  I. Lotan,  
 P. E. Maslen,  N. Nair,  D. P. O'Neill,  D. Neuhauser,  E. Neuscamman,  
 C. M. Oana,  R. Olson,  B. Peters,  R. Peverati,  P. A. Pieniazek,  
 Y. M. Rhee,  J. Ritchie,  M. A. Rohrdanz,  E. Rosta,  N. J. Russ,  
 H. F. Schaefer III,  N. E. Schultz,  N. Shenvi,  A. C. Simmonett,  A. Sodt,  
 D. Stuck,  K. S. Thanthiriwatte,  V. Vanovschi,  Tao Wang,  A. Warshel,  
 C. F. Williams,  Q. Wu,  X. Xu,  W. Zhang

 Please cite Q-Chem as follows:
 Y. Shao et al., Mol. Phys. 113, 184-215 (2015)
 DOI: 10.1080/00268976.2014.952696

 Q-Chem 5.2.0 for Intel X86 EM64T Linux

 Parts of Q-Chem use Armadillo 8.300.2 (Tropical Shenanigans).
 http://arma.sourceforge.net/

 Q-Chem begins on Sun Sep 26 04:43:49 2021  

Host: cori01
0

     Scratch files written to /tmp/qchem20194//Frg1//
 May1019 |scratch|qcdevops|jenkins|workspace|build_RNUM -1
Processing $rem in /global/common/cori/software/qchem/5.2/config/preferences:
	 MEM_TOTAL  96000 
NAlpha2: 50
NElect   50
Mult     1
Symmetry turned off for PCM/SM12/SMD calculation

Checking the input file for inconsistencies... 	...done.

--------------------------------------------------------------
User input:
--------------------------------------------------------------
$molecule
0 1
 6	0.4559629551	2.6296563569	2.0481907735
 6	-0.8170370449	0.4976563569	2.3261907735
 6	-0.8120370449	1.8526563569	2.0491907735
 6	-2.0060370449	-0.1973436431	2.3901907735
 6	-3.2020370449	0.4456563569	2.1871907735
 6	-2.0110370449	2.4926563569	1.8401907735
 6	-3.2020370449	1.7916563569	1.8991907735
 1	0.1109629551	-0.0213436431	2.5091907735
 1	-1.9970370449	-1.2553436431	2.6161907735
 1	0.3619629551	3.4876563569	1.3801907735
 1	1.2539629551	1.9966563569	1.6571907735
 1	-4.1340370449	-0.0973436431	2.2511907735
 1	-2.0280370449	3.5506563569	1.6321907735
 1	-4.1400370449	2.3016563569	1.7281907735
 1	0.7336479551	2.9783563569	3.0538207735
$end
$rem
EDA2		1
METHOD		WB97X-V
BASIS		DEF2-TZVPD
XC_GRID		000099000590
NL_GRID		1
UNRESTRICTED		FALSE
MAX_SCF_CYCLES		200
SYMMETRY		FALSE
SYM_IGNORE		TRUE
BASIS_LIN_DEP_THRESH		6
THRESH		14
SCF_CONVERGENCE		8
SCF_PRINT_FRGM		TRUE
SOLVENT_METHOD		PCM
!required keywords
JOBTYPE		SP
SYM_IGNORE		TRUE
SUBSYSTEM		TRUE
GEN_SCFMAN		TRUE
CHILD_INSTRUCTION		2
SYM_IGNORE		TRUE
SCFMI		0
RI_K 0		
PARI_K 0		
MIN_PARI_K 0		
IARI_K 0		
OCC_RI_K 0		
PURECART		1111
MEM_STATIC		2000
MEM_TOTAL		96000
GUI		0
CHILD_MP		1
CHILD_MP_ORDERS		232
FRZ_RELAX		0
FRZ_RELAX_METHOD		0
EDA_CLS_ELEC		1
EDA_CLS_DISP		0
FRZ_ORTHO_DECOMP		1
EDA2		FALSE
FRGM_METHOD		FALSE
CIS_N_ROOTS  0
LOCAL_CIS    0
CIS_RLX_DNS  1
$end
$pcm
THEORY                  CPCM
METHOD                  SWIG
SOLVER                  INVERSION
RADII                   UFF
HPOINTS                 302
HEAVYPOINTS             302
PRINTLEVEL              0
$end
$solvent
DIELECTRIC              78.390000 ! water
$end
--------------------------------------------------------------
 ----------------------------------------------------------------
             Standard Nuclear Orientation (Angstroms)
    I     Atom           X                Y                Z
 ----------------------------------------------------------------
    1      C       0.4559629551     2.6296563569     2.0481907735
    2      C      -0.8170370449     0.4976563569     2.3261907735
    3      C      -0.8120370449     1.8526563569     2.0491907735
    4      C      -2.0060370449    -0.1973436431     2.3901907735
    5      C      -3.2020370449     0.4456563569     2.1871907735
    6      C      -2.0110370449     2.4926563569     1.8401907735
    7      C      -3.2020370449     1.7916563569     1.8991907735
    8      H       0.1109629551    -0.0213436431     2.5091907735
    9      H      -1.9970370449    -1.2553436431     2.6161907735
   10      H       0.3619629551     3.4876563569     1.3801907735
   11      H       1.2539629551     1.9966563569     1.6571907735
   12      H      -4.1340370449    -0.0973436431     2.2511907735
   13      H      -2.0280370449     3.5506563569     1.6321907735
   14      H      -4.1400370449     2.3016563569     1.7281907735
   15      H       0.7336479551     2.9783563569     3.0538207735
 ----------------------------------------------------------------
 Nuclear Repulsion Energy =         272.29229307 hartrees
 There are       25 alpha and       25 beta electrons
 Requested basis set is def2-TZVPD
 There are 131 shells and 331 basis functions

 Total QAlloc Memory Limit  96000 MB
 Mega-Array Size      1956 MB
 MEM_STATIC part      2000 MB
 Discretize the solute cavity surface with Lebedev spheres
	Using 302 Lebedev grid points for each H atom
	Using 302 Lebedev grid points for other atoms
	Atomic van der Waals radii will be scaled by 1.20
 Remove points where switching function is < 1.0e-08
 Keep 1803 surface tesserae and discard 2727 interior tesserae
 Molecular Surface Area = 176.993 Angst**2

                       Distance Matrix (Angstroms)
             C (  1)   C (  2)   C (  3)   C (  4)   C (  5)   C (  6)
   C (  2)  2.498647
   C (  3)  1.487129  1.383033
   C (  4)  3.764351  1.378710  2.396751
   C (  5)  4.262645  2.389613  2.776831  1.372980
   C (  6)  2.479541  2.375259  1.375093  2.745656  2.393554
   C (  7)  3.755717  2.746815  2.395479  2.372260  1.376466  1.383244
   H (  8)  2.712812  1.078904  2.139020  2.127634  3.361211  3.357178
   H (  9)  4.629585  2.132958  3.374223  1.081906  2.128254  3.827516
   H ( 10)  1.091432  3.350382  2.121099  4.495192  4.754693  2.613954
   H ( 11)  1.091043  2.642651  2.107785  3.997315  4.747888  3.307526
   H ( 12)  5.342831  3.370777  3.857329  2.134878  1.080541  3.374041
   H ( 13)  2.681707  3.356928  2.129730  3.823945  3.365609  1.078386
   H ( 14)  4.618788  3.828100  3.373459  3.352193  2.129615  2.140483
   H ( 15)  1.099997  3.014621  2.160006  4.246334  4.759751  3.040082
             C (  7)   H (  8)   H (  9)   H ( 10)   H ( 11)   H ( 12)
   H (  8)  3.825577
   H (  9)  3.354150  2.444968
   H ( 10)  3.980939  3.694688  5.439543
   H ( 11)  4.467273  2.470764  4.697253  1.759396
   H ( 12)  2.135614  4.253512  2.457836  5.815916  5.811043
   H ( 13)  2.131583  4.254837  4.905798  2.404074  3.631400  4.257499
   H ( 14)  1.081289  4.906862  4.246556  4.668587  5.403083  2.455355
   H ( 15)  4.269783  3.111681  5.056914  1.788456  1.784667  5.813648
             H ( 13)   H ( 14)
   H ( 14)  2.455557
   H ( 15)  3.158396  5.095883
 
 A cutoff of  1.0D-14 yielded   8371 shell pairs
 There are     54563 function pairs (     69530 Cartesian)
 Smallest overlap matrix eigenvalue = 4.79E-07
 Linear dependence detected in AO basis
 Tighter screening thresholds may be required for diffuse basis sets
 Use S2THRESH > 14 and THRESH = 14 in case of SCF convergence issues
 Number of orthogonalized atomic orbitals = 330
 Maximum deviation from orthogonality = 1.453E-10

 Scale SEOQF with 1.000000e-01/1.000000e-01/1.000000e-01

 Standard Electronic Orientation quadrupole field applied
 Nucleus-field energy     =    -0.0000000043 hartrees
 Guess from superposition of atomic densities
 Warning:  Energy on first SCF cycle will be non-variational
 SAD guess density has 49.913408 electrons

 -----------------------------------------------------------------------
  General SCF calculation program by
  Eric Jon Sundstrom, Paul Horn, Yuezhi Mao, Dmitri Zuev, Alec White,
  David Stuck, Shaama M.S., Shane Yost, Joonho Lee, David Small,
  Daniel Levine, Susi Lehtola, Hugh Burton, Evgeny Epifanovsky
 -----------------------------------------------------------------------
 Exchange:     0.1670 Hartree-Fock + 1.0000 wB97X-V + LR-HF
 Correlation:  1.0000 wB97X-V
 Using Euler-Maclaurin-Lebedev (99,590) quadrature formula
 Nonlocal Correlation:  VV10 with C = 0.0100 and b = 6.00 and scale = 1.00000
 Grid used for NLC:  SG-1 standard quadrature
Energy prior to optimization (guess energy) = -271.514543192677
Begin Timing: Total SCF Calculation
begin iterations for algorithm: DIIS         
the SCF tolerance is set to 1.00e-08
    1    -271.5145431927      2.05e-03     00000 
    2    -271.5551847334      1.34e-03     00000 
    3    -271.5799204817      1.42e-04     00000 
    4    -271.5803319649      5.21e-05     00000 
    5    -271.5803705712      1.66e-05     00000 
    6    -271.5803752618      4.54e-06     00000 
    7    -271.5803756414      2.03e-06     00000 
    8    -271.5803757128      3.38e-07     00000 
    9    -271.5803757161      6.17e-08     00000 
   10    -271.5803757162      2.96e-08     00000 
   11    -271.5803757163      8.74e-09     00000 Convergence criterion met
Timing for Total SCF: 1461.00s (wall), 2845.02s (cpu)

************** Final PCM Free Energy Summary **************
 G_electrostatic  =      -0.00230252 hartree =      -1.44485059 kcal/mol
 G_cavitation     =       0.00000000 hartree =       0.00000000 kcal/mol
 G_dispersion     =       0.00000000 hartree =       0.00000000 kcal/mol
 G_repulsion      =       0.00000000 hartree =       0.00000000 kcal/mol
 --------------------------------------------------
 Non-electrostatic Free Energy =       0.00000000 hartree =       0.00000000 kcal/mol
 Total                         =      -0.00230252 hartree =      -1.44485059 kcal/mol
 --------------------------------------------------
 SCF Energy (H0 + V/2)                       =    -271.58037572 
 Solute Internal Energy (H0)                 =    -271.57807320 
 Total Free Energy (H0 + V/2 + non-elec)     =    -271.58037572 hartree
                                             = -170419.25789969 kcal/mol
***********************************************************

E_pcm = -0.0023025160
Multipole orders to be included
        2
        3
computing dipole RHS
computing quadrupole RHS
total number of RHS in solve_reponses: 8
RHS batch sizes
        8
Beginning Block Conjugate Gradient Iterations. Batch Number: 0
computing hessian-vector products by finite difference
              1      5.81e-01     00000 Conjugate Gradient Iteration
computing hessian-vector products by finite difference
              2      1.90e-01     00000 Conjugate Gradient Iteration
computing hessian-vector products by finite difference
              3      4.41e-02     00000 Conjugate Gradient Iteration
computing hessian-vector products by finite difference
              4      9.99e-03     00000 Conjugate Gradient Iteration
computing hessian-vector products by finite difference
              5      2.08e-03     00000 Conjugate Gradient Iteration
computing hessian-vector products by finite difference
              6      5.56e-04     00000 Conjugate Gradient Iteration
computing hessian-vector products by finite difference
              7      1.72e-04     00000 Conjugate Gradient Iteration
computing hessian-vector products by finite difference
              8      2.66e-05     00000 Conjugate Gradient Iteration
computing hessian-vector products by finite difference
              9      3.68e-06     00000 Conjugate Gradient Iteration
computing hessian-vector products by finite difference
             10      5.87e-07     00000 Conjugate Gradient Iteration
computing hessian-vector products by finite difference
             11      8.33e-08     00000 Conjugate Gradient Iteration
computing hessian-vector products by finite difference
             12      1.29e-08     00000 Conjugate Gradient Iteration
computing hessian-vector products by finite difference
             13      3.16e-09     00000 CG Converged
batch 0 complete
Done Calculating Responses
TESTING ORTHOGONALIZATION OF MULTIPOLE BASIS
Multipole virts passed orthogonality test
Virts Per Order
           75
          125
 
 --------------------------------------------------------------
 
                    Orbital Energies (a.u.)
 --------------------------------------------------------------
 
 Alpha MOs
 -- Occupied --
-10.2760 -10.2690 -10.2684 -10.2655 -10.2654 -10.2646 -10.2607  -1.0044
 -0.9123  -0.8813  -0.8154  -0.7326  -0.7068  -0.6332  -0.5781  -0.5648
 -0.5389  -0.5298  -0.5172  -0.4876  -0.4768  -0.4415  -0.4404  -0.3505
 -0.3401
 -- Virtual --
  0.0630   0.0659   0.0710   0.0792   0.0845   0.1046   0.1107   0.1136
  0.1358   0.1519   0.1659   0.1675   0.1867   0.1887   0.1951   0.2011
  0.2233   0.2265   0.2343   0.2426   0.2481   0.2582   0.2606   0.2697
  0.2770   0.2819   0.2844   0.2927   0.2953   0.3021   0.3055   0.3120
  0.3242   0.3257   0.3327   0.3348   0.3504   0.3542   0.3670   0.3730
  0.3804   0.3842   0.3845   0.3899   0.3906   0.4024   0.4052   0.4091
  0.4097   0.4279   0.4304   0.4364   0.4436   0.4504   0.4530   0.4552
  0.4659   0.4728   0.4765   0.4813   0.4942   0.4996   0.5141   0.5186
  0.5200   0.5278   0.5364   0.5381   0.5405   0.5473   0.5502   0.5683
  0.5838   0.5901   0.5980   0.5994   0.6058   0.6216   0.6438   0.6481
  0.6632   0.6730   0.6850   0.6888   0.6899   0.7012   0.7232   0.7247
  0.7288   0.7305   0.7425   0.7611   0.7670   0.7678   0.7763   0.7863
  0.7893   0.7988   0.8032   0.8050   0.8090   0.8219   0.8248   0.8348
  0.8360   0.8370   0.8446   0.8520   0.8625   0.8760   0.8927   0.8974
  0.9127   0.9225   0.9358   0.9529   0.9540   1.0148   1.0247   1.0472
  1.0514   1.0652   1.0779   1.0817   1.0891   1.0902   1.1072   1.1522
  1.1709   1.1812   1.2552   1.2833   1.3019   1.3203   1.3527   1.3548
  1.3893   1.4400   1.4572   1.4647   1.4714   1.4955   1.5326   1.5514
  1.6041   1.6076   1.6242   1.6275   1.6690   1.6875   1.7379   1.7854
  1.7955   1.7995   1.8131   1.8250   1.8359   1.8726   1.8815   1.9101
  1.9224   1.9350   1.9549   1.9598   1.9861   2.0036   2.0103   2.0281
  2.0365   2.0467   2.0767   2.0990   2.1142   2.1257   2.1745   2.1793
  2.1987   2.2413   2.2447   2.2691   2.2869   2.3187   2.3956   2.4089
  2.4219   2.4246   2.4894   2.5158   2.5434   2.5595   2.5688   2.6118
  2.6125   2.6412   2.6653   2.6690   2.7084   2.7246   2.7672   2.7800
  2.8072   2.8265   2.8286   2.8618   2.8717   2.9117   2.9159   2.9177
  2.9500   2.9560   2.9729   2.9843   3.0012   3.0141   3.0198   3.0568
  3.0678   3.0961   3.1100   3.1531   3.1824   3.1917   3.2017   3.2260
  3.2314   3.2462   3.2960   3.3180   3.3347   3.3603   3.3742   3.3860
  3.4007   3.4450   3.4527   3.4573   3.4616   3.4862   3.4975   3.5171
  3.5183   3.5312   3.5433   3.5579   3.5788   3.5916   3.6033   3.6143
  3.6245   3.6539   3.6730   3.7065   3.7248   3.7719   3.7888   3.8339
  3.8580   3.9026   3.9136   3.9856   3.9943   4.0043   4.0584   4.0733
  4.1290   4.2070   4.2868   4.3040   4.3123   4.3327   4.3420   4.3476
  4.3798   4.4017   4.4198   4.4359   4.4708   4.4861   4.4980   4.5561
  4.6167   4.6592   4.7801   4.7982   4.8617   4.9105   4.9203   4.9627
  5.0573   5.0660   5.1964   5.2814   5.4249   5.4279   5.5279   5.5468
  5.7045   5.8701  22.5649  22.6897  22.9372  22.9402  23.0720  23.1488
 23.5075
 --------------------------------------------------------------
 
          Ground-State Mulliken Net Atomic Charges

     Atom                 Charge (a.u.)
  ----------------------------------------
      1 C                    -1.047348
      2 C                    -0.356599
      3 C                     0.896641
      4 C                    -0.479145
      5 C                    -0.486512
      6 C                    -0.367211
      7 C                    -0.501835
      8 H                     0.324397
      9 H                     0.305662
     10 H                     0.279454
     11 H                     0.273760
     12 H                     0.329021
     13 H                     0.314725
     14 H                     0.305252
     15 H                     0.209739
  ----------------------------------------
  Sum of atomic charges =     0.000000

 -----------------------------------------------------------------
                    Cartesian Multipole Moments
 -----------------------------------------------------------------
    Charge (ESU x 10^10)
                 0.0000
    Dipole Moment (Debye)
         X       0.3929      Y       0.2508      Z       0.0797
       Tot       0.4729
    Quadrupole Moments (Debye-Ang)
        XX     -39.6017     XY       0.3696     YY     -37.9752
        XZ       1.2596     YZ      -0.8522     ZZ     -45.3486
    Octopole Moments (Debye-Ang^2)
       XXX     181.8715    XXY     -56.9110    XYY      60.7569
       YYY    -162.4138    XXZ     -85.2615    XYZ       4.8581
       YYZ     -83.0909    XZZ      79.4760    YZZ     -66.4226
       ZZZ    -287.0297
    Hexadecapole Moments (Debye-Ang^3)
      XXXX   -1070.8336   XXXY     188.6441   XXYY    -321.3433
      XYYY     187.4554   YYYY    -815.7104   XXXZ     385.9806
      XXYZ    -122.7911   XYYZ     136.1216   YYYZ    -331.1314
      XXZZ    -414.7822   XYZZ      98.8896   YYZZ    -342.4009
      XZZZ     483.9174   YZZZ    -375.2476   ZZZZ   -1282.0940
 -----------------------------------------------------------------
Archival summary:
1\1\nid00554\SP\ProcedureUnspecified\BasisUnspecified\78\meili\SunSep2612:48:142021SunSep2612:48:142021\0\\#,ProcedureUnspecified,BasisUnspecified,\\0,1\C\C,1,1.37509\H,2,1.07839,1,119.979\C,1,1.38303,2,118.9,3,179.422,0\H,4,1.0789,1,120.143,2,-179.015,0\C,4,1.37871,1,120.417,2,0.0415849,0\H,6,1.08191,4,119.701,1,-179.472,0\C,6,1.37298,4,120.55,1,-0.346328,0\H,8,1.08054,6,120.481,4,-179.145,0\C,8,1.37647,6,119.268,4,0.92696,0\H,10,1.08129,8,119.624,6,179.371,0\C,1,1.48713,2,120.012,3,2.70885,0\H,12,1.09104,1,108.708,2,-147.65,0\H,12,1.09143,1,109.738,2,-30.4099,0\H,12,1.1,1,112.35,2,91.526,0\\\@

 Total job time:  29069.75s(wall), 57461.07s(cpu) 
 Sun Sep 26 12:48:18 2021

        *************************************************************
        *                                                           *
        *  Thank you very much for using Q-Chem.  Have a nice day.  *
        *                                                           *
        *************************************************************


Done Job For Fragment 0
calling putenv with: QCSCRATCH=/global/cscratch1/sd/meili 
calling putenv with: QCLOCALSCR=/tmp 
calling putenv with: QCTHREADS=32 
Creating input file /tmp/qchem20194/Frg2.input
using default PutDataFrgm: nothing
calling putenv with: QCSCRATCH=/tmp/qchem20194/ 
calling putenv with: QCLOCALSCR=/tmp/qchem20194/ 
Spawning Job For Fragment 1
                  Welcome to Q-Chem
     A Quantum Leap Into The Future Of Chemistry


 Q-Chem 5.2, Q-Chem, Inc., Pleasanton, CA (2019)

 License issued to: National Energy Research Scientific Computing Center

 Yihan Shao,  Zhengting Gan,  E. Epifanovsky,  A. T. B. Gilbert,  M. Wormit,  
 J. Kussmann,  A. W. Lange,  A. Behn,  Jia Deng,  Xintian Feng,  D. Ghosh,  
 M. Goldey,  P. R. Horn,  L. D. Jacobson,  I. Kaliman,  T. Kus,  A. Landau,  
 Jie Liu,  E. I. Proynov,  R. M. Richard,  R. P. Steele,  E. J. Sundstrom,  
 H. L. Woodcock III,  P. M. Zimmerman,  D. Zuev,  B. Albrecht,  E. Alguire,  
 S. A. Baeppler,  D. Barton,  Z. Benda,  Y. A. Bernard,  E. J. Berquist,  
 K. B. Bravaya,  H. Burton,  D. Casanova,  Chun-Min Chang,  Yunqing Chen,  
 A. Chien,  K. D. Closser,  M. P. Coons,  S. Coriani,  S. Dasgupta,  
 A. L. Dempwolff,  M. Diedenhofen,  Hainam Do,  R. G. Edgar,  Po-Tung Fang,  
 S. Faraji,  S. Fatehi,  Qingguo Feng,  K. D. Fenk,  J. Fosso-Tande,  
 J. Gayvert,  Qinghui Ge,  A. Ghysels,  G. Gidofalvi,  J. Gomes,  
 J. Gonthier,  A. Gunina,  D. Hait,  M. W. D. Hanson-Heine,  
 P. H. P. Harbach,  A. W. Hauser,  M. F. Herbst,  J. E. Herr,  
 E. G. Hohenstein,  Z. C. Holden,  Kerwin Hui,  B. C. Huynh,  T.-C. Jagau,  
 Hyunjun Ji,  B. Kaduk,  K. Khistyaev,  Jaehoon Kim,  P. Klunzinger,  K. Koh,  
 D. Kosenkov,  L. Koulias,  T. Kowalczyk,  C. M. Krauter,  A. Kunitsa,  
 Ka Un Lao,  A. Laurent,  K. V. Lawler,  Joonho Lee,  D. Lefrancois,  
 S. Lehtola,  D. S. Levine,  Yi-Pei Li,  You-Sheng Lin,  Fenglai Liu,  
 E. Livshits,  A. Luenser,  P. Manohar,  E. Mansoor,  S. F. Manzer,  
 Shan-Ping Mao,  Yuezhi Mao,  N. Mardirossian,  A. V. Marenich,  
 T. Markovich,  L. A. Martinez-Martinez,  S. A. Maurer,  N. J. Mayhall,  
 S. C. McKenzie,  J.-M. Mewes,  P. Morgante,  A. F. Morrison,  
 J. W. Mullinax,  K. Nanda,  T. S. Nguyen-Beck,  R. Olivares-Amaya,  
 J. A. Parkhill,  Zheng Pei,  T. M. Perrine,  F. Plasser,  P. Pokhilko,  
 S. Prager,  A. Prociuk,  E. Ramos,  D. R. Rehn,  F. Rob,  M. Scheurer,  
 M. Schneider,  N. Sergueev,  S. M. Sharada,  S. Sharma,  D. W. Small,  
 T. Stauch,  T. Stein,  Yu-Chuan Su,  A. J. W. Thom,  A. Tkatchenko,  
 T. Tsuchimochi,  N. M. Tubman,  L. Vogt,  M. L. Vidal,  O. Vydrov,  
 M. A. Watson,  J. Wenzel,  M. de Wergifosse,  T. A. Wesolowski,  A. White,  
 J. Witte,  A. Yamada,  Jun Yang,  K. Yao,  S. Yeganeh,  S. R. Yost,  
 Zhi-Qiang You,  A. Zech,  Igor Ying Zhang,  Xing Zhang,  Yan Zhao,  
 Ying Zhu,  B. R. Brooks,  G. K. L. Chan,  C. J. Cramer,  M. S. Gordon,  
 W. J. Hehre,  A. Klamt,  M. W. Schmidt,  C. D. Sherrill,  D. G. Truhlar,  
 A. Aspuru-Guzik,  R. Baer,  A. T. Bell,  N. A. Besley,  Jeng-Da Chai,  
 A. E. DePrince, III,  R. A. DiStasio Jr.,  A. Dreuw,  B. D. Dunietz,  
 T. R. Furlani,  Chao-Ping Hsu,  Yousung Jung,  Jing Kong,  D. S. Lambrecht,  
 WanZhen Liang,  C. Ochsenfeld,  V. A. Rassolov,  L. V. Slipchenko,  
 J. E. Subotnik,  T. Van Voorhis,  J. M. Herbert,  A. I. Krylov,  
 P. M. W. Gill,  M. Head-Gordon

 Contributors to earlier versions of Q-Chem not listed above: 
 R. D. Adamson,  B. Austin,  J. Baker,  G. J. O. Beran,  K. Brandhorst,  
 S. T. Brown,  E. F. C. Byrd,  A. K. Chakraborty,  C.-L. Cheng,  
 Siu Hung Chien,  D. M. Chipman,  D. L. Crittenden,  H. Dachsel,  
 R. J. Doerksen,  A. D. Dutoi,  L. Fusti-Molnar,  W. A. Goddard III,  
 A. Golubeva-Zadorozhnaya,  S. R. Gwaltney,  G. Hawkins,  A. Heyden,  
 S. Hirata,  G. Kedziora,  F. J. Keil,  C. Kelley,  Jihan Kim,  R. A. King,  
 R. Z. Khaliullin,  P. P. Korambath,  W. Kurlancheek,  A. M. Lee,  M. S. Lee,  
 S. V. Levchenko,  Ching Yeh Lin,  D. Liotard,  R. C. Lochan,  I. Lotan,  
 P. E. Maslen,  N. Nair,  D. P. O'Neill,  D. Neuhauser,  E. Neuscamman,  
 C. M. Oana,  R. Olson,  B. Peters,  R. Peverati,  P. A. Pieniazek,  
 Y. M. Rhee,  J. Ritchie,  M. A. Rohrdanz,  E. Rosta,  N. J. Russ,  
 H. F. Schaefer III,  N. E. Schultz,  N. Shenvi,  A. C. Simmonett,  A. Sodt,  
 D. Stuck,  K. S. Thanthiriwatte,  V. Vanovschi,  Tao Wang,  A. Warshel,  
 C. F. Williams,  Q. Wu,  X. Xu,  W. Zhang

 Please cite Q-Chem as follows:
 Y. Shao et al., Mol. Phys. 113, 184-215 (2015)
 DOI: 10.1080/00268976.2014.952696

 Q-Chem 5.2.0 for Intel X86 EM64T Linux

 Parts of Q-Chem use Armadillo 8.300.2 (Tropical Shenanigans).
 http://arma.sourceforge.net/

 Q-Chem begins on Sun Sep 26 12:48:22 2021  

Host: cori01
0

     Scratch files written to /tmp/qchem20194//Frg2//
 May1019 |scratch|qcdevops|jenkins|workspace|build_RNUM -1
Processing $rem in /global/common/cori/software/qchem/5.2/config/preferences:
	 MEM_TOTAL  96000 
NAlpha2: 58
NElect   58
Mult     1
Symmetry turned off for PCM/SM12/SMD calculation

Checking the input file for inconsistencies... 	...done.

--------------------------------------------------------------
User input:
--------------------------------------------------------------
$molecule
0 1
 6	3.7819629551	0.0726563569	-0.6498092265
 6	1.3829629551	-0.6653436431	-0.4948092265
 6	2.5659629551	-0.6013436431	-1.2328092265
 6	0.2279629551	-1.2333436431	-1.0328092265
 6	0.2459629551	-1.7553436431	-2.3288092265
 6	2.5749629551	-1.1383436431	-2.5318092265
 6	1.4319629551	-1.7243436431	-3.0588092265
 8	-0.8630370449	-2.2803436431	-2.9258092265
 1	1.3549629551	-0.2523436431	0.5041907735
 1	-0.6850370449	-1.2543436431	-0.4548092265
 1	3.4499629551	0.7756563569	0.1131907735
 1	4.2609629551	0.6676563569	-1.4288092265
 1	3.4789629551	-1.0963436431	-3.1258092265
 1	-1.6520370449	-2.2003436431	-2.3598092265
 1	1.4499629551	-2.1603436431	-4.0448092265
 1	4.5256499551	-0.6062336431	-0.2070492265
$end
$rem
EDA2		1
METHOD		WB97X-V
BASIS		DEF2-TZVPD
XC_GRID		000099000590
NL_GRID		1
UNRESTRICTED		FALSE
MAX_SCF_CYCLES		200
SYMMETRY		FALSE
SYM_IGNORE		TRUE
BASIS_LIN_DEP_THRESH		6
THRESH		14
SCF_CONVERGENCE		8
SCF_PRINT_FRGM		TRUE
SOLVENT_METHOD		PCM
!required keywords
JOBTYPE		SP
SYM_IGNORE		TRUE
SUBSYSTEM		TRUE
GEN_SCFMAN		TRUE
CHILD_INSTRUCTION		2
SYM_IGNORE		TRUE
SCFMI		0
RI_K 0		
PARI_K 0		
MIN_PARI_K 0		
IARI_K 0		
OCC_RI_K 0		
PURECART		1111
MEM_STATIC		2000
MEM_TOTAL		96000
GUI		0
CHILD_MP		1
CHILD_MP_ORDERS		232
FRZ_RELAX		0
FRZ_RELAX_METHOD		0
EDA_CLS_ELEC		1
EDA_CLS_DISP		0
FRZ_ORTHO_DECOMP		1
EDA2		FALSE
FRGM_METHOD		FALSE
CIS_N_ROOTS  0
LOCAL_CIS    0
CIS_RLX_DNS  1
$end
$pcm
THEORY                  CPCM
METHOD                  SWIG
SOLVER                  INVERSION
RADII                   UFF
HPOINTS                 302
HEAVYPOINTS             302
PRINTLEVEL              0
$end
$solvent
DIELECTRIC              78.390000 ! water
$end
--------------------------------------------------------------
 ----------------------------------------------------------------
             Standard Nuclear Orientation (Angstroms)
    I     Atom           X                Y                Z
 ----------------------------------------------------------------
    1      C       3.7819629551     0.0726563569    -0.6498092265
    2      C       1.3829629551    -0.6653436431    -0.4948092265
    3      C       2.5659629551    -0.6013436431    -1.2328092265
    4      C       0.2279629551    -1.2333436431    -1.0328092265
    5      C       0.2459629551    -1.7553436431    -2.3288092265
    6      C       2.5749629551    -1.1383436431    -2.5318092265
    7      C       1.4319629551    -1.7243436431    -3.0588092265
    8      O      -0.8630370449    -2.2803436431    -2.9258092265
    9      H       1.3549629551    -0.2523436431     0.5041907735
   10      H      -0.6850370449    -1.2543436431    -0.4548092265
   11      H       3.4499629551     0.7756563569     0.1131907735
   12      H       4.2609629551     0.6676563569    -1.4288092265
   13      H       3.4789629551    -1.0963436431    -3.1258092265
   14      H      -1.6520370449    -2.2003436431    -2.3598092265
   15      H       1.4499629551    -2.1603436431    -4.0448092265
   16      H       4.5256499551    -0.6062336431    -0.2070492265
 ----------------------------------------------------------------
 Nuclear Repulsion Energy =         342.38693198 hartrees
 There are       29 alpha and       29 beta electrons
 Requested basis set is def2-TZVPD
 There are 145 shells and 371 basis functions

 Total QAlloc Memory Limit  96000 MB
 Mega-Array Size      1956 MB
 MEM_STATIC part      2000 MB
 Discretize the solute cavity surface with Lebedev spheres
	Using 302 Lebedev grid points for each H atom
	Using 302 Lebedev grid points for other atoms
	Atomic van der Waals radii will be scaled by 1.20
 Remove points where switching function is < 1.0e-08
 Keep 1870 surface tesserae and discard 2962 interior tesserae
 Molecular Surface Area = 190.831 Angst**2
 A cutoff of  1.0D-14 yielded  10039 shell pairs
 There are     67067 function pairs (     85763 Cartesian)
 Smallest overlap matrix eigenvalue = 5.80E-07
 Linear dependence detected in AO basis
 Tighter screening thresholds may be required for diffuse basis sets
 Use S2THRESH > 14 and THRESH = 14 in case of SCF convergence issues
 Number of orthogonalized atomic orbitals = 370
 Maximum deviation from orthogonality = 3.175E-10

 Scale SEOQF with 1.000000e-01/1.000000e-01/1.000000e-01

 Standard Electronic Orientation quadrupole field applied
 Nucleus-field energy     =    -0.0000000091 hartrees
 Guess from superposition of atomic densities
 Warning:  Energy on first SCF cycle will be non-variational
 SAD guess density has 57.738434 electrons

 -----------------------------------------------------------------------
  General SCF calculation program by
  Eric Jon Sundstrom, Paul Horn, Yuezhi Mao, Dmitri Zuev, Alec White,
  David Stuck, Shaama M.S., Shane Yost, Joonho Lee, David Small,
  Daniel Levine, Susi Lehtola, Hugh Burton, Evgeny Epifanovsky
 -----------------------------------------------------------------------
 Exchange:     0.1670 Hartree-Fock + 1.0000 wB97X-V + LR-HF
 Correlation:  1.0000 wB97X-V
 Using Euler-Maclaurin-Lebedev (99,590) quadrature formula
 Nonlocal Correlation:  VV10 with C = 0.0100 and b = 6.00 and scale = 1.00000
 Grid used for NLC:  SG-1 standard quadrature
Energy prior to optimization (guess energy) = -346.497479019906
Begin Timing: Total SCF Calculation
begin iterations for algorithm: DIIS         
the SCF tolerance is set to 1.00e-08
    1    -346.4974790199      5.16e-03     00000 
    2    -346.4269137473      5.63e-03     00000 
    3    -346.8120077275      5.39e-04     00000 
    4    -346.8161999353      1.82e-04     00000 
    5    -346.8168200668      2.57e-05     00000 
    6    -346.8168401030      1.32e-05     00000 
    7    -346.8168436734      3.93e-06     00000 
    8    -346.8168441027      1.26e-06     00000 
    9    -346.8168441580      5.70e-07     00000 
   10    -346.8168441675      1.36e-07     00000 
   11    -346.8168441690      6.65e-08     00000 
   12    -346.8168441692      3.13e-08     00000 
   13    -346.8168441692      6.13e-09     00000 Convergence criterion met
Timing for Total SCF: 2263.00s (wall), 4451.71s (cpu)

************** Final PCM Free Energy Summary **************
 G_electrostatic  =      -0.00559822 hartree =      -3.51293827 kcal/mol
 G_cavitation     =       0.00000000 hartree =       0.00000000 kcal/mol
 G_dispersion     =       0.00000000 hartree =       0.00000000 kcal/mol
 G_repulsion      =       0.00000000 hartree =       0.00000000 kcal/mol
 --------------------------------------------------
 Non-electrostatic Free Energy =       0.00000000 hartree =       0.00000000 kcal/mol
 Total                         =      -0.00559822 hartree =      -3.51293827 kcal/mol
 --------------------------------------------------
 SCF Energy (H0 + V/2)                       =    -346.81684417 
 Solute Internal Energy (H0)                 =    -346.81124595 
 Total Free Energy (H0 + V/2 + non-elec)     =    -346.81684417 hartree
                                             = -217630.85441852 kcal/mol
***********************************************************

E_pcm = -0.0055982235
Multipole orders to be included
        2
        3
computing dipole RHS
computing quadrupole RHS
total number of RHS in solve_reponses: 8
RHS batch sizes
        8
Beginning Block Conjugate Gradient Iterations. Batch Number: 0
computing hessian-vector products by finite difference
              1      5.93e-01     00000 Conjugate Gradient Iteration
computing hessian-vector products by finite difference
              2      1.92e-01     00000 Conjugate Gradient Iteration
computing hessian-vector products by finite difference
              3      4.92e-02     00000 Conjugate Gradient Iteration
computing hessian-vector products by finite difference
              4      1.52e-02     00000 Conjugate Gradient Iteration
computing hessian-vector products by finite difference
              5      4.55e-03     00000 Conjugate Gradient Iteration
computing hessian-vector products by finite difference
              6      1.60e-03     00000 Conjugate Gradient Iteration
computing hessian-vector products by finite difference
              7      3.81e-04     00000 Conjugate Gradient Iteration
computing hessian-vector products by finite difference
              8      7.27e-05     00000 Conjugate Gradient Iteration
computing hessian-vector products by finite difference
              9      1.29e-05     00000 Conjugate Gradient Iteration
computing hessian-vector products by finite difference
             10      1.78e-06     00000 Conjugate Gradient Iteration
computing hessian-vector products by finite difference
             11      3.03e-07     00000 Conjugate Gradient Iteration
computing hessian-vector products by finite difference
             12      5.99e-08     00000 Conjugate Gradient Iteration
computing hessian-vector products by finite difference
             13      1.10e-08     00000 Conjugate Gradient Iteration
computing hessian-vector products by finite difference
             14      3.42e-09     00000 CG Converged
batch 0 complete
Done Calculating Responses
TESTING ORTHOGONALIZATION OF MULTIPOLE BASIS
Multipole virts passed orthogonality test
Virts Per Order
           87
          145
 
 --------------------------------------------------------------
 
                    Orbital Energies (a.u.)
 --------------------------------------------------------------
 
 Alpha MOs
 -- Occupied --
-19.2476 -10.3367 -10.2777 -10.2757 -10.2749 -10.2735 -10.2706 -10.2615
 -1.1936  -0.9942  -0.9014  -0.8838  -0.8108  -0.7480  -0.7138  -0.6654
 -0.6027  -0.5805  -0.5497  -0.5406  -0.5333  -0.5220  -0.5119  -0.4770
 -0.4572  -0.4433  -0.4401  -0.3530  -0.3128
 -- Virtual --
  0.0575   0.0595   0.0681   0.0767   0.0831   0.0941   0.1091   0.1097
  0.1134   0.1311   0.1443   0.1498   0.1567   0.1709   0.1729   0.1922
  0.1968   0.2061   0.2118   0.2229   0.2365   0.2404   0.2493   0.2528
  0.2609   0.2651   0.2687   0.2772   0.2803   0.2944   0.2956   0.3032
  0.3044   0.3054   0.3105   0.3256   0.3322   0.3345   0.3426   0.3456
  0.3508   0.3571   0.3604   0.3715   0.3748   0.3776   0.3842   0.3905
  0.3922   0.3953   0.4018   0.4067   0.4109   0.4154   0.4235   0.4309
  0.4362   0.4471   0.4550   0.4591   0.4694   0.4704   0.4758   0.4829
  0.4835   0.4905   0.4989   0.5026   0.5096   0.5188   0.5246   0.5357
  0.5404   0.5440   0.5493   0.5578   0.5596   0.5685   0.5824   0.5874
  0.5996   0.6057   0.6222   0.6242   0.6394   0.6580   0.6648   0.6695
  0.6792   0.6863   0.6867   0.6919   0.6980   0.7025   0.7138   0.7268
  0.7279   0.7409   0.7450   0.7529   0.7578   0.7750   0.7788   0.7801
  0.7910   0.7923   0.7959   0.8008   0.8076   0.8143   0.8296   0.8327
  0.8371   0.8434   0.8533   0.8549   0.8646   0.8663   0.8850   0.8932
  0.9006   0.9094   0.9219   0.9472   0.9617   0.9690   0.9877   1.0134
  1.0271   1.0336   1.0367   1.0473   1.0537   1.0673   1.0754   1.0830
  1.0930   1.1216   1.1352   1.1673   1.1981   1.2426   1.2647   1.2850
  1.3024   1.3126   1.3366   1.3561   1.3663   1.3824   1.3883   1.4329
  1.4551   1.4602   1.4725   1.4866   1.5289   1.5608   1.6007   1.6185
  1.6273   1.6284   1.6825   1.6933   1.7026   1.7238   1.7857   1.7922
  1.8197   1.8272   1.8327   1.8632   1.8735   1.8766   1.9119   1.9241
  1.9382   1.9445   1.9667   1.9842   1.9949   2.0261   2.0381   2.0515
  2.0563   2.0740   2.0909   2.1020   2.1195   2.1584   2.1959   2.2003
  2.2114   2.2353   2.2592   2.2792   2.3003   2.3084   2.3544   2.3683
  2.3980   2.4006   2.4190   2.4510   2.4929   2.5002   2.5202   2.5497
  2.5759   2.6000   2.6164   2.6440   2.6566   2.6731   2.6825   2.7313
  2.7498   2.7626   2.7648   2.7963   2.8145   2.8314   2.8602   2.8767
  2.8915   2.9126   2.9353   2.9506   2.9624   2.9669   2.9756   2.9934
  3.0166   3.0383   3.0674   3.0770   3.0929   3.1107   3.1463   3.1709
  3.1773   3.2050   3.2067   3.2296   3.2483   3.2660   3.2740   3.2924
  3.3059   3.3546   3.3764   3.3842   3.3928   3.4178   3.4429   3.4547
  3.4609   3.4627   3.4873   3.5052   3.5126   3.5259   3.5395   3.5460
  3.5561   3.5721   3.5802   3.5935   3.6011   3.6242   3.6425   3.6595
  3.6900   3.7057   3.7409   3.7461   3.7910   3.8341   3.8366   3.8820
  3.9234   3.9510   3.9820   3.9929   4.0381   4.0736   4.1149   4.1346
  4.2509   4.2679   4.2854   4.3039   4.3102   4.3265   4.3403   4.3559
  4.3735   4.3887   4.4315   4.4488   4.4798   4.5355   4.5825   4.6132
  4.7168   4.7256   4.7729   4.8140   4.8678   4.9170   5.0208   5.0561
  5.0821   5.1342   5.1460   5.2956   5.3293   5.3865   5.4422   5.5291
  5.6063   5.6358   5.6973   5.7691   5.9439   6.1979   6.4738   6.5759
  6.6275   6.8725   6.9871   7.2997   7.4502  22.6548  22.6731  22.9259
 22.9881  23.0284  23.1626  23.4896  44.4118
 --------------------------------------------------------------
 
          Ground-State Mulliken Net Atomic Charges

     Atom                 Charge (a.u.)
  ----------------------------------------
      1 C                    -1.035592
      2 C                    -0.595427
      3 C                     0.604909
      4 C                    -0.475362
      5 C                     0.763851
      6 C                    -0.420138
      7 C                    -0.661163
      8 O                    -0.487731
      9 H                     0.306438
     10 H                     0.273152
     11 H                     0.276918
     12 H                     0.264943
     13 H                     0.330260
     14 H                     0.303416
     15 H                     0.337539
     16 H                     0.213986
  ----------------------------------------
  Sum of atomic charges =     0.000000

 -----------------------------------------------------------------
                    Cartesian Multipole Moments
 -----------------------------------------------------------------
    Charge (ESU x 10^10)
                -0.0000
    Dipole Moment (Debye)
         X      -0.5031      Y       0.6735      Z       1.4896
       Tot       1.7105
    Quadrupole Moments (Debye-Ang)
        XX     -40.2358     XY       3.1434     YY     -52.5049
        XZ      -1.2604     YZ      -2.2639     ZZ     -52.5556
    Octopole Moments (Debye-Ang^2)
       XXX    -203.2183    XXY      47.1143    XYY     -79.8442
       YYY     177.6176    XXZ      67.3394    XYZ       1.8301
       YYZ      94.8946    XZZ     -57.0205    YZZ      62.6699
       ZZZ     265.1495
    Hexadecapole Moments (Debye-Ang^3)
      XXXX   -1280.9447   XXXY     111.4736   XXYY    -322.0239
      XYYY     119.1273   YYYY    -641.5743   XXXZ     257.1649
      XXYZ    -107.8775   XYYZ      94.7261   YYYZ    -417.6461
      XXZZ    -390.0310   XYZZ       4.8203   YYZZ    -342.3550
      XZZZ     212.0832   YZZZ    -399.7520   ZZZZ   -1293.1593
 -----------------------------------------------------------------
Archival summary:
1\1\nid00554\SP\ProcedureUnspecified\BasisUnspecified\178\meili\MonSep2700:17:152021MonSep2700:17:152021\0\\#,ProcedureUnspecified,BasisUnspecified,\\0,1\C\O,1,1.36452\H,2,0.974308,1,111.864\C,1,1.393,2,118.115,3,-176.012,0\H,4,1.07825,1,118.975,2,-3.22173,0\C,4,1.38837,1,120.757,2,176.558,0\H,6,1.0825,4,119.709,1,-178.108,0\C,1,1.39729,2,122.62,3,2.91291,0\H,8,1.08078,1,119.977,2,1.28784,0\C,8,1.39502,1,119.943,2,-177.638,0\H,10,1.08137,8,119.363,1,179.192,0\C,10,1.39579,8,121.097,1,0.292399,0\C,12,1.50759,10,119.977,8,177.282,0\H,13,1.08931,12,108.274,10,-23.25,0\H,13,1.09101,12,108.773,10,-138.457,0\H,13,1.1,12,115.154,10,98.7675,0\\\@

 Total job time:  41338.33s(wall), 81923.19s(cpu) 
 Mon Sep 27 00:17:20 2021

        *************************************************************
        *                                                           *
        *  Thank you very much for using Q-Chem.  Have a nice day.  *
        *                                                           *
        *************************************************************


Done Job For Fragment 1
calling putenv with: QCSCRATCH=/global/cscratch1/sd/meili 
calling putenv with: QCLOCALSCR=/tmp 
calling putenv with: QCTHREADS=32 
Doing General SCFMI
 Exchange:     0.1670 Hartree-Fock + 1.0000 wB97X-V + LR-HF
 Correlation:  1.0000 wB97X-V
 Using Euler-Maclaurin-Lebedev (99,590) quadrature formula
 Nonlocal Correlation:  VV10 with C = 0.0100 and b = 6.00 and scale = 1.00000
 Grid used for NLC:  SG-1 standard quadrature
performing fock build before subrot guess so that all methods have access
Printing subrot_rss_gen Method Specification:
Occupied Subspace Method is 0
Virtual Subspace Method is 0
Energy of the unrelaxed supersystem initial determinant -618.391932169569
performing fock build before subrot guess so that all methods have access
Printing subrot_rss_gen Method Specification:
Occupied Subspace Method is 0
Virtual Subspace Method is 0
Energy of the unrelaxed supersystem initial determinant w/ solvent -618.399354892729
write pseudocanon occs and virts to disk
write pseudocanon orbital energies to disk
Tolerance of ortho_decomp_scf: 1.00e-06
GDM subspace size: 20
Beginning the Orthogonal Decomposition of the Initial Supersystem Wavefunction
    1    -618.3801084432      1.24e-02     ortho_decomp Preconditoned Steepest Descent
    2    -618.3809256800      3.08e-04     ortho_decomp BFGS Step
    3    -618.3809281172      2.17e-05     ortho_decomp BFGS Step
    4    -618.3809281211      8.54e-07     ortho_decomp 00000 Convergence criterion met
 Hartree-Fock
 Hartree-Fock
 Hartree-Fock
Doing General SCFMI
 Exchange:     0.1670 Hartree-Fock + 1.0000 wB97X-V + LR-HF
 Correlation:  1.0000 wB97X-V
 Using Euler-Maclaurin-Lebedev (99,590) quadrature formula
 Nonlocal Correlation:  VV10 with C = 0.0100 and b = 6.00 and scale = 1.00000
 Grid used for NLC:  SG-1 standard quadrature
performing fock build at end of subrot_r(subrot) constructor so that all methods have access
<S^2> of initial wavefunction before polarization iterations 0.0000000000
Beginning iterations for the determination of the polarized wavefunction
Energy prior to optimization (guess energy) = -618.399354892730
Begin Timing: Total SCF Calculation
begin iterations for algorithm: DIIS         
the SCF tolerance is set to 1.00e-08
    1    -618.3993548927      3.79e-05     00000 
    2    -618.3995635021      1.37e-05     00000 
    3    -618.3995833581      7.44e-06     00000 
    4    -618.3995885627      2.70e-06     00000 
    5    -618.3995893899      1.25e-06     00000 
    6    -618.3995895829      4.77e-07     00000 
    7    -618.3995896045      1.80e-07     00000 
    8    -618.3995896067      7.87e-08     00000 
    9    -618.3995896071      2.44e-08     00000 
   10    -618.3995896072      1.09e-08     00000 
   11    -618.3995896072      4.56e-09     00000 Convergence criterion met
write pseudocanon occs and virts to disk
write pseudocanon orbital energies to disk
Timing for Total SCF: 11562.00s (wall), 23017.73s (cpu)
<S^2> of polarized wavefunction after polarization iterations 0.0000000000
relaxing scfmi constraint to allow all rotations in the entire AO span
Doing General SCFMI
 Exchange:     0.1670 Hartree-Fock + 1.0000 wB97X-V + LR-HF
 Correlation:  1.0000 wB97X-V
 Using Euler-Maclaurin-Lebedev (99,590) quadrature formula
 Nonlocal Correlation:  VV10 with C = 0.0100 and b = 6.00 and scale = 1.00000
 Grid used for NLC:  SG-1 standard quadrature
performing fock build at end of subrot_r(subrot) constructor so that all methods have access
<S^2> of polarized wavefunction before ct-allowed iterations 0.0000000000
Beginning iterations for the determination of the CT-Allowed wavefunction
Energy prior to optimization (guess energy) = -618.399589607194
Begin Timing: Total SCF Calculation
begin iterations for algorithm: DIIS         
the SCF tolerance is set to 1.00e-08
    1    -618.3995896072      4.93e-05     00000 
    2    -618.4001342420      4.77e-06     00000 
    3    -618.4001486050      7.24e-07     00000 
    4    -618.4001490204      2.49e-07     00000 
    5    -618.4001490383      9.96e-08     00000 
    6    -618.4001490420      2.17e-08     00000 
    7    -618.4001490422      9.07e-09     00000 Convergence criterion met
write pseudocanon occs and virts to disk
write pseudocanon orbital energies to disk
Timing for Total SCF: 6942.00s (wall), 13822.89s (cpu)
<S^2> of ct_allowed wavefunction after ct-allowed iterations 0.0000000000

================================
        Results of EDA2         
================================
Basic EDA Quantities
--------------------
Fragment Energies (Ha):
1 -271.5803757163
2 -346.8168441692
--------------------
  E_prp (kJ/mol) = 0.0000
  E_sol (kJ/mol) = 1.2550
  E_frz (kJ/mol) = -6.8606
  E_pol (kJ/mol) = -0.6163
  E_vct (kJ/mol) = -1.4688
  E_int (kJ/mol) = -7.6906
--------------------


Initial Wavefunction Decomposition
--------------------
  --------------------
  Orthogonal Fragment Subspace Decomposition:
  --------------------
     E_elec   (ELEC)   (kJ/mol) = -10.8738
     E_pauli  (PAULI)  (kJ/mol) = 16.6398
     E_disp   (DISP)   (kJ/mol) = -12.6266
     --------------------
     Terms summing to E_pauli:
     --------------------
        E_kep_pauli       (kJ/mol) = 22.0309
        E_disp_free_pauli (kJ/mol) = -5.3911
  --------------------
  Classical Frozen Decomposition:
  --------------------
     E_cls_elec  (CLS ELEC)  (kJ/mol) = -3.7558
     E_cls_pauli (CLS PAULI) (kJ/mol) = -3.1047
    [E_mod_pauli (MOD PAULI) (kJ/mol) = 9.5219 (CLS PAULI - DISP from orthogonal decomposition) ]
  --------------------
--------------------

Simplified EDA Summary (kJ/mol)
--------------------
 PREPARATION     0.0000
 SOLVATION       1.2550
 FROZEN          5.7660      (does not include dispersion)
[PAULI           16.6398]     (if this is negligible, then frozen describes electrostatics)
 DISPERSION      -12.6266
 POLARIZATION    -0.6163
 CHARGE TRANSFER -1.4688
 TOTAL           -7.6906     (PRP + SOL + FRZ + DISP + POL + CT)
--------------------
 
 --------------------------------------------------------------
 
                    Orbital Energies (a.u.)
 --------------------------------------------------------------
 
 Alpha MOs
 -- Occupied --
-19.2477 -10.3368 -10.2781 -10.2775 -10.2759 -10.2753 -10.2736 -10.2708
-10.2701 -10.2698 -10.2673 -10.2665 -10.2658 -10.2625 -10.2621  -1.1936
 -1.0057  -0.9945  -0.9137  -0.9017  -0.8846  -0.8822  -0.8168  -0.8111
 -0.7484  -0.7341  -0.7142  -0.7080  -0.6657  -0.6346  -0.6030  -0.5815
 -0.5790  -0.5667  -0.5506  -0.5420  -0.5405  -0.5344  -0.5285  -0.5223
 -0.5184  -0.5121  -0.4895  -0.4781  -0.4772  -0.4575  -0.4450  -0.4435
 -0.4423  -0.4373  -0.3535  -0.3515  -0.3413  -0.3130
 -- Virtual --
  0.0520   0.0583   0.0635   0.0643   0.0665   0.0706   0.0725   0.0839
  0.0846   0.0918   0.0976   0.1047   0.1081   0.1112   0.1185   0.1192
  0.1264   0.1316   0.1422   0.1487   0.1548   0.1584   0.1590   0.1671
  0.1686   0.1777   0.1879   0.1889   0.1993   0.2051   0.2084   0.2130
  0.2157   0.2164   0.2208   0.2289   0.2328   0.2356   0.2392   0.2422
  0.2477   0.2542   0.2599   0.2622   0.2662   0.2679   0.2714   0.2734
  0.2761   0.2779   0.2790   0.2857   0.2880   0.2888   0.2925   0.2977
  0.3012   0.3051   0.3100   0.3109   0.3184   0.3224   0.3244   0.3260
  0.3298   0.3313   0.3343   0.3380   0.3405   0.3454   0.3498   0.3511
  0.3532   0.3560   0.3628   0.3649   0.3674   0.3694   0.3751   0.3772
  0.3803   0.3825   0.3874   0.3889   0.3911   0.3929   0.3956   0.3984
  0.4017   0.4053   0.4104   0.4126   0.4131   0.4184   0.4212   0.4234
  0.4321   0.4337   0.4370   0.4405   0.4422   0.4461   0.4464   0.4488
  0.4547   0.4555   0.4585   0.4589   0.4670   0.4688   0.4711   0.4731
  0.4818   0.4826   0.4909   0.4939   0.4947   0.4978   0.4999   0.5017
  0.5088   0.5136   0.5145   0.5187   0.5262   0.5273   0.5303   0.5328
  0.5349   0.5433   0.5472   0.5504   0.5507   0.5536   0.5601   0.5662
  0.5665   0.5739   0.5803   0.5827   0.5879   0.5902   0.5954   0.5976
  0.6043   0.6080   0.6148   0.6175   0.6229   0.6283   0.6332   0.6359
  0.6407   0.6502   0.6542   0.6554   0.6561   0.6650   0.6676   0.6718
  0.6789   0.6853   0.6861   0.6891   0.6945   0.6984   0.7019   0.7056
  0.7074   0.7136   0.7180   0.7232   0.7299   0.7337   0.7368   0.7390
  0.7445   0.7453   0.7499   0.7545   0.7574   0.7616   0.7647   0.7685
  0.7715   0.7747   0.7762   0.7811   0.7852   0.7898   0.7899   0.7962
  0.7970   0.8019   0.8094   0.8106   0.8125   0.8133   0.8175   0.8231
  0.8250   0.8295   0.8310   0.8355   0.8397   0.8443   0.8498   0.8526
  0.8554   0.8583   0.8598   0.8671   0.8697   0.8778   0.8822   0.8857
  0.8914   0.8973   0.8992   0.9063   0.9100   0.9153   0.9192   0.9217
  0.9237   0.9267   0.9320   0.9463   0.9488   0.9510   0.9544   0.9624
  0.9791   0.9902   0.9948   1.0000   1.0100   1.0136   1.0255   1.0295
  1.0343   1.0396   1.0457   1.0504   1.0566   1.0589   1.0615   1.0758
  1.0829   1.0855   1.0944   1.1007   1.1034   1.1064   1.1148   1.1208
  1.1285   1.1398   1.1447   1.1572   1.1640   1.1781   1.1843   1.2089
  1.2149   1.2279   1.2443   1.2567   1.2786   1.2855   1.2957   1.3087
  1.3160   1.3306   1.3363   1.3548   1.3691   1.3746   1.3817   1.3950
  1.3992   1.4086   1.4145   1.4207   1.4299   1.4571   1.4630   1.4665
  1.4748   1.4843   1.4974   1.4998   1.5024   1.5150   1.5397   1.5446
  1.5533   1.5564   1.5741   1.6031   1.6129   1.6308   1.6330   1.6362
  1.6368   1.6521   1.6575   1.6862   1.6958   1.7022   1.7187   1.7253
  1.7470   1.7925   1.7999   1.8062   1.8105   1.8128   1.8231   1.8291
  1.8393   1.8492   1.8500   1.8704   1.8779   1.8914   1.8971   1.9078
  1.9109   1.9256   1.9387   1.9410   1.9499   1.9555   1.9614   1.9694
  1.9822   1.9890   1.9965   2.0000   2.0127   2.0232   2.0267   2.0328
  2.0444   2.0484   2.0586   2.0619   2.0765   2.0889   2.0927   2.0986
  2.1083   2.1254   2.1304   2.1336   2.1499   2.1612   2.1629   2.1802
  2.1921   2.1988   2.2103   2.2152   2.2279   2.2350   2.2482   2.2614
  2.2672   2.2836   2.2875   2.3004   2.3111   2.3138   2.3189   2.3324
  2.3523   2.3632   2.3933   2.4117   2.4140   2.4234   2.4281   2.4324
  2.4511   2.4558   2.4873   2.5017   2.5133   2.5242   2.5388   2.5449
  2.5607   2.5637   2.5875   2.5947   2.6069   2.6112   2.6301   2.6362
  2.6548   2.6630   2.6669   2.6773   2.6833   2.7038   2.7096   2.7189
  2.7314   2.7481   2.7512   2.7604   2.7657   2.7830   2.7878   2.7998
  2.8110   2.8280   2.8344   2.8359   2.8543   2.8562   2.8760   2.8792
  2.8892   2.8930   2.9113   2.9216   2.9276   2.9366   2.9425   2.9513
  2.9660   2.9701   2.9750   2.9809   2.9845   2.9862   2.9879   3.0006
  3.0124   3.0152   3.0245   3.0337   3.0408   3.0719   3.0752   3.0819
  3.0874   3.1053   3.1106   3.1219   3.1264   3.1356   3.1599   3.1726
  3.1848   3.1906   3.2047   3.2100   3.2209   3.2329   3.2353   3.2452
  3.2547   3.2623   3.2721   3.2789   3.2880   3.2955   3.3095   3.3164
  3.3395   3.3470   3.3507   3.3680   3.3863   3.3879   3.3921   3.4016
  3.4052   3.4176   3.4183   3.4207   3.4561   3.4610   3.4652   3.4670
  3.4699   3.4784   3.4812   3.4888   3.4965   3.5161   3.5235   3.5241
  3.5261   3.5306   3.5332   3.5474   3.5556   3.5567   3.5638   3.5674
  3.5729   3.5758   3.5912   3.5954   3.5998   3.6095   3.6164   3.6215
  3.6250   3.6329   3.6373   3.6442   3.6567   3.6574   3.6724   3.6917
  3.6997   3.7082   3.7135   3.7282   3.7408   3.7506   3.7697   3.7967
  3.8087   3.8383   3.8430   3.8443   3.8736   3.8946   3.9235   3.9278
  3.9321   3.9562   3.9899   4.0011   4.0047   4.0122   4.0377   4.0501
  4.0709   4.0847   4.0891   4.1222   4.1400   4.1577   4.2209   4.2588
  4.2930   4.2944   4.3049   4.3111   4.3139   4.3187   4.3321   4.3416
  4.3474   4.3515   4.3537   4.3593   4.3712   4.3821   4.3858   4.3999
  4.4084   4.4279   4.4466   4.4517   4.4634   4.4838   4.4868   4.4985
  4.5105   4.5487   4.5658   4.5976   4.6269   4.6308   4.6783   4.7245
  4.7408   4.7839   4.7957   4.8040   4.8229   4.8659   4.8791   4.9251
  4.9339   4.9512   4.9697   5.0331   5.0602   5.0698   5.0801   5.0908
  5.1448   5.1547   5.2058   5.2887   5.3031   5.3297   5.3870   5.4232
  5.4262   5.4477   5.5310   5.5369   5.5517   5.6077   5.6414   5.7111
  5.7174   5.7720   5.8259   5.9448   6.2024   6.4655   6.5786   6.6304
  6.8766   6.9863   7.3101   7.4543  22.6209  22.6787  22.7106  22.7356
 22.9484  22.9682  22.9722  22.9944  23.0333  23.1022  23.1647  23.1755
 23.5171  23.5193  44.4282
 --------------------------------------------------------------
 
          Ground-State Mulliken Net Atomic Charges

     Atom                 Charge (a.u.)
  ----------------------------------------
      1 C                    -0.897903
      2 C                    -0.398444
      3 C                     0.763575
      4 C                    -0.345659
      5 C                    -0.396170
      6 C                    -0.364261
      7 C                    -0.477865
      8 H                     0.280824
      9 H                     0.298382
     10 H                     0.275930
     11 H                     0.084360
     12 H                     0.340065
     13 H                     0.348065
     14 H                     0.315852
     15 H                     0.219451
     16 C                    -0.920560
     17 C                    -0.000228
     18 C                     0.152597
     19 C                    -0.409634
     20 C                     0.563705
     21 C                    -0.475234
     22 C                    -0.539417
     23 O                    -0.473527
     24 H                     0.093686
     25 H                     0.284448
     26 H                     0.177214
     27 H                     0.257774
     28 H                     0.362462
     29 H                     0.314668
     30 H                     0.352982
     31 H                     0.212863
  ----------------------------------------
  Sum of atomic charges =     0.000000

 -----------------------------------------------------------------
                    Cartesian Multipole Moments
 -----------------------------------------------------------------
    Charge (ESU x 10^10)
                -0.0000
    Dipole Moment (Debye)
         X      -0.2259      Y       0.9721      Z       1.5782
       Tot       1.8673
    Quadrupole Moments (Debye-Ang)
        XX     -79.5197     XY       3.3300     YY     -90.1695
        XZ      -0.3103     YZ      -2.8966     ZZ     -97.6397
    Octopole Moments (Debye-Ang^2)
       XXX     -22.2341    XXY      -9.4715    XYY     -19.4458
       YYY      16.2348    XXZ     -17.4777    XYZ       6.4892
       YYZ      12.3947    XZZ      21.9744    YZZ      -3.3565
       ZZZ     -21.3449
    Hexadecapole Moments (Debye-Ang^3)
      XXXX   -2344.7943   XXXY     298.1860   XXYY    -641.9803
      XYYY     305.5699   YYYY   -1453.1952   XXXZ     639.6010
      XXYZ    -229.7531   XYYZ     230.0774   YYYZ    -746.3104
      XXZZ    -802.6441   XYZZ     103.1245   YYZZ    -682.7475
      XZZZ     694.0525   YZZZ    -773.1508   ZZZZ   -2571.9410
 -----------------------------------------------------------------
Archival summary:
1\1\nid00554\SP\ProcedureUnspecified\BasisUnspecified\11416\meili\MonSep2709:32:292021MonSep2709:32:292021\0\\#,ProcedureUnspecified,BasisUnspecified,\\0,1\C\H,1,1.08137\C,1,1.39502,2,119.363\H,3,1.08078,1,120.071,2,0.267824,0\C,1,1.39579,2,119.531,3,178.917,0\C,3,1.39729,1,119.943,2,179.192,0\O,6,1.36452,3,122.62,1,-177.638,0\H,7,0.974308,6,111.864,3,2.91291,0\C,6,1.393,3,119.256,1,1.27525,0\H,9,1.07825,6,118.975,3,177.816,0\C,9,1.38837,6,120.757,3,-2.40409,0\H,11,1.0825,9,119.709,6,-178.108,0\C,5,1.50759,1,119.977,2,-1.61567,0\H,13,1.08931,5,108.274,1,-23.25,0\H,13,1.09101,5,108.773,1,-138.457,0\H,13,1.1,5,115.154,1,98.7675,0\H,2,2.37085,1,146.312,3,9.61615,0\C,17,1.0789,2,110.778,1,-61.6979,0\C,18,1.37871,17,119.433,2,109.24,0\H,19,1.08191,18,119.701,17,-0.407837,0\C,19,1.37298,18,120.55,17,178.717,0\H,21,1.08054,19,120.481,18,-179.145,0\C,21,1.37647,19,119.268,18,0.92696,0\H,23,1.08129,21,119.624,19,179.371,0\C,18,1.38303,17,120.143,2,-71.6941,0\C,25,1.37509,18,118.9,17,-179.015,0\H,26,1.07839,25,119.979,18,179.422,0\C,25,1.48713,18,121.005,17,-2.33649,0\H,28,1.09104,25,108.708,18,35.7077,0\H,28,1.09143,25,109.738,18,152.948,0\H,28,1.1,25,112.35,18,-85.1163,0\\\@

 Total job time:  103831.83s(wall), 66571.93s(cpu) 
 Mon Sep 27 09:32:32 2021

        *************************************************************
        *                                                           *
        *  Thank you very much for using Q-Chem.  Have a nice day.  *
        *                                                           *
        *************************************************************


