
Running Job 1 of 1 SSI-117PHE-130HIE-1_SMD_TZVPD.in
qchem SSI-117PHE-130HIE-1_SMD_TZVPD.in_3284.0 /tmp/qchem3284/ 0
/global/common/cori/software/qchem/5.2/exe/qcprog.exe_s SSI-117PHE-130HIE-1_SMD_TZVPD.in_3284.0 /tmp/qchem3284/
                  Welcome to Q-Chem
     A Quantum Leap Into The Future Of Chemistry


 Q-Chem 5.2, Q-Chem, Inc., Pleasanton, CA (2019)

 License issued to: National Energy Research Scientific Computing Center

 Yihan Shao,  Zhengting Gan,  E. Epifanovsky,  A. T. B. Gilbert,  M. Wormit,  
 J. Kussmann,  A. W. Lange,  A. Behn,  Jia Deng,  Xintian Feng,  D. Ghosh,  
 M. Goldey,  P. R. Horn,  L. D. Jacobson,  I. Kaliman,  T. Kus,  A. Landau,  
 Jie Liu,  E. I. Proynov,  R. M. Richard,  R. P. Steele,  E. J. Sundstrom,  
 H. L. Woodcock III,  P. M. Zimmerman,  D. Zuev,  B. Albrecht,  E. Alguire,  
 S. A. Baeppler,  D. Barton,  Z. Benda,  Y. A. Bernard,  E. J. Berquist,  
 K. B. Bravaya,  H. Burton,  D. Casanova,  Chun-Min Chang,  Yunqing Chen,  
 A. Chien,  K. D. Closser,  M. P. Coons,  S. Coriani,  S. Dasgupta,  
 A. L. Dempwolff,  M. Diedenhofen,  Hainam Do,  R. G. Edgar,  Po-Tung Fang,  
 S. Faraji,  S. Fatehi,  Qingguo Feng,  K. D. Fenk,  J. Fosso-Tande,  
 J. Gayvert,  Qinghui Ge,  A. Ghysels,  G. Gidofalvi,  J. Gomes,  
 J. Gonthier,  A. Gunina,  D. Hait,  M. W. D. Hanson-Heine,  
 P. H. P. Harbach,  A. W. Hauser,  M. F. Herbst,  J. E. Herr,  
 E. G. Hohenstein,  Z. C. Holden,  Kerwin Hui,  B. C. Huynh,  T.-C. Jagau,  
 Hyunjun Ji,  B. Kaduk,  K. Khistyaev,  Jaehoon Kim,  P. Klunzinger,  K. Koh,  
 D. Kosenkov,  L. Koulias,  T. Kowalczyk,  C. M. Krauter,  A. Kunitsa,  
 Ka Un Lao,  A. Laurent,  K. V. Lawler,  Joonho Lee,  D. Lefrancois,  
 S. Lehtola,  D. S. Levine,  Yi-Pei Li,  You-Sheng Lin,  Fenglai Liu,  
 E. Livshits,  A. Luenser,  P. Manohar,  E. Mansoor,  S. F. Manzer,  
 Shan-Ping Mao,  Yuezhi Mao,  N. Mardirossian,  A. V. Marenich,  
 T. Markovich,  L. A. Martinez-Martinez,  S. A. Maurer,  N. J. Mayhall,  
 S. C. McKenzie,  J.-M. Mewes,  P. Morgante,  A. F. Morrison,  
 J. W. Mullinax,  K. Nanda,  T. S. Nguyen-Beck,  R. Olivares-Amaya,  
 J. A. Parkhill,  Zheng Pei,  T. M. Perrine,  F. Plasser,  P. Pokhilko,  
 S. Prager,  A. Prociuk,  E. Ramos,  D. R. Rehn,  F. Rob,  M. Scheurer,  
 M. Schneider,  N. Sergueev,  S. M. Sharada,  S. Sharma,  D. W. Small,  
 T. Stauch,  T. Stein,  Yu-Chuan Su,  A. J. W. Thom,  A. Tkatchenko,  
 T. Tsuchimochi,  N. M. Tubman,  L. Vogt,  M. L. Vidal,  O. Vydrov,  
 M. A. Watson,  J. Wenzel,  M. de Wergifosse,  T. A. Wesolowski,  A. White,  
 J. Witte,  A. Yamada,  Jun Yang,  K. Yao,  S. Yeganeh,  S. R. Yost,  
 Zhi-Qiang You,  A. Zech,  Igor Ying Zhang,  Xing Zhang,  Yan Zhao,  
 Ying Zhu,  B. R. Brooks,  G. K. L. Chan,  C. J. Cramer,  M. S. Gordon,  
 W. J. Hehre,  A. Klamt,  M. W. Schmidt,  C. D. Sherrill,  D. G. Truhlar,  
 A. Aspuru-Guzik,  R. Baer,  A. T. Bell,  N. A. Besley,  Jeng-Da Chai,  
 A. E. DePrince, III,  R. A. DiStasio Jr.,  A. Dreuw,  B. D. Dunietz,  
 T. R. Furlani,  Chao-Ping Hsu,  Yousung Jung,  Jing Kong,  D. S. Lambrecht,  
 WanZhen Liang,  C. Ochsenfeld,  V. A. Rassolov,  L. V. Slipchenko,  
 J. E. Subotnik,  T. Van Voorhis,  J. M. Herbert,  A. I. Krylov,  
 P. M. W. Gill,  M. Head-Gordon

 Contributors to earlier versions of Q-Chem not listed above: 
 R. D. Adamson,  B. Austin,  J. Baker,  G. J. O. Beran,  K. Brandhorst,  
 S. T. Brown,  E. F. C. Byrd,  A. K. Chakraborty,  C.-L. Cheng,  
 Siu Hung Chien,  D. M. Chipman,  D. L. Crittenden,  H. Dachsel,  
 R. J. Doerksen,  A. D. Dutoi,  L. Fusti-Molnar,  W. A. Goddard III,  
 A. Golubeva-Zadorozhnaya,  S. R. Gwaltney,  G. Hawkins,  A. Heyden,  
 S. Hirata,  G. Kedziora,  F. J. Keil,  C. Kelley,  Jihan Kim,  R. A. King,  
 R. Z. Khaliullin,  P. P. Korambath,  W. Kurlancheek,  A. M. Lee,  M. S. Lee,  
 S. V. Levchenko,  Ching Yeh Lin,  D. Liotard,  R. C. Lochan,  I. Lotan,  
 P. E. Maslen,  N. Nair,  D. P. O'Neill,  D. Neuhauser,  E. Neuscamman,  
 C. M. Oana,  R. Olson,  B. Peters,  R. Peverati,  P. A. Pieniazek,  
 Y. M. Rhee,  J. Ritchie,  M. A. Rohrdanz,  E. Rosta,  N. J. Russ,  
 H. F. Schaefer III,  N. E. Schultz,  N. Shenvi,  A. C. Simmonett,  A. Sodt,  
 D. Stuck,  K. S. Thanthiriwatte,  V. Vanovschi,  Tao Wang,  A. Warshel,  
 C. F. Williams,  Q. Wu,  X. Xu,  W. Zhang

 Please cite Q-Chem as follows:
 Y. Shao et al., Mol. Phys. 113, 184-215 (2015)
 DOI: 10.1080/00268976.2014.952696

 Q-Chem 5.2.0 for Intel X86 EM64T Linux

 Parts of Q-Chem use Armadillo 8.300.2 (Tropical Shenanigans).
 http://arma.sourceforge.net/

 Q-Chem begins on Sun Sep 26 13:54:22 2021  

Host: cori01
0

     Scratch files written to /tmp/qchem3284//
 May1019 |scratch|qcdevops|jenkins|workspace|build_RNUM -1
Processing $rem in /global/common/cori/software/qchem/5.2/config/preferences:
	 MEM_TOTAL  96000 
NAlpha2: 94
NElect   94
Mult     1
Symmetry turned off for PCM/SM12/SMD calculation

 Q-Chem warning in module libgen/rem_setup.C, line 2803:

 Neither GIA nor STOLL is specified by user. Use STOLL as the default


Checking the input file for inconsistencies... 	...done.

--------------------------------------------------------------
User input:
--------------------------------------------------------------
$comment
SSI-117PHE-130HIE-1.pdb
$end

$molecule
0 1
--
0 1
C    0.013309326418   -1.135906313511   -4.110006964170
C    0.769309326418   -0.501906313511   -0.451006964170
C    2.075309326418   -0.968906313511   -0.338006964170
C    0.112309326418   -0.552906313511   -1.678006964170
C    0.754309326418   -1.057906313511   -2.807006964170
C    2.718309326418   -1.494906313511   -1.456006964170
C    2.055309326418   -1.543906313511   -2.686006964170
H    0.241309326418   -0.154906313511    0.416993035830
H    2.576309326418   -0.950906313511    0.620993035830
H   -0.910690673582   -0.225906313511   -1.737006964170
H    3.711309326418   -1.897906313511   -1.368006964170
H   -0.966690673582   -0.669906313511   -3.991006964170
H   -0.157690673582   -2.192906313511   -4.327006964170
H    2.558309326418   -1.950906313511   -3.548006964170
H    0.520380326418   -0.681116313511   -4.973746964170
--
0 1
C   -3.079690673582    1.901093686489    1.065993035830
C    0.154309326418    1.202093686489    2.561993035830
C   -1.917690673582    1.356093686489    1.841993035830
C   -1.883690673582    0.411093686489    2.816993035830
N   -0.636690673582    1.846093686489    1.715993035830
N   -0.574690673582    0.325093686489    3.241993035830
H    1.219309326418    1.361093686489    2.680993035830
H   -0.214690673582   -0.301906313511    3.953993035830
H   -2.726690673582   -0.155906313511    3.183993035830
H   -3.798690673582    1.096093686489    0.913993035830
H   -2.740690673582    2.228093686489    0.084993035830
H   -3.571522673582    2.739083686489    1.581623035830
$end

$rem
JOBTYPE			EDA
EDA2			1
method			wB97X-V
BASIS			def2-TZVPD
XC_GRID			000099000590
NL_GRID			1
UNRESTRICTED		FALSE
MAX_SCF_CYCLES		200
SYMMETRY		FALSE
SYM_IGNORE		TRUE
MEM_STATIC		2000
BASIS_LIN_DEP_THRESH 	6
THRESH 			14
SCF_CONVERGENCE 	8
SCF_PRINT_FRGM 		TRUE
SOLVENT_METHOD          SMD
$end

$SMX
SOLVENT			WATER
$END
--------------------------------------------------------------
 ----------------------------------------------------------------
             Standard Nuclear Orientation (Angstroms)
    I     Atom           X                Y                Z
 ----------------------------------------------------------------
    1      C       0.0133093264    -1.1359063135    -4.1100069642
    2      C       0.7693093264    -0.5019063135    -0.4510069642
    3      C       2.0753093264    -0.9689063135    -0.3380069642
    4      C       0.1123093264    -0.5529063135    -1.6780069642
    5      C       0.7543093264    -1.0579063135    -2.8070069642
    6      C       2.7183093264    -1.4949063135    -1.4560069642
    7      C       2.0553093264    -1.5439063135    -2.6860069642
    8      H       0.2413093264    -0.1549063135     0.4169930358
    9      H       2.5763093264    -0.9509063135     0.6209930358
   10      H      -0.9106906736    -0.2259063135    -1.7370069642
   11      H       3.7113093264    -1.8979063135    -1.3680069642
   12      H      -0.9666906736    -0.6699063135    -3.9910069642
   13      H      -0.1576906736    -2.1929063135    -4.3270069642
   14      H       2.5583093264    -1.9509063135    -3.5480069642
   15      H       0.5203803264    -0.6811163135    -4.9737469642
   16      C      -3.0796906736     1.9010936865     1.0659930358
   17      C       0.1543093264     1.2020936865     2.5619930358
   18      C      -1.9176906736     1.3560936865     1.8419930358
   19      C      -1.8836906736     0.4110936865     2.8169930358
   20      N      -0.6366906736     1.8460936865     1.7159930358
   21      N      -0.5746906736     0.3250936865     3.2419930358
   22      H       1.2193093264     1.3610936865     2.6809930358
   23      H      -0.2146906736    -0.3019063135     3.9539930358
   24      H      -2.7266906736    -0.1559063135     3.1839930358
   25      H      -3.7986906736     1.0960936865     0.9139930358
   26      H      -2.7406906736     2.2280936865     0.0849930358
   27      H      -3.5715226736     2.7390836865     1.5816230358
 ----------------------------------------------------------------
 Nuclear Repulsion Energy =         706.96125839 hartrees
 There are       47 alpha and       47 beta electrons
 Requested basis set is def2-TZVPD
 There are 239 shells and 607 basis functions

 Total QAlloc Memory Limit  96000 MB
 Mega-Array Size      1956 MB
 MEM_STATIC part      2000 MB
 
 Citation of the SMD model:
 Marenich, A.V.; Cramer, C.J.; Truhlar, D.G.
 J. Phys. Chem. B 2009, 113, 6378-6396.
 iSolventCode=           1
 Solvent: water                                                           
 
 vradii
            1           2           3           4           5           6
    1   1.8500000   1.8500000   1.8500000   1.8500000   1.8500000   1.8500000
            7           8           9          10          11          12
    1   1.8500000   1.2000000   1.2000000   1.2000000   1.2000000   1.2000000
           13          14          15          16          17          18
    1   1.2000000   1.2000000   1.2000000   1.8500000   1.8500000   1.8500000
           19          20          21          22          23          24
    1   1.8500000   1.8900000   1.8900000   1.2000000   1.2000000   1.2000000
           25          26          27
    1   1.2000000   1.2000000   1.2000000
 Changing PCM_VDW_RADII to SMD_RADIUS
 Discretize the solute cavity surface with Lebedev spheres
	Using 110 Lebedev grid points for each H atom
	Using 194 Lebedev grid points for other atoms
	Atomic van der Waals radii will be scaled by 1.20
 Remove points where switching function is < 1.0e-08
 Keep 1956 surface tesserae and discard 2106 interior tesserae
 Molecular Surface Area = 241.097 Angst**2
 A cutoff of  1.0D-14 yielded  24372 shell pairs
 There are    157418 function pairs (    198940 Cartesian)
 Smallest overlap matrix eigenvalue = 4.79E-07
 Linear dependence detected in AO basis
 Tighter screening thresholds may be required for diffuse basis sets
 Use S2THRESH > 14 and THRESH = 14 in case of SCF convergence issues
 Number of orthogonalized atomic orbitals = 605
 Maximum deviation from orthogonality = 2.166E-10

 Scale SEOQF with 1.000000e-01/1.000000e-01/1.000000e-01

 Standard Electronic Orientation quadrupole field applied
 Nucleus-field energy     =    -0.0000000379 hartrees

 -----------------------------------------------------------------------
  General SCF calculation program by
  Eric Jon Sundstrom, Paul Horn, Yuezhi Mao, Dmitri Zuev, Alec White,
  David Stuck, Shaama M.S., Shane Yost, Joonho Lee, David Small,
  Daniel Levine, Susi Lehtola, Hugh Burton, Evgeny Epifanovsky
 -----------------------------------------------------------------------
================================================================
                 ALMO-EDA with the EDA2 driver                  
================================================================
 The second-generation ALMO-EDA (for DFT):                      
 P. R. Horn, Y. Mao and M. Head-Gordon, PCCP, 18, 23067 (2016)  
 Decomposition of the frozen energy:                            
 P. R. Horn, Y. Mao and M. Head-Gordon, JCP, 144, 114107 (2016) 
 FERF model for polarization:                                   
 P. R. Horn and M. Head-Gordon, JCP, 143, 114111 (2015)         
Using eda2 option set 1
Option set summary: Frozen orbital wavefunction, initial wavefunction decomposition, and nDQ polarization.
--------------------------------
Printing EDA Options
--------------------------------
eda_child_super_basis      0
fragmo_guess_mode          0
child_mp                   1
child_mp_orders            232
cls_elec                   1
cls_disp                   0
scfmi_mode                 1
scfmi_occs                 0
scfmi_virts                0
frz_relax                  0
frz_relax_method           0
dc_pen_start               0
dc_pen_conv                0
dc_pen_increment           0
dc_pen_steps               0
dc_pen_thresh_factor       0
dc_pen_pre_newton_thresh   0
frz_ortho_decomp           1
frz_ortho_decomp_conv      6
frgm_method                2
scfmi_freeze_ss            0
separate_rehyb             0
plot_diff_den              0
eda_nocv                   0
eda_vct_relax              1
disp_free_x                0
disp_free_c                0
eda_bsse                   0
eda_pct_a                  0
eda_covp                   0
--------------------------------
Attempting to make child job directory: /tmp/qchem3284//Frg1/
Attempting to make child job directory: /tmp/qchem3284//Frg2/
Creating input file /tmp/qchem3284/Frg1.input
using default PutDataFrgm: nothing
calling putenv with: QCSCRATCH=/tmp/qchem3284/ 
calling putenv with: QCLOCALSCR=/tmp/qchem3284/ 
Spawning Job For Fragment 0
                  Welcome to Q-Chem
     A Quantum Leap Into The Future Of Chemistry


 Q-Chem 5.2, Q-Chem, Inc., Pleasanton, CA (2019)

 License issued to: National Energy Research Scientific Computing Center

 Yihan Shao,  Zhengting Gan,  E. Epifanovsky,  A. T. B. Gilbert,  M. Wormit,  
 J. Kussmann,  A. W. Lange,  A. Behn,  Jia Deng,  Xintian Feng,  D. Ghosh,  
 M. Goldey,  P. R. Horn,  L. D. Jacobson,  I. Kaliman,  T. Kus,  A. Landau,  
 Jie Liu,  E. I. Proynov,  R. M. Richard,  R. P. Steele,  E. J. Sundstrom,  
 H. L. Woodcock III,  P. M. Zimmerman,  D. Zuev,  B. Albrecht,  E. Alguire,  
 S. A. Baeppler,  D. Barton,  Z. Benda,  Y. A. Bernard,  E. J. Berquist,  
 K. B. Bravaya,  H. Burton,  D. Casanova,  Chun-Min Chang,  Yunqing Chen,  
 A. Chien,  K. D. Closser,  M. P. Coons,  S. Coriani,  S. Dasgupta,  
 A. L. Dempwolff,  M. Diedenhofen,  Hainam Do,  R. G. Edgar,  Po-Tung Fang,  
 S. Faraji,  S. Fatehi,  Qingguo Feng,  K. D. Fenk,  J. Fosso-Tande,  
 J. Gayvert,  Qinghui Ge,  A. Ghysels,  G. Gidofalvi,  J. Gomes,  
 J. Gonthier,  A. Gunina,  D. Hait,  M. W. D. Hanson-Heine,  
 P. H. P. Harbach,  A. W. Hauser,  M. F. Herbst,  J. E. Herr,  
 E. G. Hohenstein,  Z. C. Holden,  Kerwin Hui,  B. C. Huynh,  T.-C. Jagau,  
 Hyunjun Ji,  B. Kaduk,  K. Khistyaev,  Jaehoon Kim,  P. Klunzinger,  K. Koh,  
 D. Kosenkov,  L. Koulias,  T. Kowalczyk,  C. M. Krauter,  A. Kunitsa,  
 Ka Un Lao,  A. Laurent,  K. V. Lawler,  Joonho Lee,  D. Lefrancois,  
 S. Lehtola,  D. S. Levine,  Yi-Pei Li,  You-Sheng Lin,  Fenglai Liu,  
 E. Livshits,  A. Luenser,  P. Manohar,  E. Mansoor,  S. F. Manzer,  
 Shan-Ping Mao,  Yuezhi Mao,  N. Mardirossian,  A. V. Marenich,  
 T. Markovich,  L. A. Martinez-Martinez,  S. A. Maurer,  N. J. Mayhall,  
 S. C. McKenzie,  J.-M. Mewes,  P. Morgante,  A. F. Morrison,  
 J. W. Mullinax,  K. Nanda,  T. S. Nguyen-Beck,  R. Olivares-Amaya,  
 J. A. Parkhill,  Zheng Pei,  T. M. Perrine,  F. Plasser,  P. Pokhilko,  
 S. Prager,  A. Prociuk,  E. Ramos,  D. R. Rehn,  F. Rob,  M. Scheurer,  
 M. Schneider,  N. Sergueev,  S. M. Sharada,  S. Sharma,  D. W. Small,  
 T. Stauch,  T. Stein,  Yu-Chuan Su,  A. J. W. Thom,  A. Tkatchenko,  
 T. Tsuchimochi,  N. M. Tubman,  L. Vogt,  M. L. Vidal,  O. Vydrov,  
 M. A. Watson,  J. Wenzel,  M. de Wergifosse,  T. A. Wesolowski,  A. White,  
 J. Witte,  A. Yamada,  Jun Yang,  K. Yao,  S. Yeganeh,  S. R. Yost,  
 Zhi-Qiang You,  A. Zech,  Igor Ying Zhang,  Xing Zhang,  Yan Zhao,  
 Ying Zhu,  B. R. Brooks,  G. K. L. Chan,  C. J. Cramer,  M. S. Gordon,  
 W. J. Hehre,  A. Klamt,  M. W. Schmidt,  C. D. Sherrill,  D. G. Truhlar,  
 A. Aspuru-Guzik,  R. Baer,  A. T. Bell,  N. A. Besley,  Jeng-Da Chai,  
 A. E. DePrince, III,  R. A. DiStasio Jr.,  A. Dreuw,  B. D. Dunietz,  
 T. R. Furlani,  Chao-Ping Hsu,  Yousung Jung,  Jing Kong,  D. S. Lambrecht,  
 WanZhen Liang,  C. Ochsenfeld,  V. A. Rassolov,  L. V. Slipchenko,  
 J. E. Subotnik,  T. Van Voorhis,  J. M. Herbert,  A. I. Krylov,  
 P. M. W. Gill,  M. Head-Gordon

 Contributors to earlier versions of Q-Chem not listed above: 
 R. D. Adamson,  B. Austin,  J. Baker,  G. J. O. Beran,  K. Brandhorst,  
 S. T. Brown,  E. F. C. Byrd,  A. K. Chakraborty,  C.-L. Cheng,  
 Siu Hung Chien,  D. M. Chipman,  D. L. Crittenden,  H. Dachsel,  
 R. J. Doerksen,  A. D. Dutoi,  L. Fusti-Molnar,  W. A. Goddard III,  
 A. Golubeva-Zadorozhnaya,  S. R. Gwaltney,  G. Hawkins,  A. Heyden,  
 S. Hirata,  G. Kedziora,  F. J. Keil,  C. Kelley,  Jihan Kim,  R. A. King,  
 R. Z. Khaliullin,  P. P. Korambath,  W. Kurlancheek,  A. M. Lee,  M. S. Lee,  
 S. V. Levchenko,  Ching Yeh Lin,  D. Liotard,  R. C. Lochan,  I. Lotan,  
 P. E. Maslen,  N. Nair,  D. P. O'Neill,  D. Neuhauser,  E. Neuscamman,  
 C. M. Oana,  R. Olson,  B. Peters,  R. Peverati,  P. A. Pieniazek,  
 Y. M. Rhee,  J. Ritchie,  M. A. Rohrdanz,  E. Rosta,  N. J. Russ,  
 H. F. Schaefer III,  N. E. Schultz,  N. Shenvi,  A. C. Simmonett,  A. Sodt,  
 D. Stuck,  K. S. Thanthiriwatte,  V. Vanovschi,  Tao Wang,  A. Warshel,  
 C. F. Williams,  Q. Wu,  X. Xu,  W. Zhang

 Please cite Q-Chem as follows:
 Y. Shao et al., Mol. Phys. 113, 184-215 (2015)
 DOI: 10.1080/00268976.2014.952696

 Q-Chem 5.2.0 for Intel X86 EM64T Linux

 Parts of Q-Chem use Armadillo 8.300.2 (Tropical Shenanigans).
 http://arma.sourceforge.net/

 Q-Chem begins on Sun Sep 26 13:54:28 2021  

Host: cori01
0

     Scratch files written to /tmp/qchem3284//Frg1//
 May1019 |scratch|qcdevops|jenkins|workspace|build_RNUM -1
Processing $rem in /global/common/cori/software/qchem/5.2/config/preferences:
	 MEM_TOTAL  96000 
NAlpha2: 50
NElect   50
Mult     1
Symmetry turned off for PCM/SM12/SMD calculation

Checking the input file for inconsistencies... 	...done.

--------------------------------------------------------------
User input:
--------------------------------------------------------------
$molecule
0 1
 6	0.0133093264	-1.1359063135	-4.1100069642
 6	0.7693093264	-0.5019063135	-0.4510069642
 6	2.0753093264	-0.9689063135	-0.3380069642
 6	0.1123093264	-0.5529063135	-1.6780069642
 6	0.7543093264	-1.0579063135	-2.8070069642
 6	2.7183093264	-1.4949063135	-1.4560069642
 6	2.0553093264	-1.5439063135	-2.6860069642
 1	0.2413093264	-0.1549063135	0.4169930358
 1	2.5763093264	-0.9509063135	0.6209930358
 1	-0.9106906736	-0.2259063135	-1.7370069642
 1	3.7113093264	-1.8979063135	-1.3680069642
 1	-0.9666906736	-0.6699063135	-3.9910069642
 1	-0.1576906736	-2.1929063135	-4.3270069642
 1	2.5583093264	-1.9509063135	-3.5480069642
 1	0.5203803264	-0.6811163135	-4.9737469642
$end
$rem
EDA2		1
METHOD		WB97X-V
BASIS		DEF2-TZVPD
XC_GRID		000099000590
NL_GRID		1
UNRESTRICTED		FALSE
MAX_SCF_CYCLES		200
SYMMETRY		FALSE
SYM_IGNORE		TRUE
BASIS_LIN_DEP_THRESH		6
THRESH		14
SCF_CONVERGENCE		8
SCF_PRINT_FRGM		TRUE
SOLVENT_METHOD		SMD
!required keywords
JOBTYPE		SP
SYM_IGNORE		TRUE
SUBSYSTEM		TRUE
GEN_SCFMAN		TRUE
CHILD_INSTRUCTION		2
SYM_IGNORE		TRUE
SCFMI		0
RI_K 0		
PARI_K 0		
MIN_PARI_K 0		
IARI_K 0		
OCC_RI_K 0		
PURECART		1111
MEM_STATIC		2000
MEM_TOTAL		96000
GUI		0
CHILD_MP		1
CHILD_MP_ORDERS		232
FRZ_RELAX		0
FRZ_RELAX_METHOD		0
EDA_CLS_ELEC		1
EDA_CLS_DISP		0
FRZ_ORTHO_DECOMP		1
EDA2		FALSE
FRGM_METHOD		FALSE
CIS_N_ROOTS  0
LOCAL_CIS    0
CIS_RLX_DNS  1
$end
$smx
SOLVENT			WATER
$end
--------------------------------------------------------------
 ----------------------------------------------------------------
             Standard Nuclear Orientation (Angstroms)
    I     Atom           X                Y                Z
 ----------------------------------------------------------------
    1      C       0.0133093264    -1.1359063135    -4.1100069642
    2      C       0.7693093264    -0.5019063135    -0.4510069642
    3      C       2.0753093264    -0.9689063135    -0.3380069642
    4      C       0.1123093264    -0.5529063135    -1.6780069642
    5      C       0.7543093264    -1.0579063135    -2.8070069642
    6      C       2.7183093264    -1.4949063135    -1.4560069642
    7      C       2.0553093264    -1.5439063135    -2.6860069642
    8      H       0.2413093264    -0.1549063135     0.4169930358
    9      H       2.5763093264    -0.9509063135     0.6209930358
   10      H      -0.9106906736    -0.2259063135    -1.7370069642
   11      H       3.7113093264    -1.8979063135    -1.3680069642
   12      H      -0.9666906736    -0.6699063135    -3.9910069642
   13      H      -0.1576906736    -2.1929063135    -4.3270069642
   14      H       2.5583093264    -1.9509063135    -3.5480069642
   15      H       0.5203803264    -0.6811163135    -4.9737469642
 ----------------------------------------------------------------
 Nuclear Repulsion Energy =         269.86059320 hartrees
 There are       25 alpha and       25 beta electrons
 Requested basis set is def2-TZVPD
 There are 131 shells and 331 basis functions

 Total QAlloc Memory Limit  96000 MB
 Mega-Array Size      1956 MB
 MEM_STATIC part      2000 MB
 
 Citation of the SMD model:
 Marenich, A.V.; Cramer, C.J.; Truhlar, D.G.
 J. Phys. Chem. B 2009, 113, 6378-6396.
 iSolventCode=           1
 Solvent: water                                                           
 
 vradii
            1           2           3           4           5           6
    1   1.8500000   1.8500000   1.8500000   1.8500000   1.8500000   1.8500000
            7           8           9          10          11          12
    1   1.8500000   1.2000000   1.2000000   1.2000000   1.2000000   1.2000000
           13          14          15
    1   1.2000000   1.2000000   1.2000000
 Changing PCM_VDW_RADII to SMD_RADIUS
 Discretize the solute cavity surface with Lebedev spheres
	Using 110 Lebedev grid points for each H atom
	Using 194 Lebedev grid points for other atoms
	Atomic van der Waals radii will be scaled by 1.20
 Remove points where switching function is < 1.0e-08
 Keep 1075 surface tesserae and discard 1163 interior tesserae
 Molecular Surface Area = 131.971 Angst**2

                       Distance Matrix (Angstroms)
             C (  1)   C (  2)   C (  3)   C (  4)   C (  5)   C (  6)
   C (  2)  3.789693
   C (  3)  4.302060  1.391580
   C (  4)  2.502861  1.392759  2.412887
   C (  5)  1.500991  2.420764  2.801593  1.393496
   C (  6)  3.806524  2.407213  1.392856  2.779907  2.423523
   C (  7)  2.522698  2.781148  2.417463  2.402789  1.394072  1.398167
   H (  8)  4.637680  1.073600  2.143870  2.136368  3.387145  3.382197
   H (  9)  5.383823  2.148496  1.082130  3.393391  3.883596  2.151750
   H ( 10)  2.704257  2.133629  3.380155  1.075611  2.146939  3.854733
   H ( 11)  4.666306  3.383056  2.144863  3.854598  3.394138  1.075268
   H ( 12)  1.091658  3.946330  4.763147  2.554975  2.124674  4.548195
   H ( 13)  1.092510  4.329225  4.732503  3.127251  2.104844  4.123254
   H ( 14)  2.730768  3.858955  3.391418  3.381452  2.144982  2.147091
   H ( 15)  1.100001  4.533129  4.898032  3.323381  2.211664  4.227013
             C (  7)   H (  8)   H (  9)   H ( 10)   H ( 11)   H ( 12)
   H (  8)  3.853379
   H (  9)  3.399903  2.475370
   H ( 10)  3.381550  2.443739  4.271412
   H ( 11)  2.145874  4.273777  2.478135  4.928958
   H ( 12)  3.405787  4.599451  5.822573  2.297997  5.501981
   H ( 13)  2.830451  5.178627  5.787921  3.338293  4.879740  1.756959
   H ( 14)  1.077823  4.931058  4.287293  4.276600  2.466702  3.776617
   H ( 15)  2.886896  5.423546  5.966636  3.568146  4.966283  1.782494
             H ( 13)   H ( 14)
   H ( 14)  2.835853
   H ( 15)  1.778640  2.792536
 
 A cutoff of  1.0D-14 yielded   8363 shell pairs
 There are     54499 function pairs (     69453 Cartesian)
 Smallest overlap matrix eigenvalue = 5.78E-07
 Linear dependence detected in AO basis
 Tighter screening thresholds may be required for diffuse basis sets
 Use S2THRESH > 14 and THRESH = 14 in case of SCF convergence issues
 Number of orthogonalized atomic orbitals = 330
 Maximum deviation from orthogonality = 1.200E-10

 Scale SEOQF with 1.000000e-01/1.000000e-01/1.000000e-01

 Standard Electronic Orientation quadrupole field applied
 Nucleus-field energy     =    -0.0000000229 hartrees
 Guess from superposition of atomic densities
 Warning:  Energy on first SCF cycle will be non-variational
 SAD guess density has 49.913408 electrons

 -----------------------------------------------------------------------
  General SCF calculation program by
  Eric Jon Sundstrom, Paul Horn, Yuezhi Mao, Dmitri Zuev, Alec White,
  David Stuck, Shaama M.S., Shane Yost, Joonho Lee, David Small,
  Daniel Levine, Susi Lehtola, Hugh Burton, Evgeny Epifanovsky
 -----------------------------------------------------------------------
 Exchange:     0.1670 Hartree-Fock + 1.0000 wB97X-V + LR-HF
 Correlation:  1.0000 wB97X-V
 Using Euler-Maclaurin-Lebedev (99,590) quadrature formula
 Nonlocal Correlation:  VV10 with C = 0.0100 and b = 6.00 and scale = 1.00000
 Grid used for NLC:  SG-1 standard quadrature
Energy prior to optimization (guess energy) = -271.519561229450
Begin Timing: Total SCF Calculation
begin iterations for algorithm: DIIS         
the SCF tolerance is set to 1.00e-08
    1    -271.5195612295      1.96e-03     00000 
    2    -271.5605763728      1.27e-03     00000 
    3    -271.5842731930      1.55e-04     00000 
    4    -271.5849738495      4.60e-05     00000 
    5    -271.5850244594      2.10e-05     00000 
    6    -271.5850318557      5.37e-06     00000 
    7    -271.5850325682      1.31e-06     00000 
    8    -271.5850326037      4.67e-07     00000 
    9    -271.5850326089      9.09e-08     00000 
   10    -271.5850326093      3.67e-08     00000 
   11    -271.5850326093      1.67e-08     00000 
   12    -271.5850326094      6.60e-09     00000 Convergence criterion met
Timing for Total SCF: 1310.00s (wall), 2607.06s (cpu)
(3)  G-ENP(liq) elect-nuc-pol free energy of system     -271.585032609 a.u.
(4)  G-CDS(liq) cavity-dispersion-solvent structure 
     free energy                                                3.1657 kcal/mol
(6)  G-S(liq) free energy of system                     -271.579987779 a.u.
E_pcm = -0.0075161011
E_cds = 0.0050448300
Multipole orders to be included
        2
        3
computing dipole RHS
computing quadrupole RHS
total number of RHS in solve_reponses: 8
RHS batch sizes
        8
Beginning Block Conjugate Gradient Iterations. Batch Number: 0
computing hessian-vector products by finite difference
              1      6.23e-01     00000 Conjugate Gradient Iteration
computing hessian-vector products by finite difference
              2      1.89e-01     00000 Conjugate Gradient Iteration
computing hessian-vector products by finite difference
              3      4.55e-02     00000 Conjugate Gradient Iteration
computing hessian-vector products by finite difference
              4      1.17e-02     00000 Conjugate Gradient Iteration
computing hessian-vector products by finite difference
              5      2.01e-03     00000 Conjugate Gradient Iteration
computing hessian-vector products by finite difference
              6      5.98e-04     00000 Conjugate Gradient Iteration
computing hessian-vector products by finite difference
              7      1.53e-04     00000 Conjugate Gradient Iteration
computing hessian-vector products by finite difference
              8      2.45e-05     00000 Conjugate Gradient Iteration
computing hessian-vector products by finite difference
              9      3.22e-06     00000 Conjugate Gradient Iteration
computing hessian-vector products by finite difference
             10      4.31e-07     00000 Conjugate Gradient Iteration
computing hessian-vector products by finite difference
             11      7.93e-08     00000 Conjugate Gradient Iteration
computing hessian-vector products by finite difference
             12      1.35e-08     00000 Conjugate Gradient Iteration
computing hessian-vector products by finite difference
             13      2.79e-09     00000 CG Converged
batch 0 complete
Done Calculating Responses
TESTING ORTHOGONALIZATION OF MULTIPOLE BASIS
Multipole virts passed orthogonality test
Virts Per Order
           75
          125
 
 --------------------------------------------------------------
 
                    Orbital Energies (a.u.)
 --------------------------------------------------------------
 
 Alpha MOs
 -- Occupied --
-10.2774 -10.2685 -10.2668 -10.2654 -10.2646 -10.2632 -10.2537  -0.9928
 -0.9022  -0.8742  -0.8070  -0.7256  -0.7006  -0.6242  -0.5681  -0.5620
 -0.5282  -0.5241  -0.5092  -0.4798  -0.4686  -0.4363  -0.4347  -0.3458
 -0.3343
 -- Virtual --
  0.0658   0.0682   0.0729   0.0844   0.0898   0.1095   0.1156   0.1180
  0.1408   0.1590   0.1708   0.1796   0.1868   0.1956   0.1999   0.2049
  0.2266   0.2364   0.2395   0.2459   0.2487   0.2625   0.2660   0.2778
  0.2824   0.2870   0.2929   0.2971   0.2988   0.3067   0.3085   0.3173
  0.3266   0.3295   0.3345   0.3463   0.3559   0.3569   0.3730   0.3761
  0.3788   0.3856   0.3912   0.3954   0.3991   0.4010   0.4074   0.4079
  0.4198   0.4309   0.4381   0.4411   0.4471   0.4516   0.4565   0.4663
  0.4721   0.4792   0.4812   0.4921   0.5013   0.5035   0.5135   0.5151
  0.5196   0.5305   0.5334   0.5459   0.5494   0.5574   0.5632   0.5695
  0.5757   0.5800   0.5901   0.6016   0.6069   0.6300   0.6410   0.6488
  0.6676   0.6815   0.6847   0.6892   0.6949   0.7059   0.7268   0.7292
  0.7316   0.7372   0.7490   0.7647   0.7687   0.7727   0.7793   0.7828
  0.7921   0.7958   0.8009   0.8085   0.8162   0.8248   0.8285   0.8337
  0.8398   0.8426   0.8557   0.8637   0.8691   0.8742   0.8810   0.9016
  0.9183   0.9313   0.9451   0.9495   0.9517   1.0058   1.0349   1.0420
  1.0564   1.0633   1.0693   1.0775   1.0910   1.0978   1.1076   1.1482
  1.1675   1.1696   1.2672   1.2799   1.3073   1.3333   1.3563   1.3588
  1.3821   1.4445   1.4549   1.4645   1.4681   1.4740   1.5339   1.5409
  1.6093   1.6144   1.6268   1.6310   1.6557   1.6822   1.7493   1.7692
  1.7877   1.7998   1.8089   1.8187   1.8431   1.8515   1.8856   1.9148
  1.9253   1.9262   1.9426   1.9780   1.9924   1.9976   2.0182   2.0312
  2.0408   2.0486   2.0763   2.0941   2.1131   2.1299   2.1769   2.2031
  2.2120   2.2306   2.2561   2.2829   2.2944   2.3172   2.3840   2.4015
  2.4117   2.4273   2.4645   2.5139   2.5502   2.5619   2.5702   2.6068
  2.6321   2.6583   2.6669   2.6823   2.7052   2.7227   2.7673   2.7764
  2.7803   2.8106   2.8197   2.8514   2.8639   2.9041   2.9150   2.9240
  2.9274   2.9497   2.9794   2.9909   2.9975   3.0225   3.0267   3.0587
  3.0676   3.0864   3.1066   3.1387   3.1649   3.1905   3.2027   3.2231
  3.2325   3.2696   3.2849   3.2942   3.3530   3.3579   3.3678   3.3818
  3.4197   3.4289   3.4415   3.4493   3.4637   3.4819   3.4857   3.4977
  3.5116   3.5367   3.5435   3.5555   3.5640   3.5696   3.5779   3.6151
  3.6290   3.6383   3.6617   3.6930   3.7335   3.7533   3.7670   3.8149
  3.8619   3.9074   3.9353   3.9512   3.9593   3.9849   4.0422   4.0631
  4.1368   4.2108   4.2781   4.2825   4.2940   4.3094   4.3288   4.3500
  4.3605   4.3741   4.3865   4.4162   4.4196   4.4533   4.5041   4.5405
  4.6050   4.6225   4.7820   4.7900   4.8179   4.8472   4.9195   4.9528
  5.0331   5.0477   5.1753   5.2743   5.3703   5.3942   5.4979   5.5381
  5.6749   5.8529  22.5955  22.6941  22.8966  22.9039  23.0178  23.0811
 23.4283
 --------------------------------------------------------------
 
          Ground-State Mulliken Net Atomic Charges

     Atom                 Charge (a.u.)
  ----------------------------------------
      1 C                    -1.078789
      2 C                    -0.595203
      3 C                    -0.549367
      4 C                    -0.436931
      5 C                     0.822566
      6 C                    -0.524627
      7 C                    -0.379778
      8 H                     0.378504
      9 H                     0.399359
     10 H                     0.362188
     11 H                     0.382834
     12 H                     0.291693
     13 H                     0.232290
     14 H                     0.412674
     15 H                     0.282587
  ----------------------------------------
  Sum of atomic charges =     0.000000

 -----------------------------------------------------------------
                    Cartesian Multipole Moments
 -----------------------------------------------------------------
    Charge (ESU x 10^10)
                 0.0000
    Dipole Moment (Debye)
         X      -0.3428      Y      -0.2441      Z      -0.4483
       Tot       0.6149
    Quadrupole Moments (Debye-Ang)
        XX     -39.3849     XY      -2.7502     YY     -44.6015
        XZ       0.8069     YZ       2.6239     ZZ     -35.8554
    Octopole Moments (Debye-Ang^2)
       XXX    -136.9267    XXY      32.4933    XYY     -48.1874
       YYY     138.7743    XXZ      81.2790    XYZ       6.0777
       YYZ      82.2440    XZZ     -44.3506    YZZ      31.7627
       ZZZ     223.3681
    Hexadecapole Moments (Debye-Ang^3)
      XXXX    -650.5954   XXXY     144.6821   XXYY    -165.0974
      XYYY     198.2064   YYYY    -396.1148   XXXZ     209.1543
      XXYZ     -77.8074   XYYZ      63.6334   YYYZ    -292.8504
      XXZZ    -357.3453   XYZZ      41.2944   YYZZ    -304.5855
      XZZZ     186.2980   YZZZ    -247.1789   ZZZZ   -1417.6356
 -----------------------------------------------------------------
Archival summary:
1\1\nid00531\SP\ProcedureUnspecified\BasisUnspecified\78\meili\SunSep2621:40:582021SunSep2621:40:582021\0\\#,ProcedureUnspecified,BasisUnspecified,\\0,1\C\C,1,1.3935\H,2,1.07561,1,120.259\C,2,1.39276,1,120.644,3,178.03,0\H,4,1.0736,2,119.479,1,-176.972,0\C,4,1.39158,2,120.13,1,-0.610608,0\H,6,1.08213,4,120.059,2,-178.517,0\C,6,1.39286,4,119.657,2,-0.401131,0\H,8,1.07527,6,120.143,4,-177.282,0\C,1,1.39407,2,119.076,3,-176.447,0\H,10,1.07782,1,119.851,2,179.086,0\C,1,1.50099,2,119.651,3,0.37051,0\H,12,1.09166,1,109.048,2,5.21931,0\H,12,1.09251,1,107.456,2,-110.552,0\H,12,1.1,1,115.632,2,128.216,0\\\@

 Total job time:  27991.83s(wall), 55612.91s(cpu) 
 Sun Sep 26 21:40:59 2021

        *************************************************************
        *                                                           *
        *  Thank you very much for using Q-Chem.  Have a nice day.  *
        *                                                           *
        *************************************************************


Done Job For Fragment 0
calling putenv with: QCSCRATCH=/global/cscratch1/sd/meili 
calling putenv with: QCLOCALSCR=/tmp 
calling putenv with: QCTHREADS=32 
Creating input file /tmp/qchem3284/Frg2.input
using default PutDataFrgm: nothing
calling putenv with: QCSCRATCH=/tmp/qchem3284/ 
calling putenv with: QCLOCALSCR=/tmp/qchem3284/ 
Spawning Job For Fragment 1
                  Welcome to Q-Chem
     A Quantum Leap Into The Future Of Chemistry


 Q-Chem 5.2, Q-Chem, Inc., Pleasanton, CA (2019)

 License issued to: National Energy Research Scientific Computing Center

 Yihan Shao,  Zhengting Gan,  E. Epifanovsky,  A. T. B. Gilbert,  M. Wormit,  
 J. Kussmann,  A. W. Lange,  A. Behn,  Jia Deng,  Xintian Feng,  D. Ghosh,  
 M. Goldey,  P. R. Horn,  L. D. Jacobson,  I. Kaliman,  T. Kus,  A. Landau,  
 Jie Liu,  E. I. Proynov,  R. M. Richard,  R. P. Steele,  E. J. Sundstrom,  
 H. L. Woodcock III,  P. M. Zimmerman,  D. Zuev,  B. Albrecht,  E. Alguire,  
 S. A. Baeppler,  D. Barton,  Z. Benda,  Y. A. Bernard,  E. J. Berquist,  
 K. B. Bravaya,  H. Burton,  D. Casanova,  Chun-Min Chang,  Yunqing Chen,  
 A. Chien,  K. D. Closser,  M. P. Coons,  S. Coriani,  S. Dasgupta,  
 A. L. Dempwolff,  M. Diedenhofen,  Hainam Do,  R. G. Edgar,  Po-Tung Fang,  
 S. Faraji,  S. Fatehi,  Qingguo Feng,  K. D. Fenk,  J. Fosso-Tande,  
 J. Gayvert,  Qinghui Ge,  A. Ghysels,  G. Gidofalvi,  J. Gomes,  
 J. Gonthier,  A. Gunina,  D. Hait,  M. W. D. Hanson-Heine,  
 P. H. P. Harbach,  A. W. Hauser,  M. F. Herbst,  J. E. Herr,  
 E. G. Hohenstein,  Z. C. Holden,  Kerwin Hui,  B. C. Huynh,  T.-C. Jagau,  
 Hyunjun Ji,  B. Kaduk,  K. Khistyaev,  Jaehoon Kim,  P. Klunzinger,  K. Koh,  
 D. Kosenkov,  L. Koulias,  T. Kowalczyk,  C. M. Krauter,  A. Kunitsa,  
 Ka Un Lao,  A. Laurent,  K. V. Lawler,  Joonho Lee,  D. Lefrancois,  
 S. Lehtola,  D. S. Levine,  Yi-Pei Li,  You-Sheng Lin,  Fenglai Liu,  
 E. Livshits,  A. Luenser,  P. Manohar,  E. Mansoor,  S. F. Manzer,  
 Shan-Ping Mao,  Yuezhi Mao,  N. Mardirossian,  A. V. Marenich,  
 T. Markovich,  L. A. Martinez-Martinez,  S. A. Maurer,  N. J. Mayhall,  
 S. C. McKenzie,  J.-M. Mewes,  P. Morgante,  A. F. Morrison,  
 J. W. Mullinax,  K. Nanda,  T. S. Nguyen-Beck,  R. Olivares-Amaya,  
 J. A. Parkhill,  Zheng Pei,  T. M. Perrine,  F. Plasser,  P. Pokhilko,  
 S. Prager,  A. Prociuk,  E. Ramos,  D. R. Rehn,  F. Rob,  M. Scheurer,  
 M. Schneider,  N. Sergueev,  S. M. Sharada,  S. Sharma,  D. W. Small,  
 T. Stauch,  T. Stein,  Yu-Chuan Su,  A. J. W. Thom,  A. Tkatchenko,  
 T. Tsuchimochi,  N. M. Tubman,  L. Vogt,  M. L. Vidal,  O. Vydrov,  
 M. A. Watson,  J. Wenzel,  M. de Wergifosse,  T. A. Wesolowski,  A. White,  
 J. Witte,  A. Yamada,  Jun Yang,  K. Yao,  S. Yeganeh,  S. R. Yost,  
 Zhi-Qiang You,  A. Zech,  Igor Ying Zhang,  Xing Zhang,  Yan Zhao,  
 Ying Zhu,  B. R. Brooks,  G. K. L. Chan,  C. J. Cramer,  M. S. Gordon,  
 W. J. Hehre,  A. Klamt,  M. W. Schmidt,  C. D. Sherrill,  D. G. Truhlar,  
 A. Aspuru-Guzik,  R. Baer,  A. T. Bell,  N. A. Besley,  Jeng-Da Chai,  
 A. E. DePrince, III,  R. A. DiStasio Jr.,  A. Dreuw,  B. D. Dunietz,  
 T. R. Furlani,  Chao-Ping Hsu,  Yousung Jung,  Jing Kong,  D. S. Lambrecht,  
 WanZhen Liang,  C. Ochsenfeld,  V. A. Rassolov,  L. V. Slipchenko,  
 J. E. Subotnik,  T. Van Voorhis,  J. M. Herbert,  A. I. Krylov,  
 P. M. W. Gill,  M. Head-Gordon

 Contributors to earlier versions of Q-Chem not listed above: 
 R. D. Adamson,  B. Austin,  J. Baker,  G. J. O. Beran,  K. Brandhorst,  
 S. T. Brown,  E. F. C. Byrd,  A. K. Chakraborty,  C.-L. Cheng,  
 Siu Hung Chien,  D. M. Chipman,  D. L. Crittenden,  H. Dachsel,  
 R. J. Doerksen,  A. D. Dutoi,  L. Fusti-Molnar,  W. A. Goddard III,  
 A. Golubeva-Zadorozhnaya,  S. R. Gwaltney,  G. Hawkins,  A. Heyden,  
 S. Hirata,  G. Kedziora,  F. J. Keil,  C. Kelley,  Jihan Kim,  R. A. King,  
 R. Z. Khaliullin,  P. P. Korambath,  W. Kurlancheek,  A. M. Lee,  M. S. Lee,  
 S. V. Levchenko,  Ching Yeh Lin,  D. Liotard,  R. C. Lochan,  I. Lotan,  
 P. E. Maslen,  N. Nair,  D. P. O'Neill,  D. Neuhauser,  E. Neuscamman,  
 C. M. Oana,  R. Olson,  B. Peters,  R. Peverati,  P. A. Pieniazek,  
 Y. M. Rhee,  J. Ritchie,  M. A. Rohrdanz,  E. Rosta,  N. J. Russ,  
 H. F. Schaefer III,  N. E. Schultz,  N. Shenvi,  A. C. Simmonett,  A. Sodt,  
 D. Stuck,  K. S. Thanthiriwatte,  V. Vanovschi,  Tao Wang,  A. Warshel,  
 C. F. Williams,  Q. Wu,  X. Xu,  W. Zhang

 Please cite Q-Chem as follows:
 Y. Shao et al., Mol. Phys. 113, 184-215 (2015)
 DOI: 10.1080/00268976.2014.952696

 Q-Chem 5.2.0 for Intel X86 EM64T Linux

 Parts of Q-Chem use Armadillo 8.300.2 (Tropical Shenanigans).
 http://arma.sourceforge.net/

 Q-Chem begins on Sun Sep 26 21:41:12 2021  

Host: cori01
0

     Scratch files written to /tmp/qchem3284//Frg2//
 May1019 |scratch|qcdevops|jenkins|workspace|build_RNUM -1
Processing $rem in /global/common/cori/software/qchem/5.2/config/preferences:
	 MEM_TOTAL  96000 
NAlpha2: 44
NElect   44
Mult     1
Symmetry turned off for PCM/SM12/SMD calculation

Checking the input file for inconsistencies... 	...done.

--------------------------------------------------------------
User input:
--------------------------------------------------------------
$molecule
0 1
 6	-3.0796906736	1.9010936865	1.0659930358
 6	0.1543093264	1.2020936865	2.5619930358
 6	-1.9176906736	1.3560936865	1.8419930358
 6	-1.8836906736	0.4110936865	2.8169930358
 7	-0.6366906736	1.8460936865	1.7159930358
 7	-0.5746906736	0.3250936865	3.2419930358
 1	1.2193093264	1.3610936865	2.6809930358
 1	-0.2146906736	-0.3019063135	3.9539930358
 1	-2.7266906736	-0.1559063135	3.1839930358
 1	-3.7986906736	1.0960936865	0.9139930358
 1	-2.7406906736	2.2280936865	0.0849930358
 1	-3.5715226736	2.7390836865	1.5816230358
$end
$rem
EDA2		1
METHOD		WB97X-V
BASIS		DEF2-TZVPD
XC_GRID		000099000590
NL_GRID		1
UNRESTRICTED		FALSE
MAX_SCF_CYCLES		200
SYMMETRY		FALSE
SYM_IGNORE		TRUE
BASIS_LIN_DEP_THRESH		6
THRESH		14
SCF_CONVERGENCE		8
SCF_PRINT_FRGM		TRUE
SOLVENT_METHOD		SMD
!required keywords
JOBTYPE		SP
SYM_IGNORE		TRUE
SUBSYSTEM		TRUE
GEN_SCFMAN		TRUE
CHILD_INSTRUCTION		2
SYM_IGNORE		TRUE
SCFMI		0
RI_K 0		
PARI_K 0		
MIN_PARI_K 0		
IARI_K 0		
OCC_RI_K 0		
PURECART		1111
MEM_STATIC		2000
MEM_TOTAL		96000
GUI		0
CHILD_MP		1
CHILD_MP_ORDERS		232
FRZ_RELAX		0
FRZ_RELAX_METHOD		0
EDA_CLS_ELEC		1
EDA_CLS_DISP		0
FRZ_ORTHO_DECOMP		1
EDA2		FALSE
FRGM_METHOD		FALSE
CIS_N_ROOTS  0
LOCAL_CIS    0
CIS_RLX_DNS  1
$end
$smx
SOLVENT			WATER
$end
--------------------------------------------------------------
 ----------------------------------------------------------------
             Standard Nuclear Orientation (Angstroms)
    I     Atom           X                Y                Z
 ----------------------------------------------------------------
    1      C      -3.0796906736     1.9010936865     1.0659930358
    2      C       0.1543093264     1.2020936865     2.5619930358
    3      C      -1.9176906736     1.3560936865     1.8419930358
    4      C      -1.8836906736     0.4110936865     2.8169930358
    5      N      -0.6366906736     1.8460936865     1.7159930358
    6      N      -0.5746906736     0.3250936865     3.2419930358
    7      H       1.2193093264     1.3610936865     2.6809930358
    8      H      -0.2146906736    -0.3019063135     3.9539930358
    9      H      -2.7266906736    -0.1559063135     3.1839930358
   10      H      -3.7986906736     1.0960936865     0.9139930358
   11      H      -2.7406906736     2.2280936865     0.0849930358
   12      H      -3.5715226736     2.7390836865     1.5816230358
 ----------------------------------------------------------------
 Nuclear Repulsion Energy =         224.78790616 hartrees
 There are       22 alpha and       22 beta electrons
 Requested basis set is def2-TZVPD
 There are 108 shells and 276 basis functions

 Total QAlloc Memory Limit  96000 MB
 Mega-Array Size      1956 MB
 MEM_STATIC part      2000 MB
 
 Citation of the SMD model:
 Marenich, A.V.; Cramer, C.J.; Truhlar, D.G.
 J. Phys. Chem. B 2009, 113, 6378-6396.
 iSolventCode=           1
 Solvent: water                                                           
 
 vradii
            1           2           3           4           5           6
    1   1.8500000   1.8500000   1.8500000   1.8500000   1.8900000   1.8900000
            7           8           9          10          11          12
    1   1.2000000   1.2000000   1.2000000   1.2000000   1.2000000   1.2000000
 Changing PCM_VDW_RADII to SMD_RADIUS
 Discretize the solute cavity surface with Lebedev spheres
	Using 110 Lebedev grid points for each H atom
	Using 194 Lebedev grid points for other atoms
	Atomic van der Waals radii will be scaled by 1.20
 Remove points where switching function is < 1.0e-08
 Keep 902 surface tesserae and discard 922 interior tesserae
 Molecular Surface Area = 116.229 Angst**2

                       Distance Matrix (Angstroms)
             C (  1)   C (  2)   C (  3)   C (  4)   N (  5)   N (  6)
   C (  2)  3.631167
   C (  3)  1.499815  2.198932
   C (  4)  2.591624  2.200943  1.358236
   N (  5)  2.528591  1.325192  1.377293  2.196915
   N (  6)  3.673388  1.327769  2.196955  1.378950  2.155449
   H (  7)  4.623984  1.083359  3.247263  3.248016  2.147367  2.146265
   H (  8)  4.626227  2.082268  3.179578  2.141658  3.130596  1.014728
   H (  9)  2.973513  3.245182  2.177519  1.080198  3.245170  2.205862
   H ( 10)  1.089995  4.284081  2.113515  2.785293  3.347230  4.050704
   H ( 11)  1.088215  3.945786  2.127149  3.391130  2.689405  4.275467
   H ( 12)  1.100000  4.147926  2.171546  3.129609  3.070623  4.191083
             H (  7)   H (  8)   H (  9)   H ( 10)   H ( 11)
   H (  8)  2.538199
   H (  9)  4.257372  2.631418
   H ( 10)  5.326616  4.903168  2.805279
   H ( 11)  4.813783  5.267897  3.909917  1.757279
   H ( 12)  5.104855  5.113128  3.415011  1.787946  1.786419
 
 A cutoff of  1.0D-14 yielded   5736 shell pairs
 There are     38170 function pairs (     48949 Cartesian)
 Smallest overlap matrix eigenvalue = 1.80E-06

 Scale SEOQF with 1.000000e-01/1.000000e-01/1.000000e-01

 Standard Electronic Orientation quadrupole field applied
 Nucleus-field energy     =    -0.0000000150 hartrees
 Guess from superposition of atomic densities
 Warning:  Energy on first SCF cycle will be non-variational
 SAD guess density has 43.559167 electrons

 -----------------------------------------------------------------------
  General SCF calculation program by
  Eric Jon Sundstrom, Paul Horn, Yuezhi Mao, Dmitri Zuev, Alec White,
  David Stuck, Shaama M.S., Shane Yost, Joonho Lee, David Small,
  Daniel Levine, Susi Lehtola, Hugh Burton, Evgeny Epifanovsky
 -----------------------------------------------------------------------
 Exchange:     0.1670 Hartree-Fock + 1.0000 wB97X-V + LR-HF
 Correlation:  1.0000 wB97X-V
 Using Euler-Maclaurin-Lebedev (99,590) quadrature formula
 Nonlocal Correlation:  VV10 with C = 0.0100 and b = 6.00 and scale = 1.00000
 Grid used for NLC:  SG-1 standard quadrature
Energy prior to optimization (guess energy) = -265.142401854529
Begin Timing: Total SCF Calculation
begin iterations for algorithm: DIIS         
the SCF tolerance is set to 1.00e-08
    1    -265.1424018545      7.23e-03     00000 
    2    -265.1000504062      7.39e-03     00000 
    3    -265.5668964706      7.25e-04     00000 
    4    -265.5715891151      3.81e-04     00000 
    5    -265.5729969677      1.12e-04     00000 
    6    -265.5731573518      4.20e-05     00000 
    7    -265.5731822172      1.18e-05     00000 
    8    -265.5731848951      3.43e-06     00000 
    9    -265.5731851948      1.67e-06     00000 
   10    -265.5731852468      4.10e-07     00000 
   11    -265.5731852521      7.85e-08     00000 
   12    -265.5731852523      3.98e-08     00000 
   13    -265.5731852524      1.10e-08     00000 
   14    -265.5731852524      4.29e-09     00000 Convergence criterion met
Timing for Total SCF: 938.00s (wall), 1863.83s (cpu)
(3)  G-ENP(liq) elect-nuc-pol free energy of system     -265.573185252 a.u.
(4)  G-CDS(liq) cavity-dispersion-solvent structure 
     free energy                                                2.1144 kcal/mol
(6)  G-S(liq) free energy of system                     -265.569815780 a.u.
E_pcm = -0.0227275216
E_cds = 0.0033694722
Multipole orders to be included
        2
        3
computing dipole RHS
computing quadrupole RHS
total number of RHS in solve_reponses: 8
RHS batch sizes
        8
Beginning Block Conjugate Gradient Iterations. Batch Number: 0
computing hessian-vector products by finite difference
              1      5.88e-01     00000 Conjugate Gradient Iteration
computing hessian-vector products by finite difference
              2      1.77e-01     00000 Conjugate Gradient Iteration
computing hessian-vector products by finite difference
              3      4.39e-02     00000 Conjugate Gradient Iteration
computing hessian-vector products by finite difference
              4      1.33e-02     00000 Conjugate Gradient Iteration
computing hessian-vector products by finite difference
              5      2.60e-03     00000 Conjugate Gradient Iteration
computing hessian-vector products by finite difference
              6      4.99e-04     00000 Conjugate Gradient Iteration
computing hessian-vector products by finite difference
              7      9.84e-05     00000 Conjugate Gradient Iteration
computing hessian-vector products by finite difference
              8      1.56e-05     00000 Conjugate Gradient Iteration
computing hessian-vector products by finite difference
              9      2.63e-06     00000 Conjugate Gradient Iteration
computing hessian-vector products by finite difference
             10      4.90e-07     00000 Conjugate Gradient Iteration
computing hessian-vector products by finite difference
             11      8.24e-08     00000 Conjugate Gradient Iteration
computing hessian-vector products by finite difference
             12      1.13e-08     00000 Conjugate Gradient Iteration
computing hessian-vector products by finite difference
             13      2.91e-09     00000 CG Converged
batch 0 complete
Done Calculating Responses
TESTING ORTHOGONALIZATION OF MULTIPOLE BASIS
Multipole virts passed orthogonality test
Virts Per Order
           66
          110
 
 --------------------------------------------------------------
 
                    Orbital Energies (a.u.)
 --------------------------------------------------------------
 
 Alpha MOs
 -- Occupied --
-14.4588 -14.3850 -10.3163 -10.2829 -10.2820 -10.2567  -1.1521  -0.9934
 -0.8953  -0.8221  -0.7221  -0.6821  -0.6626  -0.5625  -0.5525  -0.5365
 -0.5090  -0.4953  -0.4753  -0.3772  -0.3751  -0.3212
 -- Virtual --
  0.0689   0.0878   0.0973   0.1069   0.1182   0.1301   0.1367   0.1470
  0.1704   0.1756   0.1794   0.1881   0.2003   0.2054   0.2274   0.2452
  0.2470   0.2551   0.2611   0.2625   0.2695   0.2920   0.2991   0.3081
  0.3147   0.3178   0.3227   0.3274   0.3314   0.3420   0.3523   0.3581
  0.3595   0.3697   0.3805   0.3855   0.3966   0.3971   0.4128   0.4200
  0.4213   0.4286   0.4358   0.4541   0.4617   0.4704   0.4722   0.4816
  0.4889   0.4943   0.4985   0.5203   0.5240   0.5435   0.5546   0.5626
  0.5709   0.5822   0.5861   0.5919   0.6092   0.6152   0.6213   0.6310
  0.6539   0.6624   0.6667   0.6856   0.6970   0.7032   0.7071   0.7291
  0.7345   0.7431   0.7747   0.7767   0.7835   0.7883   0.7917   0.7944
  0.8089   0.8238   0.8284   0.8410   0.8710   0.8819   0.8840   0.8943
  0.9173   0.9354   0.9604   0.9894   1.0042   1.0093   1.0212   1.0431
  1.0704   1.0768   1.0965   1.1016   1.1349   1.1711   1.1793   1.2170
  1.2318   1.2379   1.2795   1.3249   1.3431   1.3630   1.3850   1.4282
  1.4539   1.4654   1.5258   1.5583   1.6177   1.6367   1.6574   1.6797
  1.7018   1.7489   1.8046   1.8319   1.8436   1.8606   1.8787   1.8852
  1.9124   1.9438   1.9491   1.9541   1.9715   1.9970   2.0068   2.0133
  2.0293   2.0660   2.0942   2.1321   2.1884   2.2375   2.2531   2.2665
  2.3062   2.3234   2.3929   2.4041   2.4344   2.4593   2.4723   2.5079
  2.5440   2.5798   2.5914   2.6321   2.6447   2.6621   2.6901   2.7242
  2.7588   2.7717   2.8033   2.8342   2.8617   2.9006   2.9218   2.9977
  3.0135   3.0318   3.0575   3.0718   3.0900   3.1204   3.1445   3.1825
  3.1856   3.2160   3.2356   3.2485   3.2755   3.2942   3.3228   3.3387
  3.3620   3.3668   3.3867   3.4080   3.4118   3.4327   3.4770   3.4909
  3.5035   3.5435   3.5667   3.6038   3.6236   3.6629   3.6911   3.7183
  3.7484   3.7900   3.8306   3.8697   3.9038   3.9480   3.9721   4.0416
  4.0857   4.1155   4.1304   4.2414   4.3003   4.3701   4.4337   4.4793
  4.5119   4.5834   4.6033   4.7559   4.7719   4.8228   4.8373   4.8731
  4.9273   4.9660   5.0247   5.0435   5.0561   5.0896   5.1630   5.2013
  5.2422   5.3072   5.3831   5.4509   5.4916   5.5377   5.5860   5.6083
  5.6718   5.7040   5.7507   5.7986   5.8779   6.0337   6.2342   6.2959
 22.6236  22.8714  23.1305  23.3917  32.6533  32.7791
 --------------------------------------------------------------
 
          Ground-State Mulliken Net Atomic Charges

     Atom                 Charge (a.u.)
  ----------------------------------------
      1 C                    -0.828568
      2 C                    -0.250989
      3 C                     0.543169
      4 C                    -0.581810
      5 N                    -0.547141
      6 N                     0.074082
      7 H                     0.344259
      8 H                     0.198501
      9 H                     0.320182
     10 H                     0.252050
     11 H                     0.256414
     12 H                     0.219852
  ----------------------------------------
  Sum of atomic charges =     0.000000

 -----------------------------------------------------------------
                    Cartesian Multipole Moments
 -----------------------------------------------------------------
    Charge (ESU x 10^10)
                 0.0000
    Dipole Moment (Debye)
         X      -0.0382      Y      -3.5243      Z       3.5564
       Tot       5.0069
    Quadrupole Moments (Debye-Ang)
        XX     -29.1038     XY       1.6326     YY     -44.4142
        XZ       0.4929     YZ      -6.6769     ZZ     -18.2710
    Octopole Moments (Debye-Ang^2)
       XXX     133.2589    XXY     -37.5418    XYY      52.2034
       YYY    -152.1232    XXZ     -63.2975    XYZ       7.3178
       YYZ     -89.8506    XZZ      51.7883    YZZ     -61.7355
       ZZZ    -161.4180
    Hexadecapole Moments (Debye-Ang^3)
      XXXX    -711.0748   XXXY     195.4367   XXYY    -189.8329
      XYYY     205.3659   YYYY    -516.7085   XXXZ     228.8014
      XXYZ     -70.4285   XYYZ      95.0332   YYYZ    -258.5554
      XXZZ    -294.3644   XYZZ      94.0458   YYZZ    -294.6864
      XZZZ     269.8043   YZZZ    -294.8145   ZZZZ    -912.3915
 -----------------------------------------------------------------
Archival summary:
1\1\nid00531\SP\ProcedureUnspecified\BasisUnspecified\246\meili\MonSep2701:54:242021MonSep2701:54:242021\0\\#,ProcedureUnspecified,BasisUnspecified,\\0,1\N\C,1,1.32519\H,2,1.08336,1,125.844\N,2,1.32777,1,108.676,3,-179.93,0\H,4,1.01473,2,124.938,1,179.785,0\C,1,1.37729,2,108.897,3,179.146,0\C,6,1.35824,1,106.853,2,1.34273,0\H,7,1.0802,6,126.126,1,178.454,0\C,6,1.49981,1,122.955,2,177.589,0\H,9,1.08821,6,109.528,1,33.3047,0\H,9,1.09,6,108.351,1,150.364,0\H,9,1.1,6,112.377,1,-88.5686,0\\\@

 Total job time:  15193.34s(wall), 30151.96s(cpu) 
 Mon Sep 27 01:54:26 2021

        *************************************************************
        *                                                           *
        *  Thank you very much for using Q-Chem.  Have a nice day.  *
        *                                                           *
        *************************************************************


Done Job For Fragment 1
calling putenv with: QCSCRATCH=/global/cscratch1/sd/meili 
calling putenv with: QCLOCALSCR=/tmp 
calling putenv with: QCTHREADS=32 
Doing General SCFMI
 Exchange:     0.1670 Hartree-Fock + 1.0000 wB97X-V + LR-HF
 Correlation:  1.0000 wB97X-V
 Using Euler-Maclaurin-Lebedev (99,590) quadrature formula
 Nonlocal Correlation:  VV10 with C = 0.0100 and b = 6.00 and scale = 1.00000
 Grid used for NLC:  SG-1 standard quadrature
performing fock build before subrot guess so that all methods have access
Printing subrot_rss_gen Method Specification:
Occupied Subspace Method is 0
Virtual Subspace Method is 0
Energy of the unrelaxed supersystem initial determinant -537.128512435966
performing fock build before subrot guess so that all methods have access
Printing subrot_rss_gen Method Specification:
Occupied Subspace Method is 0
Virtual Subspace Method is 0
Energy of the unrelaxed supersystem initial determinant w/ solvent -537.158766021141
write pseudocanon occs and virts to disk
write pseudocanon orbital energies to disk
Tolerance of ortho_decomp_scf: 1.00e-06
GDM subspace size: 20
Beginning the Orthogonal Decomposition of the Initial Supersystem Wavefunction
    1    -537.1104419849      2.42e-02     ortho_decomp Preconditoned Steepest Descent
    2    -537.1125399725      6.62e-04     ortho_decomp BFGS Step
    3    -537.1125484113      5.77e-05     ortho_decomp BFGS Step
    4    -537.1125484308      2.66e-06     ortho_decomp BFGS Step
    5    -537.1125484309      1.12e-07     ortho_decomp 00000 Convergence criterion met
 Hartree-Fock
 Hartree-Fock
 Hartree-Fock
Doing General SCFMI
 Exchange:     0.1670 Hartree-Fock + 1.0000 wB97X-V + LR-HF
 Correlation:  1.0000 wB97X-V
 Using Euler-Maclaurin-Lebedev (99,590) quadrature formula
 Nonlocal Correlation:  VV10 with C = 0.0100 and b = 6.00 and scale = 1.00000
 Grid used for NLC:  SG-1 standard quadrature
performing fock build at end of subrot_r(subrot) constructor so that all methods have access
<S^2> of initial wavefunction before polarization iterations 0.0000000000
Beginning iterations for the determination of the polarized wavefunction
Energy prior to optimization (guess energy) = -537.158766021140
Begin Timing: Total SCF Calculation
begin iterations for algorithm: DIIS         
the SCF tolerance is set to 1.00e-08
    1    -537.1587660211      4.80e-05     00000 
    2    -537.1589634540      2.09e-05     00000 
    3    -537.1589841196      1.26e-05     00000 
    4    -537.1589923174      3.18e-06     00000 
    5    -537.1589929835      1.67e-06     00000 
    6    -537.1589931935      6.13e-07     00000 
    7    -537.1589932264      2.63e-07     00000 
    8    -537.1589932312      1.05e-07     00000 
    9    -537.1589932320      4.45e-08     00000 
   10    -537.1589932322      2.34e-08     00000 
   11    -537.1589932322      9.97e-09     00000 Convergence criterion met
write pseudocanon occs and virts to disk
write pseudocanon orbital energies to disk
Timing for Total SCF: 6605.00s (wall), 13154.08s (cpu)
<S^2> of polarized wavefunction after polarization iterations 0.0000000000
relaxing scfmi constraint to allow all rotations in the entire AO span
Doing General SCFMI
 Exchange:     0.1670 Hartree-Fock + 1.0000 wB97X-V + LR-HF
 Correlation:  1.0000 wB97X-V
 Using Euler-Maclaurin-Lebedev (99,590) quadrature formula
 Nonlocal Correlation:  VV10 with C = 0.0100 and b = 6.00 and scale = 1.00000
 Grid used for NLC:  SG-1 standard quadrature
performing fock build at end of subrot_r(subrot) constructor so that all methods have access
<S^2> of polarized wavefunction before ct-allowed iterations 0.0000000000
Beginning iterations for the determination of the CT-Allowed wavefunction
Energy prior to optimization (guess energy) = -537.158993232187
Begin Timing: Total SCF Calculation
begin iterations for algorithm: DIIS         
the SCF tolerance is set to 1.00e-08
    1    -537.1589932322      6.91e-05     00000 
    2    -537.1598986522      7.84e-06     00000 
    3    -537.1599277726      1.57e-06     00000 
    4    -537.1599286705      1.27e-06     00000 
    5    -537.1599289336      1.92e-07     00000 
    6    -537.1599289455      1.07e-07     00000 
    7    -537.1599289480      1.96e-08     00000 
    8    -537.1599289482      9.05e-09     00000 Convergence criterion met
write pseudocanon occs and virts to disk
write pseudocanon orbital energies to disk
Timing for Total SCF: 4689.00s (wall), 9338.48s (cpu)
<S^2> of ct_allowed wavefunction after ct-allowed iterations 0.0000000000

================================
        Results of EDA2         
================================
Basic EDA Quantities
--------------------
Fragment Energies (Ha):
1 -271.5799877794
2 -265.5698157802
--------------------
  E_prp (kJ/mol) = -0.0000
  E_sol (kJ/mol) = -1.3448
  E_frz (kJ/mol) = -1.4131
  E_pol (kJ/mol) = -0.5965
  E_vct (kJ/mol) = -2.4568
  E_int (kJ/mol) = -5.8111
--------------------


Initial Wavefunction Decomposition
--------------------
  --------------------
  Orthogonal Fragment Subspace Decomposition:
  --------------------
     E_elec   (ELEC)   (kJ/mol) = -19.0450
     E_pauli  (PAULI)  (kJ/mol) = 31.7475
     E_disp   (DISP)   (kJ/mol) = -14.1156
     --------------------
     Terms summing to E_pauli:
     --------------------
        E_kep_pauli       (kJ/mol) = 40.5009
        E_disp_free_pauli (kJ/mol) = -8.7535
  --------------------
  Classical Frozen Decomposition:
  --------------------
     E_cls_elec  (CLS ELEC)  (kJ/mol) = -6.4049
     E_cls_pauli (CLS PAULI) (kJ/mol) = 4.9919
    [E_mod_pauli (MOD PAULI) (kJ/mol) = 19.1074 (CLS PAULI - DISP from orthogonal decomposition) ]
  --------------------
--------------------

Simplified EDA Summary (kJ/mol)
--------------------
 PREPARATION     -0.0000
 SOLVATION       -1.3448
 FROZEN          12.7025      (does not include dispersion)
[PAULI           31.7475]     (if this is negligible, then frozen describes electrostatics)
 DISPERSION      -14.1156
 POLARIZATION    -0.5965
 CHARGE TRANSFER -2.4568
 TOTAL           -5.8111     (PRP + SOL + FRZ + DISP + POL + CT)
--------------------
 
 --------------------------------------------------------------
 
                    Orbital Energies (a.u.)
 --------------------------------------------------------------
 
 Alpha MOs
 -- Occupied --
-14.4598 -14.3849 -10.3166 -10.2838 -10.2827 -10.2771 -10.2682 -10.2650
-10.2645 -10.2642 -10.2626 -10.2570 -10.2536  -1.1529  -0.9941  -0.9922
 -0.9018  -0.8959  -0.8736  -0.8226  -0.8066  -0.7254  -0.7226  -0.7003
 -0.6827  -0.6632  -0.6242  -0.5709  -0.5675  -0.5558  -0.5529  -0.5370
 -0.5280  -0.5224  -0.5101  -0.5075  -0.4957  -0.4795  -0.4756  -0.4682
 -0.4358  -0.4342  -0.3773  -0.3753  -0.3449  -0.3340  -0.3214
 -- Virtual --
  0.0616   0.0666   0.0716   0.0765   0.0789   0.0933   0.0949   0.0978
  0.1067   0.1131   0.1207   0.1211   0.1264   0.1337   0.1445   0.1447
  0.1536   0.1581   0.1704   0.1740   0.1778   0.1829   0.1854   0.1933
  0.1980   0.2011   0.2080   0.2156   0.2246   0.2302   0.2319   0.2379
  0.2421   0.2448   0.2502   0.2542   0.2562   0.2589   0.2672   0.2708
  0.2779   0.2811   0.2849   0.2873   0.2942   0.2959   0.2989   0.3007
  0.3068   0.3115   0.3148   0.3187   0.3200   0.3217   0.3255   0.3281
  0.3341   0.3384   0.3412   0.3463   0.3492   0.3551   0.3569   0.3577
  0.3606   0.3668   0.3699   0.3742   0.3763   0.3799   0.3828   0.3861
  0.3881   0.3895   0.3933   0.3978   0.3994   0.4045   0.4078   0.4090
  0.4135   0.4202   0.4245   0.4257   0.4316   0.4365   0.4402   0.4426
  0.4448   0.4475   0.4501   0.4540   0.4611   0.4651   0.4674   0.4727
  0.4736   0.4817   0.4838   0.4885   0.4922   0.4982   0.5012   0.5027
  0.5067   0.5116   0.5172   0.5198   0.5223   0.5308   0.5332   0.5375
  0.5428   0.5481   0.5488   0.5564   0.5616   0.5632   0.5671   0.5736
  0.5748   0.5790   0.5823   0.5874   0.5973   0.6000   0.6046   0.6126
  0.6142   0.6168   0.6227   0.6278   0.6355   0.6380   0.6453   0.6504
  0.6613   0.6639   0.6660   0.6748   0.6781   0.6812   0.6857   0.6936
  0.6945   0.7033   0.7077   0.7100   0.7172   0.7222   0.7228   0.7342
  0.7386   0.7465   0.7493   0.7546   0.7573   0.7610   0.7651   0.7682
  0.7809   0.7827   0.7897   0.7921   0.7935   0.7987   0.8017   0.8054
  0.8067   0.8084   0.8109   0.8202   0.8245   0.8278   0.8329   0.8348
  0.8372   0.8419   0.8464   0.8537   0.8585   0.8616   0.8676   0.8726
  0.8755   0.8841   0.8909   0.8982   0.8994   0.9029   0.9107   0.9174
  0.9239   0.9286   0.9377   0.9442   0.9468   0.9559   0.9654   0.9728
  0.9824   0.9869   0.9966   1.0142   1.0186   1.0293   1.0363   1.0426
  1.0474   1.0609   1.0665   1.0773   1.0839   1.0860   1.0916   1.1007
  1.1047   1.1088   1.1183   1.1226   1.1329   1.1343   1.1386   1.1624
  1.1681   1.1739   1.1900   1.1969   1.2077   1.2258   1.2411   1.2527
  1.2640   1.2890   1.2987   1.3081   1.3205   1.3216   1.3420   1.3527
  1.3737   1.3763   1.3830   1.4009   1.4137   1.4252   1.4277   1.4569
  1.4657   1.4741   1.4797   1.4843   1.4917   1.5036   1.5261   1.5536
  1.5645   1.5743   1.5882   1.6137   1.6315   1.6360   1.6538   1.6582
  1.6610   1.6846   1.6883   1.6973   1.7126   1.7256   1.7573   1.7720
  1.7742   1.8078   1.8098   1.8319   1.8439   1.8552   1.8595   1.8661
  1.8820   1.8941   1.9004   1.9172   1.9322   1.9452   1.9485   1.9568
  1.9647   1.9672   1.9736   1.9877   1.9896   2.0043   2.0128   2.0145
  2.0181   2.0260   2.0362   2.0478   2.0579   2.0644   2.0720   2.0820
  2.0951   2.1057   2.1180   2.1268   2.1404   2.1432   2.1550   2.1661
  2.1988   2.2188   2.2294   2.2402   2.2601   2.2652   2.2682   2.2803
  2.2816   2.3048   2.3103   2.3347   2.3423   2.3548   2.3660   2.4069
  2.4181   2.4235   2.4347   2.4399   2.4475   2.4665   2.4869   2.5042
  2.5116   2.5305   2.5612   2.5710   2.5858   2.5929   2.6009   2.6192
  2.6278   2.6409   2.6470   2.6585   2.6709   2.6835   2.6998   2.7048
  2.7204   2.7243   2.7336   2.7492   2.7618   2.7772   2.7855   2.7917
  2.7989   2.8165   2.8195   2.8300   2.8395   2.8683   2.8745   2.8898
  2.8937   2.9165   2.9197   2.9266   2.9392   2.9431   2.9530   2.9649
  2.9973   3.0090   3.0176   3.0243   3.0299   3.0373   3.0578   3.0677
  3.0771   3.0882   3.0945   3.1063   3.1124   3.1177   3.1352   3.1478
  3.1573   3.1742   3.1844   3.2006   3.2086   3.2106   3.2122   3.2496
  3.2542   3.2644   3.2733   3.2836   3.2946   3.3041   3.3047   3.3253
  3.3280   3.3540   3.3622   3.3643   3.3727   3.3830   3.3914   3.4001
  3.4015   3.4263   3.4274   3.4360   3.4463   3.4473   3.4553   3.4635
  3.4748   3.4823   3.4871   3.4961   3.5060   3.5114   3.5249   3.5357
  3.5447   3.5549   3.5620   3.5650   3.5677   3.5809   3.5898   3.5940
  3.6127   3.6302   3.6414   3.6432   3.6509   3.6633   3.6782   3.6850
  3.7069   3.7114   3.7257   3.7383   3.7659   3.7755   3.7817   3.8160
  3.8331   3.8633   3.8673   3.8828   3.9081   3.9203   3.9453   3.9609
  3.9637   3.9726   3.9871   3.9939   4.0461   4.0705   4.0807   4.1092
  4.1243   4.1425   4.1576   4.2313   4.2535   4.2886   4.2968   4.3107
  4.3202   4.3302   4.3433   4.3611   4.3668   4.3809   4.3891   4.4022
  4.4261   4.4447   4.4479   4.4775   4.4946   4.5185   4.5306   4.5532
  4.5988   4.6090   4.6176   4.6394   4.7662   4.7865   4.7947   4.7983
  4.8256   4.8282   4.8492   4.8510   4.8925   4.9354   4.9381   4.9776
  4.9880   5.0370   5.0552   5.0589   5.0700   5.0817   5.1030   5.1813
  5.1982   5.2328   5.2813   5.2970   5.3418   5.3791   5.3943   5.4072
  5.4699   5.5012   5.5188   5.5419   5.5561   5.5997   5.6237   5.6843
  5.7002   5.7251   5.7939   5.8247   5.8441   5.8967   6.0611   6.2408
  6.3027  22.6377  22.6655  22.6991  22.9003  22.9321  22.9524  23.0397
 23.1129  23.1748  23.4148  23.4434  32.7096  32.8244
 --------------------------------------------------------------
 
          Ground-State Mulliken Net Atomic Charges

     Atom                 Charge (a.u.)
  ----------------------------------------
      1 C                    -1.133178
      2 C                    -0.326819
      3 C                    -0.534924
      4 C                    -0.531818
      5 C                     0.459283
      6 C                    -0.532071
      7 C                    -0.482650
      8 H                     0.565750
      9 H                     0.430321
     10 H                     0.392356
     11 H                     0.402458
     12 H                     0.300170
     13 H                     0.241545
     14 H                     0.435267
     15 H                     0.289841
     16 C                    -0.917491
     17 C                    -0.382407
     18 C                     0.736680
     19 C                    -0.676376
     20 N                    -0.497834
     21 N                     0.146299
     22 H                     0.325743
     23 H                     0.204259
     24 H                     0.332118
     25 H                     0.256799
     26 H                     0.235090
     27 H                     0.261590
  ----------------------------------------
  Sum of atomic charges =     0.000000

 -----------------------------------------------------------------
                    Cartesian Multipole Moments
 -----------------------------------------------------------------
    Charge (ESU x 10^10)
                 0.0000
    Dipole Moment (Debye)
         X      -0.4450      Y      -3.6787      Z       3.2076
       Tot       4.9010
    Quadrupole Moments (Debye-Ang)
        XX     -68.5142     XY      -1.1002     YY     -89.0731
        XZ       1.2415     YZ      -4.0644     ZZ     -54.0996
    Octopole Moments (Debye-Ang^2)
       XXX      -4.4816    XXY      -4.6432    XYY       3.7801
       YYY     -13.0605    XXZ      18.4840    XYZ      13.2279
       YYZ      -7.4711    XZZ       6.9161    YZZ     -29.7327
       ZZZ      63.1407
    Hexadecapole Moments (Debye-Ang^3)
      XXXX   -1361.7863   XXXY     340.0209   XXYY    -354.9139
      XYYY     403.6034   YYYY    -913.3576   XXXZ     437.4837
      XXYZ    -148.1686   XYYZ     158.6997   YYYZ    -551.7766
      XXZZ    -651.3926   XYZZ     135.4415   YYZZ    -599.8511
      XZZZ     455.3826   YZZZ    -542.7011   ZZZZ   -2329.5774
 -----------------------------------------------------------------
Archival summary:
1\1\nid00531\SP\ProcedureUnspecified\BasisUnspecified\21114\meili\MonSep2707:50:492021MonSep2707:50:492021\0\\#,ProcedureUnspecified,BasisUnspecified,\\0,1\N\C,1,1.32519\H,2,1.08336,1,125.844\N,2,1.32777,1,108.676,3,-179.93,0\H,4,1.01473,2,124.938,1,179.785,0\C,1,1.37729,2,108.897,3,179.146,0\C,6,1.35824,1,106.853,2,1.34273,0\H,7,1.0802,6,126.126,1,178.454,0\C,6,1.49981,1,122.955,2,177.589,0\H,9,1.08821,6,109.528,1,33.3047,0\H,9,1.09,6,108.351,1,150.364,0\H,9,1.1,6,112.377,1,-88.5686,0\H,2,2.53969,1,74.9847,3,-88.9612,0\C,13,1.0736,2,150.738,1,109.874,0\C,14,1.39158,13,120.29,2,45.2533,0\H,15,1.08213,14,120.059,13,-2.18526,0\C,14,1.39276,13,119.479,2,-138.392,0\H,17,1.07561,14,119.068,13,1.08128,0\C,15,1.39286,14,119.657,13,175.93,0\H,19,1.07527,15,120.143,14,-177.282,0\C,17,1.3935,14,120.644,13,-176.972,0\C,21,1.39407,17,119.076,14,1.58308,0\H,22,1.07782,21,119.851,17,179.086,0\C,21,1.50099,17,119.651,14,178.4,0\H,24,1.09166,21,109.048,17,5.21931,0\H,24,1.09251,21,107.456,17,-110.552,0\H,24,1.1,21,115.632,17,128.216,0\\\@

 Total job time:  64589.01s(wall), 42601.62s(cpu) 
 Mon Sep 27 07:50:51 2021

        *************************************************************
        *                                                           *
        *  Thank you very much for using Q-Chem.  Have a nice day.  *
        *                                                           *
        *************************************************************


