                  Welcome to Q-Chem
     A Quantum Leap Into The Future Of Chemistry


 Q-Chem 5.2 (devel), Q-Chem, Inc., Pleasanton, CA (2019)

 Yihan Shao,  Zhengting Gan,  E. Epifanovsky,  A. T. B. Gilbert,  M. Wormit,  
 J. Kussmann,  A. W. Lange,  A. Behn,  Jia Deng,  Xintian Feng,  D. Ghosh,  
 M. Goldey,  P. R. Horn,  L. D. Jacobson,  I. Kaliman,  T. Kus,  A. Landau,  
 Jie Liu,  E. I. Proynov,  R. M. Richard,  R. P. Steele,  E. J. Sundstrom,  
 H. L. Woodcock III,  P. M. Zimmerman,  D. Zuev,  B. Albrecht,  E. Alguire,  
 S. A. Baeppler,  D. Barton,  Z. Benda,  Y. A. Bernard,  E. J. Berquist,  
 K. B. Bravaya,  H. Burton,  D. Casanova,  Chun-Min Chang,  Yunqing Chen,  
 A. Chien,  K. D. Closser,  M. P. Coons,  S. Coriani,  S. Dasgupta,  
 A. L. Dempwolff,  M. Diedenhofen,  Hainam Do,  R. G. Edgar,  Po-Tung Fang,  
 S. Faraji,  S. Fatehi,  Qingguo Feng,  K. D. Fenk,  J. Fosso-Tande,  
 J. Gayvert,  Qinghui Ge,  A. Ghysels,  G. Gidofalvi,  J. Gomes,  
 J. Gonthier,  A. Gunina,  D. Hait,  M. W. D. Hanson-Heine,  
 P. H. P. Harbach,  A. W. Hauser,  M. F. Herbst,  J. E. Herr,  
 E. G. Hohenstein,  Z. C. Holden,  Kerwin Hui,  B. C. Huynh,  T.-C. Jagau,  
 Hyunjun Ji,  B. Kaduk,  K. Khistyaev,  Jaehoon Kim,  P. Klunzinger,  K. Koh,  
 D. Kosenkov,  L. Koulias,  T. Kowalczyk,  C. M. Krauter,  A. Kunitsa,  
 Ka Un Lao,  A. Laurent,  K. V. Lawler,  Joonho Lee,  D. Lefrancois,  
 S. Lehtola,  D. S. Levine,  Yi-Pei Li,  You-Sheng Lin,  Fenglai Liu,  
 E. Livshits,  A. Luenser,  P. Manohar,  E. Mansoor,  S. F. Manzer,  
 Shan-Ping Mao,  Yuezhi Mao,  N. Mardirossian,  A. V. Marenich,  
 T. Markovich,  L. A. Martinez-Martinez,  S. A. Maurer,  N. J. Mayhall,  
 S. C. McKenzie,  J.-M. Mewes,  P. Morgante,  A. F. Morrison,  
 J. W. Mullinax,  K. Nanda,  T. S. Nguyen-Beck,  R. Olivares-Amaya,  
 J. A. Parkhill,  Zheng Pei,  T. M. Perrine,  F. Plasser,  P. Pokhilko,  
 S. Prager,  A. Prociuk,  E. Ramos,  D. R. Rehn,  F. Rob,  M. Scheurer,  
 M. Schneider,  N. Sergueev,  S. M. Sharada,  S. Sharma,  D. W. Small,  
 T. Stauch,  T. Stein,  Yu-Chuan Su,  A. J. W. Thom,  A. Tkatchenko,  
 T. Tsuchimochi,  N. M. Tubman,  L. Vogt,  M. L. Vidal,  O. Vydrov,  
 M. A. Watson,  J. Wenzel,  M. de Wergifosse,  T. A. Wesolowski,  A. White,  
 J. Witte,  A. Yamada,  Jun Yang,  K. Yao,  S. Yeganeh,  S. R. Yost,  
 Zhi-Qiang You,  A. Zech,  Igor Ying Zhang,  Xing Zhang,  Yan Zhao,  
 Ying Zhu,  B. R. Brooks,  G. K. L. Chan,  C. J. Cramer,  M. S. Gordon,  
 W. J. Hehre,  A. Klamt,  M. W. Schmidt,  C. D. Sherrill,  D. G. Truhlar,  
 A. Aspuru-Guzik,  R. Baer,  A. T. Bell,  N. A. Besley,  Jeng-Da Chai,  
 A. E. DePrince, III,  R. A. DiStasio Jr.,  A. Dreuw,  B. D. Dunietz,  
 T. R. Furlani,  Chao-Ping Hsu,  Yousung Jung,  Jing Kong,  D. S. Lambrecht,  
 WanZhen Liang,  C. Ochsenfeld,  V. A. Rassolov,  L. V. Slipchenko,  
 J. E. Subotnik,  T. Van Voorhis,  J. M. Herbert,  A. I. Krylov,  
 P. M. W. Gill,  M. Head-Gordon

 Contributors to earlier versions of Q-Chem not listed above: 
 R. D. Adamson,  B. Austin,  J. Baker,  G. J. O. Beran,  K. Brandhorst,  
 S. T. Brown,  E. F. C. Byrd,  A. K. Chakraborty,  C.-L. Cheng,  
 Siu Hung Chien,  D. M. Chipman,  D. L. Crittenden,  H. Dachsel,  
 R. J. Doerksen,  A. D. Dutoi,  L. Fusti-Molnar,  W. A. Goddard III,  
 A. Golubeva-Zadorozhnaya,  S. R. Gwaltney,  G. Hawkins,  A. Heyden,  
 S. Hirata,  G. Kedziora,  F. J. Keil,  C. Kelley,  Jihan Kim,  R. A. King,  
 R. Z. Khaliullin,  P. P. Korambath,  W. Kurlancheek,  A. M. Lee,  M. S. Lee,  
 S. V. Levchenko,  Ching Yeh Lin,  D. Liotard,  R. C. Lochan,  I. Lotan,  
 P. E. Maslen,  N. Nair,  D. P. O'Neill,  D. Neuhauser,  E. Neuscamman,  
 C. M. Oana,  R. Olson,  B. Peters,  R. Peverati,  P. A. Pieniazek,  
 Y. M. Rhee,  J. Ritchie,  M. A. Rohrdanz,  E. Rosta,  N. J. Russ,  
 H. F. Schaefer III,  N. E. Schultz,  N. Shenvi,  A. C. Simmonett,  A. Sodt,  
 D. Stuck,  K. S. Thanthiriwatte,  V. Vanovschi,  Tao Wang,  A. Warshel,  
 C. F. Williams,  Q. Wu,  X. Xu,  W. Zhang

 Please cite Q-Chem as follows:
 Y. Shao et al., Mol. Phys. 113, 184-215 (2015)
 DOI: 10.1080/00268976.2014.952696

 Q-Chem 5.2.1 for Intel X86 EM64T Linux

 Parts of Q-Chem use Armadillo 8.300.2 (Tropical Shenanigans).
 http://arma.sourceforge.net/

 Q-Chem begins on Tue Sep 28 23:33:02 2021  

compute-0-1.local
Host: 0

     Scratch files written to /home/meili/scratch/qchem36634//
NAlpha2: 94
NElect   94
Mult     1
Symmetry turned off for PCM/SM12/SMD calculation

 Q-Chem warning in module libgen/rem_setup.C, line 2813:

 Neither GIA nor STOLL is specified by user. Use STOLL as the default


Checking the input file for inconsistencies... 	...done.

--------------------------------------------------------------
User input:
--------------------------------------------------------------
$comment
SSI-034PHE-062HIE-1.pdb
$end

$molecule
0 1
--
0 1
C    0.453150890957    4.585365171143   -0.163374814411
C    1.442150890957    1.158365171143    1.052625185589
C    2.514150890957    0.853365171143    0.217625185589
C    0.777150890957    2.371365171143    0.932625185589
C    1.191150890957    3.299365171143   -0.012374814411
C    2.932150890957    1.777365171143   -0.728374814411
C    2.263150890957    2.991365171143   -0.845374814411
H    1.126150890957    0.451365171143    1.803625185589
H    3.032150890957   -0.091634828857    0.320625185589
H   -0.042849109043    2.602365171143    1.597625185589
H    3.783150890957    1.558365171143   -1.359374814411
H    1.149150890957    5.418365171143   -0.059374814411
H   -0.272849109043    4.677365171143    0.646625185589
H    2.650150890957    3.721365171143   -1.539374814411
H   -0.093159109043    4.651495171143   -1.115824814411
--
0 1
C   -2.270849109043   -4.899634828857   -0.515374814411
C   -0.998849109043   -1.677634828857    0.605625185589
C   -1.991849109043   -3.446634828857   -0.241374814411
C   -2.657849109043   -2.344634828857   -0.672374814411
N   -0.962849109043   -3.000634828857    0.560625185589
N   -2.019849109043   -1.250634828857   -0.128374814411
H   -0.350849109043   -1.063634828857    1.215625185589
H   -2.395849109043   -0.312634828857   -0.069374814411
H   -3.544849109043   -2.346634828857   -1.294374814411
H   -3.217849109043   -4.951634828857   -1.048374814411
H   -2.379849109043   -5.428634828857    0.428625185589
H   -1.503499109043   -5.398524828857   -1.125524814411
$end

$rem
JOBTYPE			EDA
EDA2			1
method			wB97X-V
BASIS			def2-TZVPD
XC_GRID			000099000590
NL_GRID			1
UNRESTRICTED		FALSE
MAX_SCF_CYCLES		200
SYMMETRY		FALSE
SYM_IGNORE		TRUE
MEM_STATIC		2000
BASIS_LIN_DEP_THRESH 	6
THRESH 			14
SCF_CONVERGENCE 	8
SCF_PRINT_FRGM 		TRUE
SOLVENT_METHOD          SMD
$end

$SMX
SOLVENT			WATER
$END
--------------------------------------------------------------
 ----------------------------------------------------------------
             Standard Nuclear Orientation (Angstroms)
    I     Atom           X                Y                Z
 ----------------------------------------------------------------
    1      C       0.4531508910     4.5853651711    -0.1633748144
    2      C       1.4421508910     1.1583651711     1.0526251856
    3      C       2.5141508910     0.8533651711     0.2176251856
    4      C       0.7771508910     2.3713651711     0.9326251856
    5      C       1.1911508910     3.2993651711    -0.0123748144
    6      C       2.9321508910     1.7773651711    -0.7283748144
    7      C       2.2631508910     2.9913651711    -0.8453748144
    8      H       1.1261508910     0.4513651711     1.8036251856
    9      H       3.0321508910    -0.0916348289     0.3206251856
   10      H      -0.0428491090     2.6023651711     1.5976251856
   11      H       3.7831508910     1.5583651711    -1.3593748144
   12      H       1.1491508910     5.4183651711    -0.0593748144
   13      H      -0.2728491090     4.6773651711     0.6466251856
   14      H       2.6501508910     3.7213651711    -1.5393748144
   15      H      -0.0931591090     4.6514951711    -1.1158248144
   16      C      -2.2708491090    -4.8996348289    -0.5153748144
   17      C      -0.9988491090    -1.6776348289     0.6056251856
   18      C      -1.9918491090    -3.4466348289    -0.2413748144
   19      C      -2.6578491090    -2.3446348289    -0.6723748144
   20      N      -0.9628491090    -3.0006348289     0.5606251856
   21      N      -2.0198491090    -1.2506348289    -0.1283748144
   22      H      -0.3508491090    -1.0636348289     1.2156251856
   23      H      -2.3958491090    -0.3126348289    -0.0693748144
   24      H      -3.5448491090    -2.3466348289    -1.2943748144
   25      H      -3.2178491090    -4.9516348289    -1.0483748144
   26      H      -2.3798491090    -5.4286348289     0.4286251856
   27      H      -1.5034991090    -5.3985248289    -1.1255248144
 ----------------------------------------------------------------
 Nuclear Repulsion Energy =         681.26728007 hartrees
 There are       47 alpha and       47 beta electrons
 Requested basis set is def2-TZVPD
 There are 239 shells and 607 basis functions

 Total QAlloc Memory Limit   2000 MB
 Mega-Array Size      1956 MB
 MEM_STATIC part      2000 MB

 Citation of the SMD model:
 Marenich, A.V.; Cramer, C.J.; Truhlar, D.G.
 J. Phys. Chem. B 2009, 113, 6378-6396.
 iSolventCode=           1
 Solvent: water                                                           

 vradii
            1           2           3           4           5           6
    1   1.8500000   1.8500000   1.8500000   1.8500000   1.8500000   1.8500000
            7           8           9          10          11          12
    1   1.8500000   1.2000000   1.2000000   1.2000000   1.2000000   1.2000000
           13          14          15          16          17          18
    1   1.2000000   1.2000000   1.2000000   1.8500000   1.8500000   1.8500000
           19          20          21          22          23          24
    1   1.8500000   1.8900000   1.8900000   1.2000000   1.2000000   1.2000000
           25          26          27
    1   1.2000000   1.2000000   1.2000000
 Changing PCM_VDW_RADII to SMD_RADIUS
 Discretize the solute cavity surface with Lebedev spheres
	Using 110 Lebedev grid points for each H atom
	Using 194 Lebedev grid points for other atoms
	Atomic van der Waals radii will be scaled by 1.20
 Remove points where switching function is < 1.0e-08
 Keep 1994 surface tesserae and discard 2068 interior tesserae
 Molecular Surface Area = 245.204 Angst**2
 A cutoff of  1.0D-14 yielded  23267 shell pairs
 There are    149891 function pairs (    189181 Cartesian)
 Smallest overlap matrix eigenvalue = 5.14E-07
 Linear dependence detected in AO basis
 Tighter screening thresholds may be required for diffuse basis sets
 Use S2THRESH > 14 and THRESH = 14 in case of SCF convergence issues
 Number of orthogonalized atomic orbitals = 606
 Maximum deviation from orthogonality = 1.404E-10

 Scale SEOQF with 1.000000e-01/1.000000e-02/1.000000e-01

 Standard Electronic Orientation quadrupole field applied
 Nucleus-field energy     =     0.0000000136 hartrees

 -----------------------------------------------------------------------
  General SCF calculation program by
  Eric Jon Sundstrom, Paul Horn, Yuezhi Mao, Dmitri Zuev, Alec White,
  David Stuck, Shaama M.S., Shane Yost, Joonho Lee, David Small,
  Daniel Levine, Susi Lehtola, Hugh Burton, Evgeny Epifanovsky,
  Bang C. Huynh
 -----------------------------------------------------------------------
================================================================
                 ALMO-EDA with the EDA2 driver                  
================================================================
 The second-generation ALMO-EDA (for DFT):                      
 P. R. Horn, Y. Mao and M. Head-Gordon, PCCP, 18, 23067 (2016)  
 Decomposition of the frozen energy:                            
 P. R. Horn, Y. Mao and M. Head-Gordon, JCP, 144, 114107 (2016) 
 FERF model for polarization:                                   
 P. R. Horn and M. Head-Gordon, JCP, 143, 114111 (2015)         
Using eda2 option set 1
Option set summary: Frozen orbital wavefunction, initial wavefunction decomposition, and nDQ polarization.
--------------------------------
Printing EDA Options
--------------------------------
eda_child_super_basis      0
fragmo_guess_mode          0
child_mp                   1
child_mp_orders            232
cls_elec                   1
cls_disp                   0
scfmi_mode                 1
scfmi_occs                 0
scfmi_virts                0
frz_relax                  0
frz_relax_method           0
dc_pen_start               0
dc_pen_conv                0
dc_pen_increment           0
dc_pen_steps               0
dc_pen_thresh_factor       0
dc_pen_pre_newton_thresh   0
frz_ortho_decomp           1
frz_ortho_decomp_conv      6
frgm_method                2
scfmi_freeze_ss            0
separate_rehyb             0
plot_diff_den              0
eda_nocv                   0
eda_vct_relax              1
disp_free_x                0
disp_free_c                0
eda_bsse                   0
eda_pct_a                  0
eda_covp                   0
--------------------------------
Attempting to make child job directory: /home/meili/scratch/qchem36634//Frg1/
Attempting to make child job directory: /home/meili/scratch/qchem36634//Frg2/
Creating input file /home/meili/scratch/qchem36634/Frg1.input
using default PutDataFrgm: nothing
calling putenv with: QCSCRATCH=/home/meili/scratch/qchem36634/ 
Spawning Job For Fragment 0
                  Welcome to Q-Chem
     A Quantum Leap Into The Future Of Chemistry


 Q-Chem 5.2 (devel), Q-Chem, Inc., Pleasanton, CA (2019)

 Yihan Shao,  Zhengting Gan,  E. Epifanovsky,  A. T. B. Gilbert,  M. Wormit,  
 J. Kussmann,  A. W. Lange,  A. Behn,  Jia Deng,  Xintian Feng,  D. Ghosh,  
 M. Goldey,  P. R. Horn,  L. D. Jacobson,  I. Kaliman,  T. Kus,  A. Landau,  
 Jie Liu,  E. I. Proynov,  R. M. Richard,  R. P. Steele,  E. J. Sundstrom,  
 H. L. Woodcock III,  P. M. Zimmerman,  D. Zuev,  B. Albrecht,  E. Alguire,  
 S. A. Baeppler,  D. Barton,  Z. Benda,  Y. A. Bernard,  E. J. Berquist,  
 K. B. Bravaya,  H. Burton,  D. Casanova,  Chun-Min Chang,  Yunqing Chen,  
 A. Chien,  K. D. Closser,  M. P. Coons,  S. Coriani,  S. Dasgupta,  
 A. L. Dempwolff,  M. Diedenhofen,  Hainam Do,  R. G. Edgar,  Po-Tung Fang,  
 S. Faraji,  S. Fatehi,  Qingguo Feng,  K. D. Fenk,  J. Fosso-Tande,  
 J. Gayvert,  Qinghui Ge,  A. Ghysels,  G. Gidofalvi,  J. Gomes,  
 J. Gonthier,  A. Gunina,  D. Hait,  M. W. D. Hanson-Heine,  
 P. H. P. Harbach,  A. W. Hauser,  M. F. Herbst,  J. E. Herr,  
 E. G. Hohenstein,  Z. C. Holden,  Kerwin Hui,  B. C. Huynh,  T.-C. Jagau,  
 Hyunjun Ji,  B. Kaduk,  K. Khistyaev,  Jaehoon Kim,  P. Klunzinger,  K. Koh,  
 D. Kosenkov,  L. Koulias,  T. Kowalczyk,  C. M. Krauter,  A. Kunitsa,  
 Ka Un Lao,  A. Laurent,  K. V. Lawler,  Joonho Lee,  D. Lefrancois,  
 S. Lehtola,  D. S. Levine,  Yi-Pei Li,  You-Sheng Lin,  Fenglai Liu,  
 E. Livshits,  A. Luenser,  P. Manohar,  E. Mansoor,  S. F. Manzer,  
 Shan-Ping Mao,  Yuezhi Mao,  N. Mardirossian,  A. V. Marenich,  
 T. Markovich,  L. A. Martinez-Martinez,  S. A. Maurer,  N. J. Mayhall,  
 S. C. McKenzie,  J.-M. Mewes,  P. Morgante,  A. F. Morrison,  
 J. W. Mullinax,  K. Nanda,  T. S. Nguyen-Beck,  R. Olivares-Amaya,  
 J. A. Parkhill,  Zheng Pei,  T. M. Perrine,  F. Plasser,  P. Pokhilko,  
 S. Prager,  A. Prociuk,  E. Ramos,  D. R. Rehn,  F. Rob,  M. Scheurer,  
 M. Schneider,  N. Sergueev,  S. M. Sharada,  S. Sharma,  D. W. Small,  
 T. Stauch,  T. Stein,  Yu-Chuan Su,  A. J. W. Thom,  A. Tkatchenko,  
 T. Tsuchimochi,  N. M. Tubman,  L. Vogt,  M. L. Vidal,  O. Vydrov,  
 M. A. Watson,  J. Wenzel,  M. de Wergifosse,  T. A. Wesolowski,  A. White,  
 J. Witte,  A. Yamada,  Jun Yang,  K. Yao,  S. Yeganeh,  S. R. Yost,  
 Zhi-Qiang You,  A. Zech,  Igor Ying Zhang,  Xing Zhang,  Yan Zhao,  
 Ying Zhu,  B. R. Brooks,  G. K. L. Chan,  C. J. Cramer,  M. S. Gordon,  
 W. J. Hehre,  A. Klamt,  M. W. Schmidt,  C. D. Sherrill,  D. G. Truhlar,  
 A. Aspuru-Guzik,  R. Baer,  A. T. Bell,  N. A. Besley,  Jeng-Da Chai,  
 A. E. DePrince, III,  R. A. DiStasio Jr.,  A. Dreuw,  B. D. Dunietz,  
 T. R. Furlani,  Chao-Ping Hsu,  Yousung Jung,  Jing Kong,  D. S. Lambrecht,  
 WanZhen Liang,  C. Ochsenfeld,  V. A. Rassolov,  L. V. Slipchenko,  
 J. E. Subotnik,  T. Van Voorhis,  J. M. Herbert,  A. I. Krylov,  
 P. M. W. Gill,  M. Head-Gordon

 Contributors to earlier versions of Q-Chem not listed above: 
 R. D. Adamson,  B. Austin,  J. Baker,  G. J. O. Beran,  K. Brandhorst,  
 S. T. Brown,  E. F. C. Byrd,  A. K. Chakraborty,  C.-L. Cheng,  
 Siu Hung Chien,  D. M. Chipman,  D. L. Crittenden,  H. Dachsel,  
 R. J. Doerksen,  A. D. Dutoi,  L. Fusti-Molnar,  W. A. Goddard III,  
 A. Golubeva-Zadorozhnaya,  S. R. Gwaltney,  G. Hawkins,  A. Heyden,  
 S. Hirata,  G. Kedziora,  F. J. Keil,  C. Kelley,  Jihan Kim,  R. A. King,  
 R. Z. Khaliullin,  P. P. Korambath,  W. Kurlancheek,  A. M. Lee,  M. S. Lee,  
 S. V. Levchenko,  Ching Yeh Lin,  D. Liotard,  R. C. Lochan,  I. Lotan,  
 P. E. Maslen,  N. Nair,  D. P. O'Neill,  D. Neuhauser,  E. Neuscamman,  
 C. M. Oana,  R. Olson,  B. Peters,  R. Peverati,  P. A. Pieniazek,  
 Y. M. Rhee,  J. Ritchie,  M. A. Rohrdanz,  E. Rosta,  N. J. Russ,  
 H. F. Schaefer III,  N. E. Schultz,  N. Shenvi,  A. C. Simmonett,  A. Sodt,  
 D. Stuck,  K. S. Thanthiriwatte,  V. Vanovschi,  Tao Wang,  A. Warshel,  
 C. F. Williams,  Q. Wu,  X. Xu,  W. Zhang

 Please cite Q-Chem as follows:
 Y. Shao et al., Mol. Phys. 113, 184-215 (2015)
 DOI: 10.1080/00268976.2014.952696

 Q-Chem 5.2.1 for Intel X86 EM64T Linux

 Parts of Q-Chem use Armadillo 8.300.2 (Tropical Shenanigans).
 http://arma.sourceforge.net/

 Q-Chem begins on Tue Sep 28 23:33:08 2021  

compute-0-1.local
Host: 0

     Scratch files written to /home/meili/scratch/qchem36634//Frg1//
NAlpha2: 50
NElect   50
Mult     1
Symmetry turned off for PCM/SM12/SMD calculation

Checking the input file for inconsistencies... 	...done.

--------------------------------------------------------------
User input:
--------------------------------------------------------------
$molecule
0 1
 6	0.4531508910	4.5853651711	-0.1633748144
 6	1.4421508910	1.1583651711	1.0526251856
 6	2.5141508910	0.8533651711	0.2176251856
 6	0.7771508910	2.3713651711	0.9326251856
 6	1.1911508910	3.2993651711	-0.0123748144
 6	2.9321508910	1.7773651711	-0.7283748144
 6	2.2631508910	2.9913651711	-0.8453748144
 1	1.1261508910	0.4513651711	1.8036251856
 1	3.0321508910	-0.0916348289	0.3206251856
 1	-0.0428491090	2.6023651711	1.5976251856
 1	3.7831508910	1.5583651711	-1.3593748144
 1	1.1491508910	5.4183651711	-0.0593748144
 1	-0.2728491090	4.6773651711	0.6466251856
 1	2.6501508910	3.7213651711	-1.5393748144
 1	-0.0931591090	4.6514951711	-1.1158248144
$end
$rem
EDA2		1
METHOD		WB97X-V
BASIS		DEF2-TZVPD
XC_GRID		000099000590
NL_GRID		1
UNRESTRICTED		FALSE
MAX_SCF_CYCLES		200
SYMMETRY		FALSE
SYM_IGNORE		TRUE
BASIS_LIN_DEP_THRESH		6
THRESH		14
SCF_CONVERGENCE		8
SCF_PRINT_FRGM		TRUE
SOLVENT_METHOD		SMD
!required keywords
JOBTYPE		SP
SYM_IGNORE		TRUE
SUBSYSTEM		TRUE
GEN_SCFMAN		TRUE
CHILD_INSTRUCTION		2
SYM_IGNORE		TRUE
SCFMI		0
RI_K 0		
PARI_K 0		
MIN_PARI_K 0		
IARI_K 0		
OCC_RI_K 0		
PURECART		1111
MEM_STATIC		2000
MEM_TOTAL		2000
GUI		0
CHILD_MP		1
CHILD_MP_ORDERS		232
FRZ_RELAX		0
FRZ_RELAX_METHOD		0
EDA_CLS_ELEC		1
EDA_CLS_DISP		0
FRZ_ORTHO_DECOMP		1
EDA2		FALSE
FRGM_METHOD		FALSE
CIS_N_ROOTS  0
LOCAL_CIS    0
CIS_RLX_DNS  1
$end
$smx
SOLVENT			WATER
$end
--------------------------------------------------------------
 ----------------------------------------------------------------
             Standard Nuclear Orientation (Angstroms)
    I     Atom           X                Y                Z
 ----------------------------------------------------------------
    1      C       0.4531508910     4.5853651711    -0.1633748144
    2      C       1.4421508910     1.1583651711     1.0526251856
    3      C       2.5141508910     0.8533651711     0.2176251856
    4      C       0.7771508910     2.3713651711     0.9326251856
    5      C       1.1911508910     3.2993651711    -0.0123748144
    6      C       2.9321508910     1.7773651711    -0.7283748144
    7      C       2.2631508910     2.9913651711    -0.8453748144
    8      H       1.1261508910     0.4513651711     1.8036251856
    9      H       3.0321508910    -0.0916348289     0.3206251856
   10      H      -0.0428491090     2.6023651711     1.5976251856
   11      H       3.7831508910     1.5583651711    -1.3593748144
   12      H       1.1491508910     5.4183651711    -0.0593748144
   13      H      -0.2728491090     4.6773651711     0.6466251856
   14      H       2.6501508910     3.7213651711    -1.5393748144
   15      H      -0.0931591090     4.6514951711    -1.1158248144
 ----------------------------------------------------------------
 Nuclear Repulsion Energy =         270.61309235 hartrees
 There are       25 alpha and       25 beta electrons
 Requested basis set is def2-TZVPD
 There are 131 shells and 331 basis functions

 Total QAlloc Memory Limit   2000 MB
 Mega-Array Size      1956 MB
 MEM_STATIC part      2000 MB

 Citation of the SMD model:
 Marenich, A.V.; Cramer, C.J.; Truhlar, D.G.
 J. Phys. Chem. B 2009, 113, 6378-6396.
 iSolventCode=           1
 Solvent: water                                                           

 vradii
            1           2           3           4           5           6
    1   1.8500000   1.8500000   1.8500000   1.8500000   1.8500000   1.8500000
            7           8           9          10          11          12
    1   1.8500000   1.2000000   1.2000000   1.2000000   1.2000000   1.2000000
           13          14          15
    1   1.2000000   1.2000000   1.2000000
 Changing PCM_VDW_RADII to SMD_RADIUS
 Discretize the solute cavity surface with Lebedev spheres
	Using 110 Lebedev grid points for each H atom
	Using 194 Lebedev grid points for other atoms
	Atomic van der Waals radii will be scaled by 1.20
 Remove points where switching function is < 1.0e-08
 Keep 1091 surface tesserae and discard 1147 interior tesserae
 Molecular Surface Area = 131.384 Angst**2

                       Distance Matrix (Angstroms)
             C (  1)   C (  2)   C (  3)   C (  4)   C (  5)   C (  6)
   C (  2)  3.768435
   C (  3)  4.280269  1.392636
   C (  4)  2.491583  1.388522  2.415102
   C (  5)  1.490383  2.404393  2.790366  1.387662
   C (  6)  3.788077  2.403169  1.386873  2.784920  2.420789
   C (  7)  2.506404  2.763392  2.400836  2.398725  1.392098  1.391059
   H (  8)  4.627307  1.078752  2.145587  2.137017  3.378341  3.380967
   H (  9)  5.362819  2.150912  1.082570  3.394987  3.872861  2.145591
   H ( 10)  2.698041  2.141818  3.391408  1.080734  2.144916  3.865427
   H ( 11)  4.656398  3.384970  2.143435  3.866558  3.400581  1.081815
   H ( 12)  1.090468  4.412482  4.772754  3.225935  2.119937  4.108957
   H ( 13)  1.091623  3.935660  4.751251  2.549889  2.115765  4.535708
   H ( 14)  2.732523  3.840143  3.366150  3.382516  2.153716  2.125178
   H ( 15)  1.099995  4.388771  4.796034  3.186311  2.166866  4.190852
             C (  7)   H (  8)   H (  9)   H ( 10)   H ( 11)   H ( 12)
   H (  8)  3.842079
   H (  9)  3.384643  2.475273
   H ( 10)  3.381894  2.456786  4.282988
   H ( 11)  2.151298  4.276642  2.471619  4.946924
   H ( 12)  2.783724  5.304940  5.835254  3.477983  4.850521
   H ( 13)  3.391159  4.599448  5.811425  2.294107  5.495756  1.752028
   H ( 14)  1.079030  4.918447  4.259635  4.283127  2.448399  2.706143
   H ( 15)  2.895060  5.258422  5.859030  3.400629  4.965133  1.802085
             H ( 13)   H ( 14)
   H ( 14)  3.773124
   H ( 15)  1.771775  2.927505

 A cutoff of  1.0D-14 yielded   8366 shell pairs
 There are     54534 function pairs (     69497 Cartesian)
 Smallest overlap matrix eigenvalue = 5.60E-07
 Linear dependence detected in AO basis
 Tighter screening thresholds may be required for diffuse basis sets
 Use S2THRESH > 14 and THRESH = 14 in case of SCF convergence issues
 Number of orthogonalized atomic orbitals = 330
 Maximum deviation from orthogonality = 1.449E-10

 Scale SEOQF with 1.000000e-01/1.000000e-02/1.000000e-01

 Standard Electronic Orientation quadrupole field applied
 Nucleus-field energy     =     0.0000000059 hartrees
 Guess from superposition of atomic densities
 Warning:  Energy on first SCF cycle will be non-variational
 SAD guess density has 50.000000 electrons

 -----------------------------------------------------------------------
  General SCF calculation program by
  Eric Jon Sundstrom, Paul Horn, Yuezhi Mao, Dmitri Zuev, Alec White,
  David Stuck, Shaama M.S., Shane Yost, Joonho Lee, David Small,
  Daniel Levine, Susi Lehtola, Hugh Burton, Evgeny Epifanovsky,
  Bang C. Huynh
 -----------------------------------------------------------------------
 Exchange:     0.1670 Hartree-Fock + 1.0000 wB97X-V + LR-HF
 Correlation:  1.0000 wB97X-V
 Using Euler-Maclaurin-Lebedev (99,590) quadrature formula
 Nonlocal Correlation:  VV10 with C = 0.0100 and b = 6.00 and scale = 1.00000
 Grid used for NLC:  SG-1 standard quadrature
Energy prior to optimization (guess energy) = -271.526003908294
Begin Timing: Total SCF Calculation
begin iterations for algorithm: DIIS         
the SCF tolerance is set to 1.00e-08
    1    -271.5260039083      1.85e-03     00000 
    2    -271.5641395426      1.17e-03     00000 
    3    -271.5843714466      1.54e-04     00000 
    4    -271.5850390602      4.27e-05     00000 
    5    -271.5850837690      1.91e-05     00000 
    6    -271.5850900764      5.19e-06     00000 
    7    -271.5850907470      1.22e-06     00000 
    8    -271.5850907773      4.17e-07     00000 
    9    -271.5850907820      1.12e-07     00000 
   10    -271.5850907824      3.74e-08     00000 
   11    -271.5850907825      1.91e-08     00000 
   12    -271.5850907825      6.03e-09     00000 Convergence criterion met
Timing for Total SCF: 559.00s (wall), 3311.43s (cpu)
(3)  G-ENP(liq) elect-nuc-pol free energy of system     -271.585090783 a.u.
(4)  G-CDS(liq) cavity-dispersion-solvent structure 
     free energy                                                3.1425 kcal/mol
(6)  G-S(liq) free energy of system                     -271.580082943 a.u.
E_pcm = -0.0073742306
E_cds = 0.0050078395
Multipole orders to be included
        2
        3
computing dipole RHS
computing quadrupole RHS
total number of RHS in solve_reponses: 8
RHS batch sizes
        8
Beginning Block Conjugate Gradient Iterations. Batch Number: 0
computing hessian-vector products by finite difference
              1      6.07e-01     00000 Conjugate Gradient Iteration
computing hessian-vector products by finite difference
              2      1.80e-01     00000 Conjugate Gradient Iteration
computing hessian-vector products by finite difference
              3      4.38e-02     00000 Conjugate Gradient Iteration
computing hessian-vector products by finite difference
              4      1.11e-02     00000 Conjugate Gradient Iteration
computing hessian-vector products by finite difference
              5      2.02e-03     00000 Conjugate Gradient Iteration
computing hessian-vector products by finite difference
              6      6.16e-04     00000 Conjugate Gradient Iteration
computing hessian-vector products by finite difference
              7      1.44e-04     00000 Conjugate Gradient Iteration
computing hessian-vector products by finite difference
              8      2.26e-05     00000 Conjugate Gradient Iteration
computing hessian-vector products by finite difference
              9      3.31e-06     00000 Conjugate Gradient Iteration
computing hessian-vector products by finite difference
             10      5.31e-07     00000 Conjugate Gradient Iteration
computing hessian-vector products by finite difference
             11      8.79e-08     00000 Conjugate Gradient Iteration
computing hessian-vector products by finite difference
             12      1.26e-08     00000 Conjugate Gradient Iteration
computing hessian-vector products by finite difference
             13      2.05e-09     00000 CG Converged
batch 0 complete
Done Calculating Responses
TESTING ORTHOGONALIZATION OF MULTIPOLE BASIS
Multipole virts passed orthogonality test
Virts Per Order
           75
          125

 --------------------------------------------------------------

                    Orbital Energies (a.u.)
 --------------------------------------------------------------

 Alpha MOs
 -- Occupied --
-10.2751 -10.2671 -10.2666 -10.2643 -10.2629 -10.2626 -10.2521  -0.9948
 -0.9036  -0.8750  -0.8071  -0.7251  -0.7005  -0.6240  -0.5695  -0.5599
 -0.5318  -0.5242  -0.5086  -0.4771  -0.4704  -0.4366  -0.4330  -0.3468
 -0.3344
 -- Virtual --
  0.0666   0.0685   0.0735   0.0846   0.0898   0.1096   0.1158   0.1178
  0.1409   0.1580   0.1704   0.1789   0.1881   0.1947   0.1996   0.2070
  0.2278   0.2350   0.2383   0.2469   0.2506   0.2627   0.2657   0.2770
  0.2871   0.2883   0.2914   0.2973   0.2998   0.3058   0.3067   0.3182
  0.3255   0.3294   0.3340   0.3451   0.3557   0.3598   0.3754   0.3778
  0.3793   0.3876   0.3933   0.3981   0.3984   0.4016   0.4056   0.4083
  0.4206   0.4327   0.4384   0.4435   0.4456   0.4523   0.4566   0.4639
  0.4734   0.4777   0.4849   0.4950   0.4995   0.5021   0.5152   0.5189
  0.5223   0.5277   0.5341   0.5499   0.5536   0.5570   0.5591   0.5738
  0.5776   0.5804   0.5917   0.6012   0.6059   0.6288   0.6402   0.6486
  0.6676   0.6793   0.6849   0.6870   0.6959   0.7105   0.7227   0.7299
  0.7330   0.7406   0.7489   0.7651   0.7697   0.7710   0.7744   0.7859
  0.7945   0.8008   0.8037   0.8063   0.8168   0.8282   0.8316   0.8342
  0.8405   0.8424   0.8568   0.8634   0.8676   0.8727   0.8855   0.9021
  0.9197   0.9304   0.9449   0.9503   0.9606   1.0101   1.0435   1.0452
  1.0495   1.0625   1.0703   1.0836   1.0945   1.0976   1.1086   1.1508
  1.1694   1.1759   1.2736   1.2783   1.3044   1.3383   1.3607   1.3726
  1.3739   1.4455   1.4560   1.4651   1.4744   1.4830   1.5383   1.5465
  1.6116   1.6169   1.6295   1.6347   1.6610   1.6840   1.7471   1.7709
  1.7844   1.7999   1.8057   1.8186   1.8480   1.8583   1.8822   1.9140
  1.9262   1.9340   1.9443   1.9763   1.9933   2.0010   2.0177   2.0317
  2.0426   2.0473   2.0748   2.0936   2.1117   2.1323   2.1774   2.2031
  2.2079   2.2396   2.2614   2.2860   2.2978   2.3173   2.3877   2.4074
  2.4155   2.4289   2.4637   2.5257   2.5526   2.5628   2.5706   2.5966
  2.6407   2.6592   2.6755   2.6832   2.7037   2.7154   2.7779   2.7831
  2.7892   2.8127   2.8191   2.8549   2.8658   2.9044   2.9200   2.9228
  2.9412   2.9472   2.9845   2.9936   3.0004   3.0188   3.0324   3.0614
  3.0683   3.0928   3.1042   3.1498   3.1634   3.1874   3.2076   3.2270
  3.2404   3.2632   3.2807   3.2954   3.3596   3.3675   3.3756   3.3837
  3.4147   3.4350   3.4437   3.4557   3.4575   3.4855   3.4919   3.4964
  3.5121   3.5393   3.5530   3.5561   3.5645   3.5795   3.5819   3.6160
  3.6402   3.6464   3.6687   3.7065   3.7375   3.7567   3.7666   3.8147
  3.8725   3.9095   3.9428   3.9623   3.9779   3.9991   4.0483   4.0639
  4.1325   4.2154   4.2693   4.2863   4.3006   4.3172   4.3320   4.3595
  4.3682   4.3828   4.4039   4.4113   4.4315   4.4639   4.5177   4.5493
  4.6046   4.6234   4.7820   4.8204   4.8263   4.8635   4.9174   4.9566
  5.0385   5.0601   5.1809   5.2754   5.3868   5.4027   5.5054   5.5439
  5.6764   5.8556  22.5874  22.7136  22.8976  22.9175  23.0310  23.0955
 23.4480
 --------------------------------------------------------------

          Ground-State Mulliken Net Atomic Charges

     Atom                 Charge (a.u.)
  ----------------------------------------
      1 C                    -1.070044
      2 C                    -0.562410
      3 C                    -0.537387
      4 C                    -0.454690
      5 C                     0.848822
      6 C                    -0.537820
      7 C                    -0.379835
      8 H                     0.371202
      9 H                     0.399267
     10 H                     0.357299
     11 H                     0.366924
     12 H                     0.261721
     13 H                     0.292400
     14 H                     0.399114
     15 H                     0.245437
  ----------------------------------------
  Sum of atomic charges =     0.000000

 -----------------------------------------------------------------
                    Cartesian Multipole Moments
 -----------------------------------------------------------------
    Charge (ESU x 10^10)
                -0.0000
    Dipole Moment (Debye)
         X      -0.1825      Y       0.5169      Z       0.0250
       Tot       0.5488
    Quadrupole Moments (Debye-Ang)
        XX     -41.3476     XY      -1.9098     YY     -36.5203
        XZ      -3.6502     YZ      -2.2278     ZZ     -41.5988
    Octopole Moments (Debye-Ang^2)
       XXX    -199.3178    XXY    -109.8882    XYY     -67.9222
       YYY    -285.4866    XXZ     -16.8671    XYZ     -11.8024
       YYZ     -10.7590    XZZ     -69.4765    YZZ    -103.8768
       ZZZ      -7.2588
    Hexadecapole Moments (Debye-Ang^3)
      XXXX    -927.2729   XXXY    -426.5963   XXYY    -506.8900
      XYYY    -388.0027   YYYY   -1941.1364   XXXZ     -19.1288
      XXYZ     -26.7389   XYYZ     -22.4410   YYYZ      -3.6238
      XXZZ    -186.6793   XYZZ    -139.2785   YYZZ    -371.4526
      XZZZ      25.8029   YZZZ      20.9833   ZZZZ    -203.3819
 -----------------------------------------------------------------
Archival summary:
1\1\compute-0-1.local\SP\ProcedureUnspecified\BasisUnspecified\78\meili\WedSep2902:40:552021WedSep2902:40:552021\0\\#,ProcedureUnspecified,BasisUnspecified,\\0,1\C\C,1,1.38766\H,2,1.08073,1,120.163\C,2,1.38852,1,120.012,3,-178.076,0\H,4,1.07875,2,119.499,1,178.751,0\C,1,1.3921,2,119.293,3,178.975,0\H,6,1.07903,1,120.755,2,-175.57,0\C,6,1.39106,1,120.871,2,-0.911974,0\H,8,1.08181,6,120.393,1,-178.132,0\C,8,1.38687,6,119.595,1,0.925589,0\H,10,1.08257,8,120.15,6,-179.615,0\C,1,1.49038,2,119.888,3,-3.53853,0\H,12,1.09047,1,109.477,2,125.115,0\H,12,1.09162,1,109.079,2,8.56016,0\H,12,1.09999,1,112.677,2,-111.222,0\\\@

 Total job time:  11267.49s(wall), 67586.45s(cpu) 
 Wed Sep 29 02:40:55 2021

        *************************************************************
        *                                                           *
        *  Thank you very much for using Q-Chem.  Have a nice day.  *
        *                                                           *
        *************************************************************


Done Job For Fragment 0
calling putenv with: QCSCRATCH=/home/meili/scratch 
calling putenv with: QCTHREADS=8 
Creating input file /home/meili/scratch/qchem36634/Frg2.input
using default PutDataFrgm: nothing
calling putenv with: QCSCRATCH=/home/meili/scratch/qchem36634/ 
Spawning Job For Fragment 1
                  Welcome to Q-Chem
     A Quantum Leap Into The Future Of Chemistry


 Q-Chem 5.2 (devel), Q-Chem, Inc., Pleasanton, CA (2019)

 Yihan Shao,  Zhengting Gan,  E. Epifanovsky,  A. T. B. Gilbert,  M. Wormit,  
 J. Kussmann,  A. W. Lange,  A. Behn,  Jia Deng,  Xintian Feng,  D. Ghosh,  
 M. Goldey,  P. R. Horn,  L. D. Jacobson,  I. Kaliman,  T. Kus,  A. Landau,  
 Jie Liu,  E. I. Proynov,  R. M. Richard,  R. P. Steele,  E. J. Sundstrom,  
 H. L. Woodcock III,  P. M. Zimmerman,  D. Zuev,  B. Albrecht,  E. Alguire,  
 S. A. Baeppler,  D. Barton,  Z. Benda,  Y. A. Bernard,  E. J. Berquist,  
 K. B. Bravaya,  H. Burton,  D. Casanova,  Chun-Min Chang,  Yunqing Chen,  
 A. Chien,  K. D. Closser,  M. P. Coons,  S. Coriani,  S. Dasgupta,  
 A. L. Dempwolff,  M. Diedenhofen,  Hainam Do,  R. G. Edgar,  Po-Tung Fang,  
 S. Faraji,  S. Fatehi,  Qingguo Feng,  K. D. Fenk,  J. Fosso-Tande,  
 J. Gayvert,  Qinghui Ge,  A. Ghysels,  G. Gidofalvi,  J. Gomes,  
 J. Gonthier,  A. Gunina,  D. Hait,  M. W. D. Hanson-Heine,  
 P. H. P. Harbach,  A. W. Hauser,  M. F. Herbst,  J. E. Herr,  
 E. G. Hohenstein,  Z. C. Holden,  Kerwin Hui,  B. C. Huynh,  T.-C. Jagau,  
 Hyunjun Ji,  B. Kaduk,  K. Khistyaev,  Jaehoon Kim,  P. Klunzinger,  K. Koh,  
 D. Kosenkov,  L. Koulias,  T. Kowalczyk,  C. M. Krauter,  A. Kunitsa,  
 Ka Un Lao,  A. Laurent,  K. V. Lawler,  Joonho Lee,  D. Lefrancois,  
 S. Lehtola,  D. S. Levine,  Yi-Pei Li,  You-Sheng Lin,  Fenglai Liu,  
 E. Livshits,  A. Luenser,  P. Manohar,  E. Mansoor,  S. F. Manzer,  
 Shan-Ping Mao,  Yuezhi Mao,  N. Mardirossian,  A. V. Marenich,  
 T. Markovich,  L. A. Martinez-Martinez,  S. A. Maurer,  N. J. Mayhall,  
 S. C. McKenzie,  J.-M. Mewes,  P. Morgante,  A. F. Morrison,  
 J. W. Mullinax,  K. Nanda,  T. S. Nguyen-Beck,  R. Olivares-Amaya,  
 J. A. Parkhill,  Zheng Pei,  T. M. Perrine,  F. Plasser,  P. Pokhilko,  
 S. Prager,  A. Prociuk,  E. Ramos,  D. R. Rehn,  F. Rob,  M. Scheurer,  
 M. Schneider,  N. Sergueev,  S. M. Sharada,  S. Sharma,  D. W. Small,  
 T. Stauch,  T. Stein,  Yu-Chuan Su,  A. J. W. Thom,  A. Tkatchenko,  
 T. Tsuchimochi,  N. M. Tubman,  L. Vogt,  M. L. Vidal,  O. Vydrov,  
 M. A. Watson,  J. Wenzel,  M. de Wergifosse,  T. A. Wesolowski,  A. White,  
 J. Witte,  A. Yamada,  Jun Yang,  K. Yao,  S. Yeganeh,  S. R. Yost,  
 Zhi-Qiang You,  A. Zech,  Igor Ying Zhang,  Xing Zhang,  Yan Zhao,  
 Ying Zhu,  B. R. Brooks,  G. K. L. Chan,  C. J. Cramer,  M. S. Gordon,  
 W. J. Hehre,  A. Klamt,  M. W. Schmidt,  C. D. Sherrill,  D. G. Truhlar,  
 A. Aspuru-Guzik,  R. Baer,  A. T. Bell,  N. A. Besley,  Jeng-Da Chai,  
 A. E. DePrince, III,  R. A. DiStasio Jr.,  A. Dreuw,  B. D. Dunietz,  
 T. R. Furlani,  Chao-Ping Hsu,  Yousung Jung,  Jing Kong,  D. S. Lambrecht,  
 WanZhen Liang,  C. Ochsenfeld,  V. A. Rassolov,  L. V. Slipchenko,  
 J. E. Subotnik,  T. Van Voorhis,  J. M. Herbert,  A. I. Krylov,  
 P. M. W. Gill,  M. Head-Gordon

 Contributors to earlier versions of Q-Chem not listed above: 
 R. D. Adamson,  B. Austin,  J. Baker,  G. J. O. Beran,  K. Brandhorst,  
 S. T. Brown,  E. F. C. Byrd,  A. K. Chakraborty,  C.-L. Cheng,  
 Siu Hung Chien,  D. M. Chipman,  D. L. Crittenden,  H. Dachsel,  
 R. J. Doerksen,  A. D. Dutoi,  L. Fusti-Molnar,  W. A. Goddard III,  
 A. Golubeva-Zadorozhnaya,  S. R. Gwaltney,  G. Hawkins,  A. Heyden,  
 S. Hirata,  G. Kedziora,  F. J. Keil,  C. Kelley,  Jihan Kim,  R. A. King,  
 R. Z. Khaliullin,  P. P. Korambath,  W. Kurlancheek,  A. M. Lee,  M. S. Lee,  
 S. V. Levchenko,  Ching Yeh Lin,  D. Liotard,  R. C. Lochan,  I. Lotan,  
 P. E. Maslen,  N. Nair,  D. P. O'Neill,  D. Neuhauser,  E. Neuscamman,  
 C. M. Oana,  R. Olson,  B. Peters,  R. Peverati,  P. A. Pieniazek,  
 Y. M. Rhee,  J. Ritchie,  M. A. Rohrdanz,  E. Rosta,  N. J. Russ,  
 H. F. Schaefer III,  N. E. Schultz,  N. Shenvi,  A. C. Simmonett,  A. Sodt,  
 D. Stuck,  K. S. Thanthiriwatte,  V. Vanovschi,  Tao Wang,  A. Warshel,  
 C. F. Williams,  Q. Wu,  X. Xu,  W. Zhang

 Please cite Q-Chem as follows:
 Y. Shao et al., Mol. Phys. 113, 184-215 (2015)
 DOI: 10.1080/00268976.2014.952696

 Q-Chem 5.2.1 for Intel X86 EM64T Linux

 Parts of Q-Chem use Armadillo 8.300.2 (Tropical Shenanigans).
 http://arma.sourceforge.net/

 Q-Chem begins on Wed Sep 29 02:40:56 2021  

compute-0-1.local
Host: 0

     Scratch files written to /home/meili/scratch/qchem36634//Frg2//
NAlpha2: 44
NElect   44
Mult     1
Symmetry turned off for PCM/SM12/SMD calculation

Checking the input file for inconsistencies... 	...done.

--------------------------------------------------------------
User input:
--------------------------------------------------------------
$molecule
0 1
 6	-2.2708491090	-4.8996348289	-0.5153748144
 6	-0.9988491090	-1.6776348289	0.6056251856
 6	-1.9918491090	-3.4466348289	-0.2413748144
 6	-2.6578491090	-2.3446348289	-0.6723748144
 7	-0.9628491090	-3.0006348289	0.5606251856
 7	-2.0198491090	-1.2506348289	-0.1283748144
 1	-0.3508491090	-1.0636348289	1.2156251856
 1	-2.3958491090	-0.3126348289	-0.0693748144
 1	-3.5448491090	-2.3466348289	-1.2943748144
 1	-3.2178491090	-4.9516348289	-1.0483748144
 1	-2.3798491090	-5.4286348289	0.4286251856
 1	-1.5034991090	-5.3985248289	-1.1255248144
$end
$rem
EDA2		1
METHOD		WB97X-V
BASIS		DEF2-TZVPD
XC_GRID		000099000590
NL_GRID		1
UNRESTRICTED		FALSE
MAX_SCF_CYCLES		200
SYMMETRY		FALSE
SYM_IGNORE		TRUE
BASIS_LIN_DEP_THRESH		6
THRESH		14
SCF_CONVERGENCE		8
SCF_PRINT_FRGM		TRUE
SOLVENT_METHOD		SMD
!required keywords
JOBTYPE		SP
SYM_IGNORE		TRUE
SUBSYSTEM		TRUE
GEN_SCFMAN		TRUE
CHILD_INSTRUCTION		2
SYM_IGNORE		TRUE
SCFMI		0
RI_K 0		
PARI_K 0		
MIN_PARI_K 0		
IARI_K 0		
OCC_RI_K 0		
PURECART		1111
MEM_STATIC		2000
MEM_TOTAL		2000
GUI		0
CHILD_MP		1
CHILD_MP_ORDERS		232
FRZ_RELAX		0
FRZ_RELAX_METHOD		0
EDA_CLS_ELEC		1
EDA_CLS_DISP		0
FRZ_ORTHO_DECOMP		1
EDA2		FALSE
FRGM_METHOD		FALSE
CIS_N_ROOTS  0
LOCAL_CIS    0
CIS_RLX_DNS  1
$end
$smx
SOLVENT			WATER
$end
--------------------------------------------------------------
 ----------------------------------------------------------------
             Standard Nuclear Orientation (Angstroms)
    I     Atom           X                Y                Z
 ----------------------------------------------------------------
    1      C      -2.2708491090    -4.8996348289    -0.5153748144
    2      C      -0.9988491090    -1.6776348289     0.6056251856
    3      C      -1.9918491090    -3.4466348289    -0.2413748144
    4      C      -2.6578491090    -2.3446348289    -0.6723748144
    5      N      -0.9628491090    -3.0006348289     0.5606251856
    6      N      -2.0198491090    -1.2506348289    -0.1283748144
    7      H      -0.3508491090    -1.0636348289     1.2156251856
    8      H      -2.3958491090    -0.3126348289    -0.0693748144
    9      H      -3.5448491090    -2.3466348289    -1.2943748144
   10      H      -3.2178491090    -4.9516348289    -1.0483748144
   11      H      -2.3798491090    -5.4286348289     0.4286251856
   12      H      -1.5034991090    -5.3985248289    -1.1255248144
 ----------------------------------------------------------------
 Nuclear Repulsion Energy =         224.70510488 hartrees
 There are       22 alpha and       22 beta electrons
 Requested basis set is def2-TZVPD
 There are 108 shells and 276 basis functions

 Total QAlloc Memory Limit   2000 MB
 Mega-Array Size      1956 MB
 MEM_STATIC part      2000 MB

 Citation of the SMD model:
 Marenich, A.V.; Cramer, C.J.; Truhlar, D.G.
 J. Phys. Chem. B 2009, 113, 6378-6396.
 iSolventCode=           1
 Solvent: water                                                           

 vradii
            1           2           3           4           5           6
    1   1.8500000   1.8500000   1.8500000   1.8500000   1.8900000   1.8900000
            7           8           9          10          11          12
    1   1.2000000   1.2000000   1.2000000   1.2000000   1.2000000   1.2000000
 Changing PCM_VDW_RADII to SMD_RADIUS
 Discretize the solute cavity surface with Lebedev spheres
	Using 110 Lebedev grid points for each H atom
	Using 194 Lebedev grid points for other atoms
	Atomic van der Waals radii will be scaled by 1.20
 Remove points where switching function is < 1.0e-08
 Keep 903 surface tesserae and discard 921 interior tesserae
 Molecular Surface Area = 116.241 Angst**2

                       Distance Matrix (Angstroms)
             C (  1)   C (  2)   C (  3)   C (  4)   N (  5)   N (  6)
   C (  2)  3.640867
   C (  3)  1.504701  2.198367
   C (  4)  2.588908  2.197829  1.357837
   N (  5)  2.544571  1.324255  1.378753  2.196281
   N (  6)  3.678039  1.327978  2.199084  1.378338  2.157422
   H (  7)  4.625760  1.081203  3.239509  3.244650  2.134371  2.151015
   H (  8)  4.610326  2.066509  3.164610  2.135715  3.110584  1.012275
   H (  9)  2.957655  3.246487  2.174998  1.083355  3.245838  2.210520
   H ( 10)  1.087935  4.287045  2.102225  2.692847  3.388260  3.997375
   H ( 11)  1.087593  4.001061  2.127855  3.286418  2.814338  4.230311
   H ( 12)  1.100000  4.134800  2.197745  3.296075  2.980819  4.297199
             H (  7)   H (  8)   H (  9)   H ( 10)   H ( 11)
   H (  8)  2.529279
   H (  9)  4.260026  2.637799
   H ( 10)  5.334972  4.811907  2.636943
   H ( 11)  4.877441  5.140206  3.718155  1.763888
   H ( 12)  5.059729  5.270486  3.675548  1.773319  1.784455

 A cutoff of  1.0D-14 yielded   5739 shell pairs
 There are     38179 function pairs (     48961 Cartesian)
 Smallest overlap matrix eigenvalue = 1.87E-06

 Scale SEOQF with 1.000000e-01/1.000000e-02/1.000000e-01

 Standard Electronic Orientation quadrupole field applied
 Nucleus-field energy     =     0.0000000077 hartrees
 Guess from superposition of atomic densities
 Warning:  Energy on first SCF cycle will be non-variational
 SAD guess density has 44.000000 electrons

 -----------------------------------------------------------------------
  General SCF calculation program by
  Eric Jon Sundstrom, Paul Horn, Yuezhi Mao, Dmitri Zuev, Alec White,
  David Stuck, Shaama M.S., Shane Yost, Joonho Lee, David Small,
  Daniel Levine, Susi Lehtola, Hugh Burton, Evgeny Epifanovsky,
  Bang C. Huynh
 -----------------------------------------------------------------------
 Exchange:     0.1670 Hartree-Fock + 1.0000 wB97X-V + LR-HF
 Correlation:  1.0000 wB97X-V
 Using Euler-Maclaurin-Lebedev (99,590) quadrature formula
 Nonlocal Correlation:  VV10 with C = 0.0100 and b = 6.00 and scale = 1.00000
 Grid used for NLC:  SG-1 standard quadrature
Energy prior to optimization (guess energy) = -265.479097463115
Begin Timing: Total SCF Calculation
begin iterations for algorithm: DIIS         
the SCF tolerance is set to 1.00e-08
    1    -265.4790974631      2.70e-03     00000 
    2    -265.4968465149      2.86e-03     00000 
    3    -265.5684399001      4.50e-04     00000 
    4    -265.5712184872      1.77e-04     00000 
    5    -265.5718917254      7.84e-05     00000 
    6    -265.5719874062      2.86e-05     00000 
    7    -265.5719978928      1.11e-05     00000 
    8    -265.5719999032      2.30e-06     00000 
    9    -265.5720001005      1.02e-06     00000 
   10    -265.5720001186      3.82e-07     00000 
   11    -265.5720001214      6.88e-08     00000 
   12    -265.5720001216      2.09e-08     00000 
   13    -265.5720001216      7.22e-09     00000 Convergence criterion met
Timing for Total SCF: 337.00s (wall), 2054.24s (cpu)
(3)  G-ENP(liq) elect-nuc-pol free energy of system     -265.572000122 a.u.
(4)  G-CDS(liq) cavity-dispersion-solvent structure 
     free energy                                                2.0429 kcal/mol
(6)  G-S(liq) free energy of system                     -265.568744542 a.u.
E_pcm = -0.0227408402
E_cds = 0.0032555799
Multipole orders to be included
        2
        3
computing dipole RHS
computing quadrupole RHS
total number of RHS in solve_reponses: 8
RHS batch sizes
        8
Beginning Block Conjugate Gradient Iterations. Batch Number: 0
computing hessian-vector products by finite difference
              1      6.39e-01     00000 Conjugate Gradient Iteration
computing hessian-vector products by finite difference
              2      1.92e-01     00000 Conjugate Gradient Iteration
computing hessian-vector products by finite difference
              3      4.45e-02     00000 Conjugate Gradient Iteration
computing hessian-vector products by finite difference
              4      1.36e-02     00000 Conjugate Gradient Iteration
computing hessian-vector products by finite difference
              5      3.18e-03     00000 Conjugate Gradient Iteration
computing hessian-vector products by finite difference
              6      5.98e-04     00000 Conjugate Gradient Iteration
computing hessian-vector products by finite difference
              7      1.02e-04     00000 Conjugate Gradient Iteration
computing hessian-vector products by finite difference
              8      1.60e-05     00000 Conjugate Gradient Iteration
computing hessian-vector products by finite difference
              9      2.54e-06     00000 Conjugate Gradient Iteration
computing hessian-vector products by finite difference
             10      5.73e-07     00000 Conjugate Gradient Iteration
computing hessian-vector products by finite difference
             11      9.04e-08     00000 Conjugate Gradient Iteration
computing hessian-vector products by finite difference
             12      1.48e-08     00000 Conjugate Gradient Iteration
computing hessian-vector products by finite difference
             13      2.80e-09     00000 CG Converged
batch 0 complete
Done Calculating Responses
TESTING ORTHOGONALIZATION OF MULTIPOLE BASIS
Multipole virts passed orthogonality test
Virts Per Order
           66
          110

 --------------------------------------------------------------

                    Orbital Energies (a.u.)
 --------------------------------------------------------------

 Alpha MOs
 -- Occupied --
-14.4578 -14.3853 -10.3166 -10.2838 -10.2829 -10.2575  -1.1527  -0.9937
 -0.8957  -0.8220  -0.7218  -0.6825  -0.6634  -0.5638  -0.5514  -0.5354
 -0.5093  -0.4946  -0.4764  -0.3789  -0.3736  -0.3225
 -- Virtual --
  0.0688   0.0878   0.0979   0.1066   0.1189   0.1308   0.1356   0.1481
  0.1715   0.1722   0.1806   0.1848   0.2035   0.2069   0.2272   0.2367
  0.2490   0.2535   0.2634   0.2684   0.2739   0.2930   0.3002   0.3098
  0.3143   0.3172   0.3224   0.3246   0.3316   0.3381   0.3523   0.3603
  0.3624   0.3694   0.3807   0.3846   0.3979   0.4052   0.4084   0.4174
  0.4222   0.4299   0.4328   0.4492   0.4559   0.4714   0.4730   0.4858
  0.4926   0.4978   0.5039   0.5225   0.5362   0.5405   0.5539   0.5587
  0.5702   0.5790   0.5937   0.5952   0.6077   0.6136   0.6269   0.6416
  0.6434   0.6558   0.6731   0.6857   0.6887   0.7061   0.7097   0.7157
  0.7387   0.7444   0.7608   0.7741   0.7771   0.7888   0.7919   0.8044
  0.8079   0.8214   0.8268   0.8331   0.8554   0.8640   0.8825   0.8999
  0.9195   0.9372   0.9750   0.9959   0.9999   1.0084   1.0182   1.0256
  1.0687   1.0878   1.1075   1.1178   1.1290   1.1551   1.1749   1.1829
  1.2263   1.2521   1.2787   1.3487   1.3491   1.3570   1.3820   1.4287
  1.4350   1.4614   1.5518   1.5647   1.6095   1.6402   1.6550   1.6809
  1.7009   1.7384   1.7606   1.8158   1.8302   1.8493   1.8741   1.9022
  1.9450   1.9516   1.9541   1.9593   1.9743   1.9865   2.0019   2.0132
  2.0433   2.0627   2.0934   2.1359   2.1801   2.2243   2.2664   2.2795
  2.3066   2.3453   2.3607   2.3950   2.4352   2.4544   2.4785   2.5091
  2.5514   2.5992   2.6089   2.6199   2.6382   2.6631   2.6899   2.7200
  2.7525   2.7716   2.7876   2.8421   2.8691   2.8751   2.9068   2.9917
  3.0099   3.0414   3.0593   3.0796   3.0909   3.0964   3.1215   3.1691
  3.1793   3.1968   3.2176   3.2269   3.2697   3.2956   3.3137   3.3383
  3.3546   3.3698   3.3925   3.3974   3.4270   3.4520   3.4811   3.5007
  3.5223   3.5418   3.5766   3.5997   3.6185   3.6555   3.7086   3.7327
  3.7590   3.8028   3.8380   3.8591   3.8746   3.9521   3.9745   4.0422
  4.0757   4.1000   4.1558   4.2362   4.2956   4.4072   4.4328   4.4812
  4.5078   4.5408   4.6129   4.6971   4.7039   4.7746   4.8762   4.9399
  4.9584   4.9756   5.0004   5.0439   5.0498   5.0853   5.1724   5.2340
  5.2591   5.3108   5.3784   5.4438   5.4922   5.5376   5.5797   5.5998
  5.6681   5.6928   5.7183   5.7964   5.8766   6.0342   6.2193   6.2818
 22.6306  22.8732  23.1327  23.3791  32.6547  32.7743
 --------------------------------------------------------------

          Ground-State Mulliken Net Atomic Charges

     Atom                 Charge (a.u.)
  ----------------------------------------
      1 C                    -0.800234
      2 C                    -0.266368
      3 C                     0.504945
      4 C                    -0.564227
      5 N                    -0.538281
      6 N                     0.045137
      7 H                     0.340634
      8 H                     0.249106
      9 H                     0.324594
     10 H                     0.227807
     11 H                     0.236510
     12 H                     0.240376
  ----------------------------------------
  Sum of atomic charges =     0.000000

 -----------------------------------------------------------------
                    Cartesian Multipole Moments
 -----------------------------------------------------------------
    Charge (ESU x 10^10)
                -0.0000
    Dipole Moment (Debye)
         X      -2.8913      Y       3.8372      Z      -1.1931
       Tot       4.9505
    Quadrupole Moments (Debye-Ang)
        XX     -26.1446     XY       2.4718     YY     -46.8109
        XZ       3.4986     YZ       6.5332     ZZ     -37.1567
    Octopole Moments (Debye-Ang^2)
       XXX     167.7604    XXY      89.1200    XYY      52.1975
       YYY     330.1195    XXZ      -9.8342    XYZ     -10.4296
       YYZ     -22.1752    XZZ      66.3495    YZZ     107.4856
       ZZZ       8.6484
    Hexadecapole Moments (Debye-Ang^3)
      XXXX    -784.9827   XXXY    -543.0986   XXYY    -456.0708
      XYYY    -517.5744   YYYY   -2188.7618   XXXZ      -6.9012
      XXYZ      15.6296   XYYZ      12.2394   YYYZ      35.5857
      XXZZ    -156.8132   XYZZ    -196.1999   YYZZ    -395.5361
      XZZZ     -54.3963   YZZZ     -50.9730   ZZZZ    -117.3480
 -----------------------------------------------------------------
Archival summary:
1\1\compute-0-1.local\SP\ProcedureUnspecified\BasisUnspecified\246\meili\WedSep2904:27:572021WedSep2904:27:572021\0\\#,ProcedureUnspecified,BasisUnspecified,\\0,1\N\C,1,1.32425\H,2,1.0812,1,124.766\N,2,1.32798,1,108.866,3,-175.014,0\H,4,1.01228,2,123.457,1,164.175,0\C,4,1.37834,2,108.591,1,-0.408041,0\H,6,1.08335,4,127.376,2,177.918,0\C,6,1.35784,4,106.969,2,0.136091,0\C,8,1.5047,6,129.417,4,179.08,0\H,9,1.08759,8,109.282,6,-124.348,0\H,9,1.08793,8,107.263,6,-7.09595,0\H,9,1.1,8,114.18,6,112.887,0\\\@

 Total job time:  6420.90s(wall), 39802.11s(cpu) 
 Wed Sep 29 04:27:57 2021

        *************************************************************
        *                                                           *
        *  Thank you very much for using Q-Chem.  Have a nice day.  *
        *                                                           *
        *************************************************************


Done Job For Fragment 1
calling putenv with: QCSCRATCH=/home/meili/scratch 
calling putenv with: QCTHREADS=8 
Doing General SCFMI
 Exchange:     0.1670 Hartree-Fock + 1.0000 wB97X-V + LR-HF
 Correlation:  1.0000 wB97X-V
 Using Euler-Maclaurin-Lebedev (99,590) quadrature formula
 Nonlocal Correlation:  VV10 with C = 0.0100 and b = 6.00 and scale = 1.00000
 Grid used for NLC:  SG-1 standard quadrature
performing fock build before subrot guess so that all methods have access
Printing subrot_rss_gen Method Specification:
Occupied Subspace Method is 0
Virtual Subspace Method is 0
Energy of the unrelaxed supersystem initial determinant -537.127606741961
performing fock build before subrot guess so that all methods have access
Printing subrot_rss_gen Method Specification:
Occupied Subspace Method is 0
Virtual Subspace Method is 0
Energy of the unrelaxed supersystem initial determinant w/ solvent -537.157690960664
write pseudocanon occs and virts to disk
write pseudocanon orbital energies to disk
Tolerance of ortho_decomp_scf: 1.00e-06
GDM subspace size: 20
Beginning the Orthogonal Decomposition of the Initial Supersystem Wavefunction
    1    -537.1202891770      1.41e-02     ortho_decomp Preconditoned Steepest Descent
    2    -537.1210025185      3.08e-04     ortho_decomp BFGS Step
    3    -537.1210041120      1.99e-05     ortho_decomp BFGS Step
    4    -537.1210041146      7.32e-07     ortho_decomp 00000 Convergence criterion met
 Hartree-Fock
 Hartree-Fock
 Hartree-Fock
Doing General SCFMI
 Exchange:     0.1670 Hartree-Fock + 1.0000 wB97X-V + LR-HF
 Correlation:  1.0000 wB97X-V
 Using Euler-Maclaurin-Lebedev (99,590) quadrature formula
 Nonlocal Correlation:  VV10 with C = 0.0100 and b = 6.00 and scale = 1.00000
 Grid used for NLC:  SG-1 standard quadrature
performing fock build at end of subrot_r(subrot) constructor so that all methods have access
<S^2> of initial wavefunction before polarization iterations 0.0000000000
Beginning iterations for the determination of the polarized wavefunction
Energy prior to optimization (guess energy) = -537.157690960664
Begin Timing: Total SCF Calculation
begin iterations for algorithm: DIIS         
the SCF tolerance is set to 1.00e-08
    1    -537.1576909607      2.43e-05     00000 
    2    -537.1577428510      9.61e-06     00000 
    3    -537.1577487433      5.74e-06     00000 
    4    -537.1577508651      1.37e-06     00000 
    5    -537.1577510969      7.45e-07     00000 
    6    -537.1577511418      2.36e-07     00000 
    7    -537.1577511454      9.90e-08     00000 
    8    -537.1577511459      2.64e-08     00000 
    9    -537.1577511460      1.02e-08     00000 
   10    -537.1577511460      3.90e-09     00000 Convergence criterion met
write pseudocanon occs and virts to disk
write pseudocanon orbital energies to disk
Timing for Total SCF: 2022.00s (wall), 13239.74s (cpu)
<S^2> of polarized wavefunction after polarization iterations 0.0000000000
relaxing scfmi constraint to allow all rotations in the entire AO span
Doing General SCFMI
 Exchange:     0.1670 Hartree-Fock + 1.0000 wB97X-V + LR-HF
 Correlation:  1.0000 wB97X-V
 Using Euler-Maclaurin-Lebedev (99,590) quadrature formula
 Nonlocal Correlation:  VV10 with C = 0.0100 and b = 6.00 and scale = 1.00000
 Grid used for NLC:  SG-1 standard quadrature
performing fock build at end of subrot_r(subrot) constructor so that all methods have access
<S^2> of polarized wavefunction before ct-allowed iterations 0.0000000000
Beginning iterations for the determination of the CT-Allowed wavefunction
Energy prior to optimization (guess energy) = -537.157751145997
Begin Timing: Total SCF Calculation
begin iterations for algorithm: DIIS         
the SCF tolerance is set to 1.00e-08
    1    -537.1577511460      4.83e-05     00000 
    2    -537.1582170543      5.38e-06     00000 
    3    -537.1582306979      8.02e-07     00000 
    4    -537.1582310706      3.18e-07     00000 
    5    -537.1582310925      1.19e-07     00000 
    6    -537.1582310973      3.34e-08     00000 
    7    -537.1582310977      1.50e-08     00000 
    8    -537.1582310977      4.63e-09     00000 Convergence criterion met
write pseudocanon occs and virts to disk
write pseudocanon orbital energies to disk
Timing for Total SCF: 1612.00s (wall), 10424.42s (cpu)
<S^2> of ct_allowed wavefunction after ct-allowed iterations 0.0000000000

================================
        Results of EDA2         
================================
Basic EDA Quantities
--------------------
Fragment Energies (Ha):
1 -271.5800829430
2 -265.5687445417
--------------------
  E_prp (kJ/mol) = 0.0000
  E_sol (kJ/mol) = -0.6417
  E_frz (kJ/mol) = -1.6565
  E_pol (kJ/mol) = -0.1580
  E_vct (kJ/mol) = -1.2601
  E_int (kJ/mol) = -3.7163
--------------------


Initial Wavefunction Decomposition
--------------------
  --------------------
  Orthogonal Fragment Subspace Decomposition:
  --------------------
     E_elec   (ELEC)   (kJ/mol) = -7.2537
     E_pauli  (PAULI)  (kJ/mol) = 12.2657
     E_disp   (DISP)   (kJ/mol) = -6.6684
     --------------------
     Terms summing to E_pauli:
     --------------------
        E_kep_pauli       (kJ/mol) = 15.6789
        E_disp_free_pauli (kJ/mol) = -3.4133
  --------------------
  Classical Frozen Decomposition:
  --------------------
     E_cls_elec  (CLS ELEC)  (kJ/mol) = -2.5885
     E_cls_pauli (CLS PAULI) (kJ/mol) = 0.9320
    [E_mod_pauli (MOD PAULI) (kJ/mol) = 7.6004 (CLS PAULI - DISP from orthogonal decomposition) ]
  --------------------
--------------------

Simplified EDA Summary (kJ/mol)
--------------------
 PREPARATION     0.0000
 SOLVATION       -0.6417
 FROZEN          5.0120      (does not include dispersion)
[PAULI           12.2657]     (if this is negligible, then frozen describes electrostatics)
 DISPERSION      -6.6684
 POLARIZATION    -0.1580
 CHARGE TRANSFER -1.2601
 TOTAL           -3.7163     (PRP + SOL + FRZ + DISP + POL + CT)
--------------------

 --------------------------------------------------------------

                    Orbital Energies (a.u.)
 --------------------------------------------------------------

 Alpha MOs
 -- Occupied --
-14.4578 -14.3852 -10.3161 -10.2838 -10.2829 -10.2754 -10.2673 -10.2670
-10.2645 -10.2631 -10.2629 -10.2575 -10.2523  -1.1526  -0.9950  -0.9935
 -0.9038  -0.8956  -0.8754  -0.8219  -0.8073  -0.7259  -0.7214  -0.7009
 -0.6824  -0.6634  -0.6243  -0.5698  -0.5644  -0.5611  -0.5506  -0.5357
 -0.5319  -0.5237  -0.5092  -0.5087  -0.4946  -0.4773  -0.4764  -0.4703
 -0.4368  -0.4331  -0.3788  -0.3735  -0.3470  -0.3347  -0.3221
 -- Virtual --
  0.0616   0.0661   0.0708   0.0752   0.0832   0.0881   0.0940   0.1014
  0.1071   0.1127   0.1148   0.1158   0.1272   0.1344   0.1400   0.1492
  0.1523   0.1587   0.1665   0.1687   0.1759   0.1809   0.1846   0.1896
  0.1974   0.2055   0.2055   0.2143   0.2162   0.2211   0.2255   0.2321
  0.2367   0.2386   0.2439   0.2446   0.2530   0.2583   0.2663   0.2693
  0.2729   0.2765   0.2810   0.2838   0.2864   0.2880   0.2908   0.2984
  0.3007   0.3043   0.3089   0.3130   0.3153   0.3186   0.3215   0.3262
  0.3270   0.3323   0.3338   0.3387   0.3483   0.3508   0.3543   0.3559
  0.3593   0.3596   0.3663   0.3668   0.3753   0.3773   0.3792   0.3804
  0.3824   0.3846   0.3917   0.3929   0.3942   0.4017   0.4046   0.4062
  0.4093   0.4140   0.4169   0.4199   0.4254   0.4296   0.4323   0.4366
  0.4438   0.4463   0.4487   0.4523   0.4557   0.4599   0.4657   0.4703
  0.4705   0.4758   0.4783   0.4826   0.4881   0.4918   0.4938   0.4985
  0.5011   0.5034   0.5057   0.5093   0.5170   0.5207   0.5223   0.5284
  0.5328   0.5352   0.5384   0.5463   0.5503   0.5545   0.5577   0.5633
  0.5682   0.5713   0.5777   0.5809   0.5842   0.5873   0.5936   0.5960
  0.6016   0.6069   0.6113   0.6130   0.6198   0.6242   0.6333   0.6368
  0.6441   0.6461   0.6517   0.6551   0.6617   0.6707   0.6762   0.6841
  0.6892   0.6904   0.6973   0.7006   0.7061   0.7073   0.7164   0.7241
  0.7250   0.7296   0.7317   0.7344   0.7433   0.7451   0.7460   0.7505
  0.7516   0.7619   0.7651   0.7667   0.7733   0.7805   0.7842   0.7905
  0.7918   0.7959   0.7981   0.8042   0.8084   0.8092   0.8141   0.8162
  0.8179   0.8237   0.8269   0.8287   0.8366   0.8396   0.8455   0.8489
  0.8517   0.8561   0.8598   0.8673   0.8765   0.8799   0.8837   0.8877
  0.8989   0.9021   0.9099   0.9183   0.9215   0.9269   0.9362   0.9432
  0.9486   0.9524   0.9604   0.9730   0.9841   0.9948   0.9981   1.0129
  1.0168   1.0241   1.0306   1.0488   1.0604   1.0642   1.0700   1.0819
  1.0850   1.0901   1.0970   1.0989   1.1079   1.1131   1.1197   1.1331
  1.1394   1.1455   1.1540   1.1596   1.1887   1.1976   1.2098   1.2118
  1.2226   1.2433   1.2705   1.2786   1.2840   1.3005   1.3171   1.3465
  1.3515   1.3670   1.3719   1.3783   1.3806   1.3911   1.4013   1.4203
  1.4447   1.4541   1.4577   1.4645   1.4731   1.4805   1.4910   1.5053
  1.5495   1.5563   1.5666   1.5872   1.6230   1.6283   1.6327   1.6410
  1.6460   1.6579   1.6729   1.6880   1.7136   1.7245   1.7405   1.7434
  1.7502   1.7767   1.7797   1.7981   1.8053   1.8181   1.8315   1.8448
  1.8479   1.8614   1.8798   1.8940   1.8998   1.9083   1.9247   1.9359
  1.9405   1.9504   1.9505   1.9609   1.9689   1.9729   1.9825   1.9847
  2.0076   2.0122   2.0187   2.0239   2.0295   2.0403   2.0444   2.0518
  2.0614   2.0690   2.0879   2.0914   2.1060   2.1213   2.1239   2.1308
  2.1522   2.1640   2.1917   2.1945   2.2140   2.2374   2.2398   2.2584
  2.2709   2.2870   2.2939   2.3015   2.3151   2.3233   2.3339   2.3608
  2.3887   2.4027   2.4078   2.4180   2.4377   2.4515   2.4555   2.4776
  2.4902   2.5056   2.5302   2.5407   2.5653   2.5718   2.5857   2.5960
  2.6043   2.6119   2.6278   2.6375   2.6459   2.6553   2.6660   2.6792
  2.6841   2.6963   2.7228   2.7301   2.7337   2.7448   2.7666   2.7791
  2.7809   2.7951   2.8037   2.8181   2.8248   2.8291   2.8480   2.8633
  2.8678   2.8804   2.8905   2.9112   2.9151   2.9290   2.9447   2.9497
  2.9532   2.9903   2.9964   3.0018   3.0117   3.0309   3.0351   3.0474
  3.0606   3.0634   3.0833   3.0889   3.0919   3.1005   3.1102   3.1152
  3.1178   3.1398   3.1617   3.1770   3.1819   3.1872   3.2025   3.2116
  3.2171   3.2321   3.2469   3.2507   3.2655   3.2774   3.2871   3.2954
  3.3078   3.3187   3.3440   3.3453   3.3644   3.3692   3.3782   3.3884
  3.3937   3.3999   3.4036   3.4213   3.4250   3.4339   3.4416   3.4487
  3.4591   3.4631   3.4720   3.4915   3.5036   3.5048   3.5096   3.5125
  3.5237   3.5318   3.5510   3.5552   3.5690   3.5699   3.5795   3.5866
  3.5896   3.6069   3.6108   3.6214   3.6414   3.6481   3.6582   3.6697
  3.6790   3.7108   3.7172   3.7406   3.7485   3.7615   3.7696   3.7751
  3.8156   3.8222   3.8461   3.8622   3.8757   3.8823   3.9165   3.9477
  3.9553   3.9679   3.9816   3.9841   4.0075   4.0487   4.0587   4.0763
  4.0841   4.1168   4.1386   4.1624   4.2216   4.2510   4.2781   4.2902
  4.3026   4.3094   4.3218   4.3356   4.3643   4.3768   4.3861   4.4084
  4.4113   4.4156   4.4422   4.4524   4.4731   4.4865   4.5134   4.5227
  4.5466   4.5538   4.6092   4.6222   4.6334   4.7027   4.7131   4.7768
  4.7861   4.8231   4.8343   4.8666   4.8874   4.9288   4.9466   4.9647
  4.9689   4.9795   5.0063   5.0466   5.0573   5.0681   5.0712   5.0985
  5.1821   5.1899   5.2421   5.2655   5.2865   5.3211   5.3884   5.3898
  5.4044   5.4593   5.5023   5.5075   5.5439   5.5456   5.5925   5.6116
  5.6818   5.6907   5.7042   5.7452   5.8118   5.8590   5.9040   6.0461
  6.2375   6.2892  22.6116  22.6332  22.7166  22.8916  22.9197  22.9345
 23.0450  23.1094  23.1767  23.3963  23.4522  32.6930  32.8145
 --------------------------------------------------------------

          Ground-State Mulliken Net Atomic Charges

     Atom                 Charge (a.u.)
  ----------------------------------------
      1 C                    -1.107357
      2 C                    -0.527598
      3 C                    -0.535903
      4 C                    -0.509921
      5 C                     0.923164
      6 C                    -0.538560
      7 C                    -0.466705
      8 H                     0.400335
      9 H                     0.403158
     10 H                     0.349257
     11 H                     0.384951
     12 H                     0.277038
     13 H                     0.300073
     14 H                     0.417045
     15 H                     0.249184
     16 C                    -0.829727
     17 C                    -0.416779
     18 C                     0.501777
     19 C                    -0.594376
     20 N                    -0.532753
     21 N                     0.071467
     22 H                     0.477243
     23 H                     0.266819
     24 H                     0.323421
     25 H                     0.229621
     26 H                     0.241678
     27 H                     0.243448
  ----------------------------------------
  Sum of atomic charges =     0.000000

 -----------------------------------------------------------------
                    Cartesian Multipole Moments
 -----------------------------------------------------------------
    Charge (ESU x 10^10)
                -0.0000
    Dipole Moment (Debye)
         X      -3.0447      Y       4.3800      Z      -1.1719
       Tot       5.4615
    Quadrupole Moments (Debye-Ang)
        XX     -67.4481     XY       0.5993     YY     -83.3039
        XZ      -0.1564     YZ       4.3021     ZZ     -78.7663
    Octopole Moments (Debye-Ang^2)
       XXX     -31.2896    XXY     -20.6223    XYY     -15.5612
       YYY      45.0639    XXZ     -26.7747    XYZ     -22.2792
       YYZ     -33.0035    XZZ      -3.1009    YZZ       3.6445
       ZZZ       1.3238
    Hexadecapole Moments (Debye-Ang^3)
      XXXX   -1711.6157   XXXY    -969.3518   XXYY    -962.7304
      XYYY    -905.1686   YYYY   -4128.8606   XXXZ     -26.2395
      XXYZ     -11.2298   XYYZ     -10.2706   YYYZ      31.9322
      XXZZ    -343.5525   XYZZ    -335.5054   YYZZ    -767.0401
      XZZZ     -28.6795   YZZZ     -30.0543   ZZZZ    -320.9183
 -----------------------------------------------------------------
Archival summary:
1\1\compute-0-1.local\SP\ProcedureUnspecified\BasisUnspecified\21114\meili\WedSep2906:16:412021WedSep2906:16:412021\0\\#,ProcedureUnspecified,BasisUnspecified,\\0,1\N\H,1,1.01228\C,1,1.32798,2,123.457\H,3,1.0812,1,126.159,2,-10.7521,0\N,3,1.32425,1,108.866,2,164.175,0\C,1,1.37834,2,125.912,3,161.874,0\H,6,1.08335,1,127.376,2,13.8112,0\C,6,1.35784,1,106.969,2,-163.971,0\C,8,1.5047,6,129.417,1,179.08,0\H,9,1.08759,8,109.282,6,-124.348,0\H,9,1.08793,8,107.263,6,-7.09595,0\H,9,1.1,8,114.18,6,112.887,0\H,4,2.19602,3,161.074,1,-63.9849,0\C,13,1.07875,4,117.565,3,10.4402,0\C,14,1.38852,13,119.499,4,92.1951,0\H,15,1.08073,14,119.797,13,0.668089,0\C,15,1.38766,14,120.012,13,178.751,0\C,17,1.3921,15,119.293,14,0.899373,0\H,18,1.07903,17,120.755,15,-175.57,0\C,18,1.39106,17,120.871,15,-0.911974,0\H,20,1.08181,18,120.393,17,-178.132,0\C,20,1.38687,18,119.595,17,0.925589,0\H,22,1.08257,20,120.15,18,-179.615,0\C,17,1.49038,15,119.888,14,178.385,0\H,24,1.09047,17,109.477,15,125.115,0\H,24,1.09162,17,109.079,15,8.56016,0\H,24,1.09999,17,112.677,15,-111.222,0\\\@

 Total job time:  24219.54s(wall), 43684.84s(cpu) 
 Wed Sep 29 06:16:41 2021

        *************************************************************
        *                                                           *
        *  Thank you very much for using Q-Chem.  Have a nice day.  *
        *                                                           *
        *************************************************************


