
Running Job 1 of 1 SSI-051PHE-175PHE-1_SMD_TZVPD.in
qchem SSI-051PHE-175PHE-1_SMD_TZVPD.in_27636.0 /tmp/qchem27636/ 0
/global/common/cori/software/qchem/5.2/exe/qcprog.exe_s SSI-051PHE-175PHE-1_SMD_TZVPD.in_27636.0 /tmp/qchem27636/
                  Welcome to Q-Chem
     A Quantum Leap Into The Future Of Chemistry


 Q-Chem 5.2, Q-Chem, Inc., Pleasanton, CA (2019)

 License issued to: National Energy Research Scientific Computing Center

 Yihan Shao,  Zhengting Gan,  E. Epifanovsky,  A. T. B. Gilbert,  M. Wormit,  
 J. Kussmann,  A. W. Lange,  A. Behn,  Jia Deng,  Xintian Feng,  D. Ghosh,  
 M. Goldey,  P. R. Horn,  L. D. Jacobson,  I. Kaliman,  T. Kus,  A. Landau,  
 Jie Liu,  E. I. Proynov,  R. M. Richard,  R. P. Steele,  E. J. Sundstrom,  
 H. L. Woodcock III,  P. M. Zimmerman,  D. Zuev,  B. Albrecht,  E. Alguire,  
 S. A. Baeppler,  D. Barton,  Z. Benda,  Y. A. Bernard,  E. J. Berquist,  
 K. B. Bravaya,  H. Burton,  D. Casanova,  Chun-Min Chang,  Yunqing Chen,  
 A. Chien,  K. D. Closser,  M. P. Coons,  S. Coriani,  S. Dasgupta,  
 A. L. Dempwolff,  M. Diedenhofen,  Hainam Do,  R. G. Edgar,  Po-Tung Fang,  
 S. Faraji,  S. Fatehi,  Qingguo Feng,  K. D. Fenk,  J. Fosso-Tande,  
 J. Gayvert,  Qinghui Ge,  A. Ghysels,  G. Gidofalvi,  J. Gomes,  
 J. Gonthier,  A. Gunina,  D. Hait,  M. W. D. Hanson-Heine,  
 P. H. P. Harbach,  A. W. Hauser,  M. F. Herbst,  J. E. Herr,  
 E. G. Hohenstein,  Z. C. Holden,  Kerwin Hui,  B. C. Huynh,  T.-C. Jagau,  
 Hyunjun Ji,  B. Kaduk,  K. Khistyaev,  Jaehoon Kim,  P. Klunzinger,  K. Koh,  
 D. Kosenkov,  L. Koulias,  T. Kowalczyk,  C. M. Krauter,  A. Kunitsa,  
 Ka Un Lao,  A. Laurent,  K. V. Lawler,  Joonho Lee,  D. Lefrancois,  
 S. Lehtola,  D. S. Levine,  Yi-Pei Li,  You-Sheng Lin,  Fenglai Liu,  
 E. Livshits,  A. Luenser,  P. Manohar,  E. Mansoor,  S. F. Manzer,  
 Shan-Ping Mao,  Yuezhi Mao,  N. Mardirossian,  A. V. Marenich,  
 T. Markovich,  L. A. Martinez-Martinez,  S. A. Maurer,  N. J. Mayhall,  
 S. C. McKenzie,  J.-M. Mewes,  P. Morgante,  A. F. Morrison,  
 J. W. Mullinax,  K. Nanda,  T. S. Nguyen-Beck,  R. Olivares-Amaya,  
 J. A. Parkhill,  Zheng Pei,  T. M. Perrine,  F. Plasser,  P. Pokhilko,  
 S. Prager,  A. Prociuk,  E. Ramos,  D. R. Rehn,  F. Rob,  M. Scheurer,  
 M. Schneider,  N. Sergueev,  S. M. Sharada,  S. Sharma,  D. W. Small,  
 T. Stauch,  T. Stein,  Yu-Chuan Su,  A. J. W. Thom,  A. Tkatchenko,  
 T. Tsuchimochi,  N. M. Tubman,  L. Vogt,  M. L. Vidal,  O. Vydrov,  
 M. A. Watson,  J. Wenzel,  M. de Wergifosse,  T. A. Wesolowski,  A. White,  
 J. Witte,  A. Yamada,  Jun Yang,  K. Yao,  S. Yeganeh,  S. R. Yost,  
 Zhi-Qiang You,  A. Zech,  Igor Ying Zhang,  Xing Zhang,  Yan Zhao,  
 Ying Zhu,  B. R. Brooks,  G. K. L. Chan,  C. J. Cramer,  M. S. Gordon,  
 W. J. Hehre,  A. Klamt,  M. W. Schmidt,  C. D. Sherrill,  D. G. Truhlar,  
 A. Aspuru-Guzik,  R. Baer,  A. T. Bell,  N. A. Besley,  Jeng-Da Chai,  
 A. E. DePrince, III,  R. A. DiStasio Jr.,  A. Dreuw,  B. D. Dunietz,  
 T. R. Furlani,  Chao-Ping Hsu,  Yousung Jung,  Jing Kong,  D. S. Lambrecht,  
 WanZhen Liang,  C. Ochsenfeld,  V. A. Rassolov,  L. V. Slipchenko,  
 J. E. Subotnik,  T. Van Voorhis,  J. M. Herbert,  A. I. Krylov,  
 P. M. W. Gill,  M. Head-Gordon

 Contributors to earlier versions of Q-Chem not listed above: 
 R. D. Adamson,  B. Austin,  J. Baker,  G. J. O. Beran,  K. Brandhorst,  
 S. T. Brown,  E. F. C. Byrd,  A. K. Chakraborty,  C.-L. Cheng,  
 Siu Hung Chien,  D. M. Chipman,  D. L. Crittenden,  H. Dachsel,  
 R. J. Doerksen,  A. D. Dutoi,  L. Fusti-Molnar,  W. A. Goddard III,  
 A. Golubeva-Zadorozhnaya,  S. R. Gwaltney,  G. Hawkins,  A. Heyden,  
 S. Hirata,  G. Kedziora,  F. J. Keil,  C. Kelley,  Jihan Kim,  R. A. King,  
 R. Z. Khaliullin,  P. P. Korambath,  W. Kurlancheek,  A. M. Lee,  M. S. Lee,  
 S. V. Levchenko,  Ching Yeh Lin,  D. Liotard,  R. C. Lochan,  I. Lotan,  
 P. E. Maslen,  N. Nair,  D. P. O'Neill,  D. Neuhauser,  E. Neuscamman,  
 C. M. Oana,  R. Olson,  B. Peters,  R. Peverati,  P. A. Pieniazek,  
 Y. M. Rhee,  J. Ritchie,  M. A. Rohrdanz,  E. Rosta,  N. J. Russ,  
 H. F. Schaefer III,  N. E. Schultz,  N. Shenvi,  A. C. Simmonett,  A. Sodt,  
 D. Stuck,  K. S. Thanthiriwatte,  V. Vanovschi,  Tao Wang,  A. Warshel,  
 C. F. Williams,  Q. Wu,  X. Xu,  W. Zhang

 Please cite Q-Chem as follows:
 Y. Shao et al., Mol. Phys. 113, 184-215 (2015)
 DOI: 10.1080/00268976.2014.952696

 Q-Chem 5.2.0 for Intel X86 EM64T Linux

 Parts of Q-Chem use Armadillo 8.300.2 (Tropical Shenanigans).
 http://arma.sourceforge.net/

 Q-Chem begins on Sun Sep 26 08:22:22 2021  

Host: cori01
0

     Scratch files written to /tmp/qchem27636//
 May1019 |scratch|qcdevops|jenkins|workspace|build_RNUM -1
Processing $rem in /global/common/cori/software/qchem/5.2/config/preferences:
	 MEM_TOTAL  96000 
NAlpha2: 100
NElect   100
Mult     1
Symmetry turned off for PCM/SM12/SMD calculation

 Q-Chem warning in module libgen/rem_setup.C, line 2803:

 Neither GIA nor STOLL is specified by user. Use STOLL as the default


Checking the input file for inconsistencies... 	...done.

--------------------------------------------------------------
User input:
--------------------------------------------------------------
$comment
SSI-051PHE-175PHE-1.pdb
$end

$molecule
0 1
--
0 1
C    4.835207343345   -1.115604041673    0.966924466883
C    0.896207343345   -1.791604041673   -0.643075533117
C    1.821207343345   -1.022604041673   -1.356075533117
C    1.254207343345   -2.330604041673    0.593924466883
C    3.100207343345   -0.798604041673   -0.828075533117
C    2.529207343345   -2.102604041673    1.113924466883
C    3.460207343345   -1.340604041673    0.407924466883
H   -0.087792656655   -1.973604041673   -1.053075533117
H    1.548207343345   -0.599604041673   -2.313075533117
H    0.576207343345   -2.931604041673    1.170924466883
H    3.812207343345   -0.203604041673   -1.380075533117
H    2.784207343345   -2.502604041673    2.081924466883
H    4.812207343345   -1.226604041673    2.052924466883
H    5.119207343345   -0.088604041673    0.743924466883
H    5.605987343345   -1.774936041673    0.541270546883
--
0 1
C   -4.629792656655    0.116395958327   -0.017075533117
C   -2.133792656655    0.382395958327   -0.315075533117
C   -3.369792656655    0.950395958327   -0.005075533117
C   -0.985792656655    1.177395958327   -0.371075533117
C   -1.064792656655    2.550395958327   -0.114075533117
C   -3.437792656655    2.320395958327    0.258924466883
C   -2.296792656655    3.120395958327    0.201924466883
H   -2.063792656655   -0.674604041673   -0.526075533117
H   -0.030792656655    0.741395958327   -0.617075533117
H   -4.523792656655   -0.672604041673   -0.762075533117
H   -5.454792656655    0.754395958327   -0.339075533117
H   -0.176792656655    3.167395958327   -0.165075533117
H   -4.387792656655    2.770395958327    0.510924466883
H   -2.378792656655    4.184395958327    0.369924466883
H   -4.890782656655   -0.345363041673    0.946594966883
$end

$rem
JOBTYPE			EDA
EDA2			1
method			wB97X-V
BASIS			def2-TZVPD
XC_GRID			000099000590
NL_GRID			1
UNRESTRICTED		FALSE
MAX_SCF_CYCLES		200
SYMMETRY		FALSE
SYM_IGNORE		TRUE
MEM_STATIC		2000
BASIS_LIN_DEP_THRESH 	6
THRESH 			14
SCF_CONVERGENCE 	8
SCF_PRINT_FRGM 		TRUE
SOLVENT_METHOD          SMD
$end

$SMX
SOLVENT			WATER
$END
--------------------------------------------------------------
 ----------------------------------------------------------------
             Standard Nuclear Orientation (Angstroms)
    I     Atom           X                Y                Z
 ----------------------------------------------------------------
    1      C       4.8352073433    -1.1156040417     0.9669244669
    2      C       0.8962073433    -1.7916040417    -0.6430755331
    3      C       1.8212073433    -1.0226040417    -1.3560755331
    4      C       1.2542073433    -2.3306040417     0.5939244669
    5      C       3.1002073433    -0.7986040417    -0.8280755331
    6      C       2.5292073433    -2.1026040417     1.1139244669
    7      C       3.4602073433    -1.3406040417     0.4079244669
    8      H      -0.0877926567    -1.9736040417    -1.0530755331
    9      H       1.5482073433    -0.5996040417    -2.3130755331
   10      H       0.5762073433    -2.9316040417     1.1709244669
   11      H       3.8122073433    -0.2036040417    -1.3800755331
   12      H       2.7842073433    -2.5026040417     2.0819244669
   13      H       4.8122073433    -1.2266040417     2.0529244669
   14      H       5.1192073433    -0.0886040417     0.7439244669
   15      H       5.6059873433    -1.7749360417     0.5412705469
   16      C      -4.6297926567     0.1163959583    -0.0170755331
   17      C      -2.1337926567     0.3823959583    -0.3150755331
   18      C      -3.3697926567     0.9503959583    -0.0050755331
   19      C      -0.9857926567     1.1773959583    -0.3710755331
   20      C      -1.0647926567     2.5503959583    -0.1140755331
   21      C      -3.4377926567     2.3203959583     0.2589244669
   22      C      -2.2967926567     3.1203959583     0.2019244669
   23      H      -2.0637926567    -0.6746040417    -0.5260755331
   24      H      -0.0307926567     0.7413959583    -0.6170755331
   25      H      -4.5237926567    -0.6726040417    -0.7620755331
   26      H      -5.4547926567     0.7543959583    -0.3390755331
   27      H      -0.1767926567     3.1673959583    -0.1650755331
   28      H      -4.3877926567     2.7703959583     0.5109244669
   29      H      -2.3787926567     4.1843959583     0.3699244669
   30      H      -4.8907826567    -0.3453630417     0.9465949669
 ----------------------------------------------------------------
 Nuclear Repulsion Energy =         759.37062929 hartrees
 There are       50 alpha and       50 beta electrons
 Requested basis set is def2-TZVPD
 There are 262 shells and 662 basis functions

 Total QAlloc Memory Limit  96000 MB
 Mega-Array Size      1956 MB
 MEM_STATIC part      2000 MB
 
 Citation of the SMD model:
 Marenich, A.V.; Cramer, C.J.; Truhlar, D.G.
 J. Phys. Chem. B 2009, 113, 6378-6396.
 iSolventCode=           1
 Solvent: water                                                           
 
 vradii
            1           2           3           4           5           6
    1   1.8500000   1.8500000   1.8500000   1.8500000   1.8500000   1.8500000
            7           8           9          10          11          12
    1   1.8500000   1.2000000   1.2000000   1.2000000   1.2000000   1.2000000
           13          14          15          16          17          18
    1   1.2000000   1.2000000   1.2000000   1.8500000   1.8500000   1.8500000
           19          20          21          22          23          24
    1   1.8500000   1.8500000   1.8500000   1.8500000   1.2000000   1.2000000
           25          26          27          28          29          30
    1   1.2000000   1.2000000   1.2000000   1.2000000   1.2000000   1.2000000
 Changing PCM_VDW_RADII to SMD_RADIUS
 Discretize the solute cavity surface with Lebedev spheres
	Using 110 Lebedev grid points for each H atom
	Using 194 Lebedev grid points for other atoms
	Atomic van der Waals radii will be scaled by 1.20
 Remove points where switching function is < 1.0e-08
 Keep 2150 surface tesserae and discard 2326 interior tesserae
 Molecular Surface Area = 259.024 Angst**2
 A cutoff of  1.0D-14 yielded  28457 shell pairs
 There are    182303 function pairs (    229703 Cartesian)
 Smallest overlap matrix eigenvalue = 4.58E-07
 Linear dependence detected in AO basis
 Tighter screening thresholds may be required for diffuse basis sets
 Use S2THRESH > 14 and THRESH = 14 in case of SCF convergence issues
 Number of orthogonalized atomic orbitals = 658
 Maximum deviation from orthogonality = 2.366E-10

 Scale SEOQF with 1.000000e-02/1.000000e-01/1.000000e-01

 Standard Electronic Orientation quadrupole field applied
 Nucleus-field energy     =     0.0000000193 hartrees

 -----------------------------------------------------------------------
  General SCF calculation program by
  Eric Jon Sundstrom, Paul Horn, Yuezhi Mao, Dmitri Zuev, Alec White,
  David Stuck, Shaama M.S., Shane Yost, Joonho Lee, David Small,
  Daniel Levine, Susi Lehtola, Hugh Burton, Evgeny Epifanovsky
 -----------------------------------------------------------------------
================================================================
                 ALMO-EDA with the EDA2 driver                  
================================================================
 The second-generation ALMO-EDA (for DFT):                      
 P. R. Horn, Y. Mao and M. Head-Gordon, PCCP, 18, 23067 (2016)  
 Decomposition of the frozen energy:                            
 P. R. Horn, Y. Mao and M. Head-Gordon, JCP, 144, 114107 (2016) 
 FERF model for polarization:                                   
 P. R. Horn and M. Head-Gordon, JCP, 143, 114111 (2015)         
Using eda2 option set 1
Option set summary: Frozen orbital wavefunction, initial wavefunction decomposition, and nDQ polarization.
--------------------------------
Printing EDA Options
--------------------------------
eda_child_super_basis      0
fragmo_guess_mode          0
child_mp                   1
child_mp_orders            232
cls_elec                   1
cls_disp                   0
scfmi_mode                 1
scfmi_occs                 0
scfmi_virts                0
frz_relax                  0
frz_relax_method           0
dc_pen_start               0
dc_pen_conv                0
dc_pen_increment           0
dc_pen_steps               0
dc_pen_thresh_factor       0
dc_pen_pre_newton_thresh   0
frz_ortho_decomp           1
frz_ortho_decomp_conv      6
frgm_method                2
scfmi_freeze_ss            0
separate_rehyb             0
plot_diff_den              0
eda_nocv                   0
eda_vct_relax              1
disp_free_x                0
disp_free_c                0
eda_bsse                   0
eda_pct_a                  0
eda_covp                   0
--------------------------------
Attempting to make child job directory: /tmp/qchem27636//Frg1/
Attempting to make child job directory: /tmp/qchem27636//Frg2/
Creating input file /tmp/qchem27636/Frg1.input
using default PutDataFrgm: nothing
calling putenv with: QCSCRATCH=/tmp/qchem27636/ 
calling putenv with: QCLOCALSCR=/tmp/qchem27636/ 
Spawning Job For Fragment 0
                  Welcome to Q-Chem
     A Quantum Leap Into The Future Of Chemistry


 Q-Chem 5.2, Q-Chem, Inc., Pleasanton, CA (2019)

 License issued to: National Energy Research Scientific Computing Center

 Yihan Shao,  Zhengting Gan,  E. Epifanovsky,  A. T. B. Gilbert,  M. Wormit,  
 J. Kussmann,  A. W. Lange,  A. Behn,  Jia Deng,  Xintian Feng,  D. Ghosh,  
 M. Goldey,  P. R. Horn,  L. D. Jacobson,  I. Kaliman,  T. Kus,  A. Landau,  
 Jie Liu,  E. I. Proynov,  R. M. Richard,  R. P. Steele,  E. J. Sundstrom,  
 H. L. Woodcock III,  P. M. Zimmerman,  D. Zuev,  B. Albrecht,  E. Alguire,  
 S. A. Baeppler,  D. Barton,  Z. Benda,  Y. A. Bernard,  E. J. Berquist,  
 K. B. Bravaya,  H. Burton,  D. Casanova,  Chun-Min Chang,  Yunqing Chen,  
 A. Chien,  K. D. Closser,  M. P. Coons,  S. Coriani,  S. Dasgupta,  
 A. L. Dempwolff,  M. Diedenhofen,  Hainam Do,  R. G. Edgar,  Po-Tung Fang,  
 S. Faraji,  S. Fatehi,  Qingguo Feng,  K. D. Fenk,  J. Fosso-Tande,  
 J. Gayvert,  Qinghui Ge,  A. Ghysels,  G. Gidofalvi,  J. Gomes,  
 J. Gonthier,  A. Gunina,  D. Hait,  M. W. D. Hanson-Heine,  
 P. H. P. Harbach,  A. W. Hauser,  M. F. Herbst,  J. E. Herr,  
 E. G. Hohenstein,  Z. C. Holden,  Kerwin Hui,  B. C. Huynh,  T.-C. Jagau,  
 Hyunjun Ji,  B. Kaduk,  K. Khistyaev,  Jaehoon Kim,  P. Klunzinger,  K. Koh,  
 D. Kosenkov,  L. Koulias,  T. Kowalczyk,  C. M. Krauter,  A. Kunitsa,  
 Ka Un Lao,  A. Laurent,  K. V. Lawler,  Joonho Lee,  D. Lefrancois,  
 S. Lehtola,  D. S. Levine,  Yi-Pei Li,  You-Sheng Lin,  Fenglai Liu,  
 E. Livshits,  A. Luenser,  P. Manohar,  E. Mansoor,  S. F. Manzer,  
 Shan-Ping Mao,  Yuezhi Mao,  N. Mardirossian,  A. V. Marenich,  
 T. Markovich,  L. A. Martinez-Martinez,  S. A. Maurer,  N. J. Mayhall,  
 S. C. McKenzie,  J.-M. Mewes,  P. Morgante,  A. F. Morrison,  
 J. W. Mullinax,  K. Nanda,  T. S. Nguyen-Beck,  R. Olivares-Amaya,  
 J. A. Parkhill,  Zheng Pei,  T. M. Perrine,  F. Plasser,  P. Pokhilko,  
 S. Prager,  A. Prociuk,  E. Ramos,  D. R. Rehn,  F. Rob,  M. Scheurer,  
 M. Schneider,  N. Sergueev,  S. M. Sharada,  S. Sharma,  D. W. Small,  
 T. Stauch,  T. Stein,  Yu-Chuan Su,  A. J. W. Thom,  A. Tkatchenko,  
 T. Tsuchimochi,  N. M. Tubman,  L. Vogt,  M. L. Vidal,  O. Vydrov,  
 M. A. Watson,  J. Wenzel,  M. de Wergifosse,  T. A. Wesolowski,  A. White,  
 J. Witte,  A. Yamada,  Jun Yang,  K. Yao,  S. Yeganeh,  S. R. Yost,  
 Zhi-Qiang You,  A. Zech,  Igor Ying Zhang,  Xing Zhang,  Yan Zhao,  
 Ying Zhu,  B. R. Brooks,  G. K. L. Chan,  C. J. Cramer,  M. S. Gordon,  
 W. J. Hehre,  A. Klamt,  M. W. Schmidt,  C. D. Sherrill,  D. G. Truhlar,  
 A. Aspuru-Guzik,  R. Baer,  A. T. Bell,  N. A. Besley,  Jeng-Da Chai,  
 A. E. DePrince, III,  R. A. DiStasio Jr.,  A. Dreuw,  B. D. Dunietz,  
 T. R. Furlani,  Chao-Ping Hsu,  Yousung Jung,  Jing Kong,  D. S. Lambrecht,  
 WanZhen Liang,  C. Ochsenfeld,  V. A. Rassolov,  L. V. Slipchenko,  
 J. E. Subotnik,  T. Van Voorhis,  J. M. Herbert,  A. I. Krylov,  
 P. M. W. Gill,  M. Head-Gordon

 Contributors to earlier versions of Q-Chem not listed above: 
 R. D. Adamson,  B. Austin,  J. Baker,  G. J. O. Beran,  K. Brandhorst,  
 S. T. Brown,  E. F. C. Byrd,  A. K. Chakraborty,  C.-L. Cheng,  
 Siu Hung Chien,  D. M. Chipman,  D. L. Crittenden,  H. Dachsel,  
 R. J. Doerksen,  A. D. Dutoi,  L. Fusti-Molnar,  W. A. Goddard III,  
 A. Golubeva-Zadorozhnaya,  S. R. Gwaltney,  G. Hawkins,  A. Heyden,  
 S. Hirata,  G. Kedziora,  F. J. Keil,  C. Kelley,  Jihan Kim,  R. A. King,  
 R. Z. Khaliullin,  P. P. Korambath,  W. Kurlancheek,  A. M. Lee,  M. S. Lee,  
 S. V. Levchenko,  Ching Yeh Lin,  D. Liotard,  R. C. Lochan,  I. Lotan,  
 P. E. Maslen,  N. Nair,  D. P. O'Neill,  D. Neuhauser,  E. Neuscamman,  
 C. M. Oana,  R. Olson,  B. Peters,  R. Peverati,  P. A. Pieniazek,  
 Y. M. Rhee,  J. Ritchie,  M. A. Rohrdanz,  E. Rosta,  N. J. Russ,  
 H. F. Schaefer III,  N. E. Schultz,  N. Shenvi,  A. C. Simmonett,  A. Sodt,  
 D. Stuck,  K. S. Thanthiriwatte,  V. Vanovschi,  Tao Wang,  A. Warshel,  
 C. F. Williams,  Q. Wu,  X. Xu,  W. Zhang

 Please cite Q-Chem as follows:
 Y. Shao et al., Mol. Phys. 113, 184-215 (2015)
 DOI: 10.1080/00268976.2014.952696

 Q-Chem 5.2.0 for Intel X86 EM64T Linux

 Parts of Q-Chem use Armadillo 8.300.2 (Tropical Shenanigans).
 http://arma.sourceforge.net/

 Q-Chem begins on Sun Sep 26 08:22:30 2021  

Host: cori01
0

     Scratch files written to /tmp/qchem27636//Frg1//
 May1019 |scratch|qcdevops|jenkins|workspace|build_RNUM -1
Processing $rem in /global/common/cori/software/qchem/5.2/config/preferences:
	 MEM_TOTAL  96000 
NAlpha2: 50
NElect   50
Mult     1
Symmetry turned off for PCM/SM12/SMD calculation

Checking the input file for inconsistencies... 	...done.

--------------------------------------------------------------
User input:
--------------------------------------------------------------
$molecule
0 1
 6	4.8352073433	-1.1156040417	0.9669244669
 6	0.8962073433	-1.7916040417	-0.6430755331
 6	1.8212073433	-1.0226040417	-1.3560755331
 6	1.2542073433	-2.3306040417	0.5939244669
 6	3.1002073433	-0.7986040417	-0.8280755331
 6	2.5292073433	-2.1026040417	1.1139244669
 6	3.4602073433	-1.3406040417	0.4079244669
 1	-0.0877926567	-1.9736040417	-1.0530755331
 1	1.5482073433	-0.5996040417	-2.3130755331
 1	0.5762073433	-2.9316040417	1.1709244669
 1	3.8122073433	-0.2036040417	-1.3800755331
 1	2.7842073433	-2.5026040417	2.0819244669
 1	4.8122073433	-1.2266040417	2.0529244669
 1	5.1192073433	-0.0886040417	0.7439244669
 1	5.6059873433	-1.7749360417	0.5412705469
$end
$rem
EDA2		1
METHOD		WB97X-V
BASIS		DEF2-TZVPD
XC_GRID		000099000590
NL_GRID		1
UNRESTRICTED		FALSE
MAX_SCF_CYCLES		200
SYMMETRY		FALSE
SYM_IGNORE		TRUE
BASIS_LIN_DEP_THRESH		6
THRESH		14
SCF_CONVERGENCE		8
SCF_PRINT_FRGM		TRUE
SOLVENT_METHOD		SMD
!required keywords
JOBTYPE		SP
SYM_IGNORE		TRUE
SUBSYSTEM		TRUE
GEN_SCFMAN		TRUE
CHILD_INSTRUCTION		2
SYM_IGNORE		TRUE
SCFMI		0
RI_K 0		
PARI_K 0		
MIN_PARI_K 0		
IARI_K 0		
OCC_RI_K 0		
PURECART		1111
MEM_STATIC		2000
MEM_TOTAL		96000
GUI		0
CHILD_MP		1
CHILD_MP_ORDERS		232
FRZ_RELAX		0
FRZ_RELAX_METHOD		0
EDA_CLS_ELEC		1
EDA_CLS_DISP		0
FRZ_ORTHO_DECOMP		1
EDA2		FALSE
FRGM_METHOD		FALSE
CIS_N_ROOTS  0
LOCAL_CIS    0
CIS_RLX_DNS  1
$end
$smx
SOLVENT			WATER
$end
--------------------------------------------------------------
 ----------------------------------------------------------------
             Standard Nuclear Orientation (Angstroms)
    I     Atom           X                Y                Z
 ----------------------------------------------------------------
    1      C       4.8352073433    -1.1156040417     0.9669244669
    2      C       0.8962073433    -1.7916040417    -0.6430755331
    3      C       1.8212073433    -1.0226040417    -1.3560755331
    4      C       1.2542073433    -2.3306040417     0.5939244669
    5      C       3.1002073433    -0.7986040417    -0.8280755331
    6      C       2.5292073433    -2.1026040417     1.1139244669
    7      C       3.4602073433    -1.3406040417     0.4079244669
    8      H      -0.0877926567    -1.9736040417    -1.0530755331
    9      H       1.5482073433    -0.5996040417    -2.3130755331
   10      H       0.5762073433    -2.9316040417     1.1709244669
   11      H       3.8122073433    -0.2036040417    -1.3800755331
   12      H       2.7842073433    -2.5026040417     2.0819244669
   13      H       4.8122073433    -1.2266040417     2.0529244669
   14      H       5.1192073433    -0.0886040417     0.7439244669
   15      H       5.6059873433    -1.7749360417     0.5412705469
 ----------------------------------------------------------------
 Nuclear Repulsion Energy =         269.37135935 hartrees
 There are       25 alpha and       25 beta electrons
 Requested basis set is def2-TZVPD
 There are 131 shells and 331 basis functions

 Total QAlloc Memory Limit  96000 MB
 Mega-Array Size      1956 MB
 MEM_STATIC part      2000 MB
 
 Citation of the SMD model:
 Marenich, A.V.; Cramer, C.J.; Truhlar, D.G.
 J. Phys. Chem. B 2009, 113, 6378-6396.
 iSolventCode=           1
 Solvent: water                                                           
 
 vradii
            1           2           3           4           5           6
    1   1.8500000   1.8500000   1.8500000   1.8500000   1.8500000   1.8500000
            7           8           9          10          11          12
    1   1.8500000   1.2000000   1.2000000   1.2000000   1.2000000   1.2000000
           13          14          15
    1   1.2000000   1.2000000   1.2000000
 Changing PCM_VDW_RADII to SMD_RADIUS
 Discretize the solute cavity surface with Lebedev spheres
	Using 110 Lebedev grid points for each H atom
	Using 194 Lebedev grid points for other atoms
	Atomic van der Waals radii will be scaled by 1.20
 Remove points where switching function is < 1.0e-08
 Keep 1091 surface tesserae and discard 1147 interior tesserae
 Molecular Surface Area = 132.215 Angst**2

                       Distance Matrix (Angstroms)
             C (  1)   C (  2)   C (  3)   C (  4)   C (  5)   C (  6)
   C (  2)  4.308689
   C (  3)  3.806465  1.398340
   C (  4)  3.799857  1.396014  2.415544
   C (  5)  2.516493  2.424436  1.401714  2.788696
   C (  6)  2.512651  2.418772  2.787214  1.395711  2.407866
   C (  7)  1.501243  2.807507  2.428815  2.425105  1.396803  1.394934
   H (  8)  5.390036  1.081425  2.154180  2.154303  3.405084  3.400179
   H (  9)  4.672154  2.152874  1.081345  3.396093  2.157204  3.868553
   H ( 10)  4.634496  2.166240  3.402945  1.074157  3.862158  2.122428
   H ( 11)  2.717845  3.401172  2.153002  3.868355  1.079663  3.387082
   H ( 12)  2.715436  3.390529  3.864921  2.141174  3.386971  1.077984
   H ( 13)  1.091900  4.787765  4.539711  4.000858  3.378504  2.619387
   H ( 14)  1.088629  4.760011  4.019846  4.470715  2.655493  3.301696
   H ( 15)  1.100001  4.856437  4.300056  4.387428  3.017825  3.146724
             C (  7)   H (  8)   H (  9)   H ( 10)   H ( 11)   H ( 12)
   H (  8)  3.888896
   H (  9)  3.407149  2.480317
   H ( 10)  3.380962  2.510943  4.303634
   H ( 11)  2.147933  4.295326  2.480524  4.941789
   H ( 12)  2.146974  4.284443  4.946224  2.426773  4.281078
   H ( 13)  2.132352  5.849380  5.487147  4.650661  3.719142  2.396206
   H ( 14)  2.105393  5.821966  4.728468  5.376228  2.496568  3.615227
   H ( 15)  2.193353  5.916125  5.098458  5.199330  3.062401  3.296295
             H ( 13)   H ( 14)
   H ( 14)  1.761469
   H ( 15)  1.793280  1.766844
 
 A cutoff of  1.0D-14 yielded   8359 shell pairs
 There are     54495 function pairs (     69446 Cartesian)
 Smallest overlap matrix eigenvalue = 5.85E-07
 Linear dependence detected in AO basis
 Tighter screening thresholds may be required for diffuse basis sets
 Use S2THRESH > 14 and THRESH = 14 in case of SCF convergence issues
 Number of orthogonalized atomic orbitals = 330
 Maximum deviation from orthogonality = 1.675E-10

 Scale SEOQF with 1.000000e-02/1.000000e-01/1.000000e-01

 Standard Electronic Orientation quadrupole field applied
 Nucleus-field energy     =     0.0000000053 hartrees
 Guess from superposition of atomic densities
 Warning:  Energy on first SCF cycle will be non-variational
 SAD guess density has 49.913408 electrons

 -----------------------------------------------------------------------
  General SCF calculation program by
  Eric Jon Sundstrom, Paul Horn, Yuezhi Mao, Dmitri Zuev, Alec White,
  David Stuck, Shaama M.S., Shane Yost, Joonho Lee, David Small,
  Daniel Levine, Susi Lehtola, Hugh Burton, Evgeny Epifanovsky
 -----------------------------------------------------------------------
 Exchange:     0.1670 Hartree-Fock + 1.0000 wB97X-V + LR-HF
 Correlation:  1.0000 wB97X-V
 Using Euler-Maclaurin-Lebedev (99,590) quadrature formula
 Nonlocal Correlation:  VV10 with C = 0.0100 and b = 6.00 and scale = 1.00000
 Grid used for NLC:  SG-1 standard quadrature
Energy prior to optimization (guess energy) = -271.520698504880
Begin Timing: Total SCF Calculation
begin iterations for algorithm: DIIS         
the SCF tolerance is set to 1.00e-08
    1    -271.5206985049      1.94e-03     00000 
    2    -271.5614164645      1.26e-03     00000 
    3    -271.5847139981      1.55e-04     00000 
    4    -271.5854194808      4.65e-05     00000 
    5    -271.5854699921      2.20e-05     00000 
    6    -271.5854778831      5.74e-06     00000 
    7    -271.5854786366      1.78e-06     00000 
    8    -271.5854786949      4.46e-07     00000 
    9    -271.5854787005      8.26e-08     00000 
   10    -271.5854787008      4.12e-08     00000 
   11    -271.5854787009      1.59e-08     00000 
   12    -271.5854787009      5.99e-09     00000 Convergence criterion met
Timing for Total SCF: 1360.00s (wall), 2704.84s (cpu)
(3)  G-ENP(liq) elect-nuc-pol free energy of system     -271.585478701 a.u.
(4)  G-CDS(liq) cavity-dispersion-solvent structure 
     free energy                                                3.1941 kcal/mol
(6)  G-S(liq) free energy of system                     -271.580388570 a.u.
E_pcm = -0.0076294550
E_cds = 0.0050901313
Multipole orders to be included
        2
        3
computing dipole RHS
computing quadrupole RHS
total number of RHS in solve_reponses: 8
RHS batch sizes
        8
Beginning Block Conjugate Gradient Iterations. Batch Number: 0
computing hessian-vector products by finite difference
              1      6.16e-01     00000 Conjugate Gradient Iteration
computing hessian-vector products by finite difference
              2      1.84e-01     00000 Conjugate Gradient Iteration
computing hessian-vector products by finite difference
              3      4.41e-02     00000 Conjugate Gradient Iteration
computing hessian-vector products by finite difference
              4      1.12e-02     00000 Conjugate Gradient Iteration
computing hessian-vector products by finite difference
              5      2.11e-03     00000 Conjugate Gradient Iteration
computing hessian-vector products by finite difference
              6      5.94e-04     00000 Conjugate Gradient Iteration
computing hessian-vector products by finite difference
              7      1.51e-04     00000 Conjugate Gradient Iteration
computing hessian-vector products by finite difference
              8      2.46e-05     00000 Conjugate Gradient Iteration
computing hessian-vector products by finite difference
              9      3.70e-06     00000 Conjugate Gradient Iteration
computing hessian-vector products by finite difference
             10      8.27e-07     00000 Conjugate Gradient Iteration
computing hessian-vector products by finite difference
             11      1.57e-07     00000 Conjugate Gradient Iteration
computing hessian-vector products by finite difference
             12      2.32e-08     00000 Conjugate Gradient Iteration
computing hessian-vector products by finite difference
             13      3.35e-09     00000 CG Converged
batch 0 complete
Done Calculating Responses
TESTING ORTHOGONALIZATION OF MULTIPOLE BASIS
Multipole virts passed orthogonality test
Virts Per Order
           75
          125
 
 --------------------------------------------------------------
 
                    Orbital Energies (a.u.)
 --------------------------------------------------------------
 
 Alpha MOs
 -- Occupied --
-10.2776 -10.2706 -10.2684 -10.2674 -10.2659 -10.2639 -10.2533  -0.9914
 -0.9015  -0.8736  -0.8066  -0.7249  -0.7006  -0.6232  -0.5676  -0.5617
 -0.5282  -0.5239  -0.5084  -0.4808  -0.4679  -0.4364  -0.4344  -0.3455
 -0.3343
 -- Virtual --
  0.0656   0.0683   0.0707   0.0843   0.0899   0.1095   0.1157   0.1183
  0.1410   0.1596   0.1710   0.1745   0.1919   0.1951   0.1997   0.2066
  0.2278   0.2302   0.2391   0.2441   0.2553   0.2644   0.2670   0.2758
  0.2862   0.2877   0.2891   0.2959   0.2980   0.3063   0.3078   0.3153
  0.3241   0.3295   0.3361   0.3412   0.3551   0.3577   0.3714   0.3777
  0.3820   0.3874   0.3890   0.3929   0.3956   0.4041   0.4071   0.4124
  0.4172   0.4336   0.4349   0.4394   0.4456   0.4518   0.4550   0.4569
  0.4678   0.4761   0.4798   0.4871   0.4957   0.5003   0.5172   0.5201
  0.5233   0.5280   0.5403   0.5439   0.5467   0.5515   0.5536   0.5724
  0.5867   0.5931   0.5971   0.6018   0.6042   0.6252   0.6440   0.6449
  0.6677   0.6787   0.6865   0.6893   0.6937   0.7024   0.7256   0.7261
  0.7327   0.7351   0.7492   0.7597   0.7668   0.7700   0.7801   0.7895
  0.7939   0.7970   0.8016   0.8074   0.8108   0.8255   0.8303   0.8360
  0.8382   0.8417   0.8490   0.8576   0.8633   0.8768   0.8935   0.8987
  0.9120   0.9228   0.9351   0.9501   0.9558   1.0123   1.0269   1.0434
  1.0482   1.0622   1.0743   1.0793   1.0915   1.0962   1.1056   1.1435
  1.1665   1.1824   1.2546   1.2783   1.2990   1.3258   1.3518   1.3575
  1.3786   1.4381   1.4527   1.4609   1.4678   1.4887   1.5276   1.5408
  1.6042   1.6066   1.6211   1.6291   1.6682   1.6777   1.7418   1.7813
  1.7955   1.8016   1.8043   1.8185   1.8350   1.8695   1.8921   1.9174
  1.9208   1.9306   1.9489   1.9668   1.9897   1.9981   2.0182   2.0270
  2.0318   2.0519   2.0747   2.0966   2.1194   2.1270   2.1773   2.1859
  2.2023   2.2425   2.2485   2.2740   2.2882   2.3141   2.3941   2.3974
  2.4052   2.4164   2.4908   2.5152   2.5387   2.5558   2.5638   2.6130
  2.6221   2.6311   2.6764   2.6794   2.7009   2.7186   2.7591   2.7684
  2.7866   2.8116   2.8225   2.8482   2.8670   2.9041   2.9114   2.9205
  2.9359   2.9461   2.9636   2.9770   2.9952   3.0210   3.0252   3.0523
  3.0688   3.0879   3.1081   3.1326   3.1830   3.1957   3.2075   3.2278
  3.2399   3.2447   3.2927   3.3055   3.3321   3.3590   3.3695   3.3774
  3.4032   3.4433   3.4482   3.4516   3.4650   3.4744   3.4937   3.4979
  3.5100   3.5337   3.5417   3.5454   3.5614   3.5678   3.5894   3.6066
  3.6225   3.6344   3.6558   3.6891   3.7096   3.7476   3.7800   3.8099
  3.8451   3.8999   3.9141   3.9533   3.9612   3.9929   4.0350   4.0530
  4.1223   4.2027   4.2713   4.2738   4.2958   4.3122   4.3236   4.3312
  4.3419   4.3641   4.3813   4.3978   4.4250   4.4417   4.4780   4.5248
  4.6059   4.6348   4.7446   4.7659   4.8242   4.8847   4.9081   4.9486
  5.0237   5.0468   5.1614   5.2706   5.3561   5.3703   5.5018   5.5354
  5.6662   5.8522  22.5896  22.6804  22.8796  22.8884  23.0028  23.0649
 23.4100
 --------------------------------------------------------------
 
          Ground-State Mulliken Net Atomic Charges

     Atom                 Charge (a.u.)
  ----------------------------------------
      1 C                    -1.084475
      2 C                    -0.565810
      3 C                    -0.562718
      4 C                    -0.560050
      5 C                    -0.388461
      6 C                    -0.433282
      7 C                     0.823666
      8 H                     0.404243
      9 H                     0.378003
     10 H                     0.381963
     11 H                     0.401597
     12 H                     0.379130
     13 H                     0.300706
     14 H                     0.279834
     15 H                     0.245654
  ----------------------------------------
  Sum of atomic charges =     0.000000

 -----------------------------------------------------------------
                    Cartesian Multipole Moments
 -----------------------------------------------------------------
    Charge (ESU x 10^10)
                -0.0000
    Dipole Moment (Debye)
         X       0.5257      Y       0.0985      Z       0.2015
       Tot       0.5715
    Quadrupole Moments (Debye-Ang)
        XX     -35.6268     XY       1.9824     YY     -44.0106
        XZ       1.9081     YZ      -3.7159     ZZ     -39.2413
    Octopole Moments (Debye-Ang^2)
       XXX    -293.6684    XXY      63.3849    XYY    -120.1496
       YYY     197.2083    XXZ       3.4459    XYZ     -10.2956
       YYZ       8.7560    XZZ    -104.3348    YZZ      59.1758
       ZZZ      -7.1738
    Hexadecapole Moments (Debye-Ang^3)
      XXXX   -2097.7018   XXXY     415.9103   XXYY    -514.3834
      XYYY     471.3577   YYYY    -744.3784   XXXZ     -77.6361
      XXYZ     -12.2427   XYYZ      -8.4826   YYYZ      21.5226
      XXZZ    -413.4456   XYZZ     138.8717   YYZZ    -160.4975
      XZZZ     -83.6229   YZZZ      33.7745   ZZZZ    -286.2606
 -----------------------------------------------------------------
Archival summary:
1\1\nid00566\SP\ProcedureUnspecified\BasisUnspecified\78\meili\SunSep2616:31:382021SunSep2616:31:382021\0\\#,ProcedureUnspecified,BasisUnspecified,\\0,1\C\C,1,1.39493\H,2,1.07798,1,119.954\C,2,1.39571,1,120.688,3,178.564,0\H,4,1.07416,2,117.896,1,179.421,0\C,4,1.39601,2,120.088,1,-0.180473,0\H,6,1.08142,4,120.285,2,179.451,0\C,1,1.3968,2,119.196,3,-178.216,0\H,8,1.07966,1,119.755,2,179.72,0\C,6,1.39834,4,119.637,2,-0.0379978,0\H,10,1.08134,6,119.959,4,-179.778,0\C,1,1.50124,2,120.312,3,2.2351,0\H,12,1.08863,1,107.701,2,-141.059,0\H,12,1.0919,1,109.622,2,-24.0684,0\H,12,1.1,1,114.071,2,99.5103,0\\\@

 Total job time:  29352.93s(wall), 58256.63s(cpu) 
 Sun Sep 26 16:31:42 2021

        *************************************************************
        *                                                           *
        *  Thank you very much for using Q-Chem.  Have a nice day.  *
        *                                                           *
        *************************************************************


Done Job For Fragment 0
calling putenv with: QCSCRATCH=/global/cscratch1/sd/meili 
calling putenv with: QCLOCALSCR=/tmp 
calling putenv with: QCTHREADS=32 
Creating input file /tmp/qchem27636/Frg2.input
using default PutDataFrgm: nothing
calling putenv with: QCSCRATCH=/tmp/qchem27636/ 
calling putenv with: QCLOCALSCR=/tmp/qchem27636/ 
Spawning Job For Fragment 1
                  Welcome to Q-Chem
     A Quantum Leap Into The Future Of Chemistry


 Q-Chem 5.2, Q-Chem, Inc., Pleasanton, CA (2019)

 License issued to: National Energy Research Scientific Computing Center

 Yihan Shao,  Zhengting Gan,  E. Epifanovsky,  A. T. B. Gilbert,  M. Wormit,  
 J. Kussmann,  A. W. Lange,  A. Behn,  Jia Deng,  Xintian Feng,  D. Ghosh,  
 M. Goldey,  P. R. Horn,  L. D. Jacobson,  I. Kaliman,  T. Kus,  A. Landau,  
 Jie Liu,  E. I. Proynov,  R. M. Richard,  R. P. Steele,  E. J. Sundstrom,  
 H. L. Woodcock III,  P. M. Zimmerman,  D. Zuev,  B. Albrecht,  E. Alguire,  
 S. A. Baeppler,  D. Barton,  Z. Benda,  Y. A. Bernard,  E. J. Berquist,  
 K. B. Bravaya,  H. Burton,  D. Casanova,  Chun-Min Chang,  Yunqing Chen,  
 A. Chien,  K. D. Closser,  M. P. Coons,  S. Coriani,  S. Dasgupta,  
 A. L. Dempwolff,  M. Diedenhofen,  Hainam Do,  R. G. Edgar,  Po-Tung Fang,  
 S. Faraji,  S. Fatehi,  Qingguo Feng,  K. D. Fenk,  J. Fosso-Tande,  
 J. Gayvert,  Qinghui Ge,  A. Ghysels,  G. Gidofalvi,  J. Gomes,  
 J. Gonthier,  A. Gunina,  D. Hait,  M. W. D. Hanson-Heine,  
 P. H. P. Harbach,  A. W. Hauser,  M. F. Herbst,  J. E. Herr,  
 E. G. Hohenstein,  Z. C. Holden,  Kerwin Hui,  B. C. Huynh,  T.-C. Jagau,  
 Hyunjun Ji,  B. Kaduk,  K. Khistyaev,  Jaehoon Kim,  P. Klunzinger,  K. Koh,  
 D. Kosenkov,  L. Koulias,  T. Kowalczyk,  C. M. Krauter,  A. Kunitsa,  
 Ka Un Lao,  A. Laurent,  K. V. Lawler,  Joonho Lee,  D. Lefrancois,  
 S. Lehtola,  D. S. Levine,  Yi-Pei Li,  You-Sheng Lin,  Fenglai Liu,  
 E. Livshits,  A. Luenser,  P. Manohar,  E. Mansoor,  S. F. Manzer,  
 Shan-Ping Mao,  Yuezhi Mao,  N. Mardirossian,  A. V. Marenich,  
 T. Markovich,  L. A. Martinez-Martinez,  S. A. Maurer,  N. J. Mayhall,  
 S. C. McKenzie,  J.-M. Mewes,  P. Morgante,  A. F. Morrison,  
 J. W. Mullinax,  K. Nanda,  T. S. Nguyen-Beck,  R. Olivares-Amaya,  
 J. A. Parkhill,  Zheng Pei,  T. M. Perrine,  F. Plasser,  P. Pokhilko,  
 S. Prager,  A. Prociuk,  E. Ramos,  D. R. Rehn,  F. Rob,  M. Scheurer,  
 M. Schneider,  N. Sergueev,  S. M. Sharada,  S. Sharma,  D. W. Small,  
 T. Stauch,  T. Stein,  Yu-Chuan Su,  A. J. W. Thom,  A. Tkatchenko,  
 T. Tsuchimochi,  N. M. Tubman,  L. Vogt,  M. L. Vidal,  O. Vydrov,  
 M. A. Watson,  J. Wenzel,  M. de Wergifosse,  T. A. Wesolowski,  A. White,  
 J. Witte,  A. Yamada,  Jun Yang,  K. Yao,  S. Yeganeh,  S. R. Yost,  
 Zhi-Qiang You,  A. Zech,  Igor Ying Zhang,  Xing Zhang,  Yan Zhao,  
 Ying Zhu,  B. R. Brooks,  G. K. L. Chan,  C. J. Cramer,  M. S. Gordon,  
 W. J. Hehre,  A. Klamt,  M. W. Schmidt,  C. D. Sherrill,  D. G. Truhlar,  
 A. Aspuru-Guzik,  R. Baer,  A. T. Bell,  N. A. Besley,  Jeng-Da Chai,  
 A. E. DePrince, III,  R. A. DiStasio Jr.,  A. Dreuw,  B. D. Dunietz,  
 T. R. Furlani,  Chao-Ping Hsu,  Yousung Jung,  Jing Kong,  D. S. Lambrecht,  
 WanZhen Liang,  C. Ochsenfeld,  V. A. Rassolov,  L. V. Slipchenko,  
 J. E. Subotnik,  T. Van Voorhis,  J. M. Herbert,  A. I. Krylov,  
 P. M. W. Gill,  M. Head-Gordon

 Contributors to earlier versions of Q-Chem not listed above: 
 R. D. Adamson,  B. Austin,  J. Baker,  G. J. O. Beran,  K. Brandhorst,  
 S. T. Brown,  E. F. C. Byrd,  A. K. Chakraborty,  C.-L. Cheng,  
 Siu Hung Chien,  D. M. Chipman,  D. L. Crittenden,  H. Dachsel,  
 R. J. Doerksen,  A. D. Dutoi,  L. Fusti-Molnar,  W. A. Goddard III,  
 A. Golubeva-Zadorozhnaya,  S. R. Gwaltney,  G. Hawkins,  A. Heyden,  
 S. Hirata,  G. Kedziora,  F. J. Keil,  C. Kelley,  Jihan Kim,  R. A. King,  
 R. Z. Khaliullin,  P. P. Korambath,  W. Kurlancheek,  A. M. Lee,  M. S. Lee,  
 S. V. Levchenko,  Ching Yeh Lin,  D. Liotard,  R. C. Lochan,  I. Lotan,  
 P. E. Maslen,  N. Nair,  D. P. O'Neill,  D. Neuhauser,  E. Neuscamman,  
 C. M. Oana,  R. Olson,  B. Peters,  R. Peverati,  P. A. Pieniazek,  
 Y. M. Rhee,  J. Ritchie,  M. A. Rohrdanz,  E. Rosta,  N. J. Russ,  
 H. F. Schaefer III,  N. E. Schultz,  N. Shenvi,  A. C. Simmonett,  A. Sodt,  
 D. Stuck,  K. S. Thanthiriwatte,  V. Vanovschi,  Tao Wang,  A. Warshel,  
 C. F. Williams,  Q. Wu,  X. Xu,  W. Zhang

 Please cite Q-Chem as follows:
 Y. Shao et al., Mol. Phys. 113, 184-215 (2015)
 DOI: 10.1080/00268976.2014.952696

 Q-Chem 5.2.0 for Intel X86 EM64T Linux

 Parts of Q-Chem use Armadillo 8.300.2 (Tropical Shenanigans).
 http://arma.sourceforge.net/

 Q-Chem begins on Sun Sep 26 16:31:48 2021  

Host: cori01
0

     Scratch files written to /tmp/qchem27636//Frg2//
 May1019 |scratch|qcdevops|jenkins|workspace|build_RNUM -1
Processing $rem in /global/common/cori/software/qchem/5.2/config/preferences:
	 MEM_TOTAL  96000 
NAlpha2: 50
NElect   50
Mult     1
Symmetry turned off for PCM/SM12/SMD calculation

Checking the input file for inconsistencies... 	...done.

--------------------------------------------------------------
User input:
--------------------------------------------------------------
$molecule
0 1
 6	-4.6297926567	0.1163959583	-0.0170755331
 6	-2.1337926567	0.3823959583	-0.3150755331
 6	-3.3697926567	0.9503959583	-0.0050755331
 6	-0.9857926567	1.1773959583	-0.3710755331
 6	-1.0647926567	2.5503959583	-0.1140755331
 6	-3.4377926567	2.3203959583	0.2589244669
 6	-2.2967926567	3.1203959583	0.2019244669
 1	-2.0637926567	-0.6746040417	-0.5260755331
 1	-0.0307926567	0.7413959583	-0.6170755331
 1	-4.5237926567	-0.6726040417	-0.7620755331
 1	-5.4547926567	0.7543959583	-0.3390755331
 1	-0.1767926567	3.1673959583	-0.1650755331
 1	-4.3877926567	2.7703959583	0.5109244669
 1	-2.3787926567	4.1843959583	0.3699244669
 1	-4.8907826567	-0.3453630417	0.9465949669
$end
$rem
EDA2		1
METHOD		WB97X-V
BASIS		DEF2-TZVPD
XC_GRID		000099000590
NL_GRID		1
UNRESTRICTED		FALSE
MAX_SCF_CYCLES		200
SYMMETRY		FALSE
SYM_IGNORE		TRUE
BASIS_LIN_DEP_THRESH		6
THRESH		14
SCF_CONVERGENCE		8
SCF_PRINT_FRGM		TRUE
SOLVENT_METHOD		SMD
!required keywords
JOBTYPE		SP
SYM_IGNORE		TRUE
SUBSYSTEM		TRUE
GEN_SCFMAN		TRUE
CHILD_INSTRUCTION		2
SYM_IGNORE		TRUE
SCFMI		0
RI_K 0		
PARI_K 0		
MIN_PARI_K 0		
IARI_K 0		
OCC_RI_K 0		
PURECART		1111
MEM_STATIC		2000
MEM_TOTAL		96000
GUI		0
CHILD_MP		1
CHILD_MP_ORDERS		232
FRZ_RELAX		0
FRZ_RELAX_METHOD		0
EDA_CLS_ELEC		1
EDA_CLS_DISP		0
FRZ_ORTHO_DECOMP		1
EDA2		FALSE
FRGM_METHOD		FALSE
CIS_N_ROOTS  0
LOCAL_CIS    0
CIS_RLX_DNS  1
$end
$smx
SOLVENT			WATER
$end
--------------------------------------------------------------
 ----------------------------------------------------------------
             Standard Nuclear Orientation (Angstroms)
    I     Atom           X                Y                Z
 ----------------------------------------------------------------
    1      C      -4.6297926567     0.1163959583    -0.0170755331
    2      C      -2.1337926567     0.3823959583    -0.3150755331
    3      C      -3.3697926567     0.9503959583    -0.0050755331
    4      C      -0.9857926567     1.1773959583    -0.3710755331
    5      C      -1.0647926567     2.5503959583    -0.1140755331
    6      C      -3.4377926567     2.3203959583     0.2589244669
    7      C      -2.2967926567     3.1203959583     0.2019244669
    8      H      -2.0637926567    -0.6746040417    -0.5260755331
    9      H      -0.0307926567     0.7413959583    -0.6170755331
   10      H      -4.5237926567    -0.6726040417    -0.7620755331
   11      H      -5.4547926567     0.7543959583    -0.3390755331
   12      H      -0.1767926567     3.1673959583    -0.1650755331
   13      H      -4.3877926567     2.7703959583     0.5109244669
   14      H      -2.3787926567     4.1843959583     0.3699244669
   15      H      -4.8907826567    -0.3453630417     0.9465949669
 ----------------------------------------------------------------
 Nuclear Repulsion Energy =         269.21834637 hartrees
 There are       25 alpha and       25 beta electrons
 Requested basis set is def2-TZVPD
 There are 131 shells and 331 basis functions

 Total QAlloc Memory Limit  96000 MB
 Mega-Array Size      1956 MB
 MEM_STATIC part      2000 MB
 
 Citation of the SMD model:
 Marenich, A.V.; Cramer, C.J.; Truhlar, D.G.
 J. Phys. Chem. B 2009, 113, 6378-6396.
 iSolventCode=           1
 Solvent: water                                                           
 
 vradii
            1           2           3           4           5           6
    1   1.8500000   1.8500000   1.8500000   1.8500000   1.8500000   1.8500000
            7           8           9          10          11          12
    1   1.8500000   1.2000000   1.2000000   1.2000000   1.2000000   1.2000000
           13          14          15
    1   1.2000000   1.2000000   1.2000000
 Changing PCM_VDW_RADII to SMD_RADIUS
 Discretize the solute cavity surface with Lebedev spheres
	Using 110 Lebedev grid points for each H atom
	Using 194 Lebedev grid points for other atoms
	Atomic van der Waals radii will be scaled by 1.20
 Remove points where switching function is < 1.0e-08
 Keep 1069 surface tesserae and discard 1169 interior tesserae
 Molecular Surface Area = 132.534 Angst**2

                       Distance Matrix (Angstroms)
             C (  1)   C (  2)   C (  3)   C (  4)   C (  5)   C (  6)
   C (  2)  2.527761
   C (  3)  1.511059  1.395142
   C (  4)  3.811794  1.397521  2.422590
   C (  5)  4.317753  2.425569  2.808007  1.399078
   C (  6)  2.520844  2.405356  1.396861  2.777706  2.413122
   C (  7)  3.809838  2.791147  2.429625  2.412944  1.393765  1.394679
   H (  8)  2.732969  1.080125  2.148884  2.148491  3.401231  3.387348
   H (  9)  4.679896  2.154691  3.401051  1.078256  2.143513  3.855939
   H ( 10)  1.090313  2.650459  2.130468  4.011586  4.772035  3.343634
   H ( 11)  1.091491  3.341856  2.120660  4.489088  4.748509  2.622642
   H ( 12)  5.399974  3.407136  3.890493  2.158012  1.082513  3.395778
   H ( 13)  2.716811  3.386050  2.148250  3.858650  3.388415  1.080974
   H ( 14)  4.665340  3.870976  3.403155  3.395818  2.151931  2.146695
   H ( 15)  1.099999  3.118083  2.213160  4.393631  4.914127  3.112931
             C (  7)   H (  8)   H (  9)   H ( 10)   H ( 11)   H ( 12)
   H (  8)  3.871214
   H (  9)  3.386024  2.479199
   H ( 10)  4.502852  2.471295  4.712480
   H ( 11)  3.982914  3.684548  5.431135  1.755568
   H ( 12)  2.152045  4.295585  2.472063  5.830816  5.806042
   H ( 13)  2.142490  4.283033  4.936869  3.673319  2.434183  4.283352
   H ( 14)  1.080298  4.950952  4.282700  5.428895  4.661476  2.483811
   H ( 15)  4.392585  3.204533  5.219733  1.778011  1.783403  5.983058
             H ( 13)   H ( 14)
   H ( 14)  2.460764
   H ( 15)  3.186026  5.211656
 
 A cutoff of  1.0D-14 yielded   8359 shell pairs
 There are     54493 function pairs (     69442 Cartesian)
 Smallest overlap matrix eigenvalue = 5.79E-07
 Linear dependence detected in AO basis
 Tighter screening thresholds may be required for diffuse basis sets
 Use S2THRESH > 14 and THRESH = 14 in case of SCF convergence issues
 Number of orthogonalized atomic orbitals = 330
 Maximum deviation from orthogonality = 1.688E-10

 Scale SEOQF with 1.000000e-02/1.000000e-01/1.000000e-01

 Standard Electronic Orientation quadrupole field applied
 Nucleus-field energy     =     0.0000000140 hartrees
 Guess from superposition of atomic densities
 Warning:  Energy on first SCF cycle will be non-variational
 SAD guess density has 49.913408 electrons

 -----------------------------------------------------------------------
  General SCF calculation program by
  Eric Jon Sundstrom, Paul Horn, Yuezhi Mao, Dmitri Zuev, Alec White,
  David Stuck, Shaama M.S., Shane Yost, Joonho Lee, David Small,
  Daniel Levine, Susi Lehtola, Hugh Burton, Evgeny Epifanovsky
 -----------------------------------------------------------------------
 Exchange:     0.1670 Hartree-Fock + 1.0000 wB97X-V + LR-HF
 Correlation:  1.0000 wB97X-V
 Using Euler-Maclaurin-Lebedev (99,590) quadrature formula
 Nonlocal Correlation:  VV10 with C = 0.0100 and b = 6.00 and scale = 1.00000
 Grid used for NLC:  SG-1 standard quadrature
Energy prior to optimization (guess energy) = -271.520918204350
Begin Timing: Total SCF Calculation
begin iterations for algorithm: DIIS         
the SCF tolerance is set to 1.00e-08
    1    -271.5209182043      1.94e-03     00000 
    2    -271.5614707113      1.26e-03     00000 
    3    -271.5846941529      1.55e-04     00000 
    4    -271.5853955897      4.51e-05     00000 
    5    -271.5854453154      2.04e-05     00000 
    6    -271.5854523256      5.26e-06     00000 
    7    -271.5854530164      1.04e-06     00000 
    8    -271.5854530417      4.52e-07     00000 
    9    -271.5854530459      8.32e-08     00000 
   10    -271.5854530461      2.89e-08     00000 
   11    -271.5854530461      1.09e-08     00000 
   12    -271.5854530461      4.78e-09     00000 Convergence criterion met
Timing for Total SCF: 1385.00s (wall), 2754.59s (cpu)
(3)  G-ENP(liq) elect-nuc-pol free energy of system     -271.585453046 a.u.
(4)  G-CDS(liq) cavity-dispersion-solvent structure 
     free energy                                                3.1978 kcal/mol
(6)  G-S(liq) free energy of system                     -271.580356972 a.u.
E_pcm = -0.0075491111
E_cds = 0.0050960739
Multipole orders to be included
        2
        3
computing dipole RHS
computing quadrupole RHS
total number of RHS in solve_reponses: 8
RHS batch sizes
        8
Beginning Block Conjugate Gradient Iterations. Batch Number: 0
computing hessian-vector products by finite difference
              1      6.30e-01     00000 Conjugate Gradient Iteration
computing hessian-vector products by finite difference
              2      1.95e-01     00000 Conjugate Gradient Iteration
computing hessian-vector products by finite difference
              3      4.67e-02     00000 Conjugate Gradient Iteration
computing hessian-vector products by finite difference
              4      1.17e-02     00000 Conjugate Gradient Iteration
computing hessian-vector products by finite difference
              5      2.32e-03     00000 Conjugate Gradient Iteration
computing hessian-vector products by finite difference
              6      6.25e-04     00000 Conjugate Gradient Iteration
computing hessian-vector products by finite difference
              7      1.78e-04     00000 Conjugate Gradient Iteration
computing hessian-vector products by finite difference
              8      2.94e-05     00000 Conjugate Gradient Iteration
computing hessian-vector products by finite difference
              9      3.71e-06     00000 Conjugate Gradient Iteration
computing hessian-vector products by finite difference
             10      5.77e-07     00000 Conjugate Gradient Iteration
computing hessian-vector products by finite difference
             11      1.14e-07     00000 Conjugate Gradient Iteration
computing hessian-vector products by finite difference
             12      1.97e-08     00000 Conjugate Gradient Iteration
computing hessian-vector products by finite difference
             13      3.17e-09     00000 CG Converged
batch 0 complete
Done Calculating Responses
TESTING ORTHOGONALIZATION OF MULTIPOLE BASIS
Multipole virts passed orthogonality test
Virts Per Order
           75
          125
 
 --------------------------------------------------------------
 
                    Orbital Energies (a.u.)
 --------------------------------------------------------------
 
 Alpha MOs
 -- Occupied --
-10.2787 -10.2694 -10.2687 -10.2667 -10.2657 -10.2649 -10.2544  -0.9916
 -0.9005  -0.8737  -0.8067  -0.7248  -0.7003  -0.6235  -0.5674  -0.5611
 -0.5278  -0.5235  -0.5080  -0.4796  -0.4687  -0.4355  -0.4349  -0.3459
 -0.3347
 -- Virtual --
  0.0665   0.0684   0.0704   0.0844   0.0899   0.1095   0.1159   0.1184
  0.1408   0.1594   0.1721   0.1726   0.1937   0.1940   0.2006   0.2066
  0.2270   0.2279   0.2395   0.2429   0.2576   0.2649   0.2666   0.2767
  0.2844   0.2868   0.2899   0.2977   0.2989   0.3061   0.3069   0.3132
  0.3223   0.3299   0.3374   0.3388   0.3548   0.3561   0.3690   0.3796
  0.3855   0.3856   0.3881   0.3933   0.3944   0.4057   0.4089   0.4132
  0.4159   0.4332   0.4342   0.4407   0.4463   0.4507   0.4522   0.4578
  0.4677   0.4714   0.4759   0.4863   0.4997   0.5002   0.5149   0.5217
  0.5232   0.5286   0.5355   0.5435   0.5490   0.5531   0.5571   0.5670
  0.5888   0.5919   0.5971   0.6056   0.6117   0.6259   0.6454   0.6478
  0.6596   0.6780   0.6847   0.6889   0.6927   0.6953   0.7261   0.7279
  0.7341   0.7398   0.7480   0.7613   0.7682   0.7695   0.7847   0.7931
  0.7937   0.7972   0.7988   0.8085   0.8117   0.8263   0.8293   0.8378
  0.8395   0.8420   0.8451   0.8560   0.8600   0.8804   0.8890   0.9002
  0.9092   0.9111   0.9390   0.9436   0.9559   1.0167   1.0229   1.0405
  1.0481   1.0637   1.0748   1.0858   1.0916   1.1021   1.1046   1.1408
  1.1652   1.1846   1.2507   1.2786   1.2984   1.3278   1.3501   1.3556
  1.3818   1.4374   1.4520   1.4617   1.4673   1.4853   1.5256   1.5408
  1.6023   1.6052   1.6201   1.6280   1.6679   1.6814   1.7412   1.7862
  1.7976   1.8010   1.8033   1.8219   1.8302   1.8728   1.8951   1.9157
  1.9226   1.9271   1.9583   1.9607   1.9853   1.9972   2.0201   2.0267
  2.0348   2.0536   2.0728   2.1011   2.1204   2.1270   2.1738   2.1783
  2.2021   2.2353   2.2403   2.2756   2.2928   2.3143   2.3951   2.4037
  2.4045   2.4064   2.4877   2.5077   2.5335   2.5563   2.5674   2.6128
  2.6231   2.6297   2.6755   2.6792   2.6975   2.7064   2.7571   2.7737
  2.7831   2.8090   2.8260   2.8502   2.8589   2.9035   2.9054   2.9178
  2.9421   2.9440   2.9582   2.9789   2.9908   3.0196   3.0256   3.0517
  3.0669   3.0916   3.1042   3.1160   3.1866   3.1997   3.2088   3.2254
  3.2278   3.2437   3.2936   3.3072   3.3251   3.3570   3.3661   3.3792
  3.4054   3.4438   3.4539   3.4572   3.4647   3.4761   3.4940   3.5003
  3.5084   3.5317   3.5413   3.5453   3.5609   3.5639   3.5948   3.6136
  3.6145   3.6375   3.6461   3.6906   3.6997   3.7543   3.7827   3.8173
  3.8355   3.8843   3.9142   3.9408   3.9488   3.9993   4.0358   4.0537
  4.1197   4.1971   4.2695   4.2785   4.2887   4.3187   4.3208   4.3346
  4.3480   4.3698   4.3891   4.3938   4.4227   4.4469   4.4687   4.5258
  4.5909   4.6382   4.7334   4.7554   4.8300   4.8828   4.9077   4.9441
  5.0189   5.0462   5.1662   5.2606   5.3578   5.3743   5.4964   5.5274
  5.6689   5.8495  22.5816  22.6615  22.8832  22.8895  23.0035  23.0601
 23.4052
 --------------------------------------------------------------
 
          Ground-State Mulliken Net Atomic Charges

     Atom                 Charge (a.u.)
  ----------------------------------------
      1 C                    -1.088680
      2 C                    -0.420693
      3 C                     0.812168
      4 C                    -0.551053
      5 C                    -0.562604
      6 C                    -0.392721
      7 C                    -0.562845
      8 H                     0.396449
      9 H                     0.378350
     10 H                     0.292961
     11 H                     0.289395
     12 H                     0.396382
     13 H                     0.390539
     14 H                     0.375002
     15 H                     0.247349
  ----------------------------------------
  Sum of atomic charges =     0.000000

 -----------------------------------------------------------------
                    Cartesian Multipole Moments
 -----------------------------------------------------------------
    Charge (ESU x 10^10)
                 0.0000
    Dipole Moment (Debye)
         X      -0.4676      Y      -0.2785      Z      -0.0858
       Tot       0.5510
    Quadrupole Moments (Debye-Ang)
        XX     -35.1749     XY       0.4671     YY     -38.4636
        XZ      -1.2341     YZ       1.3451     ZZ     -46.0412
    Octopole Moments (Debye-Ang^2)
       XXX     290.4351    XXY     -54.5316    XYY     102.3132
       YYY    -165.7531    XXZ       7.5053    XYZ      -5.1142
       YYZ       6.7441    XZZ     117.7860    YZZ     -70.8606
       ZZZ       8.0335
    Hexadecapole Moments (Debye-Ang^3)
      XXXX   -2052.0812   XXXY     351.7438   XXYY    -494.5418
      XYYY     366.8377   YYYY    -851.3490   XXXZ     -19.1011
      XXYZ      12.3819   XYYZ     -15.1542   YYYZ       9.9963
      XXZZ    -404.7997   XYZZ     155.6533   YYZZ    -191.5858
      XZZZ       2.2780   YZZZ     -11.3475   ZZZZ     -79.9277
 -----------------------------------------------------------------
Archival summary:
1\1\nid00566\SP\ProcedureUnspecified\BasisUnspecified\78\meili\MonSep2700:20:042021MonSep2700:20:042021\0\\#,ProcedureUnspecified,BasisUnspecified,\\0,1\C\C,1,1.39514\H,2,1.08012,1,119.949\C,1,1.39686,2,118.975,3,-179.738,0\H,4,1.08097,1,119.678,2,-179.334,0\C,4,1.39468,1,120.999,2,0.703066,0\H,6,1.0803,4,119.769,1,177.498,0\C,6,1.39376,4,119.857,1,-0.418436,0\H,8,1.08251,6,120.178,4,179.665,0\C,2,1.39752,1,120.335,3,179.184,0\H,10,1.07826,2,120.442,1,-179.582,0\C,1,1.51106,2,120.815,3,-2.62654,0\H,12,1.09031,1,108.891,2,-30.7366,0\H,12,1.09149,1,108.059,2,-146.802,0\H,12,1.1,1,114.997,2,91.2872,0\\\@

 Total job time:  28100.97s(wall), 55840.07s(cpu) 
 Mon Sep 27 00:20:09 2021

        *************************************************************
        *                                                           *
        *  Thank you very much for using Q-Chem.  Have a nice day.  *
        *                                                           *
        *************************************************************


Done Job For Fragment 1
calling putenv with: QCSCRATCH=/global/cscratch1/sd/meili 
calling putenv with: QCLOCALSCR=/tmp 
calling putenv with: QCTHREADS=32 
Doing General SCFMI
 Exchange:     0.1670 Hartree-Fock + 1.0000 wB97X-V + LR-HF
 Correlation:  1.0000 wB97X-V
 Using Euler-Maclaurin-Lebedev (99,590) quadrature formula
 Nonlocal Correlation:  VV10 with C = 0.0100 and b = 6.00 and scale = 1.00000
 Grid used for NLC:  SG-1 standard quadrature
performing fock build before subrot guess so that all methods have access
Printing subrot_rss_gen Method Specification:
Occupied Subspace Method is 0
Virtual Subspace Method is 0
Energy of the unrelaxed supersystem initial determinant -543.156259524653
performing fock build before subrot guess so that all methods have access
Printing subrot_rss_gen Method Specification:
Occupied Subspace Method is 0
Virtual Subspace Method is 0
Energy of the unrelaxed supersystem initial determinant w/ solvent -543.171385516845
write pseudocanon occs and virts to disk
write pseudocanon orbital energies to disk
Tolerance of ortho_decomp_scf: 1.00e-06
GDM subspace size: 20
Beginning the Orthogonal Decomposition of the Initial Supersystem Wavefunction
    1    -543.1396907819      1.95e-02     ortho_decomp Preconditoned Steepest Descent
    2    -543.1413517723      4.94e-04     ortho_decomp BFGS Step
    3    -543.1413571763      3.99e-05     ortho_decomp BFGS Step
    4    -543.1413571890      1.80e-06     ortho_decomp BFGS Step
    5    -543.1413571890      7.34e-08     ortho_decomp 00000 Convergence criterion met
 Hartree-Fock
 Hartree-Fock
 Hartree-Fock
Doing General SCFMI
 Exchange:     0.1670 Hartree-Fock + 1.0000 wB97X-V + LR-HF
 Correlation:  1.0000 wB97X-V
 Using Euler-Maclaurin-Lebedev (99,590) quadrature formula
 Nonlocal Correlation:  VV10 with C = 0.0100 and b = 6.00 and scale = 1.00000
 Grid used for NLC:  SG-1 standard quadrature
performing fock build at end of subrot_r(subrot) constructor so that all methods have access
<S^2> of initial wavefunction before polarization iterations 0.0000000000
Beginning iterations for the determination of the polarized wavefunction
Energy prior to optimization (guess energy) = -543.171385516845
Begin Timing: Total SCF Calculation
begin iterations for algorithm: DIIS         
the SCF tolerance is set to 1.00e-08
    1    -543.1713855168      3.85e-05     00000 
    2    -543.1715227684      1.58e-05     00000 
    3    -543.1715378774      8.80e-06     00000 
    4    -543.1715431712      2.12e-06     00000 
    5    -543.1715436275      1.11e-06     00000 
    6    -543.1715437375      4.25e-07     00000 
    7    -543.1715437514      1.96e-07     00000 
    8    -543.1715437535      9.61e-08     00000 
    9    -543.1715437539      3.93e-08     00000 
   10    -543.1715437539      1.72e-08     00000 
   11    -543.1715437539      6.91e-09     00000 Convergence criterion met
write pseudocanon occs and virts to disk
write pseudocanon orbital energies to disk
Timing for Total SCF: 8507.00s (wall), 16940.21s (cpu)
<S^2> of polarized wavefunction after polarization iterations 0.0000000000
relaxing scfmi constraint to allow all rotations in the entire AO span
Doing General SCFMI
 Exchange:     0.1670 Hartree-Fock + 1.0000 wB97X-V + LR-HF
 Correlation:  1.0000 wB97X-V
 Using Euler-Maclaurin-Lebedev (99,590) quadrature formula
 Nonlocal Correlation:  VV10 with C = 0.0100 and b = 6.00 and scale = 1.00000
 Grid used for NLC:  SG-1 standard quadrature
performing fock build at end of subrot_r(subrot) constructor so that all methods have access
<S^2> of polarized wavefunction before ct-allowed iterations 0.0000000000
Beginning iterations for the determination of the CT-Allowed wavefunction
Energy prior to optimization (guess energy) = -543.171543753937
Begin Timing: Total SCF Calculation
begin iterations for algorithm: DIIS         
the SCF tolerance is set to 1.00e-08
    1    -543.1715437539      6.07e-05     00000 
    2    -543.1724499944      7.09e-06     00000 
    3    -543.1724796158      1.18e-06     00000 
    4    -543.1724805453      5.72e-07     00000 
    5    -543.1724806303      1.52e-07     00000 
    6    -543.1724806425      4.10e-08     00000 
    7    -543.1724806433      1.72e-08     00000 
    8    -543.1724806435      5.50e-09     00000 Convergence criterion met
write pseudocanon occs and virts to disk
write pseudocanon orbital energies to disk
Timing for Total SCF: 5991.00s (wall), 11914.62s (cpu)
<S^2> of ct_allowed wavefunction after ct-allowed iterations 0.0000000000

================================
        Results of EDA2         
================================
Basic EDA Quantities
--------------------
Fragment Energies (Ha):
1 -271.5803885696
2 -271.5803569722
--------------------
  E_prp (kJ/mol) = -0.0000
  E_sol (kJ/mol) = -1.3772
  E_frz (kJ/mol) = -1.3294
  E_pol (kJ/mol) = -0.4155
  E_vct (kJ/mol) = -2.4598
  E_int (kJ/mol) = -5.5819
--------------------


Initial Wavefunction Decomposition
--------------------
  --------------------
  Orthogonal Fragment Subspace Decomposition:
  --------------------
     E_elec   (ELEC)   (kJ/mol) = -17.5213
     E_pauli  (PAULI)  (kJ/mol) = 29.6452
     E_disp   (DISP)   (kJ/mol) = -13.4533
     --------------------
     Terms summing to E_pauli:
     --------------------
        E_kep_pauli       (kJ/mol) = 37.7971
        E_disp_free_pauli (kJ/mol) = -8.1519
  --------------------
  Classical Frozen Decomposition:
  --------------------
     E_cls_elec  (CLS ELEC)  (kJ/mol) = -6.6210
     E_cls_pauli (CLS PAULI) (kJ/mol) = 5.2916
    [E_mod_pauli (MOD PAULI) (kJ/mol) = 18.7448 (CLS PAULI - DISP from orthogonal decomposition) ]
  --------------------
--------------------

Simplified EDA Summary (kJ/mol)
--------------------
 PREPARATION     -0.0000
 SOLVATION       -1.3772
 FROZEN          12.1238      (does not include dispersion)
[PAULI           29.6452]     (if this is negligible, then frozen describes electrostatics)
 DISPERSION      -13.4533
 POLARIZATION    -0.4155
 CHARGE TRANSFER -2.4598
 TOTAL           -5.5819     (PRP + SOL + FRZ + DISP + POL + CT)
--------------------
 
 --------------------------------------------------------------
 
                    Orbital Energies (a.u.)
 --------------------------------------------------------------
 
 Alpha MOs
 -- Occupied --
-10.2785 -10.2776 -10.2704 -10.2684 -10.2684 -10.2677 -10.2671 -10.2663
-10.2661 -10.2652 -10.2646 -10.2640 -10.2543 -10.2533  -0.9918  -0.9909
 -0.9018  -0.9001  -0.8740  -0.8729  -0.8069  -0.8063  -0.7260  -0.7236
 -0.7016  -0.6991  -0.6262  -0.6205  -0.5683  -0.5670  -0.5624  -0.5601
 -0.5288  -0.5276  -0.5249  -0.5235  -0.5081  -0.5068  -0.4808  -0.4795
 -0.4691  -0.4670  -0.4370  -0.4358  -0.4345  -0.4324  -0.3467  -0.3445
 -0.3345  -0.3333
 -- Virtual --
  0.0609   0.0637   0.0659   0.0686   0.0717   0.0738   0.0825   0.0878
  0.0915   0.1043   0.1080   0.1097   0.1170   0.1177   0.1302   0.1371
  0.1434   0.1552   0.1597   0.1639   0.1708   0.1728   0.1774   0.1816
  0.1911   0.1941   0.2022   0.2044   0.2107   0.2146   0.2199   0.2217
  0.2261   0.2316   0.2387   0.2422   0.2485   0.2511   0.2534   0.2592
  0.2627   0.2643   0.2704   0.2714   0.2750   0.2760   0.2801   0.2823
  0.2855   0.2885   0.2922   0.2965   0.3018   0.3042   0.3061   0.3147
  0.3158   0.3175   0.3214   0.3223   0.3291   0.3313   0.3364   0.3391
  0.3421   0.3464   0.3494   0.3507   0.3548   0.3565   0.3617   0.3647
  0.3654   0.3714   0.3741   0.3780   0.3822   0.3845   0.3863   0.3869
  0.3909   0.3936   0.3985   0.4012   0.4033   0.4057   0.4100   0.4117
  0.4139   0.4180   0.4207   0.4252   0.4309   0.4351   0.4380   0.4409
  0.4426   0.4459   0.4472   0.4529   0.4563   0.4575   0.4611   0.4657
  0.4687   0.4705   0.4710   0.4771   0.4810   0.4856   0.4898   0.4912
  0.4964   0.4982   0.5045   0.5084   0.5090   0.5101   0.5125   0.5179
  0.5207   0.5258   0.5311   0.5326   0.5361   0.5395   0.5435   0.5473
  0.5509   0.5554   0.5581   0.5670   0.5706   0.5736   0.5779   0.5794
  0.5825   0.5911   0.5974   0.5997   0.6031   0.6086   0.6138   0.6188
  0.6224   0.6271   0.6392   0.6412   0.6470   0.6515   0.6549   0.6612
  0.6656   0.6702   0.6724   0.6817   0.6855   0.6896   0.6949   0.6960
  0.7022   0.7087   0.7094   0.7164   0.7222   0.7265   0.7325   0.7361
  0.7399   0.7466   0.7493   0.7523   0.7578   0.7596   0.7650   0.7664
  0.7691   0.7734   0.7767   0.7800   0.7813   0.7827   0.7889   0.7947
  0.7970   0.7988   0.8045   0.8059   0.8086   0.8129   0.8154   0.8214
  0.8232   0.8262   0.8283   0.8352   0.8377   0.8398   0.8421   0.8451
  0.8514   0.8571   0.8586   0.8630   0.8690   0.8711   0.8733   0.8785
  0.8789   0.8900   0.8931   0.8954   0.9008   0.9063   0.9122   0.9166
  0.9210   0.9287   0.9370   0.9418   0.9441   0.9531   0.9593   0.9633
  0.9718   0.9820   0.9872   0.9954   0.9974   1.0078   1.0180   1.0284
  1.0350   1.0475   1.0512   1.0600   1.0649   1.0700   1.0799   1.0878
  1.0898   1.0992   1.1059   1.1129   1.1189   1.1279   1.1343   1.1377
  1.1458   1.1651   1.1715   1.1805   1.1924   1.2031   1.2165   1.2317
  1.2428   1.2657   1.2820   1.2979   1.3084   1.3205   1.3309   1.3395
  1.3497   1.3652   1.3688   1.3727   1.3775   1.4048   1.4158   1.4333
  1.4585   1.4663   1.4684   1.4737   1.4795   1.4925   1.4940   1.5019
  1.5170   1.5360   1.5435   1.5492   1.5535   1.5632   1.6012   1.6026
  1.6206   1.6263   1.6345   1.6432   1.6560   1.6648   1.6758   1.6846
  1.6917   1.7073   1.7183   1.7837   1.7921   1.7969   1.8057   1.8071
  1.8158   1.8167   1.8304   1.8320   1.8448   1.8499   1.8626   1.8920
  1.9032   1.9060   1.9149   1.9287   1.9369   1.9397   1.9480   1.9526
  1.9582   1.9638   1.9791   1.9861   1.9902   1.9973   2.0088   2.0147
  2.0262   2.0277   2.0396   2.0487   2.0533   2.0620   2.0666   2.0714
  2.0906   2.0985   2.1113   2.1314   2.1345   2.1454   2.1544   2.1626
  2.1662   2.1907   2.1963   2.1991   2.2226   2.2267   2.2412   2.2503
  2.2538   2.2611   2.2757   2.2887   2.2977   2.3098   2.3139   2.3369
  2.3488   2.3675   2.4098   2.4136   2.4174   2.4246   2.4260   2.4340
  2.4527   2.4616   2.5024   2.5115   2.5219   2.5312   2.5442   2.5636
  2.5716   2.5878   2.5906   2.6113   2.6240   2.6303   2.6333   2.6409
  2.6490   2.6564   2.6855   2.6974   2.7015   2.7109   2.7145   2.7259
  2.7297   2.7478   2.7661   2.7680   2.7847   2.7873   2.8014   2.8103
  2.8137   2.8287   2.8355   2.8469   2.8572   2.8671   2.8738   2.8810
  2.9123   2.9155   2.9243   2.9303   2.9374   2.9420   2.9509   2.9529
  2.9572   2.9678   2.9698   2.9853   2.9912   3.0059   3.0109   3.0244
  3.0282   3.0326   3.0411   3.0544   3.0619   3.0783   3.0861   3.0905
  3.1002   3.1121   3.1160   3.1238   3.1332   3.1551   3.1955   3.2072
  3.2089   3.2198   3.2313   3.2374   3.2401   3.2504   3.2531   3.2612
  3.2617   3.2976   3.3027   3.3157   3.3305   3.3374   3.3443   3.3561
  3.3700   3.3787   3.3887   3.3911   3.3995   3.4104   3.4190   3.4373
  3.4525   3.4559   3.4625   3.4647   3.4702   3.4745   3.4767   3.4800
  3.4849   3.4958   3.5029   3.5084   3.5180   3.5230   3.5311   3.5335
  3.5446   3.5517   3.5539   3.5568   3.5629   3.5653   3.5707   3.5778
  3.5939   3.6011   3.6042   3.6068   3.6181   3.6237   3.6357   3.6362
  3.6485   3.6576   3.6606   3.6822   3.7017   3.7066   3.7078   3.7136
  3.7180   3.7304   3.7893   3.8041   3.8143   3.8292   3.8403   3.8517
  3.8929   3.9040   3.9184   3.9244   3.9489   3.9626   3.9653   3.9685
  4.0042   4.0137   4.0424   4.0514   4.0718   4.0888   4.1302   4.1409
  4.2142   4.2238   4.2774   4.2785   4.2877   4.2953   4.3034   4.3187
  4.3241   4.3273   4.3317   4.3356   4.3405   4.3447   4.3575   4.3625
  4.3720   4.3738   4.3882   4.3983   4.4095   4.4153   4.4324   4.4372
  4.4529   4.4705   4.4854   4.4897   4.5393   4.5426   4.6070   4.6205
  4.6393   4.6441   4.7393   4.7511   4.7660   4.7732   4.8259   4.8350
  4.8885   4.8960   4.9120   4.9350   4.9605   4.9818   5.0368   5.0585
  5.0621   5.0750   5.1771   5.1897   5.2760   5.2902   5.3600   5.3637
  5.3673   5.3840   5.4965   5.5079   5.5298   5.5466   5.6755   5.6920
  5.8233   5.8264  22.6390  22.6536  22.6800  22.6944  22.9025  22.9114
 22.9222  22.9391  23.0112  23.0294  23.0804  23.0906  23.4195  23.4252
 --------------------------------------------------------------
 
          Ground-State Mulliken Net Atomic Charges

     Atom                 Charge (a.u.)
  ----------------------------------------
      1 C                    -1.150969
      2 C                    -0.403019
      3 C                    -0.393507
      4 C                    -0.509641
      5 C                    -0.492897
      6 C                    -0.379373
      7 C                     0.574021
      8 H                     0.401696
      9 H                     0.365377
     10 H                     0.390488
     11 H                     0.397460
     12 H                     0.405967
     13 H                     0.303811
     14 H                     0.284285
     15 H                     0.248659
     16 C                    -1.114040
     17 C                    -0.393299
     18 C                     0.380467
     19 C                    -0.117424
     20 C                    -0.646808
     21 C                    -0.473156
     22 C                    -0.482931
     23 H                     0.375355
     24 H                     0.351907
     25 H                     0.295259
     26 H                     0.303735
     27 H                     0.415717
     28 H                     0.418420
     29 H                     0.394299
     30 H                     0.250142
  ----------------------------------------
  Sum of atomic charges =     0.000000

 -----------------------------------------------------------------
                    Cartesian Multipole Moments
 -----------------------------------------------------------------
    Charge (ESU x 10^10)
                 0.0000
    Dipole Moment (Debye)
         X       0.0933      Y      -0.2043      Z       0.1076
       Tot       0.2490
    Quadrupole Moments (Debye-Ang)
        XX     -70.9522     XY       2.5403     YY     -82.6476
        XZ       0.6910     YZ      -2.4042     ZZ     -85.3167
    Octopole Moments (Debye-Ang^2)
       XXX      -2.6108    XXY       8.6675    XYY     -17.6616
       YYY      31.2234    XXZ      10.9737    XYZ     -15.4750
       YYZ      15.6017    XZZ      13.4799    YZZ     -11.6590
       ZZZ       0.8952
    Hexadecapole Moments (Debye-Ang^3)
      XXXX   -4152.2059   XXXY     768.3852   XXYY   -1009.7309
      XYYY     839.1291   YYYY   -1598.0491   XXXZ     -96.6351
      XXYZ      -0.0709   XYYZ     -23.3808   YYYZ      31.0904
      XXZZ    -818.4948   XYZZ     294.6975   YYZZ    -352.3967
      XZZZ     -81.2809   YZZZ      22.2395   ZZZZ    -366.4856
 -----------------------------------------------------------------
Archival summary:
1\1\nid00566\SP\ProcedureUnspecified\BasisUnspecified\1416\meili\MonSep2708:00:432021MonSep2708:00:432021\0\\#,ProcedureUnspecified,BasisUnspecified,\\0,1\C\H,1,1.07826\C,1,1.39752,2,120.442\H,3,1.08012,1,119.711,2,-0.3964,0\C,3,1.39514,1,120.335,2,-179.582,0\C,5,1.39686,3,118.975,1,-0.554612,0\H,6,1.08097,5,119.678,3,-179.334,0\C,6,1.39468,5,120.999,3,0.703066,0\H,8,1.0803,6,119.769,5,177.498,0\C,8,1.39376,6,119.857,5,-0.418436,0\H,10,1.08251,8,120.178,6,179.665,0\C,5,1.51106,3,120.815,1,176.557,0\H,12,1.09031,5,108.891,3,-30.7366,0\H,12,1.09149,5,108.059,3,-146.802,0\H,12,1.1,5,114.997,3,91.2872,0\H,4,2.42275,3,128.319,1,2.05082,0\C,16,1.08142,4,124.71,3,34.2914,0\C,17,1.39601,16,120.285,4,84.8486,0\H,18,1.07416,17,122.015,16,-0.133513,0\C,18,1.39571,17,120.088,16,179.451,0\H,20,1.07798,18,119.343,17,178.392,0\C,20,1.39493,18,120.688,17,-0.180473,0\C,22,1.3968,20,119.196,18,0.347918,0\H,23,1.07966,22,119.755,20,179.72,0\C,17,1.39834,16,120.076,4,-95.6643,0\H,25,1.08134,17,119.959,16,0.731387,0\C,22,1.50124,20,120.312,18,-179.201,0\H,27,1.08863,22,107.701,20,-141.059,0\H,27,1.0919,22,109.622,20,-24.0684,0\H,27,1.1,22,114.071,20,99.5103,0\\\@

 Total job time:  85103.88s(wall), 55058.55s(cpu) 
 Mon Sep 27 08:00:46 2021

        *************************************************************
        *                                                           *
        *  Thank you very much for using Q-Chem.  Have a nice day.  *
        *                                                           *
        *************************************************************


