
Running Job 1 of 1 SSI-008PHE-099HIE-1_PCM_TZVPD.in
qchem SSI-008PHE-099HIE-1_PCM_TZVPD.in_9464.0 /tmp/qchem9464/ 0
/global/common/cori/software/qchem/5.2/exe/qcprog.exe_s SSI-008PHE-099HIE-1_PCM_TZVPD.in_9464.0 /tmp/qchem9464/
                  Welcome to Q-Chem
     A Quantum Leap Into The Future Of Chemistry


 Q-Chem 5.2, Q-Chem, Inc., Pleasanton, CA (2019)

 License issued to: National Energy Research Scientific Computing Center

 Yihan Shao,  Zhengting Gan,  E. Epifanovsky,  A. T. B. Gilbert,  M. Wormit,  
 J. Kussmann,  A. W. Lange,  A. Behn,  Jia Deng,  Xintian Feng,  D. Ghosh,  
 M. Goldey,  P. R. Horn,  L. D. Jacobson,  I. Kaliman,  T. Kus,  A. Landau,  
 Jie Liu,  E. I. Proynov,  R. M. Richard,  R. P. Steele,  E. J. Sundstrom,  
 H. L. Woodcock III,  P. M. Zimmerman,  D. Zuev,  B. Albrecht,  E. Alguire,  
 S. A. Baeppler,  D. Barton,  Z. Benda,  Y. A. Bernard,  E. J. Berquist,  
 K. B. Bravaya,  H. Burton,  D. Casanova,  Chun-Min Chang,  Yunqing Chen,  
 A. Chien,  K. D. Closser,  M. P. Coons,  S. Coriani,  S. Dasgupta,  
 A. L. Dempwolff,  M. Diedenhofen,  Hainam Do,  R. G. Edgar,  Po-Tung Fang,  
 S. Faraji,  S. Fatehi,  Qingguo Feng,  K. D. Fenk,  J. Fosso-Tande,  
 J. Gayvert,  Qinghui Ge,  A. Ghysels,  G. Gidofalvi,  J. Gomes,  
 J. Gonthier,  A. Gunina,  D. Hait,  M. W. D. Hanson-Heine,  
 P. H. P. Harbach,  A. W. Hauser,  M. F. Herbst,  J. E. Herr,  
 E. G. Hohenstein,  Z. C. Holden,  Kerwin Hui,  B. C. Huynh,  T.-C. Jagau,  
 Hyunjun Ji,  B. Kaduk,  K. Khistyaev,  Jaehoon Kim,  P. Klunzinger,  K. Koh,  
 D. Kosenkov,  L. Koulias,  T. Kowalczyk,  C. M. Krauter,  A. Kunitsa,  
 Ka Un Lao,  A. Laurent,  K. V. Lawler,  Joonho Lee,  D. Lefrancois,  
 S. Lehtola,  D. S. Levine,  Yi-Pei Li,  You-Sheng Lin,  Fenglai Liu,  
 E. Livshits,  A. Luenser,  P. Manohar,  E. Mansoor,  S. F. Manzer,  
 Shan-Ping Mao,  Yuezhi Mao,  N. Mardirossian,  A. V. Marenich,  
 T. Markovich,  L. A. Martinez-Martinez,  S. A. Maurer,  N. J. Mayhall,  
 S. C. McKenzie,  J.-M. Mewes,  P. Morgante,  A. F. Morrison,  
 J. W. Mullinax,  K. Nanda,  T. S. Nguyen-Beck,  R. Olivares-Amaya,  
 J. A. Parkhill,  Zheng Pei,  T. M. Perrine,  F. Plasser,  P. Pokhilko,  
 S. Prager,  A. Prociuk,  E. Ramos,  D. R. Rehn,  F. Rob,  M. Scheurer,  
 M. Schneider,  N. Sergueev,  S. M. Sharada,  S. Sharma,  D. W. Small,  
 T. Stauch,  T. Stein,  Yu-Chuan Su,  A. J. W. Thom,  A. Tkatchenko,  
 T. Tsuchimochi,  N. M. Tubman,  L. Vogt,  M. L. Vidal,  O. Vydrov,  
 M. A. Watson,  J. Wenzel,  M. de Wergifosse,  T. A. Wesolowski,  A. White,  
 J. Witte,  A. Yamada,  Jun Yang,  K. Yao,  S. Yeganeh,  S. R. Yost,  
 Zhi-Qiang You,  A. Zech,  Igor Ying Zhang,  Xing Zhang,  Yan Zhao,  
 Ying Zhu,  B. R. Brooks,  G. K. L. Chan,  C. J. Cramer,  M. S. Gordon,  
 W. J. Hehre,  A. Klamt,  M. W. Schmidt,  C. D. Sherrill,  D. G. Truhlar,  
 A. Aspuru-Guzik,  R. Baer,  A. T. Bell,  N. A. Besley,  Jeng-Da Chai,  
 A. E. DePrince, III,  R. A. DiStasio Jr.,  A. Dreuw,  B. D. Dunietz,  
 T. R. Furlani,  Chao-Ping Hsu,  Yousung Jung,  Jing Kong,  D. S. Lambrecht,  
 WanZhen Liang,  C. Ochsenfeld,  V. A. Rassolov,  L. V. Slipchenko,  
 J. E. Subotnik,  T. Van Voorhis,  J. M. Herbert,  A. I. Krylov,  
 P. M. W. Gill,  M. Head-Gordon

 Contributors to earlier versions of Q-Chem not listed above: 
 R. D. Adamson,  B. Austin,  J. Baker,  G. J. O. Beran,  K. Brandhorst,  
 S. T. Brown,  E. F. C. Byrd,  A. K. Chakraborty,  C.-L. Cheng,  
 Siu Hung Chien,  D. M. Chipman,  D. L. Crittenden,  H. Dachsel,  
 R. J. Doerksen,  A. D. Dutoi,  L. Fusti-Molnar,  W. A. Goddard III,  
 A. Golubeva-Zadorozhnaya,  S. R. Gwaltney,  G. Hawkins,  A. Heyden,  
 S. Hirata,  G. Kedziora,  F. J. Keil,  C. Kelley,  Jihan Kim,  R. A. King,  
 R. Z. Khaliullin,  P. P. Korambath,  W. Kurlancheek,  A. M. Lee,  M. S. Lee,  
 S. V. Levchenko,  Ching Yeh Lin,  D. Liotard,  R. C. Lochan,  I. Lotan,  
 P. E. Maslen,  N. Nair,  D. P. O'Neill,  D. Neuhauser,  E. Neuscamman,  
 C. M. Oana,  R. Olson,  B. Peters,  R. Peverati,  P. A. Pieniazek,  
 Y. M. Rhee,  J. Ritchie,  M. A. Rohrdanz,  E. Rosta,  N. J. Russ,  
 H. F. Schaefer III,  N. E. Schultz,  N. Shenvi,  A. C. Simmonett,  A. Sodt,  
 D. Stuck,  K. S. Thanthiriwatte,  V. Vanovschi,  Tao Wang,  A. Warshel,  
 C. F. Williams,  Q. Wu,  X. Xu,  W. Zhang

 Please cite Q-Chem as follows:
 Y. Shao et al., Mol. Phys. 113, 184-215 (2015)
 DOI: 10.1080/00268976.2014.952696

 Q-Chem 5.2.0 for Intel X86 EM64T Linux

 Parts of Q-Chem use Armadillo 8.300.2 (Tropical Shenanigans).
 http://arma.sourceforge.net/

 Q-Chem begins on Sun Sep 26 02:04:05 2021  

Host: cori01
0

     Scratch files written to /tmp/qchem9464//
 May1019 |scratch|qcdevops|jenkins|workspace|build_RNUM -1
Processing $rem in /global/common/cori/software/qchem/5.2/config/preferences:
	 MEM_TOTAL  96000 
NAlpha2: 102
NElect   102
Mult     1
Symmetry turned off for PCM/SM12/SMD calculation

 Q-Chem warning in module libgen/rem_setup.C, line 2803:

 Neither GIA nor STOLL is specified by user. Use STOLL as the default


Checking the input file for inconsistencies... 	...done.

--------------------------------------------------------------
User input:
--------------------------------------------------------------
$comment
SSI-008PHE-099HIE-1.pdb
$end

$molecule
0 1
--
0 1
C    0.951239430478   -0.711800546611   -2.024756852038
C    1.631239430478    0.473199453389    0.066243147962
C    1.969239430478    0.064199453389   -1.193756852038
C    2.520239430478    1.203199453389    0.826243147962
C    3.287239430478    0.325199453389   -1.621756852038
C    3.792239430478    1.459199453389    0.412243147962
C    4.201239430478    0.997199453389   -0.820756852038
H    0.673239430478    0.211199453389    0.478243147962
H    2.195239430478    1.555199453389    1.784243147962
H   -0.040760569522   -0.288800546611   -1.861756852038
H    0.938239430478   -1.737800546611   -1.666756852038
H    3.623239430478    0.009199453389   -2.594756852038
H    4.472239430478    2.013199453389    1.046243147962
H    5.208239430478    1.182199453389   -1.169756852038
H    1.166689430478   -0.717560546611   -3.103436852038
--
0 1
C   -2.043760569522    1.236199453389    0.484243147962
C   -2.584760569522    2.013199453389    1.682243147962
C   -2.305760569522   -0.248800546611    0.522243147962
C   -1.953760569522   -1.231800546611    1.398243147962
C   -3.070760569522   -2.153800546611   -0.272756852038
N   -2.972760569522   -0.845800546611   -0.528756852038
N   -2.464760569522   -2.421800546611    0.886243147962
H   -2.527760569522    1.633199453389   -0.406756852038
H   -0.982760569522    1.434199453389    0.375243147962
H   -3.648760569522    1.820199453389    1.818243147962
H   -1.375760569522   -1.108800546611    2.298243147962
H   -3.527760569522   -2.888800546611   -0.924756852038
H   -2.356760569522   -3.358800546611    1.276243147962
H   -2.377120569522    3.084519453389    1.543813147962
H   -2.019610569522    1.773069453389    2.594903147962
$end

$rem
JOBTYPE			EDA
EDA2			1
method			wB97X-V
BASIS			def2-TZVPD
XC_GRID			000099000590
NL_GRID			1
UNRESTRICTED		FALSE
MAX_SCF_CYCLES		200
SYMMETRY		FALSE
SYM_IGNORE		TRUE
MEM_STATIC		2000
BASIS_LIN_DEP_THRESH 	6
THRESH 			14
SCF_CONVERGENCE 	8
SCF_PRINT_FRGM 		TRUE
SOLVENT_METHOD          PCM
$end

$PCM
THEORY                  CPCM
METHOD                  SWIG
SOLVER                  INVERSION
RADII                   UFF
HPOINTS                 302
HEAVYPOINTS             302
PRINTLEVEL              0
$END

$SOLVENT
DIELECTRIC              78.390000 ! water
$END
--------------------------------------------------------------
 ----------------------------------------------------------------
             Standard Nuclear Orientation (Angstroms)
    I     Atom           X                Y                Z
 ----------------------------------------------------------------
    1      C       0.9512394305    -0.7118005466    -2.0247568520
    2      C       1.6312394305     0.4731994534     0.0662431480
    3      C       1.9692394305     0.0641994534    -1.1937568520
    4      C       2.5202394305     1.2031994534     0.8262431480
    5      C       3.2872394305     0.3251994534    -1.6217568520
    6      C       3.7922394305     1.4591994534     0.4122431480
    7      C       4.2012394305     0.9971994534    -0.8207568520
    8      H       0.6732394305     0.2111994534     0.4782431480
    9      H       2.1952394305     1.5551994534     1.7842431480
   10      H      -0.0407605695    -0.2888005466    -1.8617568520
   11      H       0.9382394305    -1.7378005466    -1.6667568520
   12      H       3.6232394305     0.0091994534    -2.5947568520
   13      H       4.4722394305     2.0131994534     1.0462431480
   14      H       5.2082394305     1.1821994534    -1.1697568520
   15      H       1.1666894305    -0.7175605466    -3.1034368520
   16      C      -2.0437605695     1.2361994534     0.4842431480
   17      C      -2.5847605695     2.0131994534     1.6822431480
   18      C      -2.3057605695    -0.2488005466     0.5222431480
   19      C      -1.9537605695    -1.2318005466     1.3982431480
   20      C      -3.0707605695    -2.1538005466    -0.2727568520
   21      N      -2.9727605695    -0.8458005466    -0.5287568520
   22      N      -2.4647605695    -2.4218005466     0.8862431480
   23      H      -2.5277605695     1.6331994534    -0.4067568520
   24      H      -0.9827605695     1.4341994534     0.3752431480
   25      H      -3.6487605695     1.8201994534     1.8182431480
   26      H      -1.3757605695    -1.1088005466     2.2982431480
   27      H      -3.5277605695    -2.8888005466    -0.9247568520
   28      H      -2.3567605695    -3.3588005466     1.2762431480
   29      H      -2.3771205695     3.0845194534     1.5438131480
   30      H      -2.0196105695     1.7730694534     2.5949031480
 ----------------------------------------------------------------
 Nuclear Repulsion Energy =         809.61368986 hartrees
 There are       51 alpha and       51 beta electrons
 Requested basis set is def2-TZVPD
 There are 262 shells and 662 basis functions

 Total QAlloc Memory Limit  96000 MB
 Mega-Array Size      1956 MB
 MEM_STATIC part      2000 MB
 Discretize the solute cavity surface with Lebedev spheres
	Using 302 Lebedev grid points for each H atom
	Using 302 Lebedev grid points for other atoms
	Atomic van der Waals radii will be scaled by 1.20
 Remove points where switching function is < 1.0e-08
 Keep 3378 surface tesserae and discard 5682 interior tesserae
 Molecular Surface Area = 325.351 Angst**2
 A cutoff of  1.0D-14 yielded  29287 shell pairs
 There are    186559 function pairs (    234884 Cartesian)
 Smallest overlap matrix eigenvalue = 4.20E-07
 Linear dependence detected in AO basis
 Tighter screening thresholds may be required for diffuse basis sets
 Use S2THRESH > 14 and THRESH = 14 in case of SCF convergence issues
 Number of orthogonalized atomic orbitals = 660
 Maximum deviation from orthogonality = 2.170E-10

 Scale SEOQF with 1.000000e-02/1.000000e-01/1.000000e-01

 Standard Electronic Orientation quadrupole field applied
 Nucleus-field energy     =     0.0000000014 hartrees

 -----------------------------------------------------------------------
  General SCF calculation program by
  Eric Jon Sundstrom, Paul Horn, Yuezhi Mao, Dmitri Zuev, Alec White,
  David Stuck, Shaama M.S., Shane Yost, Joonho Lee, David Small,
  Daniel Levine, Susi Lehtola, Hugh Burton, Evgeny Epifanovsky
 -----------------------------------------------------------------------
================================================================
                 ALMO-EDA with the EDA2 driver                  
================================================================
 The second-generation ALMO-EDA (for DFT):                      
 P. R. Horn, Y. Mao and M. Head-Gordon, PCCP, 18, 23067 (2016)  
 Decomposition of the frozen energy:                            
 P. R. Horn, Y. Mao and M. Head-Gordon, JCP, 144, 114107 (2016) 
 FERF model for polarization:                                   
 P. R. Horn and M. Head-Gordon, JCP, 143, 114111 (2015)         
Using eda2 option set 1
Option set summary: Frozen orbital wavefunction, initial wavefunction decomposition, and nDQ polarization.
--------------------------------
Printing EDA Options
--------------------------------
eda_child_super_basis      0
fragmo_guess_mode          0
child_mp                   1
child_mp_orders            232
cls_elec                   1
cls_disp                   0
scfmi_mode                 1
scfmi_occs                 0
scfmi_virts                0
frz_relax                  0
frz_relax_method           0
dc_pen_start               0
dc_pen_conv                0
dc_pen_increment           0
dc_pen_steps               0
dc_pen_thresh_factor       0
dc_pen_pre_newton_thresh   0
frz_ortho_decomp           1
frz_ortho_decomp_conv      6
frgm_method                2
scfmi_freeze_ss            0
separate_rehyb             0
plot_diff_den              0
eda_nocv                   0
eda_vct_relax              1
disp_free_x                0
disp_free_c                0
eda_bsse                   0
eda_pct_a                  0
eda_covp                   0
--------------------------------
Attempting to make child job directory: /tmp/qchem9464//Frg1/
Attempting to make child job directory: /tmp/qchem9464//Frg2/
Creating input file /tmp/qchem9464/Frg1.input
using default PutDataFrgm: nothing
calling putenv with: QCSCRATCH=/tmp/qchem9464/ 
calling putenv with: QCLOCALSCR=/tmp/qchem9464/ 
Spawning Job For Fragment 0
                  Welcome to Q-Chem
     A Quantum Leap Into The Future Of Chemistry


 Q-Chem 5.2, Q-Chem, Inc., Pleasanton, CA (2019)

 License issued to: National Energy Research Scientific Computing Center

 Yihan Shao,  Zhengting Gan,  E. Epifanovsky,  A. T. B. Gilbert,  M. Wormit,  
 J. Kussmann,  A. W. Lange,  A. Behn,  Jia Deng,  Xintian Feng,  D. Ghosh,  
 M. Goldey,  P. R. Horn,  L. D. Jacobson,  I. Kaliman,  T. Kus,  A. Landau,  
 Jie Liu,  E. I. Proynov,  R. M. Richard,  R. P. Steele,  E. J. Sundstrom,  
 H. L. Woodcock III,  P. M. Zimmerman,  D. Zuev,  B. Albrecht,  E. Alguire,  
 S. A. Baeppler,  D. Barton,  Z. Benda,  Y. A. Bernard,  E. J. Berquist,  
 K. B. Bravaya,  H. Burton,  D. Casanova,  Chun-Min Chang,  Yunqing Chen,  
 A. Chien,  K. D. Closser,  M. P. Coons,  S. Coriani,  S. Dasgupta,  
 A. L. Dempwolff,  M. Diedenhofen,  Hainam Do,  R. G. Edgar,  Po-Tung Fang,  
 S. Faraji,  S. Fatehi,  Qingguo Feng,  K. D. Fenk,  J. Fosso-Tande,  
 J. Gayvert,  Qinghui Ge,  A. Ghysels,  G. Gidofalvi,  J. Gomes,  
 J. Gonthier,  A. Gunina,  D. Hait,  M. W. D. Hanson-Heine,  
 P. H. P. Harbach,  A. W. Hauser,  M. F. Herbst,  J. E. Herr,  
 E. G. Hohenstein,  Z. C. Holden,  Kerwin Hui,  B. C. Huynh,  T.-C. Jagau,  
 Hyunjun Ji,  B. Kaduk,  K. Khistyaev,  Jaehoon Kim,  P. Klunzinger,  K. Koh,  
 D. Kosenkov,  L. Koulias,  T. Kowalczyk,  C. M. Krauter,  A. Kunitsa,  
 Ka Un Lao,  A. Laurent,  K. V. Lawler,  Joonho Lee,  D. Lefrancois,  
 S. Lehtola,  D. S. Levine,  Yi-Pei Li,  You-Sheng Lin,  Fenglai Liu,  
 E. Livshits,  A. Luenser,  P. Manohar,  E. Mansoor,  S. F. Manzer,  
 Shan-Ping Mao,  Yuezhi Mao,  N. Mardirossian,  A. V. Marenich,  
 T. Markovich,  L. A. Martinez-Martinez,  S. A. Maurer,  N. J. Mayhall,  
 S. C. McKenzie,  J.-M. Mewes,  P. Morgante,  A. F. Morrison,  
 J. W. Mullinax,  K. Nanda,  T. S. Nguyen-Beck,  R. Olivares-Amaya,  
 J. A. Parkhill,  Zheng Pei,  T. M. Perrine,  F. Plasser,  P. Pokhilko,  
 S. Prager,  A. Prociuk,  E. Ramos,  D. R. Rehn,  F. Rob,  M. Scheurer,  
 M. Schneider,  N. Sergueev,  S. M. Sharada,  S. Sharma,  D. W. Small,  
 T. Stauch,  T. Stein,  Yu-Chuan Su,  A. J. W. Thom,  A. Tkatchenko,  
 T. Tsuchimochi,  N. M. Tubman,  L. Vogt,  M. L. Vidal,  O. Vydrov,  
 M. A. Watson,  J. Wenzel,  M. de Wergifosse,  T. A. Wesolowski,  A. White,  
 J. Witte,  A. Yamada,  Jun Yang,  K. Yao,  S. Yeganeh,  S. R. Yost,  
 Zhi-Qiang You,  A. Zech,  Igor Ying Zhang,  Xing Zhang,  Yan Zhao,  
 Ying Zhu,  B. R. Brooks,  G. K. L. Chan,  C. J. Cramer,  M. S. Gordon,  
 W. J. Hehre,  A. Klamt,  M. W. Schmidt,  C. D. Sherrill,  D. G. Truhlar,  
 A. Aspuru-Guzik,  R. Baer,  A. T. Bell,  N. A. Besley,  Jeng-Da Chai,  
 A. E. DePrince, III,  R. A. DiStasio Jr.,  A. Dreuw,  B. D. Dunietz,  
 T. R. Furlani,  Chao-Ping Hsu,  Yousung Jung,  Jing Kong,  D. S. Lambrecht,  
 WanZhen Liang,  C. Ochsenfeld,  V. A. Rassolov,  L. V. Slipchenko,  
 J. E. Subotnik,  T. Van Voorhis,  J. M. Herbert,  A. I. Krylov,  
 P. M. W. Gill,  M. Head-Gordon

 Contributors to earlier versions of Q-Chem not listed above: 
 R. D. Adamson,  B. Austin,  J. Baker,  G. J. O. Beran,  K. Brandhorst,  
 S. T. Brown,  E. F. C. Byrd,  A. K. Chakraborty,  C.-L. Cheng,  
 Siu Hung Chien,  D. M. Chipman,  D. L. Crittenden,  H. Dachsel,  
 R. J. Doerksen,  A. D. Dutoi,  L. Fusti-Molnar,  W. A. Goddard III,  
 A. Golubeva-Zadorozhnaya,  S. R. Gwaltney,  G. Hawkins,  A. Heyden,  
 S. Hirata,  G. Kedziora,  F. J. Keil,  C. Kelley,  Jihan Kim,  R. A. King,  
 R. Z. Khaliullin,  P. P. Korambath,  W. Kurlancheek,  A. M. Lee,  M. S. Lee,  
 S. V. Levchenko,  Ching Yeh Lin,  D. Liotard,  R. C. Lochan,  I. Lotan,  
 P. E. Maslen,  N. Nair,  D. P. O'Neill,  D. Neuhauser,  E. Neuscamman,  
 C. M. Oana,  R. Olson,  B. Peters,  R. Peverati,  P. A. Pieniazek,  
 Y. M. Rhee,  J. Ritchie,  M. A. Rohrdanz,  E. Rosta,  N. J. Russ,  
 H. F. Schaefer III,  N. E. Schultz,  N. Shenvi,  A. C. Simmonett,  A. Sodt,  
 D. Stuck,  K. S. Thanthiriwatte,  V. Vanovschi,  Tao Wang,  A. Warshel,  
 C. F. Williams,  Q. Wu,  X. Xu,  W. Zhang

 Please cite Q-Chem as follows:
 Y. Shao et al., Mol. Phys. 113, 184-215 (2015)
 DOI: 10.1080/00268976.2014.952696

 Q-Chem 5.2.0 for Intel X86 EM64T Linux

 Parts of Q-Chem use Armadillo 8.300.2 (Tropical Shenanigans).
 http://arma.sourceforge.net/

 Q-Chem begins on Sun Sep 26 02:04:12 2021  

Host: cori01
0

     Scratch files written to /tmp/qchem9464//Frg1//
 May1019 |scratch|qcdevops|jenkins|workspace|build_RNUM -1
Processing $rem in /global/common/cori/software/qchem/5.2/config/preferences:
	 MEM_TOTAL  96000 
NAlpha2: 50
NElect   50
Mult     1
Symmetry turned off for PCM/SM12/SMD calculation

Checking the input file for inconsistencies... 	...done.

--------------------------------------------------------------
User input:
--------------------------------------------------------------
$molecule
0 1
 6	0.9512394305	-0.7118005466	-2.0247568520
 6	1.6312394305	0.4731994534	0.0662431480
 6	1.9692394305	0.0641994534	-1.1937568520
 6	2.5202394305	1.2031994534	0.8262431480
 6	3.2872394305	0.3251994534	-1.6217568520
 6	3.7922394305	1.4591994534	0.4122431480
 6	4.2012394305	0.9971994534	-0.8207568520
 1	0.6732394305	0.2111994534	0.4782431480
 1	2.1952394305	1.5551994534	1.7842431480
 1	-0.0407605695	-0.2888005466	-1.8617568520
 1	0.9382394305	-1.7378005466	-1.6667568520
 1	3.6232394305	0.0091994534	-2.5947568520
 1	4.4722394305	2.0131994534	1.0462431480
 1	5.2082394305	1.1821994534	-1.1697568520
 1	1.1666894305	-0.7175605466	-3.1034368520
$end
$rem
EDA2		1
METHOD		WB97X-V
BASIS		DEF2-TZVPD
XC_GRID		000099000590
NL_GRID		1
UNRESTRICTED		FALSE
MAX_SCF_CYCLES		200
SYMMETRY		FALSE
SYM_IGNORE		TRUE
BASIS_LIN_DEP_THRESH		6
THRESH		14
SCF_CONVERGENCE		8
SCF_PRINT_FRGM		TRUE
SOLVENT_METHOD		PCM
!required keywords
JOBTYPE		SP
SYM_IGNORE		TRUE
SUBSYSTEM		TRUE
GEN_SCFMAN		TRUE
CHILD_INSTRUCTION		2
SYM_IGNORE		TRUE
SCFMI		0
RI_K 0		
PARI_K 0		
MIN_PARI_K 0		
IARI_K 0		
OCC_RI_K 0		
PURECART		1111
MEM_STATIC		2000
MEM_TOTAL		96000
GUI		0
CHILD_MP		1
CHILD_MP_ORDERS		232
FRZ_RELAX		0
FRZ_RELAX_METHOD		0
EDA_CLS_ELEC		1
EDA_CLS_DISP		0
FRZ_ORTHO_DECOMP		1
EDA2		FALSE
FRGM_METHOD		FALSE
CIS_N_ROOTS  0
LOCAL_CIS    0
CIS_RLX_DNS  1
$end
$pcm
THEORY                  CPCM
METHOD                  SWIG
SOLVER                  INVERSION
RADII                   UFF
HPOINTS                 302
HEAVYPOINTS             302
PRINTLEVEL              0
$end
$solvent
DIELECTRIC              78.390000 ! water
$end
--------------------------------------------------------------
 ----------------------------------------------------------------
             Standard Nuclear Orientation (Angstroms)
    I     Atom           X                Y                Z
 ----------------------------------------------------------------
    1      C       0.9512394305    -0.7118005466    -2.0247568520
    2      C       1.6312394305     0.4731994534     0.0662431480
    3      C       1.9692394305     0.0641994534    -1.1937568520
    4      C       2.5202394305     1.2031994534     0.8262431480
    5      C       3.2872394305     0.3251994534    -1.6217568520
    6      C       3.7922394305     1.4591994534     0.4122431480
    7      C       4.2012394305     0.9971994534    -0.8207568520
    8      H       0.6732394305     0.2111994534     0.4782431480
    9      H       2.1952394305     1.5551994534     1.7842431480
   10      H      -0.0407605695    -0.2888005466    -1.8617568520
   11      H       0.9382394305    -1.7378005466    -1.6667568520
   12      H       3.6232394305     0.0091994534    -2.5947568520
   13      H       4.4722394305     2.0131994534     1.0462431480
   14      H       5.2082394305     1.1821994534    -1.1697568520
   15      H       1.1666894305    -0.7175605466    -3.1034368520
 ----------------------------------------------------------------
 Nuclear Repulsion Energy =         270.90013437 hartrees
 There are       25 alpha and       25 beta electrons
 Requested basis set is def2-TZVPD
 There are 131 shells and 331 basis functions

 Total QAlloc Memory Limit  96000 MB
 Mega-Array Size      1956 MB
 MEM_STATIC part      2000 MB
 Discretize the solute cavity surface with Lebedev spheres
	Using 302 Lebedev grid points for each H atom
	Using 302 Lebedev grid points for other atoms
	Atomic van der Waals radii will be scaled by 1.20
 Remove points where switching function is < 1.0e-08
 Keep 1807 surface tesserae and discard 2723 interior tesserae
 Molecular Surface Area = 178.113 Angst**2

                       Distance Matrix (Angstroms)
             C (  1)   C (  2)   C (  3)   C (  4)   C (  5)   C (  6)
   C (  2)  2.497780
   C (  3)  1.526126  1.367159
   C (  4)  3.775869  1.378703  2.383552
   C (  5)  2.587407  2.369300  1.410117  2.711434
   C (  6)  4.327065  2.400382  2.801534  1.361953  2.382884
   C (  7)  3.864298  2.768798  2.447742  2.362373  1.388734  1.378773
   H (  8)  2.682205  1.075245  2.120568  2.125224  3.354995  3.360063
   H (  9)  4.603836  2.107212  3.338059  1.071118  3.782354  2.107607
   H ( 10)  1.090670  2.663346  2.147308  4.001266  3.392666  4.787324
   H ( 11)  1.086742  2.893451  2.129294  4.167404  3.126627  4.763231
   H ( 12)  2.825655  3.356230  2.168304  3.787544  1.076792  3.342620
   H ( 13)  5.408707  3.376874  3.883453  2.124807  3.372209  1.082253
   H ( 14)  4.737120  3.850364  3.426605  3.348104  2.151510  2.141147
   H ( 15)  1.100001  3.417687  2.214072  4.578624  2.789168  4.898143
             C (  7)   H (  8)   H (  9)   H ( 10)   H ( 11)   H ( 12)
   H (  8)  3.840831
   H (  9)  3.334880  2.414220
   H ( 10)  4.553245  2.497077  4.657612
   H ( 11)  4.340865  2.910301  4.932879  1.759564
   H ( 12)  2.111233  4.264579  4.858492  3.748465  3.335029
   H ( 13)  2.142752  4.242903  2.437034  5.841476  5.824047  4.241898
   H ( 14)  1.081700  4.921887  4.235967  5.494971  5.196759  2.432854
   H ( 15)  4.166476  3.732897  5.487510  1.784248  1.776831  2.611814
             H ( 13)   H ( 14)
   H ( 14)  2.478490
   H ( 15)  5.966871  4.866450
 
 A cutoff of  1.0D-14 yielded   8361 shell pairs
 There are     54493 function pairs (     69447 Cartesian)
 Smallest overlap matrix eigenvalue = 5.25E-07
 Linear dependence detected in AO basis
 Tighter screening thresholds may be required for diffuse basis sets
 Use S2THRESH > 14 and THRESH = 14 in case of SCF convergence issues
 Number of orthogonalized atomic orbitals = 330
 Maximum deviation from orthogonality = 1.534E-10

 Scale SEOQF with 1.000000e-02/1.000000e-01/1.000000e-01

 Standard Electronic Orientation quadrupole field applied
 Nucleus-field energy     =    -0.0000000047 hartrees
 Guess from superposition of atomic densities
 Warning:  Energy on first SCF cycle will be non-variational
 SAD guess density has 49.913408 electrons

 -----------------------------------------------------------------------
  General SCF calculation program by
  Eric Jon Sundstrom, Paul Horn, Yuezhi Mao, Dmitri Zuev, Alec White,
  David Stuck, Shaama M.S., Shane Yost, Joonho Lee, David Small,
  Daniel Levine, Susi Lehtola, Hugh Burton, Evgeny Epifanovsky
 -----------------------------------------------------------------------
 Exchange:     0.1670 Hartree-Fock + 1.0000 wB97X-V + LR-HF
 Correlation:  1.0000 wB97X-V
 Using Euler-Maclaurin-Lebedev (99,590) quadrature formula
 Nonlocal Correlation:  VV10 with C = 0.0100 and b = 6.00 and scale = 1.00000
 Grid used for NLC:  SG-1 standard quadrature
Energy prior to optimization (guess energy) = -271.513808294428
Begin Timing: Total SCF Calculation
begin iterations for algorithm: DIIS         
the SCF tolerance is set to 1.00e-08
    1    -271.5138082944      2.03e-03     00000 
    2    -271.5538636607      1.32e-03     00000 
    3    -271.5776799317      1.44e-04     00000 
    4    -271.5780966718      5.57e-05     00000 
    5    -271.5781418460      1.81e-05     00000 
    6    -271.5781476159      5.09e-06     00000 
    7    -271.5781480904      2.04e-06     00000 
    8    -271.5781481645      3.42e-07     00000 
    9    -271.5781481681      1.01e-07     00000 
   10    -271.5781481684      5.66e-08     00000 
   11    -271.5781481685      1.59e-08     00000 
   12    -271.5781481685      7.28e-09     00000 Convergence criterion met
Timing for Total SCF: 1406.00s (wall), 2793.97s (cpu)

************** Final PCM Free Energy Summary **************
 G_electrostatic  =      -0.00237035 hartree =      -1.48741612 kcal/mol
 G_cavitation     =       0.00000000 hartree =       0.00000000 kcal/mol
 G_dispersion     =       0.00000000 hartree =       0.00000000 kcal/mol
 G_repulsion      =       0.00000000 hartree =       0.00000000 kcal/mol
 --------------------------------------------------
 Non-electrostatic Free Energy =       0.00000000 hartree =       0.00000000 kcal/mol
 Total                         =      -0.00237035 hartree =      -1.48741612 kcal/mol
 --------------------------------------------------
 SCF Energy (H0 + V/2)                       =    -271.57814817 
 Solute Internal Energy (H0)                 =    -271.57577782 
 Total Free Energy (H0 + V/2 + non-elec)     =    -271.57814817 hartree
                                             = -170417.86009241 kcal/mol
***********************************************************

E_pcm = -0.0023703485
Multipole orders to be included
        2
        3
computing dipole RHS
computing quadrupole RHS
total number of RHS in solve_reponses: 8
RHS batch sizes
        8
Beginning Block Conjugate Gradient Iterations. Batch Number: 0
computing hessian-vector products by finite difference
              1      5.72e-01     00000 Conjugate Gradient Iteration
computing hessian-vector products by finite difference
              2      1.86e-01     00000 Conjugate Gradient Iteration
computing hessian-vector products by finite difference
              3      4.38e-02     00000 Conjugate Gradient Iteration
computing hessian-vector products by finite difference
              4      9.96e-03     00000 Conjugate Gradient Iteration
computing hessian-vector products by finite difference
              5      1.97e-03     00000 Conjugate Gradient Iteration
computing hessian-vector products by finite difference
              6      5.61e-04     00000 Conjugate Gradient Iteration
computing hessian-vector products by finite difference
              7      1.54e-04     00000 Conjugate Gradient Iteration
computing hessian-vector products by finite difference
              8      2.33e-05     00000 Conjugate Gradient Iteration
computing hessian-vector products by finite difference
              9      3.32e-06     00000 Conjugate Gradient Iteration
computing hessian-vector products by finite difference
             10      5.07e-07     00000 Conjugate Gradient Iteration
computing hessian-vector products by finite difference
             11      9.23e-08     00000 Conjugate Gradient Iteration
computing hessian-vector products by finite difference
             12      1.66e-08     00000 Conjugate Gradient Iteration
computing hessian-vector products by finite difference
             13      2.57e-09     00000 CG Converged
batch 0 complete
Done Calculating Responses
TESTING ORTHOGONALIZATION OF MULTIPOLE BASIS
Multipole virts passed orthogonality test
Virts Per Order
           75
          125
 
 --------------------------------------------------------------
 
                    Orbital Energies (a.u.)
 --------------------------------------------------------------
 
 Alpha MOs
 -- Occupied --
-10.2827 -10.2707 -10.2699 -10.2653 -10.2651 -10.2646 -10.2631  -1.0023
 -0.9087  -0.8799  -0.8163  -0.7304  -0.7086  -0.6335  -0.5756  -0.5649
 -0.5357  -0.5284  -0.5156  -0.4923  -0.4774  -0.4427  -0.4382  -0.3494
 -0.3405
 -- Virtual --
  0.0624   0.0664   0.0713   0.0790   0.0846   0.1044   0.1102   0.1140
  0.1353   0.1515   0.1643   0.1668   0.1839   0.1903   0.1950   0.2017
  0.2216   0.2257   0.2351   0.2400   0.2436   0.2552   0.2598   0.2710
  0.2755   0.2797   0.2827   0.2923   0.2962   0.3026   0.3069   0.3122
  0.3235   0.3243   0.3295   0.3379   0.3462   0.3518   0.3644   0.3701
  0.3762   0.3830   0.3856   0.3865   0.3914   0.3990   0.4041   0.4071
  0.4125   0.4245   0.4280   0.4373   0.4451   0.4506   0.4522   0.4586
  0.4647   0.4661   0.4759   0.4780   0.4891   0.5012   0.5087   0.5128
  0.5200   0.5278   0.5308   0.5383   0.5427   0.5474   0.5566   0.5633
  0.5788   0.5852   0.5927   0.5956   0.6031   0.6219   0.6374   0.6438
  0.6624   0.6694   0.6754   0.6872   0.6912   0.7006   0.7178   0.7217
  0.7245   0.7339   0.7406   0.7613   0.7650   0.7678   0.7769   0.7855
  0.7894   0.7982   0.8002   0.8029   0.8094   0.8210   0.8227   0.8320
  0.8372   0.8404   0.8472   0.8575   0.8609   0.8680   0.8882   0.8906
  0.9176   0.9252   0.9334   0.9479   0.9583   1.0064   1.0207   1.0371
  1.0529   1.0574   1.0714   1.0781   1.0852   1.0931   1.1110   1.1444
  1.1602   1.1837   1.2425   1.2879   1.3019   1.3169   1.3433   1.3530
  1.3927   1.4380   1.4467   1.4680   1.4748   1.4876   1.5273   1.5497
  1.5977   1.6047   1.6193   1.6249   1.6691   1.6841   1.7330   1.7765
  1.7871   1.8076   1.8096   1.8192   1.8404   1.8649   1.8786   1.9035
  1.9205   1.9241   1.9506   1.9685   1.9841   1.9988   2.0204   2.0273
  2.0369   2.0472   2.0741   2.0972   2.1167   2.1261   2.1537   2.1773
  2.2057   2.2342   2.2442   2.2463   2.2878   2.3235   2.3829   2.3945
  2.4090   2.4334   2.4818   2.5090   2.5212   2.5555   2.5838   2.6025
  2.6269   2.6356   2.6589   2.6713   2.7069   2.7235   2.7694   2.7897
  2.7901   2.8233   2.8431   2.8564   2.8615   2.8973   2.9085   2.9184
  2.9328   2.9529   2.9700   2.9886   3.0057   3.0105   3.0195   3.0512
  3.0740   3.0890   3.1151   3.1455   3.1835   3.1867   3.1984   3.2093
  3.2242   3.2460   3.2788   3.3032   3.3366   3.3507   3.3647   3.3799
  3.4044   3.4342   3.4419   3.4502   3.4655   3.4730   3.4918   3.5101
  3.5196   3.5295   3.5421   3.5511   3.5689   3.5870   3.5947   3.5997
  3.6166   3.6484   3.6699   3.7041   3.7177   3.7679   3.7796   3.8103
  3.8397   3.8946   3.9153   3.9521   3.9579   3.9956   4.0525   4.0700
  4.1356   4.1979   4.2704   4.2907   4.3122   4.3268   4.3387   4.3542
  4.3728   4.4037   4.4108   4.4382   4.4510   4.4698   4.5059   4.5570
  4.6119   4.6612   4.7530   4.7697   4.8448   4.8830   4.9170   4.9520
  5.0378   5.0595   5.1749   5.2838   5.4143   5.4211   5.4806   5.5239
  5.7075   5.8441  22.5812  22.6422  22.9291  22.9418  23.0557  23.1497
 23.4781
 --------------------------------------------------------------
 
          Ground-State Mulliken Net Atomic Charges

     Atom                 Charge (a.u.)
  ----------------------------------------
      1 C                    -1.026538
      2 C                    -0.324268
      3 C                     0.775519
      4 C                    -0.443917
      5 C                    -0.381013
      6 C                    -0.470392
      7 C                    -0.482027
      8 H                     0.336170
      9 H                     0.311243
     10 H                     0.260702
     11 H                     0.218945
     12 H                     0.320549
     13 H                     0.326574
     14 H                     0.305871
     15 H                     0.272583
  ----------------------------------------
  Sum of atomic charges =     0.000000

 -----------------------------------------------------------------
                    Cartesian Multipole Moments
 -----------------------------------------------------------------
    Charge (ESU x 10^10)
                -0.0000
    Dipole Moment (Debye)
         X      -0.3471      Y      -0.3351      Z      -0.1899
       Tot       0.5185
    Quadrupole Moments (Debye-Ang)
        XX     -40.5457     XY       1.4484     YY     -44.2963
        XZ      -1.1070     YZ       2.7893     ZZ     -39.4759
    Octopole Moments (Debye-Ang^2)
       XXX    -303.7262    XXY      -7.5392    XYY    -111.8680
       YYY     -70.6066    XXZ      21.0620    XYZ       6.8641
       YYZ      33.2179    XZZ    -100.9221    YZZ     -21.7413
       ZZZ      78.5616
    Hexadecapole Moments (Debye-Ang^3)
      XXXX   -1944.1721   XXXY    -169.2042   XXYY    -395.8829
      XYYY    -267.5949   YYYY    -283.1462   XXXZ     129.7656
      XXYZ       1.4490   XYYZ      74.1690   YYYZ     -37.6259
      XXZZ    -402.2545   XYZZ     -84.2192   YYZZ    -125.6247
      XZZZ     152.9957   YZZZ     -33.7647   ZZZZ    -449.7076
 -----------------------------------------------------------------
Archival summary:
1\1\nid00531\SP\ProcedureUnspecified\BasisUnspecified\78\meili\SunSep2609:54:232021SunSep2609:54:232021\0\\#,ProcedureUnspecified,BasisUnspecified,\\0,1\C\C,1,1.36716\H,2,1.07525,1,120.034\C,2,1.3787,1,120.466,3,178.907,0\H,4,1.07112,2,118.124,1,176.342,0\C,4,1.36195,2,122.288,1,-5.19584,0\H,6,1.08225,4,120.329,2,-178.347,0\C,6,1.37877,4,119.072,2,1.33176,0\H,8,1.0817,6,120.489,4,-179.625,0\C,8,1.38873,6,118.863,4,2.23216,0\H,10,1.07679,8,117.247,6,177.694,0\C,1,1.52613,2,119.277,3,2.64453,0\H,12,1.08674,1,107.978,2,-77.8185,0\H,12,1.09067,1,109.155,2,39.139,0\H,12,1.1,1,113.952,2,161.332,0\\\@

 Total job time:  28213.25s(wall), 55995.68s(cpu) 
 Sun Sep 26 09:54:25 2021

        *************************************************************
        *                                                           *
        *  Thank you very much for using Q-Chem.  Have a nice day.  *
        *                                                           *
        *************************************************************


Done Job For Fragment 0
calling putenv with: QCSCRATCH=/global/cscratch1/sd/meili 
calling putenv with: QCLOCALSCR=/tmp 
calling putenv with: QCTHREADS=32 
Creating input file /tmp/qchem9464/Frg2.input
using default PutDataFrgm: nothing
calling putenv with: QCSCRATCH=/tmp/qchem9464/ 
calling putenv with: QCLOCALSCR=/tmp/qchem9464/ 
Spawning Job For Fragment 1
                  Welcome to Q-Chem
     A Quantum Leap Into The Future Of Chemistry


 Q-Chem 5.2, Q-Chem, Inc., Pleasanton, CA (2019)

 License issued to: National Energy Research Scientific Computing Center

 Yihan Shao,  Zhengting Gan,  E. Epifanovsky,  A. T. B. Gilbert,  M. Wormit,  
 J. Kussmann,  A. W. Lange,  A. Behn,  Jia Deng,  Xintian Feng,  D. Ghosh,  
 M. Goldey,  P. R. Horn,  L. D. Jacobson,  I. Kaliman,  T. Kus,  A. Landau,  
 Jie Liu,  E. I. Proynov,  R. M. Richard,  R. P. Steele,  E. J. Sundstrom,  
 H. L. Woodcock III,  P. M. Zimmerman,  D. Zuev,  B. Albrecht,  E. Alguire,  
 S. A. Baeppler,  D. Barton,  Z. Benda,  Y. A. Bernard,  E. J. Berquist,  
 K. B. Bravaya,  H. Burton,  D. Casanova,  Chun-Min Chang,  Yunqing Chen,  
 A. Chien,  K. D. Closser,  M. P. Coons,  S. Coriani,  S. Dasgupta,  
 A. L. Dempwolff,  M. Diedenhofen,  Hainam Do,  R. G. Edgar,  Po-Tung Fang,  
 S. Faraji,  S. Fatehi,  Qingguo Feng,  K. D. Fenk,  J. Fosso-Tande,  
 J. Gayvert,  Qinghui Ge,  A. Ghysels,  G. Gidofalvi,  J. Gomes,  
 J. Gonthier,  A. Gunina,  D. Hait,  M. W. D. Hanson-Heine,  
 P. H. P. Harbach,  A. W. Hauser,  M. F. Herbst,  J. E. Herr,  
 E. G. Hohenstein,  Z. C. Holden,  Kerwin Hui,  B. C. Huynh,  T.-C. Jagau,  
 Hyunjun Ji,  B. Kaduk,  K. Khistyaev,  Jaehoon Kim,  P. Klunzinger,  K. Koh,  
 D. Kosenkov,  L. Koulias,  T. Kowalczyk,  C. M. Krauter,  A. Kunitsa,  
 Ka Un Lao,  A. Laurent,  K. V. Lawler,  Joonho Lee,  D. Lefrancois,  
 S. Lehtola,  D. S. Levine,  Yi-Pei Li,  You-Sheng Lin,  Fenglai Liu,  
 E. Livshits,  A. Luenser,  P. Manohar,  E. Mansoor,  S. F. Manzer,  
 Shan-Ping Mao,  Yuezhi Mao,  N. Mardirossian,  A. V. Marenich,  
 T. Markovich,  L. A. Martinez-Martinez,  S. A. Maurer,  N. J. Mayhall,  
 S. C. McKenzie,  J.-M. Mewes,  P. Morgante,  A. F. Morrison,  
 J. W. Mullinax,  K. Nanda,  T. S. Nguyen-Beck,  R. Olivares-Amaya,  
 J. A. Parkhill,  Zheng Pei,  T. M. Perrine,  F. Plasser,  P. Pokhilko,  
 S. Prager,  A. Prociuk,  E. Ramos,  D. R. Rehn,  F. Rob,  M. Scheurer,  
 M. Schneider,  N. Sergueev,  S. M. Sharada,  S. Sharma,  D. W. Small,  
 T. Stauch,  T. Stein,  Yu-Chuan Su,  A. J. W. Thom,  A. Tkatchenko,  
 T. Tsuchimochi,  N. M. Tubman,  L. Vogt,  M. L. Vidal,  O. Vydrov,  
 M. A. Watson,  J. Wenzel,  M. de Wergifosse,  T. A. Wesolowski,  A. White,  
 J. Witte,  A. Yamada,  Jun Yang,  K. Yao,  S. Yeganeh,  S. R. Yost,  
 Zhi-Qiang You,  A. Zech,  Igor Ying Zhang,  Xing Zhang,  Yan Zhao,  
 Ying Zhu,  B. R. Brooks,  G. K. L. Chan,  C. J. Cramer,  M. S. Gordon,  
 W. J. Hehre,  A. Klamt,  M. W. Schmidt,  C. D. Sherrill,  D. G. Truhlar,  
 A. Aspuru-Guzik,  R. Baer,  A. T. Bell,  N. A. Besley,  Jeng-Da Chai,  
 A. E. DePrince, III,  R. A. DiStasio Jr.,  A. Dreuw,  B. D. Dunietz,  
 T. R. Furlani,  Chao-Ping Hsu,  Yousung Jung,  Jing Kong,  D. S. Lambrecht,  
 WanZhen Liang,  C. Ochsenfeld,  V. A. Rassolov,  L. V. Slipchenko,  
 J. E. Subotnik,  T. Van Voorhis,  J. M. Herbert,  A. I. Krylov,  
 P. M. W. Gill,  M. Head-Gordon

 Contributors to earlier versions of Q-Chem not listed above: 
 R. D. Adamson,  B. Austin,  J. Baker,  G. J. O. Beran,  K. Brandhorst,  
 S. T. Brown,  E. F. C. Byrd,  A. K. Chakraborty,  C.-L. Cheng,  
 Siu Hung Chien,  D. M. Chipman,  D. L. Crittenden,  H. Dachsel,  
 R. J. Doerksen,  A. D. Dutoi,  L. Fusti-Molnar,  W. A. Goddard III,  
 A. Golubeva-Zadorozhnaya,  S. R. Gwaltney,  G. Hawkins,  A. Heyden,  
 S. Hirata,  G. Kedziora,  F. J. Keil,  C. Kelley,  Jihan Kim,  R. A. King,  
 R. Z. Khaliullin,  P. P. Korambath,  W. Kurlancheek,  A. M. Lee,  M. S. Lee,  
 S. V. Levchenko,  Ching Yeh Lin,  D. Liotard,  R. C. Lochan,  I. Lotan,  
 P. E. Maslen,  N. Nair,  D. P. O'Neill,  D. Neuhauser,  E. Neuscamman,  
 C. M. Oana,  R. Olson,  B. Peters,  R. Peverati,  P. A. Pieniazek,  
 Y. M. Rhee,  J. Ritchie,  M. A. Rohrdanz,  E. Rosta,  N. J. Russ,  
 H. F. Schaefer III,  N. E. Schultz,  N. Shenvi,  A. C. Simmonett,  A. Sodt,  
 D. Stuck,  K. S. Thanthiriwatte,  V. Vanovschi,  Tao Wang,  A. Warshel,  
 C. F. Williams,  Q. Wu,  X. Xu,  W. Zhang

 Please cite Q-Chem as follows:
 Y. Shao et al., Mol. Phys. 113, 184-215 (2015)
 DOI: 10.1080/00268976.2014.952696

 Q-Chem 5.2.0 for Intel X86 EM64T Linux

 Parts of Q-Chem use Armadillo 8.300.2 (Tropical Shenanigans).
 http://arma.sourceforge.net/

 Q-Chem begins on Sun Sep 26 09:54:27 2021  

Host: cori01
0

     Scratch files written to /tmp/qchem9464//Frg2//
 May1019 |scratch|qcdevops|jenkins|workspace|build_RNUM -1
Processing $rem in /global/common/cori/software/qchem/5.2/config/preferences:
	 MEM_TOTAL  96000 
NAlpha2: 52
NElect   52
Mult     1
Symmetry turned off for PCM/SM12/SMD calculation

Checking the input file for inconsistencies... 	...done.

--------------------------------------------------------------
User input:
--------------------------------------------------------------
$molecule
0 1
 6	-2.0437605695	1.2361994534	0.4842431480
 6	-2.5847605695	2.0131994534	1.6822431480
 6	-2.3057605695	-0.2488005466	0.5222431480
 6	-1.9537605695	-1.2318005466	1.3982431480
 6	-3.0707605695	-2.1538005466	-0.2727568520
 7	-2.9727605695	-0.8458005466	-0.5287568520
 7	-2.4647605695	-2.4218005466	0.8862431480
 1	-2.5277605695	1.6331994534	-0.4067568520
 1	-0.9827605695	1.4341994534	0.3752431480
 1	-3.6487605695	1.8201994534	1.8182431480
 1	-1.3757605695	-1.1088005466	2.2982431480
 1	-3.5277605695	-2.8888005466	-0.9247568520
 1	-2.3567605695	-3.3588005466	1.2762431480
 1	-2.3771205695	3.0845194534	1.5438131480
 1	-2.0196105695	1.7730694534	2.5949031480
$end
$rem
EDA2		1
METHOD		WB97X-V
BASIS		DEF2-TZVPD
XC_GRID		000099000590
NL_GRID		1
UNRESTRICTED		FALSE
MAX_SCF_CYCLES		200
SYMMETRY		FALSE
SYM_IGNORE		TRUE
BASIS_LIN_DEP_THRESH		6
THRESH		14
SCF_CONVERGENCE		8
SCF_PRINT_FRGM		TRUE
SOLVENT_METHOD		PCM
!required keywords
JOBTYPE		SP
SYM_IGNORE		TRUE
SUBSYSTEM		TRUE
GEN_SCFMAN		TRUE
CHILD_INSTRUCTION		2
SYM_IGNORE		TRUE
SCFMI		0
RI_K 0		
PARI_K 0		
MIN_PARI_K 0		
IARI_K 0		
OCC_RI_K 0		
PURECART		1111
MEM_STATIC		2000
MEM_TOTAL		96000
GUI		0
CHILD_MP		1
CHILD_MP_ORDERS		232
FRZ_RELAX		0
FRZ_RELAX_METHOD		0
EDA_CLS_ELEC		1
EDA_CLS_DISP		0
FRZ_ORTHO_DECOMP		1
EDA2		FALSE
FRGM_METHOD		FALSE
CIS_N_ROOTS  0
LOCAL_CIS    0
CIS_RLX_DNS  1
$end
$pcm
THEORY                  CPCM
METHOD                  SWIG
SOLVER                  INVERSION
RADII                   UFF
HPOINTS                 302
HEAVYPOINTS             302
PRINTLEVEL              0
$end
$solvent
DIELECTRIC              78.390000 ! water
$end
--------------------------------------------------------------
 ----------------------------------------------------------------
             Standard Nuclear Orientation (Angstroms)
    I     Atom           X                Y                Z
 ----------------------------------------------------------------
    1      C      -2.0437605695     1.2361994534     0.4842431480
    2      C      -2.5847605695     2.0131994534     1.6822431480
    3      C      -2.3057605695    -0.2488005466     0.5222431480
    4      C      -1.9537605695    -1.2318005466     1.3982431480
    5      C      -3.0707605695    -2.1538005466    -0.2727568520
    6      N      -2.9727605695    -0.8458005466    -0.5287568520
    7      N      -2.4647605695    -2.4218005466     0.8862431480
    8      H      -2.5277605695     1.6331994534    -0.4067568520
    9      H      -0.9827605695     1.4341994534     0.3752431480
   10      H      -3.6487605695     1.8201994534     1.8182431480
   11      H      -1.3757605695    -1.1088005466     2.2982431480
   12      H      -3.5277605695    -2.8888005466    -0.9247568520
   13      H      -2.3567605695    -3.3588005466     1.2762431480
   14      H      -2.3771205695     3.0845194534     1.5438131480
   15      H      -2.0196105695     1.7730694534     2.5949031480
 ----------------------------------------------------------------
 Nuclear Repulsion Energy =         289.43041866 hartrees
 There are       26 alpha and       26 beta electrons
 Requested basis set is def2-TZVPD
 There are 131 shells and 331 basis functions

 Total QAlloc Memory Limit  96000 MB
 Mega-Array Size      1956 MB
 MEM_STATIC part      2000 MB
 Discretize the solute cavity surface with Lebedev spheres
	Using 302 Lebedev grid points for each H atom
	Using 302 Lebedev grid points for other atoms
	Atomic van der Waals radii will be scaled by 1.20
 Remove points where switching function is < 1.0e-08
 Keep 1825 surface tesserae and discard 2705 interior tesserae
 Molecular Surface Area = 181.884 Angst**2

                       Distance Matrix (Angstroms)
             C (  1)   C (  2)   C (  3)   C (  4)   C (  5)   N (  6)
   C (  2)  1.526962
   C (  3)  1.508414  2.557359
   C (  4)  2.633348  3.317958  1.362927
   C (  5)  3.622137  4.628403  2.201426  2.211338
   N (  6)  2.494781  3.634962  1.380543  2.213749  1.336415
   N (  7)  3.704026  4.507465  2.209006  1.392611  1.335043  2.178087
   H (  8)  1.088920  2.124046  2.110509  3.434491  3.828077  2.521577
   H (  9)  1.084807  2.147066  2.145793  3.016111  4.201594  3.158436
   H ( 10)  2.167173  1.089881  2.786400  3.516266  4.527587  3.615652
   H ( 11)  3.039053  3.404118  2.181439  1.076668  3.251936  3.257531
   H ( 12)  4.604689  5.631634  3.249106  3.258750  1.083595  2.153762
   H ( 13)  4.673249  5.392143  3.200503  2.168276  2.088354  3.154782
   H ( 14)  2.156410  1.100002  3.487079  4.339475  5.587581  4.483051
   H ( 15)  2.178003  1.100002  2.909598  3.235054  4.974806  4.186195
             N (  7)   H (  8)   H (  9)   H ( 10)   H ( 11)   H ( 12)
   H (  8)  4.256623
   H (  9)  4.162473  1.743029
   H ( 10)  4.501671  2.498447  3.055945
   H ( 11)  2.214415  4.020285  3.212355  3.738445
   H ( 12)  2.151227  4.660130  5.182215  5.450997  4.264649
   H ( 13)  1.020653  5.270844  5.066806  5.365172  2.658824  2.537034
   H ( 14)  5.546137  2.435928  2.456288  1.814080  4.376736  6.564934
   H ( 15)  4.551331  3.047580  2.473213  1.805423  2.967781  6.032873
             H ( 13)   H ( 14)
   H ( 14)  6.448905
   H ( 15)  5.309296  1.718285
 
 A cutoff of  1.0D-14 yielded   8267 shell pairs
 There are     53715 function pairs (     68396 Cartesian)
 Smallest overlap matrix eigenvalue = 1.55E-06

 Scale SEOQF with 1.000000e-01/1.000000e-01/1.000000e-01

 Standard Electronic Orientation quadrupole field applied
 Nucleus-field energy     =     0.0000000167 hartrees
 Guess from superposition of atomic densities
 Warning:  Energy on first SCF cycle will be non-variational
 SAD guess density has 51.546797 electrons

 -----------------------------------------------------------------------
  General SCF calculation program by
  Eric Jon Sundstrom, Paul Horn, Yuezhi Mao, Dmitri Zuev, Alec White,
  David Stuck, Shaama M.S., Shane Yost, Joonho Lee, David Small,
  Daniel Levine, Susi Lehtola, Hugh Burton, Evgeny Epifanovsky
 -----------------------------------------------------------------------
 Exchange:     0.1670 Hartree-Fock + 1.0000 wB97X-V + LR-HF
 Correlation:  1.0000 wB97X-V
 Using Euler-Maclaurin-Lebedev (99,590) quadrature formula
 Nonlocal Correlation:  VV10 with C = 0.0100 and b = 6.00 and scale = 1.00000
 Grid used for NLC:  SG-1 standard quadrature
Energy prior to optimization (guess energy) = -304.451573140090
Begin Timing: Total SCF Calculation
begin iterations for algorithm: DIIS         
the SCF tolerance is set to 1.00e-08
    1    -304.4515731401      6.04e-03     00000 
    2    -304.4072890675      6.20e-03     00000 
    3    -304.8730243881      6.37e-04     00000 
    4    -304.8770454550      3.57e-04     00000 
    5    -304.8785769167      7.50e-05     00000 
    6    -304.8786687826      2.75e-05     00000 
    7    -304.8786837972      8.02e-06     00000 
    8    -304.8786854097      2.69e-06     00000 
    9    -304.8786856157      1.20e-06     00000 
   10    -304.8786856653      3.43e-07     00000 
   11    -304.8786856711      8.67e-08     00000 
   12    -304.8786856715      4.14e-08     00000 
   13    -304.8786856715      9.73e-09     00000 Convergence criterion met
Timing for Total SCF: 1488.00s (wall), 2957.98s (cpu)

************** Final PCM Free Energy Summary **************
 G_electrostatic  =      -0.01055124 hartree =      -6.62100511 kcal/mol
 G_cavitation     =       0.00000000 hartree =       0.00000000 kcal/mol
 G_dispersion     =       0.00000000 hartree =       0.00000000 kcal/mol
 G_repulsion      =       0.00000000 hartree =       0.00000000 kcal/mol
 --------------------------------------------------
 Non-electrostatic Free Energy =       0.00000000 hartree =       0.00000000 kcal/mol
 Total                         =      -0.01055124 hartree =      -6.62100511 kcal/mol
 --------------------------------------------------
 SCF Energy (H0 + V/2)                       =    -304.87868567 
 Solute Internal Energy (H0)                 =    -304.86813443 
 Total Free Energy (H0 + V/2 + non-elec)     =    -304.87868567 hartree
                                             = -191314.26276490 kcal/mol
***********************************************************

E_pcm = -0.0105512433
Multipole orders to be included
        2
        3
computing dipole RHS
computing quadrupole RHS
total number of RHS in solve_reponses: 8
RHS batch sizes
        8
Beginning Block Conjugate Gradient Iterations. Batch Number: 0
computing hessian-vector products by finite difference
              1      5.64e-01     00000 Conjugate Gradient Iteration
computing hessian-vector products by finite difference
              2      1.84e-01     00000 Conjugate Gradient Iteration
computing hessian-vector products by finite difference
              3      4.29e-02     00000 Conjugate Gradient Iteration
computing hessian-vector products by finite difference
              4      1.05e-02     00000 Conjugate Gradient Iteration
computing hessian-vector products by finite difference
              5      2.30e-03     00000 Conjugate Gradient Iteration
computing hessian-vector products by finite difference
              6      5.07e-04     00000 Conjugate Gradient Iteration
computing hessian-vector products by finite difference
              7      1.04e-04     00000 Conjugate Gradient Iteration
computing hessian-vector products by finite difference
              8      1.55e-05     00000 Conjugate Gradient Iteration
computing hessian-vector products by finite difference
              9      2.49e-06     00000 Conjugate Gradient Iteration
computing hessian-vector products by finite difference
             10      3.90e-07     00000 Conjugate Gradient Iteration
computing hessian-vector products by finite difference
             11      6.33e-08     00000 Conjugate Gradient Iteration
computing hessian-vector products by finite difference
             12      1.28e-08     00000 Conjugate Gradient Iteration
computing hessian-vector products by finite difference
             13      4.71e-09     00000 CG Converged
batch 0 complete
Done Calculating Responses
TESTING ORTHOGONALIZATION OF MULTIPOLE BASIS
Multipole virts passed orthogonality test
Virts Per Order
           78
          130
 
 --------------------------------------------------------------
 
                    Orbital Energies (a.u.)
 --------------------------------------------------------------
 
 Alpha MOs
 -- Occupied --
-14.4699 -14.3889 -10.3242 -10.2928 -10.2866 -10.2672 -10.2575  -1.1519
 -0.9976  -0.9152  -0.8615  -0.7659  -0.7247  -0.6836  -0.6657  -0.5757
 -0.5572  -0.5465  -0.5387  -0.5292  -0.4760  -0.4560  -0.4425  -0.3805
 -0.3759  -0.3250
 -- Virtual --
  0.0634   0.0791   0.0877   0.0935   0.1009   0.1116   0.1223   0.1292
  0.1457   0.1579   0.1671   0.1712   0.1792   0.1826   0.1982   0.2062
  0.2140   0.2194   0.2310   0.2393   0.2451   0.2540   0.2641   0.2764
  0.2814   0.2856   0.2894   0.2978   0.3023   0.3112   0.3135   0.3199
  0.3286   0.3307   0.3371   0.3415   0.3509   0.3553   0.3664   0.3674
  0.3725   0.3743   0.3814   0.3873   0.3959   0.4001   0.4060   0.4085
  0.4220   0.4278   0.4374   0.4488   0.4592   0.4692   0.4756   0.4780
  0.4800   0.4838   0.4903   0.4955   0.5068   0.5111   0.5186   0.5301
  0.5365   0.5389   0.5573   0.5602   0.5700   0.5745   0.5835   0.5897
  0.6001   0.6089   0.6111   0.6220   0.6324   0.6366   0.6570   0.6654
  0.6783   0.6849   0.6909   0.7004   0.7111   0.7272   0.7306   0.7447
  0.7573   0.7594   0.7680   0.7786   0.7825   0.7854   0.7943   0.8001
  0.8065   0.8146   0.8170   0.8255   0.8315   0.8419   0.8567   0.8711
  0.8778   0.8958   0.9053   0.9158   0.9528   0.9657   0.9829   0.9965
  1.0117   1.0198   1.0259   1.0347   1.0521   1.0786   1.0886   1.1031
  1.1245   1.1277   1.1422   1.1782   1.1906   1.2133   1.2312   1.2491
  1.2805   1.3055   1.3265   1.3512   1.3691   1.3885   1.4106   1.4323
  1.4643   1.4779   1.4909   1.5298   1.5438   1.5925   1.6276   1.6436
  1.6740   1.7007   1.7291   1.7589   1.8111   1.8411   1.8510   1.8634
  1.8844   1.8912   1.9215   1.9258   1.9272   1.9523   1.9548   1.9629
  1.9840   1.9898   1.9951   2.0090   2.0214   2.0379   2.0562   2.0874
  2.1407   2.1694   2.1870   2.2144   2.2345   2.2764   2.2870   2.3024
  2.3346   2.3841   2.4011   2.4372   2.4501   2.4740   2.4823   2.5211
  2.5444   2.5795   2.5872   2.6246   2.6405   2.6603   2.6730   2.6966
  2.7020   2.7284   2.7437   2.7661   2.7713   2.8094   2.8463   2.8605
  2.8746   2.9074   2.9239   2.9708   2.9829   2.9880   3.0334   3.0500
  3.0616   3.0765   3.0998   3.1267   3.1342   3.1674   3.1922   3.2170
  3.2426   3.2553   3.2655   3.2960   3.3112   3.3288   3.3498   3.3599
  3.3701   3.3880   3.3983   3.4184   3.4286   3.4447   3.4876   3.4944
  3.5121   3.5339   3.5664   3.5820   3.5946   3.6233   3.6471   3.6547
  3.6890   3.6987   3.7279   3.7377   3.7673   3.8021   3.8311   3.8419
  3.9525   3.9684   3.9893   4.0324   4.0573   4.0868   4.1185   4.1418
  4.1923   4.2211   4.2778   4.3346   4.4015   4.4392   4.4747   4.5166
  4.5863   4.6350   4.6447   4.6743   4.7643   4.7978   4.8260   4.8482
  4.8770   4.9273   4.9594   5.0141   5.0409   5.0604   5.0797   5.1419
  5.1631   5.2227   5.2438   5.3046   5.3701   5.4180   5.4843   5.5283
  5.5798   5.6110   5.6793   5.7027   5.7789   5.8007   5.8753   6.0513
  6.2105   6.2672  22.6346  22.7766  22.8734  23.1064  23.4067  32.6485
 32.7933
 --------------------------------------------------------------
 
          Ground-State Mulliken Net Atomic Charges

     Atom                 Charge (a.u.)
  ----------------------------------------
      1 C                    -0.093254
      2 C                    -0.810889
      3 C                     0.408722
      4 C                    -0.633327
      5 C                    -0.269382
      6 N                    -0.455457
      7 N                     0.098807
      8 H                     0.167491
      9 H                     0.178910
     10 H                     0.236978
     11 H                     0.262096
     12 H                     0.293965
     13 H                     0.182155
     14 H                     0.208514
     15 H                     0.224670
  ----------------------------------------
  Sum of atomic charges =     0.000000

 -----------------------------------------------------------------
                    Cartesian Multipole Moments
 -----------------------------------------------------------------
    Charge (ESU x 10^10)
                -0.0000
    Dipole Moment (Debye)
         X       1.3001      Y      -3.0916      Z       2.8479
       Tot       4.3998
    Quadrupole Moments (Debye-Ang)
        XX     -50.4012     XY       8.8183     YY     -26.1699
        XZ      -5.2147     YZ      -3.8750     ZZ     -41.9562
    Octopole Moments (Debye-Ang^2)
       XXX     351.8977    XXY      -6.9583    XYY      61.9593
       YYY      -6.0073    XXZ     -17.6475    XYZ       5.9643
       YYZ     -15.9843    XZZ     110.0578    YZZ       8.3458
       ZZZ     -75.6166
    Hexadecapole Moments (Debye-Ang^3)
      XXXX   -1822.4941   XXXY     -87.8737   XXYY    -295.1530
      XYYY       5.8140   YYYY    -583.9552   XXXZ     155.6622
      XXYZ     -16.0607   XYYZ      45.1360   YYYZ     -85.3713
      XXZZ    -359.6239   XYZZ     -31.7997   YYZZ    -163.3072
      XZZZ     174.1550   YZZZ     -53.8936   ZZZZ    -337.0251
 -----------------------------------------------------------------
Archival summary:
1\1\nid00531\SP\ProcedureUnspecified\BasisUnspecified\258\meili\SunSep2617:35:472021SunSep2617:35:472021\0\\#,ProcedureUnspecified,BasisUnspecified,\\0,1\N\C,1,1.33641\H,2,1.08359,1,125.418\N,2,1.33504,1,109.238,3,177.303,0\H,4,1.02065,2,124.336,1,-176.417,0\C,1,1.38054,2,108.231,3,-178.748,0\C,6,1.36293,1,107.59,2,2.36096,0\H,7,1.07667,6,126.407,1,176.538,0\C,6,1.50841,1,119.371,2,179.387,0\H,9,1.08481,6,110.616,1,-111.753,0\H,9,1.08892,6,107.598,1,4.3414,0\C,9,1.52696,6,114.813,1,123.826,0\H,12,1.08988,9,110.712,6,-54.2976,0\H,12,1.1,9,109.267,6,-177.938,0\H,12,1.1,9,110.967,6,69.5065,0\\\@

 Total job time:  27686.48s(wall), 55015.17s(cpu) 
 Sun Sep 26 17:35:54 2021

        *************************************************************
        *                                                           *
        *  Thank you very much for using Q-Chem.  Have a nice day.  *
        *                                                           *
        *************************************************************


Done Job For Fragment 1
calling putenv with: QCSCRATCH=/global/cscratch1/sd/meili 
calling putenv with: QCLOCALSCR=/tmp 
calling putenv with: QCTHREADS=32 
Doing General SCFMI
 Exchange:     0.1670 Hartree-Fock + 1.0000 wB97X-V + LR-HF
 Correlation:  1.0000 wB97X-V
 Using Euler-Maclaurin-Lebedev (99,590) quadrature formula
 Nonlocal Correlation:  VV10 with C = 0.0100 and b = 6.00 and scale = 1.00000
 Grid used for NLC:  SG-1 standard quadrature
performing fock build before subrot guess so that all methods have access
Printing subrot_rss_gen Method Specification:
Occupied Subspace Method is 0
Virtual Subspace Method is 0
Energy of the unrelaxed supersystem initial determinant -576.446460199740
performing fock build before subrot guess so that all methods have access
Printing subrot_rss_gen Method Specification:
Occupied Subspace Method is 0
Virtual Subspace Method is 0
Energy of the unrelaxed supersystem initial determinant w/ solvent -576.458629742313
write pseudocanon occs and virts to disk
write pseudocanon orbital energies to disk
Tolerance of ortho_decomp_scf: 1.00e-06
GDM subspace size: 20
Beginning the Orthogonal Decomposition of the Initial Supersystem Wavefunction
    1    -576.4292044267      1.71e-02     ortho_decomp Preconditoned Steepest Descent
    2    -576.4305682816      4.35e-04     ortho_decomp BFGS Step
    3    -576.4305725326      3.10e-05     ortho_decomp BFGS Step
    4    -576.4305725394      1.19e-06     ortho_decomp BFGS Step
    5    -576.4305725394      2.78e-08     ortho_decomp 00000 Convergence criterion met
 Hartree-Fock
 Hartree-Fock
 Hartree-Fock
Doing General SCFMI
 Exchange:     0.1670 Hartree-Fock + 1.0000 wB97X-V + LR-HF
 Correlation:  1.0000 wB97X-V
 Using Euler-Maclaurin-Lebedev (99,590) quadrature formula
 Nonlocal Correlation:  VV10 with C = 0.0100 and b = 6.00 and scale = 1.00000
 Grid used for NLC:  SG-1 standard quadrature
performing fock build at end of subrot_r(subrot) constructor so that all methods have access
<S^2> of initial wavefunction before polarization iterations 0.0000000000
Beginning iterations for the determination of the polarized wavefunction
Energy prior to optimization (guess energy) = -576.458629742313
Begin Timing: Total SCF Calculation
begin iterations for algorithm: DIIS         
the SCF tolerance is set to 1.00e-08
    1    -576.4586297423      4.62e-05     00000 
    2    -576.4588752862      1.59e-05     00000 
    3    -576.4588944640      9.05e-06     00000 
    4    -576.4588999226      2.79e-06     00000 
    5    -576.4589006032      1.39e-06     00000 
    6    -576.4589008147      6.29e-07     00000 
    7    -576.4589008543      3.15e-07     00000 
    8    -576.4589008612      1.39e-07     00000 
    9    -576.4589008624      5.04e-08     00000 
   10    -576.4589008625      2.45e-08     00000 
   11    -576.4589008625      1.07e-08     00000 
   12    -576.4589008625      4.37e-09     00000 Convergence criterion met
write pseudocanon occs and virts to disk
write pseudocanon orbital energies to disk
Timing for Total SCF: 10770.00s (wall), 21422.40s (cpu)
<S^2> of polarized wavefunction after polarization iterations 0.0000000000
relaxing scfmi constraint to allow all rotations in the entire AO span
Doing General SCFMI
 Exchange:     0.1670 Hartree-Fock + 1.0000 wB97X-V + LR-HF
 Correlation:  1.0000 wB97X-V
 Using Euler-Maclaurin-Lebedev (99,590) quadrature formula
 Nonlocal Correlation:  VV10 with C = 0.0100 and b = 6.00 and scale = 1.00000
 Grid used for NLC:  SG-1 standard quadrature
performing fock build at end of subrot_r(subrot) constructor so that all methods have access
<S^2> of polarized wavefunction before ct-allowed iterations 0.0000000000
Beginning iterations for the determination of the CT-Allowed wavefunction
Energy prior to optimization (guess energy) = -576.458900862522
Begin Timing: Total SCF Calculation
begin iterations for algorithm: DIIS         
the SCF tolerance is set to 1.00e-08
    1    -576.4589008625      6.53e-05     00000 
    2    -576.4598422352      6.98e-06     00000 
    3    -576.4598685974      1.03e-06     00000 
    4    -576.4598693050      3.95e-07     00000 
    5    -576.4598693405      1.43e-07     00000 
    6    -576.4598693467      5.06e-08     00000 
    7    -576.4598693473      1.33e-08     00000 
    8    -576.4598693474      6.33e-09     00000 Convergence criterion met
write pseudocanon occs and virts to disk
write pseudocanon orbital energies to disk
Timing for Total SCF: 6727.00s (wall), 13348.49s (cpu)
<S^2> of ct_allowed wavefunction after ct-allowed iterations 0.0000000000

================================
        Results of EDA2         
================================
Basic EDA Quantities
--------------------
Fragment Energies (Ha):
1 -271.5781481685
2 -304.8786856715
--------------------
  E_prp (kJ/mol) = 0.0000
  E_sol (kJ/mol) = 1.9745
  E_frz (kJ/mol) = -6.6897
  E_pol (kJ/mol) = -0.7118
  E_vct (kJ/mol) = -2.5428
  E_int (kJ/mol) = -7.9698
--------------------


Initial Wavefunction Decomposition
--------------------
  --------------------
  Orthogonal Fragment Subspace Decomposition:
  --------------------
     E_elec   (ELEC)   (kJ/mol) = -18.0707
     E_pauli  (PAULI)  (kJ/mol) = 26.9007
     E_disp   (DISP)   (kJ/mol) = -15.5198
     --------------------
     Terms summing to E_pauli:
     --------------------
        E_kep_pauli       (kJ/mol) = 35.0238
        E_disp_free_pauli (kJ/mol) = -8.1231
  --------------------
  Classical Frozen Decomposition:
  --------------------
     E_cls_elec  (CLS ELEC)  (kJ/mol) = -7.3727
     E_cls_pauli (CLS PAULI) (kJ/mol) = 0.6830
    [E_mod_pauli (MOD PAULI) (kJ/mol) = 16.2027 (CLS PAULI - DISP from orthogonal decomposition) ]
  --------------------
--------------------

Simplified EDA Summary (kJ/mol)
--------------------
 PREPARATION     0.0000
 SOLVATION       1.9745
 FROZEN          8.8300      (does not include dispersion)
[PAULI           26.9007]     (if this is negligible, then frozen describes electrostatics)
 DISPERSION      -15.5198
 POLARIZATION    -0.7118
 CHARGE TRANSFER -2.5428
 TOTAL           -7.9698     (PRP + SOL + FRZ + DISP + POL + CT)
--------------------
 
 --------------------------------------------------------------
 
                    Orbital Energies (a.u.)
 --------------------------------------------------------------
 
 Alpha MOs
 -- Occupied --
-14.4708 -14.3899 -10.3253 -10.2943 -10.2878 -10.2826 -10.2707 -10.2698
-10.2678 -10.2653 -10.2646 -10.2642 -10.2627 -10.2581  -1.1529  -1.0023
 -0.9985  -0.9164  -0.9084  -0.8800  -0.8625  -0.8158  -0.7669  -0.7309
 -0.7255  -0.7086  -0.6847  -0.6668  -0.6339  -0.5799  -0.5752  -0.5634
 -0.5581  -0.5476  -0.5397  -0.5352  -0.5313  -0.5271  -0.5154  -0.4917
 -0.4773  -0.4771  -0.4575  -0.4452  -0.4391  -0.4372  -0.3812  -0.3768
 -0.3494  -0.3404  -0.3262
 -- Virtual --
  0.0564   0.0658   0.0679   0.0705   0.0721   0.0826   0.0893   0.0910
  0.0940   0.1014   0.1090   0.1119   0.1167   0.1192   0.1313   0.1374
  0.1407   0.1495   0.1510   0.1604   0.1688   0.1710   0.1748   0.1756
  0.1817   0.1958   0.1996   0.2007   0.2080   0.2102   0.2158   0.2203
  0.2239   0.2263   0.2328   0.2369   0.2389   0.2413   0.2504   0.2577
  0.2607   0.2667   0.2706   0.2715   0.2740   0.2797   0.2815   0.2830
  0.2833   0.2882   0.2935   0.2970   0.2984   0.3010   0.3075   0.3084
  0.3137   0.3180   0.3205   0.3236   0.3258   0.3286   0.3363   0.3377
  0.3417   0.3454   0.3485   0.3516   0.3538   0.3575   0.3589   0.3633
  0.3638   0.3710   0.3733   0.3759   0.3802   0.3841   0.3874   0.3908
  0.3923   0.3932   0.3955   0.4026   0.4060   0.4075   0.4139   0.4179
  0.4190   0.4227   0.4276   0.4282   0.4291   0.4386   0.4435   0.4446
  0.4470   0.4494   0.4571   0.4574   0.4608   0.4655   0.4699   0.4739
  0.4756   0.4790   0.4825   0.4836   0.4872   0.4882   0.4964   0.5000
  0.5038   0.5067   0.5088   0.5185   0.5206   0.5247   0.5295   0.5348
  0.5400   0.5429   0.5465   0.5517   0.5522   0.5547   0.5580   0.5649
  0.5669   0.5704   0.5726   0.5764   0.5826   0.5858   0.5896   0.5944
  0.6024   0.6036   0.6119   0.6142   0.6213   0.6278   0.6329   0.6378
  0.6393   0.6462   0.6510   0.6526   0.6590   0.6610   0.6682   0.6689
  0.6723   0.6782   0.6817   0.6887   0.6909   0.6995   0.7009   0.7066
  0.7106   0.7159   0.7197   0.7231   0.7272   0.7307   0.7332   0.7405
  0.7481   0.7505   0.7541   0.7599   0.7619   0.7679   0.7698   0.7705
  0.7781   0.7823   0.7852   0.7886   0.7949   0.7959   0.8001   0.8064
  0.8080   0.8095   0.8136   0.8199   0.8254   0.8293   0.8327   0.8365
  0.8419   0.8436   0.8476   0.8499   0.8599   0.8609   0.8659   0.8704
  0.8763   0.8782   0.8866   0.8886   0.8952   0.9028   0.9054   0.9110
  0.9210   0.9277   0.9349   0.9407   0.9488   0.9505   0.9594   0.9682
  0.9769   0.9835   0.9846   0.9936   0.9970   1.0013   1.0123   1.0222
  1.0278   1.0353   1.0452   1.0496   1.0518   1.0647   1.0676   1.0730
  1.0821   1.0909   1.0993   1.0993   1.1058   1.1121   1.1247   1.1277
  1.1320   1.1462   1.1514   1.1626   1.1660   1.1723   1.1837   1.1920
  1.2082   1.2234   1.2339   1.2491   1.2541   1.2667   1.2751   1.2906
  1.3037   1.3055   1.3155   1.3247   1.3437   1.3475   1.3566   1.3678
  1.3736   1.3897   1.3909   1.4156   1.4251   1.4331   1.4517   1.4701
  1.4757   1.4921   1.4939   1.5011   1.5185   1.5240   1.5249   1.5352
  1.5424   1.5678   1.5754   1.6046   1.6195   1.6309   1.6327   1.6365
  1.6476   1.6648   1.6879   1.6901   1.6972   1.7073   1.7395   1.7501
  1.7720   1.7841   1.8002   1.8036   1.8274   1.8416   1.8502   1.8582
  1.8633   1.8747   1.8789   1.8961   1.8992   1.9144   1.9268   1.9349
  1.9411   1.9437   1.9468   1.9555   1.9635   1.9684   1.9837   1.9846
  2.0002   2.0029   2.0117   2.0182   2.0229   2.0321   2.0384   2.0426
  2.0481   2.0530   2.0639   2.0735   2.0751   2.0965   2.1126   2.1216
  2.1236   2.1383   2.1615   2.1659   2.1768   2.1812   2.2004   2.2175
  2.2209   2.2419   2.2591   2.2646   2.2707   2.2798   2.2882   2.3009
  2.3110   2.3220   2.3333   2.3544   2.3596   2.3821   2.3998   2.4151
  2.4265   2.4401   2.4499   2.4569   2.4723   2.4840   2.4938   2.5073
  2.5331   2.5553   2.5598   2.5695   2.5876   2.5964   2.6001   2.6214
  2.6311   2.6408   2.6517   2.6561   2.6735   2.6804   2.6891   2.7051
  2.7121   2.7205   2.7322   2.7433   2.7542   2.7584   2.7622   2.7855
  2.7910   2.8019   2.8074   2.8176   2.8209   2.8353   2.8554   2.8695
  2.8742   2.8791   2.8864   2.8997   2.9113   2.9215   2.9324   2.9368
  2.9570   2.9609   2.9696   2.9712   2.9887   2.9969   3.0032   3.0050
  3.0139   3.0214   3.0391   3.0551   3.0581   3.0688   3.0810   3.0877
  3.0969   3.1117   3.1132   3.1197   3.1410   3.1581   3.1630   3.1727
  3.1826   3.2012   3.2110   3.2210   3.2262   3.2316   3.2496   3.2613
  3.2691   3.2726   3.2899   3.2967   3.3116   3.3225   3.3311   3.3461
  3.3523   3.3660   3.3774   3.3846   3.3867   3.3929   3.3968   3.4062
  3.4116   3.4204   3.4312   3.4376   3.4468   3.4527   3.4596   3.4671
  3.4837   3.4877   3.4983   3.5057   3.5121   3.5197   3.5302   3.5451
  3.5519   3.5595   3.5628   3.5731   3.5759   3.5929   3.5982   3.6046
  3.6078   3.6164   3.6306   3.6357   3.6455   3.6528   3.6719   3.6790
  3.6832   3.6908   3.7111   3.7167   3.7231   3.7292   3.7347   3.7440
  3.7746   3.7936   3.7949   3.8387   3.8416   3.8482   3.8551   3.8588
  3.9124   3.9408   3.9620   3.9690   3.9941   3.9999   4.0072   4.0291
  4.0532   4.0666   4.0838   4.0970   4.1106   4.1371   4.1615   4.1801
  4.2115   4.2137   4.2386   4.2839   4.2924   4.3024   4.3232   4.3429
  4.3520   4.3619   4.3809   4.3886   4.4092   4.4196   4.4360   4.4487
  4.4551   4.4709   4.4870   4.4927   4.5230   4.5493   4.5664   4.5988
  4.6394   4.6498   4.6582   4.6755   4.6949   4.7620   4.7702   4.7948
  4.8100   4.8500   4.8532   4.8580   4.8875   4.8944   4.9469   4.9511
  4.9693   4.9785   5.0259   5.0488   5.0565   5.0676   5.0787   5.0966
  5.1511   5.1840   5.2034   5.2460   5.2792   5.2963   5.3246   5.3846
  5.4176   5.4227   5.4275   5.4875   5.4944   5.5294   5.5409   5.5884
  5.6232   5.6935   5.7134   5.7292   5.7915   5.8148   5.8437   5.8873
  6.0596   6.2173   6.2744  22.6272  22.6670  22.6873  22.8443  22.9283
 22.9541  22.9678  23.0761  23.1290  23.1824  23.4319  23.5108  32.7010
 32.8698
 --------------------------------------------------------------
 
          Ground-State Mulliken Net Atomic Charges

     Atom                 Charge (a.u.)
  ----------------------------------------
      1 C                    -0.865347
      2 C                    -0.249908
      3 C                     0.321074
      4 C                    -0.455556
      5 C                    -0.493112
      6 C                    -0.414268
      7 C                    -0.415976
      8 H                     0.525478
      9 H                     0.332769
     10 H                     0.178157
     11 H                     0.195367
     12 H                     0.353128
     13 H                     0.334051
     14 H                     0.324001
     15 H                     0.257499
     16 C                     0.135912
     17 C                    -0.992516
     18 C                     0.404935
     19 C                    -0.552881
     20 C                    -0.286639
     21 N                    -0.464971
     22 N                     0.103178
     23 H                     0.201303
     24 H                     0.031970
     25 H                     0.252017
     26 H                     0.284698
     27 H                     0.289844
     28 H                     0.182337
     29 H                     0.243088
     30 H                     0.240368
  ----------------------------------------
  Sum of atomic charges =     0.000000

 -----------------------------------------------------------------
                    Cartesian Multipole Moments
 -----------------------------------------------------------------
    Charge (ESU x 10^10)
                -0.0000
    Dipole Moment (Debye)
         X       0.8488      Y      -3.4706      Z       2.6551
       Tot       4.4514
    Quadrupole Moments (Debye-Ang)
        XX     -90.7037     XY      10.3729     YY     -70.3497
        XZ      -6.3437     YZ      -1.1060     ZZ     -81.4284
    Octopole Moments (Debye-Ang^2)
       XXX      47.0515    XXY     -14.8922    XYY     -50.5084
       YYY     -76.8244    XXZ       3.5275    XYZ      12.7542
       YYZ      17.3601    XZZ       8.8340    YZZ     -13.4052
       ZZZ       3.1966
    Hexadecapole Moments (Debye-Ang^3)
      XXXX   -3763.8392   XXXY    -255.9495   XXYY    -689.5562
      XYYY    -261.0932   YYYY    -865.8396   XXXZ     285.1154
      XXYZ     -14.4659   XYYZ     119.0747   YYYZ    -123.0839
      XXZZ    -761.5183   XYZZ    -115.8843   YYZZ    -288.7353
      XZZZ     327.0262   YZZZ     -87.8434   ZZZZ    -787.1422
 -----------------------------------------------------------------
Archival summary:
1\1\nid00531\SP\ProcedureUnspecified\BasisUnspecified\21216\meili\MonSep2702:22:182021MonSep2702:22:182021\0\\#,ProcedureUnspecified,BasisUnspecified,\\0,1\N\C,1,1.33641\H,2,1.08359,1,125.418\N,2,1.33504,1,109.238,3,177.303,0\H,4,1.02065,2,124.336,1,-176.417,0\C,1,1.38054,2,108.231,3,-178.748,0\C,6,1.36293,1,107.59,2,2.36096,0\H,7,1.07667,6,126.407,1,176.538,0\C,6,1.50841,1,119.371,2,179.387,0\H,9,1.08481,6,110.616,1,-111.753,0\H,9,1.08892,6,107.598,1,4.3414,0\C,9,1.52696,6,114.813,1,123.826,0\H,12,1.08988,9,110.712,6,-54.2976,0\H,12,1.1,9,109.267,6,-177.938,0\H,12,1.1,9,110.967,6,69.5065,0\H,10,2.06123,9,132.257,6,-9.81118,0\C,16,1.07525,10,123.51,9,160.896,0\C,17,1.36716,16,120.034,10,-94.2705,0\C,17,1.3787,16,119.492,10,86.8121,0\H,19,1.07112,17,118.124,16,-4.74534,0\C,19,1.36195,17,122.288,16,173.717,0\H,21,1.08225,19,120.329,17,-178.347,0\C,21,1.37877,19,119.072,17,1.33176,0\H,23,1.0817,21,120.489,19,-179.625,0\C,23,1.38873,21,118.863,19,2.23216,0\H,25,1.07679,23,117.247,21,177.694,0\C,18,1.52613,17,119.277,16,2.64453,0\H,27,1.08674,18,107.978,17,-77.8185,0\H,27,1.09067,18,109.155,17,39.139,0\H,27,1.1,18,113.952,17,161.332,0\\\@

 Total job time:  87497.25s(wall), 62872.25s(cpu) 
 Mon Sep 27 02:22:22 2021

        *************************************************************
        *                                                           *
        *  Thank you very much for using Q-Chem.  Have a nice day.  *
        *                                                           *
        *************************************************************


