                  Welcome to Q-Chem
     A Quantum Leap Into The Future Of Chemistry


 Q-Chem 5.2 (devel), Q-Chem, Inc., Pleasanton, CA (2019)

 Yihan Shao,  Zhengting Gan,  E. Epifanovsky,  A. T. B. Gilbert,  M. Wormit,  
 J. Kussmann,  A. W. Lange,  A. Behn,  Jia Deng,  Xintian Feng,  D. Ghosh,  
 M. Goldey,  P. R. Horn,  L. D. Jacobson,  I. Kaliman,  T. Kus,  A. Landau,  
 Jie Liu,  E. I. Proynov,  R. M. Richard,  R. P. Steele,  E. J. Sundstrom,  
 H. L. Woodcock III,  P. M. Zimmerman,  D. Zuev,  B. Albrecht,  E. Alguire,  
 S. A. Baeppler,  D. Barton,  Z. Benda,  Y. A. Bernard,  E. J. Berquist,  
 K. B. Bravaya,  H. Burton,  D. Casanova,  Chun-Min Chang,  Yunqing Chen,  
 A. Chien,  K. D. Closser,  M. P. Coons,  S. Coriani,  S. Dasgupta,  
 A. L. Dempwolff,  M. Diedenhofen,  Hainam Do,  R. G. Edgar,  Po-Tung Fang,  
 S. Faraji,  S. Fatehi,  Qingguo Feng,  K. D. Fenk,  J. Fosso-Tande,  
 J. Gayvert,  Qinghui Ge,  A. Ghysels,  G. Gidofalvi,  J. Gomes,  
 J. Gonthier,  A. Gunina,  D. Hait,  M. W. D. Hanson-Heine,  
 P. H. P. Harbach,  A. W. Hauser,  M. F. Herbst,  J. E. Herr,  
 E. G. Hohenstein,  Z. C. Holden,  Kerwin Hui,  B. C. Huynh,  T.-C. Jagau,  
 Hyunjun Ji,  B. Kaduk,  K. Khistyaev,  Jaehoon Kim,  P. Klunzinger,  K. Koh,  
 D. Kosenkov,  L. Koulias,  T. Kowalczyk,  C. M. Krauter,  A. Kunitsa,  
 Ka Un Lao,  A. Laurent,  K. V. Lawler,  Joonho Lee,  D. Lefrancois,  
 S. Lehtola,  D. S. Levine,  Yi-Pei Li,  You-Sheng Lin,  Fenglai Liu,  
 E. Livshits,  A. Luenser,  P. Manohar,  E. Mansoor,  S. F. Manzer,  
 Shan-Ping Mao,  Yuezhi Mao,  N. Mardirossian,  A. V. Marenich,  
 T. Markovich,  L. A. Martinez-Martinez,  S. A. Maurer,  N. J. Mayhall,  
 S. C. McKenzie,  J.-M. Mewes,  P. Morgante,  A. F. Morrison,  
 J. W. Mullinax,  K. Nanda,  T. S. Nguyen-Beck,  R. Olivares-Amaya,  
 J. A. Parkhill,  Zheng Pei,  T. M. Perrine,  F. Plasser,  P. Pokhilko,  
 S. Prager,  A. Prociuk,  E. Ramos,  D. R. Rehn,  F. Rob,  M. Scheurer,  
 M. Schneider,  N. Sergueev,  S. M. Sharada,  S. Sharma,  D. W. Small,  
 T. Stauch,  T. Stein,  Yu-Chuan Su,  A. J. W. Thom,  A. Tkatchenko,  
 T. Tsuchimochi,  N. M. Tubman,  L. Vogt,  M. L. Vidal,  O. Vydrov,  
 M. A. Watson,  J. Wenzel,  M. de Wergifosse,  T. A. Wesolowski,  A. White,  
 J. Witte,  A. Yamada,  Jun Yang,  K. Yao,  S. Yeganeh,  S. R. Yost,  
 Zhi-Qiang You,  A. Zech,  Igor Ying Zhang,  Xing Zhang,  Yan Zhao,  
 Ying Zhu,  B. R. Brooks,  G. K. L. Chan,  C. J. Cramer,  M. S. Gordon,  
 W. J. Hehre,  A. Klamt,  M. W. Schmidt,  C. D. Sherrill,  D. G. Truhlar,  
 A. Aspuru-Guzik,  R. Baer,  A. T. Bell,  N. A. Besley,  Jeng-Da Chai,  
 A. E. DePrince, III,  R. A. DiStasio Jr.,  A. Dreuw,  B. D. Dunietz,  
 T. R. Furlani,  Chao-Ping Hsu,  Yousung Jung,  Jing Kong,  D. S. Lambrecht,  
 WanZhen Liang,  C. Ochsenfeld,  V. A. Rassolov,  L. V. Slipchenko,  
 J. E. Subotnik,  T. Van Voorhis,  J. M. Herbert,  A. I. Krylov,  
 P. M. W. Gill,  M. Head-Gordon

 Contributors to earlier versions of Q-Chem not listed above: 
 R. D. Adamson,  B. Austin,  J. Baker,  G. J. O. Beran,  K. Brandhorst,  
 S. T. Brown,  E. F. C. Byrd,  A. K. Chakraborty,  C.-L. Cheng,  
 Siu Hung Chien,  D. M. Chipman,  D. L. Crittenden,  H. Dachsel,  
 R. J. Doerksen,  A. D. Dutoi,  L. Fusti-Molnar,  W. A. Goddard III,  
 A. Golubeva-Zadorozhnaya,  S. R. Gwaltney,  G. Hawkins,  A. Heyden,  
 S. Hirata,  G. Kedziora,  F. J. Keil,  C. Kelley,  Jihan Kim,  R. A. King,  
 R. Z. Khaliullin,  P. P. Korambath,  W. Kurlancheek,  A. M. Lee,  M. S. Lee,  
 S. V. Levchenko,  Ching Yeh Lin,  D. Liotard,  R. C. Lochan,  I. Lotan,  
 P. E. Maslen,  N. Nair,  D. P. O'Neill,  D. Neuhauser,  E. Neuscamman,  
 C. M. Oana,  R. Olson,  B. Peters,  R. Peverati,  P. A. Pieniazek,  
 Y. M. Rhee,  J. Ritchie,  M. A. Rohrdanz,  E. Rosta,  N. J. Russ,  
 H. F. Schaefer III,  N. E. Schultz,  N. Shenvi,  A. C. Simmonett,  A. Sodt,  
 D. Stuck,  K. S. Thanthiriwatte,  V. Vanovschi,  Tao Wang,  A. Warshel,  
 C. F. Williams,  Q. Wu,  X. Xu,  W. Zhang

 Please cite Q-Chem as follows:
 Y. Shao et al., Mol. Phys. 113, 184-215 (2015)
 DOI: 10.1080/00268976.2014.952696

 Q-Chem 5.2.1 for Intel X86 EM64T Linux

 Parts of Q-Chem use Armadillo 8.300.2 (Tropical Shenanigans).
 http://arma.sourceforge.net/

 Q-Chem begins on Tue Sep 28 10:13:11 2021  

compute-0-0.local
Host: 0

     Scratch files written to /home/meili/scratch/qchem50551//
NAlpha2: 124
NElect   124
Mult     1
Symmetry turned off for PCM/SM12/SMD calculation

 Q-Chem warning in module libgen/rem_setup.C, line 2813:

 Neither GIA nor STOLL is specified by user. Use STOLL as the default


Checking the input file for inconsistencies... 	...done.

--------------------------------------------------------------
User input:
--------------------------------------------------------------
$comment
SSI-005TYR-166TYR-1.pdb
$end

$molecule
0 1
--
0 1
C    1.353068553910    3.724417926666   -2.572553335199
C    1.473068553910    1.419417926666   -1.567553335199
C    1.483068553910    2.801417926666   -1.392553335199
C    1.630068553910    0.562417926666   -0.475553335199
C    1.650068553910    3.319417926666   -0.104553335199
C    1.803068553910    1.089417926666    0.804446664801
C    1.811068553910    2.471417926666    0.993446664801
O    1.975068553910    0.255417926666    1.869446664801
H    1.347068553910    1.012417926666   -2.554553335199
H    1.591068553910   -0.506582073334   -0.598553335199
H    0.664068553910    4.516417926666   -2.296553335199
H    0.937068553910    3.188417926666   -3.426553335199
H    1.658068553910    4.392417926666    0.044446664801
H    1.944068553910    2.885417926666    1.982446664801
H    2.090068553910    0.741417926666    2.692446664801
H    2.309708553910    4.192987926666   -2.846913335199
--
0 1
C   -1.981931446090    0.641417926666   -0.499553335199
C   -3.482931446090    0.852417926666   -0.700553335199
C   -1.593931446090   -0.745582073334   -0.048553335199
C   -1.565931446090   -1.805582073334   -0.957553335199
C   -1.225931446090   -0.982582073334    1.278446664801
C   -1.176931446090   -3.079582073334   -0.551553335199
C   -0.832931446090   -2.257582073334    1.694446664801
C   -0.807931446090   -3.305582073334    0.775446664801
O   -0.421931446090   -4.552582073334    1.167446664801
H   -1.461931446090    0.858417926666   -1.432553335199
H   -1.624931446090    1.369417926666    0.231446664801
H   -3.621931446090    1.881417926666   -1.022553335199
H   -1.836931446090   -1.644582073334   -1.990553335199
H   -1.220931446090   -0.167582073334    1.991446664801
H   -1.162931446090   -3.875582073334   -1.273553335199
H   -0.534931446090   -2.434582073334    2.717446664801
H   -0.378931446090   -5.169582073334    0.437446664801
H   -4.036271446090    0.717867926666    0.240566664801
H   -3.867711446090    0.216157926666   -1.511183335199
$end

$rem
JOBTYPE			EDA
EDA2			1
method			wB97X-V
BASIS			def2-TZVPD
XC_GRID			000099000590
NL_GRID			1
UNRESTRICTED		FALSE
MAX_SCF_CYCLES		200
SYMMETRY		FALSE
SYM_IGNORE		TRUE
MEM_STATIC		2000
BASIS_LIN_DEP_THRESH 	6
THRESH 			14
SCF_CONVERGENCE 	8
SCF_PRINT_FRGM 		TRUE
SOLVENT_METHOD          SMD
$end

$SMX
SOLVENT			WATER
$END
--------------------------------------------------------------
 ----------------------------------------------------------------
             Standard Nuclear Orientation (Angstroms)
    I     Atom           X                Y                Z
 ----------------------------------------------------------------
    1      C       1.3530685539     3.7244179267    -2.5725533352
    2      C       1.4730685539     1.4194179267    -1.5675533352
    3      C       1.4830685539     2.8014179267    -1.3925533352
    4      C       1.6300685539     0.5624179267    -0.4755533352
    5      C       1.6500685539     3.3194179267    -0.1045533352
    6      C       1.8030685539     1.0894179267     0.8044466648
    7      C       1.8110685539     2.4714179267     0.9934466648
    8      O       1.9750685539     0.2554179267     1.8694466648
    9      H       1.3470685539     1.0124179267    -2.5545533352
   10      H       1.5910685539    -0.5065820733    -0.5985533352
   11      H       0.6640685539     4.5164179267    -2.2965533352
   12      H       0.9370685539     3.1884179267    -3.4265533352
   13      H       1.6580685539     4.3924179267     0.0444466648
   14      H       1.9440685539     2.8854179267     1.9824466648
   15      H       2.0900685539     0.7414179267     2.6924466648
   16      H       2.3097085539     4.1929879267    -2.8469133352
   17      C      -1.9819314461     0.6414179267    -0.4995533352
   18      C      -3.4829314461     0.8524179267    -0.7005533352
   19      C      -1.5939314461    -0.7455820733    -0.0485533352
   20      C      -1.5659314461    -1.8055820733    -0.9575533352
   21      C      -1.2259314461    -0.9825820733     1.2784466648
   22      C      -1.1769314461    -3.0795820733    -0.5515533352
   23      C      -0.8329314461    -2.2575820733     1.6944466648
   24      C      -0.8079314461    -3.3055820733     0.7754466648
   25      O      -0.4219314461    -4.5525820733     1.1674466648
   26      H      -1.4619314461     0.8584179267    -1.4325533352
   27      H      -1.6249314461     1.3694179267     0.2314466648
   28      H      -3.6219314461     1.8814179267    -1.0225533352
   29      H      -1.8369314461    -1.6445820733    -1.9905533352
   30      H      -1.2209314461    -0.1675820733     1.9914466648
   31      H      -1.1629314461    -3.8755820733    -1.2735533352
   32      H      -0.5349314461    -2.4345820733     2.7174466648
   33      H      -0.3789314461    -5.1695820733     0.4374466648
   34      H      -4.0362714461     0.7178679267     0.2405666648
   35      H      -3.8677114461     0.2161579267    -1.5111833352
 ----------------------------------------------------------------
 Nuclear Repulsion Energy =        1144.89878116 hartrees
 There are       62 alpha and       62 beta electrons
 Requested basis set is def2-TZVPD
 There are 313 shells and 797 basis functions

 Total QAlloc Memory Limit   2000 MB
 Mega-Array Size      1956 MB
 MEM_STATIC part      2000 MB

 Citation of the SMD model:
 Marenich, A.V.; Cramer, C.J.; Truhlar, D.G.
 J. Phys. Chem. B 2009, 113, 6378-6396.
 iSolventCode=           1
 Solvent: water                                                           

 vradii
            1           2           3           4           5           6
    1   1.8500000   1.8500000   1.8500000   1.8500000   1.8500000   1.8500000
            7           8           9          10          11          12
    1   1.8500000   1.5200000   1.2000000   1.2000000   1.2000000   1.2000000
           13          14          15          16          17          18
    1   1.2000000   1.2000000   1.2000000   1.2000000   1.8500000   1.8500000
           19          20          21          22          23          24
    1   1.8500000   1.8500000   1.8500000   1.8500000   1.8500000   1.8500000
           25          26          27          28          29          30
    1   1.5200000   1.2000000   1.2000000   1.2000000   1.2000000   1.2000000
           31          32          33          34          35
    1   1.2000000   1.2000000   1.2000000   1.2000000   1.2000000
 Changing PCM_VDW_RADII to SMD_RADIUS
 Discretize the solute cavity surface with Lebedev spheres
	Using 110 Lebedev grid points for each H atom
	Using 194 Lebedev grid points for other atoms
	Atomic van der Waals radii will be scaled by 1.20
 Remove points where switching function is < 1.0e-08
 Keep 2581 surface tesserae and discard 2697 interior tesserae
 Molecular Surface Area = 298.855 Angst**2
 A cutoff of  1.0D-14 yielded  41575 shell pairs
 There are    270907 function pairs (    342139 Cartesian)
 Smallest overlap matrix eigenvalue = 4.29E-07
 Linear dependence detected in AO basis
 Tighter screening thresholds may be required for diffuse basis sets
 Use S2THRESH > 14 and THRESH = 14 in case of SCF convergence issues
 Number of orthogonalized atomic orbitals = 793
 Maximum deviation from orthogonality = 2.440E-10

 Scale SEOQF with 1.000000e-01/1.000000e-02/1.000000e-01

 Standard Electronic Orientation quadrupole field applied
 Nucleus-field energy     =    -0.0000000055 hartrees

 -----------------------------------------------------------------------
  General SCF calculation program by
  Eric Jon Sundstrom, Paul Horn, Yuezhi Mao, Dmitri Zuev, Alec White,
  David Stuck, Shaama M.S., Shane Yost, Joonho Lee, David Small,
  Daniel Levine, Susi Lehtola, Hugh Burton, Evgeny Epifanovsky,
  Bang C. Huynh
 -----------------------------------------------------------------------
================================================================
                 ALMO-EDA with the EDA2 driver                  
================================================================
 The second-generation ALMO-EDA (for DFT):                      
 P. R. Horn, Y. Mao and M. Head-Gordon, PCCP, 18, 23067 (2016)  
 Decomposition of the frozen energy:                            
 P. R. Horn, Y. Mao and M. Head-Gordon, JCP, 144, 114107 (2016) 
 FERF model for polarization:                                   
 P. R. Horn and M. Head-Gordon, JCP, 143, 114111 (2015)         
Using eda2 option set 1
Option set summary: Frozen orbital wavefunction, initial wavefunction decomposition, and nDQ polarization.
--------------------------------
Printing EDA Options
--------------------------------
eda_child_super_basis      0
fragmo_guess_mode          0
child_mp                   1
child_mp_orders            232
cls_elec                   1
cls_disp                   0
scfmi_mode                 1
scfmi_occs                 0
scfmi_virts                0
frz_relax                  0
frz_relax_method           0
dc_pen_start               0
dc_pen_conv                0
dc_pen_increment           0
dc_pen_steps               0
dc_pen_thresh_factor       0
dc_pen_pre_newton_thresh   0
frz_ortho_decomp           1
frz_ortho_decomp_conv      6
frgm_method                2
scfmi_freeze_ss            0
separate_rehyb             0
plot_diff_den              0
eda_nocv                   0
eda_vct_relax              1
disp_free_x                0
disp_free_c                0
eda_bsse                   0
eda_pct_a                  0
eda_covp                   0
--------------------------------
Attempting to make child job directory: /home/meili/scratch/qchem50551//Frg1/
Attempting to make child job directory: /home/meili/scratch/qchem50551//Frg2/
Creating input file /home/meili/scratch/qchem50551/Frg1.input
using default PutDataFrgm: nothing
calling putenv with: QCSCRATCH=/home/meili/scratch/qchem50551/ 
Spawning Job For Fragment 0
                  Welcome to Q-Chem
     A Quantum Leap Into The Future Of Chemistry


 Q-Chem 5.2 (devel), Q-Chem, Inc., Pleasanton, CA (2019)

 Yihan Shao,  Zhengting Gan,  E. Epifanovsky,  A. T. B. Gilbert,  M. Wormit,  
 J. Kussmann,  A. W. Lange,  A. Behn,  Jia Deng,  Xintian Feng,  D. Ghosh,  
 M. Goldey,  P. R. Horn,  L. D. Jacobson,  I. Kaliman,  T. Kus,  A. Landau,  
 Jie Liu,  E. I. Proynov,  R. M. Richard,  R. P. Steele,  E. J. Sundstrom,  
 H. L. Woodcock III,  P. M. Zimmerman,  D. Zuev,  B. Albrecht,  E. Alguire,  
 S. A. Baeppler,  D. Barton,  Z. Benda,  Y. A. Bernard,  E. J. Berquist,  
 K. B. Bravaya,  H. Burton,  D. Casanova,  Chun-Min Chang,  Yunqing Chen,  
 A. Chien,  K. D. Closser,  M. P. Coons,  S. Coriani,  S. Dasgupta,  
 A. L. Dempwolff,  M. Diedenhofen,  Hainam Do,  R. G. Edgar,  Po-Tung Fang,  
 S. Faraji,  S. Fatehi,  Qingguo Feng,  K. D. Fenk,  J. Fosso-Tande,  
 J. Gayvert,  Qinghui Ge,  A. Ghysels,  G. Gidofalvi,  J. Gomes,  
 J. Gonthier,  A. Gunina,  D. Hait,  M. W. D. Hanson-Heine,  
 P. H. P. Harbach,  A. W. Hauser,  M. F. Herbst,  J. E. Herr,  
 E. G. Hohenstein,  Z. C. Holden,  Kerwin Hui,  B. C. Huynh,  T.-C. Jagau,  
 Hyunjun Ji,  B. Kaduk,  K. Khistyaev,  Jaehoon Kim,  P. Klunzinger,  K. Koh,  
 D. Kosenkov,  L. Koulias,  T. Kowalczyk,  C. M. Krauter,  A. Kunitsa,  
 Ka Un Lao,  A. Laurent,  K. V. Lawler,  Joonho Lee,  D. Lefrancois,  
 S. Lehtola,  D. S. Levine,  Yi-Pei Li,  You-Sheng Lin,  Fenglai Liu,  
 E. Livshits,  A. Luenser,  P. Manohar,  E. Mansoor,  S. F. Manzer,  
 Shan-Ping Mao,  Yuezhi Mao,  N. Mardirossian,  A. V. Marenich,  
 T. Markovich,  L. A. Martinez-Martinez,  S. A. Maurer,  N. J. Mayhall,  
 S. C. McKenzie,  J.-M. Mewes,  P. Morgante,  A. F. Morrison,  
 J. W. Mullinax,  K. Nanda,  T. S. Nguyen-Beck,  R. Olivares-Amaya,  
 J. A. Parkhill,  Zheng Pei,  T. M. Perrine,  F. Plasser,  P. Pokhilko,  
 S. Prager,  A. Prociuk,  E. Ramos,  D. R. Rehn,  F. Rob,  M. Scheurer,  
 M. Schneider,  N. Sergueev,  S. M. Sharada,  S. Sharma,  D. W. Small,  
 T. Stauch,  T. Stein,  Yu-Chuan Su,  A. J. W. Thom,  A. Tkatchenko,  
 T. Tsuchimochi,  N. M. Tubman,  L. Vogt,  M. L. Vidal,  O. Vydrov,  
 M. A. Watson,  J. Wenzel,  M. de Wergifosse,  T. A. Wesolowski,  A. White,  
 J. Witte,  A. Yamada,  Jun Yang,  K. Yao,  S. Yeganeh,  S. R. Yost,  
 Zhi-Qiang You,  A. Zech,  Igor Ying Zhang,  Xing Zhang,  Yan Zhao,  
 Ying Zhu,  B. R. Brooks,  G. K. L. Chan,  C. J. Cramer,  M. S. Gordon,  
 W. J. Hehre,  A. Klamt,  M. W. Schmidt,  C. D. Sherrill,  D. G. Truhlar,  
 A. Aspuru-Guzik,  R. Baer,  A. T. Bell,  N. A. Besley,  Jeng-Da Chai,  
 A. E. DePrince, III,  R. A. DiStasio Jr.,  A. Dreuw,  B. D. Dunietz,  
 T. R. Furlani,  Chao-Ping Hsu,  Yousung Jung,  Jing Kong,  D. S. Lambrecht,  
 WanZhen Liang,  C. Ochsenfeld,  V. A. Rassolov,  L. V. Slipchenko,  
 J. E. Subotnik,  T. Van Voorhis,  J. M. Herbert,  A. I. Krylov,  
 P. M. W. Gill,  M. Head-Gordon

 Contributors to earlier versions of Q-Chem not listed above: 
 R. D. Adamson,  B. Austin,  J. Baker,  G. J. O. Beran,  K. Brandhorst,  
 S. T. Brown,  E. F. C. Byrd,  A. K. Chakraborty,  C.-L. Cheng,  
 Siu Hung Chien,  D. M. Chipman,  D. L. Crittenden,  H. Dachsel,  
 R. J. Doerksen,  A. D. Dutoi,  L. Fusti-Molnar,  W. A. Goddard III,  
 A. Golubeva-Zadorozhnaya,  S. R. Gwaltney,  G. Hawkins,  A. Heyden,  
 S. Hirata,  G. Kedziora,  F. J. Keil,  C. Kelley,  Jihan Kim,  R. A. King,  
 R. Z. Khaliullin,  P. P. Korambath,  W. Kurlancheek,  A. M. Lee,  M. S. Lee,  
 S. V. Levchenko,  Ching Yeh Lin,  D. Liotard,  R. C. Lochan,  I. Lotan,  
 P. E. Maslen,  N. Nair,  D. P. O'Neill,  D. Neuhauser,  E. Neuscamman,  
 C. M. Oana,  R. Olson,  B. Peters,  R. Peverati,  P. A. Pieniazek,  
 Y. M. Rhee,  J. Ritchie,  M. A. Rohrdanz,  E. Rosta,  N. J. Russ,  
 H. F. Schaefer III,  N. E. Schultz,  N. Shenvi,  A. C. Simmonett,  A. Sodt,  
 D. Stuck,  K. S. Thanthiriwatte,  V. Vanovschi,  Tao Wang,  A. Warshel,  
 C. F. Williams,  Q. Wu,  X. Xu,  W. Zhang

 Please cite Q-Chem as follows:
 Y. Shao et al., Mol. Phys. 113, 184-215 (2015)
 DOI: 10.1080/00268976.2014.952696

 Q-Chem 5.2.1 for Intel X86 EM64T Linux

 Parts of Q-Chem use Armadillo 8.300.2 (Tropical Shenanigans).
 http://arma.sourceforge.net/

 Q-Chem begins on Tue Sep 28 10:15:16 2021  

compute-0-0.local
Host: 0

     Scratch files written to /home/meili/scratch/qchem50551//Frg1//
NAlpha2: 58
NElect   58
Mult     1
Symmetry turned off for PCM/SM12/SMD calculation

Checking the input file for inconsistencies... 	...done.

--------------------------------------------------------------
User input:
--------------------------------------------------------------
$molecule
0 1
 6	1.3530685539	3.7244179267	-2.5725533352
 6	1.4730685539	1.4194179267	-1.5675533352
 6	1.4830685539	2.8014179267	-1.3925533352
 6	1.6300685539	0.5624179267	-0.4755533352
 6	1.6500685539	3.3194179267	-0.1045533352
 6	1.8030685539	1.0894179267	0.8044466648
 6	1.8110685539	2.4714179267	0.9934466648
 8	1.9750685539	0.2554179267	1.8694466648
 1	1.3470685539	1.0124179267	-2.5545533352
 1	1.5910685539	-0.5065820733	-0.5985533352
 1	0.6640685539	4.5164179267	-2.2965533352
 1	0.9370685539	3.1884179267	-3.4265533352
 1	1.6580685539	4.3924179267	0.0444466648
 1	1.9440685539	2.8854179267	1.9824466648
 1	2.0900685539	0.7414179267	2.6924466648
 1	2.3097085539	4.1929879267	-2.8469133352
$end
$rem
EDA2		1
METHOD		WB97X-V
BASIS		DEF2-TZVPD
XC_GRID		000099000590
NL_GRID		1
UNRESTRICTED		FALSE
MAX_SCF_CYCLES		200
SYMMETRY		FALSE
SYM_IGNORE		TRUE
BASIS_LIN_DEP_THRESH		6
THRESH		14
SCF_CONVERGENCE		8
SCF_PRINT_FRGM		TRUE
SOLVENT_METHOD		SMD
!required keywords
JOBTYPE		SP
SYM_IGNORE		TRUE
SUBSYSTEM		TRUE
GEN_SCFMAN		TRUE
CHILD_INSTRUCTION		2
SYM_IGNORE		TRUE
SCFMI		0
RI_K 0		
PARI_K 0		
MIN_PARI_K 0		
IARI_K 0		
OCC_RI_K 0		
PURECART		1111
MEM_STATIC		2000
MEM_TOTAL		2000
GUI		0
CHILD_MP		1
CHILD_MP_ORDERS		232
FRZ_RELAX		0
FRZ_RELAX_METHOD		0
EDA_CLS_ELEC		1
EDA_CLS_DISP		0
FRZ_ORTHO_DECOMP		1
EDA2		FALSE
FRGM_METHOD		FALSE
CIS_N_ROOTS  0
LOCAL_CIS    0
CIS_RLX_DNS  1
$end
$smx
SOLVENT			WATER
$end
--------------------------------------------------------------
 ----------------------------------------------------------------
             Standard Nuclear Orientation (Angstroms)
    I     Atom           X                Y                Z
 ----------------------------------------------------------------
    1      C       1.3530685539     3.7244179267    -2.5725533352
    2      C       1.4730685539     1.4194179267    -1.5675533352
    3      C       1.4830685539     2.8014179267    -1.3925533352
    4      C       1.6300685539     0.5624179267    -0.4755533352
    5      C       1.6500685539     3.3194179267    -0.1045533352
    6      C       1.8030685539     1.0894179267     0.8044466648
    7      C       1.8110685539     2.4714179267     0.9934466648
    8      O       1.9750685539     0.2554179267     1.8694466648
    9      H       1.3470685539     1.0124179267    -2.5545533352
   10      H       1.5910685539    -0.5065820733    -0.5985533352
   11      H       0.6640685539     4.5164179267    -2.2965533352
   12      H       0.9370685539     3.1884179267    -3.4265533352
   13      H       1.6580685539     4.3924179267     0.0444466648
   14      H       1.9440685539     2.8854179267     1.9824466648
   15      H       2.0900685539     0.7414179267     2.6924466648
   16      H       2.3097085539     4.1929879267    -2.8469133352
 ----------------------------------------------------------------
 Nuclear Repulsion Energy =         342.84257789 hartrees
 There are       29 alpha and       29 beta electrons
 Requested basis set is def2-TZVPD
 There are 145 shells and 371 basis functions

 Total QAlloc Memory Limit   2000 MB
 Mega-Array Size      1956 MB
 MEM_STATIC part      2000 MB

 Citation of the SMD model:
 Marenich, A.V.; Cramer, C.J.; Truhlar, D.G.
 J. Phys. Chem. B 2009, 113, 6378-6396.
 iSolventCode=           1
 Solvent: water                                                           

 vradii
            1           2           3           4           5           6
    1   1.8500000   1.8500000   1.8500000   1.8500000   1.8500000   1.8500000
            7           8           9          10          11          12
    1   1.8500000   1.5200000   1.2000000   1.2000000   1.2000000   1.2000000
           13          14          15          16
    1   1.2000000   1.2000000   1.2000000   1.2000000
 Changing PCM_VDW_RADII to SMD_RADIUS
 Discretize the solute cavity surface with Lebedev spheres
	Using 110 Lebedev grid points for each H atom
	Using 194 Lebedev grid points for other atoms
	Atomic van der Waals radii will be scaled by 1.20
 Remove points where switching function is < 1.0e-08
 Keep 1189 surface tesserae and discard 1243 interior tesserae
 Molecular Surface Area = 141.433 Angst**2
 A cutoff of  1.0D-14 yielded  10044 shell pairs
 There are     67084 function pairs (     85777 Cartesian)
 Smallest overlap matrix eigenvalue = 5.65E-07
 Linear dependence detected in AO basis
 Tighter screening thresholds may be required for diffuse basis sets
 Use S2THRESH > 14 and THRESH = 14 in case of SCF convergence issues
 Number of orthogonalized atomic orbitals = 370
 Maximum deviation from orthogonality = 1.535E-10

 Scale SEOQF with 1.000000e-01/1.000000e-01/1.000000e-01

 Standard Electronic Orientation quadrupole field applied
 Nucleus-field energy     =     0.0000000136 hartrees
 Guess from superposition of atomic densities
 Warning:  Energy on first SCF cycle will be non-variational
 SAD guess density has 58.000000 electrons

 -----------------------------------------------------------------------
  General SCF calculation program by
  Eric Jon Sundstrom, Paul Horn, Yuezhi Mao, Dmitri Zuev, Alec White,
  David Stuck, Shaama M.S., Shane Yost, Joonho Lee, David Small,
  Daniel Levine, Susi Lehtola, Hugh Burton, Evgeny Epifanovsky,
  Bang C. Huynh
 -----------------------------------------------------------------------
 Exchange:     0.1670 Hartree-Fock + 1.0000 wB97X-V + LR-HF
 Correlation:  1.0000 wB97X-V
 Using Euler-Maclaurin-Lebedev (99,590) quadrature formula
 Nonlocal Correlation:  VV10 with C = 0.0100 and b = 6.00 and scale = 1.00000
 Grid used for NLC:  SG-1 standard quadrature
Energy prior to optimization (guess energy) = -346.732507289771
Begin Timing: Total SCF Calculation
begin iterations for algorithm: DIIS         
the SCF tolerance is set to 1.00e-08
    1    -346.7325072898      2.19e-03     00000 
    2    -346.7839114902      1.74e-03     00000 
    3    -346.8241119215      3.10e-04     00000 
    4    -346.8259661565      1.33e-04     00000 
    5    -346.8263829900      3.91e-05     00000 
    6    -346.8264168821      1.27e-05     00000 
    7    -346.8264206150      5.62e-06     00000 
    8    -346.8264213948      1.25e-06     00000 
    9    -346.8264214776      5.36e-07     00000 
   10    -346.8264214927      2.68e-07     00000 
   11    -346.8264214968      7.18e-08     00000 
   12    -346.8264214973      2.83e-08     00000 
   13    -346.8264214974      1.07e-08     00000 
   14    -346.8264214974      3.26e-09     00000 Convergence criterion met
Timing for Total SCF: 723.00s (wall), 5150.32s (cpu)
(3)  G-ENP(liq) elect-nuc-pol free energy of system     -346.826421497 a.u.
(4)  G-CDS(liq) cavity-dispersion-solvent structure 
     free energy                                                3.7939 kcal/mol
(6)  G-S(liq) free energy of system                     -346.820375606 a.u.
E_pcm = -0.0175314823
E_cds = 0.0060458915
Multipole orders to be included
        2
        3
computing dipole RHS
computing quadrupole RHS
total number of RHS in solve_reponses: 8
RHS batch sizes
        8
Beginning Block Conjugate Gradient Iterations. Batch Number: 0
computing hessian-vector products by finite difference
              1      6.61e-01     00000 Conjugate Gradient Iteration
computing hessian-vector products by finite difference
              2      2.03e-01     00000 Conjugate Gradient Iteration
computing hessian-vector products by finite difference
              3      5.30e-02     00000 Conjugate Gradient Iteration
computing hessian-vector products by finite difference
              4      1.67e-02     00000 Conjugate Gradient Iteration
computing hessian-vector products by finite difference
              5      4.09e-03     00000 Conjugate Gradient Iteration
computing hessian-vector products by finite difference
              6      1.54e-03     00000 Conjugate Gradient Iteration
computing hessian-vector products by finite difference
              7      3.49e-04     00000 Conjugate Gradient Iteration
computing hessian-vector products by finite difference
              8      6.73e-05     00000 Conjugate Gradient Iteration
computing hessian-vector products by finite difference
              9      1.28e-05     00000 Conjugate Gradient Iteration
computing hessian-vector products by finite difference
             10      1.98e-06     00000 Conjugate Gradient Iteration
computing hessian-vector products by finite difference
             11      2.81e-07     00000 Conjugate Gradient Iteration
computing hessian-vector products by finite difference
             12      4.52e-08     00000 Conjugate Gradient Iteration
computing hessian-vector products by finite difference
             13      1.11e-08     00000 Conjugate Gradient Iteration
computing hessian-vector products by finite difference
             14      3.59e-09     00000 CG Converged
batch 0 complete
Done Calculating Responses
TESTING ORTHOGONALIZATION OF MULTIPOLE BASIS
Multipole virts passed orthogonality test
Virts Per Order
           87
          145

 --------------------------------------------------------------

                    Orbital Energies (a.u.)
 --------------------------------------------------------------

 Alpha MOs
 -- Occupied --
-19.2398 -10.3314 -10.2709 -10.2691 -10.2683 -10.2669 -10.2664 -10.2519
 -1.1897  -0.9898  -0.8963  -0.8780  -0.8041  -0.7422  -0.7082  -0.6597
 -0.5967  -0.5743  -0.5443  -0.5365  -0.5268  -0.5153  -0.5070  -0.4719
 -0.4499  -0.4388  -0.4342  -0.3487  -0.3090
 -- Virtual --
  0.0627   0.0635   0.0743   0.0822   0.0889   0.0997   0.1142   0.1157
  0.1186   0.1367   0.1506   0.1567   0.1607   0.1778   0.1824   0.1979
  0.2065   0.2102   0.2219   0.2304   0.2407   0.2460   0.2551   0.2597
  0.2676   0.2737   0.2795   0.2807   0.2872   0.3004   0.3010   0.3078
  0.3099   0.3147   0.3178   0.3286   0.3380   0.3470   0.3493   0.3560
  0.3603   0.3612   0.3675   0.3779   0.3804   0.3845   0.3872   0.3982
  0.4002   0.4013   0.4038   0.4105   0.4198   0.4242   0.4315   0.4378
  0.4391   0.4596   0.4620   0.4664   0.4781   0.4791   0.4819   0.4869
  0.4933   0.4987   0.5017   0.5070   0.5166   0.5202   0.5340   0.5422
  0.5450   0.5527   0.5536   0.5562   0.5674   0.5754   0.5840   0.5972
  0.6058   0.6120   0.6198   0.6334   0.6441   0.6608   0.6649   0.6752
  0.6820   0.6861   0.6952   0.6991   0.7024   0.7103   0.7227   0.7323
  0.7361   0.7409   0.7489   0.7555   0.7624   0.7766   0.7861   0.7898
  0.7934   0.7977   0.8000   0.8024   0.8097   0.8188   0.8334   0.8412
  0.8488   0.8529   0.8566   0.8601   0.8694   0.8804   0.8886   0.8939
  0.9075   0.9170   0.9384   0.9534   0.9629   0.9876   0.9974   1.0106
  1.0241   1.0414   1.0463   1.0509   1.0599   1.0743   1.0802   1.0923
  1.1036   1.1206   1.1437   1.1756   1.1998   1.2362   1.2738   1.3011
  1.3091   1.3212   1.3304   1.3589   1.3692   1.3890   1.3994   1.4374
  1.4631   1.4719   1.4722   1.4880   1.5346   1.5711   1.6095   1.6283
  1.6378   1.6456   1.6790   1.6862   1.7056   1.7313   1.7793   1.8063
  1.8226   1.8324   1.8352   1.8643   1.8735   1.8824   1.9246   1.9295
  1.9443   1.9590   1.9791   1.9943   2.0034   2.0325   2.0486   2.0569
  2.0620   2.0806   2.0944   2.1123   2.1201   2.1645   2.2038   2.2083
  2.2308   2.2480   2.2757   2.2890   2.3052   2.3269   2.3476   2.3738
  2.4029   2.4091   2.4424   2.4688   2.4947   2.5013   2.5310   2.5654
  2.5777   2.6038   2.6267   2.6512   2.6637   2.6739   2.6889   2.7460
  2.7634   2.7676   2.7807   2.8116   2.8227   2.8378   2.8715   2.8808
  2.9145   2.9230   2.9402   2.9521   2.9729   2.9810   2.9844   3.0120
  3.0200   3.0530   3.0756   3.0841   3.1045   3.1388   3.1534   3.1737
  3.1887   3.2016   3.2188   3.2316   3.2470   3.2652   3.2914   3.2986
  3.3219   3.3539   3.3905   3.3967   3.4005   3.4151   3.4508   3.4614
  3.4670   3.4822   3.4958   3.5155   3.5284   3.5329   3.5439   3.5471
  3.5574   3.5684   3.5811   3.5967   3.6038   3.6308   3.6487   3.6750
  3.6911   3.7070   3.7415   3.7617   3.8023   3.8232   3.8541   3.9097
  3.9433   3.9660   3.9788   3.9981   4.0414   4.0872   4.1511   4.1600
  4.2524   4.2759   4.2909   4.3121   4.3192   4.3302   4.3423   4.3571
  4.3750   4.3976   4.4264   4.4662   4.4941   4.5435   4.6060   4.6279
  4.7403   4.7444   4.7909   4.8088   4.8721   4.9258   5.0272   5.0634
  5.0927   5.1325   5.1674   5.3045   5.3353   5.3933   5.4494   5.5466
  5.6195   5.6429   5.7086   5.7701   5.9468   6.2165   6.4850   6.6034
  6.6299   6.8749   7.0138   7.3052   7.4605  22.6816  22.6873  22.9387
 22.9892  23.0291  23.1813  23.5053  44.4215
 --------------------------------------------------------------

          Ground-State Mulliken Net Atomic Charges

     Atom                 Charge (a.u.)
  ----------------------------------------
      1 C                    -1.073864
      2 C                    -0.484780
      3 C                     0.493044
      4 C                    -0.785329
      5 C                    -0.596709
      6 C                     0.659635
      7 C                    -0.385831
      8 O                    -0.542322
      9 H                     0.385887
     10 H                     0.404925
     11 H                     0.283427
     12 H                     0.303348
     13 H                     0.395355
     14 H                     0.370429
     15 H                     0.326844
     16 H                     0.245940
  ----------------------------------------
  Sum of atomic charges =     0.000000

 -----------------------------------------------------------------
                    Cartesian Multipole Moments
 -----------------------------------------------------------------
    Charge (ESU x 10^10)
                -0.0000
    Dipole Moment (Debye)
         X       0.0918      Y       1.9636      Z       0.7311
       Tot       2.0973
    Quadrupole Moments (Debye-Ang)
        XX     -51.2320     XY       3.9851     YY     -40.1919
        XZ       3.2594     YZ       3.9101     ZZ     -37.0278
    Octopole Moments (Debye-Ang^2)
       XXX    -252.3465    XXY     -94.5647    XYY     -65.1199
       YYY    -253.6807    XXZ      27.1888    XYZ       9.8677
       YYZ      19.4127    XZZ     -57.5944    YZZ     -75.8381
       ZZZ      71.6981
    Hexadecapole Moments (Debye-Ang^3)
      XXXX    -906.5767   XXXY    -465.1413   XXYY    -417.9444
      XYYY    -393.5499   YYYY   -1546.3034   XXXZ      63.1854
      XXYZ     106.9845   XYYZ      20.7308   YYYZ     254.8257
      XXZZ    -228.4179   XYZZ    -109.7370   YYZZ    -377.1490
      XZZZ      94.9413   YZZZ     287.5937   ZZZZ    -631.2135
 -----------------------------------------------------------------
Archival summary:
1\1\compute-0-0.local\SP\ProcedureUnspecified\BasisUnspecified\178\meili\TueSep2813:45:162021TueSep2813:45:162021\0\\#,ProcedureUnspecified,BasisUnspecified,\\0,1\C\O,1,1.36359\H,2,0.962679,1,111.963\C,1,1.39489,2,119.962,3,0.0808419,0\H,4,1.08037,1,120.292,2,-0.56055,0\C,1,1.39501,2,120.081,3,179.555,0\H,6,1.07676,1,118.97,2,2.69913,0\C,4,1.39665,1,119.629,2,179.246,0\H,8,1.08333,4,119.498,1,-179.911,0\C,6,1.39698,1,119.962,2,-179.091,0\H,10,1.07503,6,119.907,1,179.55,0\C,10,1.39307,6,120.636,1,-0.199764,0\C,12,1.50374,10,120.646,6,178.261,0\H,13,1.08543,12,107.651,10,136.704,0\H,13,1.09072,12,110.227,10,18.6598,0\H,13,1.1,12,112.458,10,-104.776,0\\\@

 Total job time:  12600.25s(wall), 90109.88s(cpu) 
 Tue Sep 28 13:45:16 2021

        *************************************************************
        *                                                           *
        *  Thank you very much for using Q-Chem.  Have a nice day.  *
        *                                                           *
        *************************************************************


Done Job For Fragment 0
calling putenv with: QCSCRATCH=/home/meili/scratch 
calling putenv with: QCTHREADS=8 
Creating input file /home/meili/scratch/qchem50551/Frg2.input
using default PutDataFrgm: nothing
calling putenv with: QCSCRATCH=/home/meili/scratch/qchem50551/ 
Spawning Job For Fragment 1
                  Welcome to Q-Chem
     A Quantum Leap Into The Future Of Chemistry


 Q-Chem 5.2 (devel), Q-Chem, Inc., Pleasanton, CA (2019)

 Yihan Shao,  Zhengting Gan,  E. Epifanovsky,  A. T. B. Gilbert,  M. Wormit,  
 J. Kussmann,  A. W. Lange,  A. Behn,  Jia Deng,  Xintian Feng,  D. Ghosh,  
 M. Goldey,  P. R. Horn,  L. D. Jacobson,  I. Kaliman,  T. Kus,  A. Landau,  
 Jie Liu,  E. I. Proynov,  R. M. Richard,  R. P. Steele,  E. J. Sundstrom,  
 H. L. Woodcock III,  P. M. Zimmerman,  D. Zuev,  B. Albrecht,  E. Alguire,  
 S. A. Baeppler,  D. Barton,  Z. Benda,  Y. A. Bernard,  E. J. Berquist,  
 K. B. Bravaya,  H. Burton,  D. Casanova,  Chun-Min Chang,  Yunqing Chen,  
 A. Chien,  K. D. Closser,  M. P. Coons,  S. Coriani,  S. Dasgupta,  
 A. L. Dempwolff,  M. Diedenhofen,  Hainam Do,  R. G. Edgar,  Po-Tung Fang,  
 S. Faraji,  S. Fatehi,  Qingguo Feng,  K. D. Fenk,  J. Fosso-Tande,  
 J. Gayvert,  Qinghui Ge,  A. Ghysels,  G. Gidofalvi,  J. Gomes,  
 J. Gonthier,  A. Gunina,  D. Hait,  M. W. D. Hanson-Heine,  
 P. H. P. Harbach,  A. W. Hauser,  M. F. Herbst,  J. E. Herr,  
 E. G. Hohenstein,  Z. C. Holden,  Kerwin Hui,  B. C. Huynh,  T.-C. Jagau,  
 Hyunjun Ji,  B. Kaduk,  K. Khistyaev,  Jaehoon Kim,  P. Klunzinger,  K. Koh,  
 D. Kosenkov,  L. Koulias,  T. Kowalczyk,  C. M. Krauter,  A. Kunitsa,  
 Ka Un Lao,  A. Laurent,  K. V. Lawler,  Joonho Lee,  D. Lefrancois,  
 S. Lehtola,  D. S. Levine,  Yi-Pei Li,  You-Sheng Lin,  Fenglai Liu,  
 E. Livshits,  A. Luenser,  P. Manohar,  E. Mansoor,  S. F. Manzer,  
 Shan-Ping Mao,  Yuezhi Mao,  N. Mardirossian,  A. V. Marenich,  
 T. Markovich,  L. A. Martinez-Martinez,  S. A. Maurer,  N. J. Mayhall,  
 S. C. McKenzie,  J.-M. Mewes,  P. Morgante,  A. F. Morrison,  
 J. W. Mullinax,  K. Nanda,  T. S. Nguyen-Beck,  R. Olivares-Amaya,  
 J. A. Parkhill,  Zheng Pei,  T. M. Perrine,  F. Plasser,  P. Pokhilko,  
 S. Prager,  A. Prociuk,  E. Ramos,  D. R. Rehn,  F. Rob,  M. Scheurer,  
 M. Schneider,  N. Sergueev,  S. M. Sharada,  S. Sharma,  D. W. Small,  
 T. Stauch,  T. Stein,  Yu-Chuan Su,  A. J. W. Thom,  A. Tkatchenko,  
 T. Tsuchimochi,  N. M. Tubman,  L. Vogt,  M. L. Vidal,  O. Vydrov,  
 M. A. Watson,  J. Wenzel,  M. de Wergifosse,  T. A. Wesolowski,  A. White,  
 J. Witte,  A. Yamada,  Jun Yang,  K. Yao,  S. Yeganeh,  S. R. Yost,  
 Zhi-Qiang You,  A. Zech,  Igor Ying Zhang,  Xing Zhang,  Yan Zhao,  
 Ying Zhu,  B. R. Brooks,  G. K. L. Chan,  C. J. Cramer,  M. S. Gordon,  
 W. J. Hehre,  A. Klamt,  M. W. Schmidt,  C. D. Sherrill,  D. G. Truhlar,  
 A. Aspuru-Guzik,  R. Baer,  A. T. Bell,  N. A. Besley,  Jeng-Da Chai,  
 A. E. DePrince, III,  R. A. DiStasio Jr.,  A. Dreuw,  B. D. Dunietz,  
 T. R. Furlani,  Chao-Ping Hsu,  Yousung Jung,  Jing Kong,  D. S. Lambrecht,  
 WanZhen Liang,  C. Ochsenfeld,  V. A. Rassolov,  L. V. Slipchenko,  
 J. E. Subotnik,  T. Van Voorhis,  J. M. Herbert,  A. I. Krylov,  
 P. M. W. Gill,  M. Head-Gordon

 Contributors to earlier versions of Q-Chem not listed above: 
 R. D. Adamson,  B. Austin,  J. Baker,  G. J. O. Beran,  K. Brandhorst,  
 S. T. Brown,  E. F. C. Byrd,  A. K. Chakraborty,  C.-L. Cheng,  
 Siu Hung Chien,  D. M. Chipman,  D. L. Crittenden,  H. Dachsel,  
 R. J. Doerksen,  A. D. Dutoi,  L. Fusti-Molnar,  W. A. Goddard III,  
 A. Golubeva-Zadorozhnaya,  S. R. Gwaltney,  G. Hawkins,  A. Heyden,  
 S. Hirata,  G. Kedziora,  F. J. Keil,  C. Kelley,  Jihan Kim,  R. A. King,  
 R. Z. Khaliullin,  P. P. Korambath,  W. Kurlancheek,  A. M. Lee,  M. S. Lee,  
 S. V. Levchenko,  Ching Yeh Lin,  D. Liotard,  R. C. Lochan,  I. Lotan,  
 P. E. Maslen,  N. Nair,  D. P. O'Neill,  D. Neuhauser,  E. Neuscamman,  
 C. M. Oana,  R. Olson,  B. Peters,  R. Peverati,  P. A. Pieniazek,  
 Y. M. Rhee,  J. Ritchie,  M. A. Rohrdanz,  E. Rosta,  N. J. Russ,  
 H. F. Schaefer III,  N. E. Schultz,  N. Shenvi,  A. C. Simmonett,  A. Sodt,  
 D. Stuck,  K. S. Thanthiriwatte,  V. Vanovschi,  Tao Wang,  A. Warshel,  
 C. F. Williams,  Q. Wu,  X. Xu,  W. Zhang

 Please cite Q-Chem as follows:
 Y. Shao et al., Mol. Phys. 113, 184-215 (2015)
 DOI: 10.1080/00268976.2014.952696

 Q-Chem 5.2.1 for Intel X86 EM64T Linux

 Parts of Q-Chem use Armadillo 8.300.2 (Tropical Shenanigans).
 http://arma.sourceforge.net/

 Q-Chem begins on Tue Sep 28 13:45:17 2021  

compute-0-0.local
Host: 0

     Scratch files written to /home/meili/scratch/qchem50551//Frg2//
NAlpha2: 66
NElect   66
Mult     1
Symmetry turned off for PCM/SM12/SMD calculation

Checking the input file for inconsistencies... 	...done.

--------------------------------------------------------------
User input:
--------------------------------------------------------------
$molecule
0 1
 6	-1.9819314461	0.6414179267	-0.4995533352
 6	-3.4829314461	0.8524179267	-0.7005533352
 6	-1.5939314461	-0.7455820733	-0.0485533352
 6	-1.5659314461	-1.8055820733	-0.9575533352
 6	-1.2259314461	-0.9825820733	1.2784466648
 6	-1.1769314461	-3.0795820733	-0.5515533352
 6	-0.8329314461	-2.2575820733	1.6944466648
 6	-0.8079314461	-3.3055820733	0.7754466648
 8	-0.4219314461	-4.5525820733	1.1674466648
 1	-1.4619314461	0.8584179267	-1.4325533352
 1	-1.6249314461	1.3694179267	0.2314466648
 1	-3.6219314461	1.8814179267	-1.0225533352
 1	-1.8369314461	-1.6445820733	-1.9905533352
 1	-1.2209314461	-0.1675820733	1.9914466648
 1	-1.1629314461	-3.8755820733	-1.2735533352
 1	-0.5349314461	-2.4345820733	2.7174466648
 1	-0.3789314461	-5.1695820733	0.4374466648
 1	-4.0362714461	0.7178679267	0.2405666648
 1	-3.8677114461	0.2161579267	-1.5111833352
$end
$rem
EDA2		1
METHOD		WB97X-V
BASIS		DEF2-TZVPD
XC_GRID		000099000590
NL_GRID		1
UNRESTRICTED		FALSE
MAX_SCF_CYCLES		200
SYMMETRY		FALSE
SYM_IGNORE		TRUE
BASIS_LIN_DEP_THRESH		6
THRESH		14
SCF_CONVERGENCE		8
SCF_PRINT_FRGM		TRUE
SOLVENT_METHOD		SMD
!required keywords
JOBTYPE		SP
SYM_IGNORE		TRUE
SUBSYSTEM		TRUE
GEN_SCFMAN		TRUE
CHILD_INSTRUCTION		2
SYM_IGNORE		TRUE
SCFMI		0
RI_K 0		
PARI_K 0		
MIN_PARI_K 0		
IARI_K 0		
OCC_RI_K 0		
PURECART		1111
MEM_STATIC		2000
MEM_TOTAL		2000
GUI		0
CHILD_MP		1
CHILD_MP_ORDERS		232
FRZ_RELAX		0
FRZ_RELAX_METHOD		0
EDA_CLS_ELEC		1
EDA_CLS_DISP		0
FRZ_ORTHO_DECOMP		1
EDA2		FALSE
FRGM_METHOD		FALSE
CIS_N_ROOTS  0
LOCAL_CIS    0
CIS_RLX_DNS  1
$end
$smx
SOLVENT			WATER
$end
--------------------------------------------------------------
 ----------------------------------------------------------------
             Standard Nuclear Orientation (Angstroms)
    I     Atom           X                Y                Z
 ----------------------------------------------------------------
    1      C      -1.9819314461     0.6414179267    -0.4995533352
    2      C      -3.4829314461     0.8524179267    -0.7005533352
    3      C      -1.5939314461    -0.7455820733    -0.0485533352
    4      C      -1.5659314461    -1.8055820733    -0.9575533352
    5      C      -1.2259314461    -0.9825820733     1.2784466648
    6      C      -1.1769314461    -3.0795820733    -0.5515533352
    7      C      -0.8329314461    -2.2575820733     1.6944466648
    8      C      -0.8079314461    -3.3055820733     0.7754466648
    9      O      -0.4219314461    -4.5525820733     1.1674466648
   10      H      -1.4619314461     0.8584179267    -1.4325533352
   11      H      -1.6249314461     1.3694179267     0.2314466648
   12      H      -3.6219314461     1.8814179267    -1.0225533352
   13      H      -1.8369314461    -1.6445820733    -1.9905533352
   14      H      -1.2209314461    -0.1675820733     1.9914466648
   15      H      -1.1629314461    -3.8755820733    -1.2735533352
   16      H      -0.5349314461    -2.4345820733     2.7174466648
   17      H      -0.3789314461    -5.1695820733     0.4374466648
   18      H      -4.0362714461     0.7178679267     0.2405666648
   19      H      -3.8677114461     0.2161579267    -1.5111833352
 ----------------------------------------------------------------
 Nuclear Repulsion Energy =         418.12789564 hartrees
 There are       33 alpha and       33 beta electrons
 Requested basis set is def2-TZVPD
 There are 168 shells and 426 basis functions

 Total QAlloc Memory Limit   2000 MB
 Mega-Array Size      1956 MB
 MEM_STATIC part      2000 MB

 Citation of the SMD model:
 Marenich, A.V.; Cramer, C.J.; Truhlar, D.G.
 J. Phys. Chem. B 2009, 113, 6378-6396.
 iSolventCode=           1
 Solvent: water                                                           

 vradii
            1           2           3           4           5           6
    1   1.8500000   1.8500000   1.8500000   1.8500000   1.8500000   1.8500000
            7           8           9          10          11          12
    1   1.8500000   1.8500000   1.5200000   1.2000000   1.2000000   1.2000000
           13          14          15          16          17          18
    1   1.2000000   1.2000000   1.2000000   1.2000000   1.2000000   1.2000000
           19
    1   1.2000000
 Changing PCM_VDW_RADII to SMD_RADIUS
 Discretize the solute cavity surface with Lebedev spheres
	Using 110 Lebedev grid points for each H atom
	Using 194 Lebedev grid points for other atoms
	Atomic van der Waals radii will be scaled by 1.20
 Remove points where switching function is < 1.0e-08
 Keep 1392 surface tesserae and discard 1454 interior tesserae
 Molecular Surface Area = 161.966 Angst**2
 A cutoff of  1.0D-14 yielded  13216 shell pairs
 There are     86472 function pairs (    109892 Cartesian)
 Smallest overlap matrix eigenvalue = 5.31E-07
 Linear dependence detected in AO basis
 Tighter screening thresholds may be required for diffuse basis sets
 Use S2THRESH > 14 and THRESH = 14 in case of SCF convergence issues
 Number of orthogonalized atomic orbitals = 425
 Maximum deviation from orthogonality = 1.993E-10

 Scale SEOQF with 1.000000e-01/1.000000e-02/1.000000e-01

 Standard Electronic Orientation quadrupole field applied
 Nucleus-field energy     =     0.0000000023 hartrees
 Guess from superposition of atomic densities
 Warning:  Energy on first SCF cycle will be non-variational
 SAD guess density has 66.000000 electrons

 -----------------------------------------------------------------------
  General SCF calculation program by
  Eric Jon Sundstrom, Paul Horn, Yuezhi Mao, Dmitri Zuev, Alec White,
  David Stuck, Shaama M.S., Shane Yost, Joonho Lee, David Small,
  Daniel Levine, Susi Lehtola, Hugh Burton, Evgeny Epifanovsky,
  Bang C. Huynh
 -----------------------------------------------------------------------
 Exchange:     0.1670 Hartree-Fock + 1.0000 wB97X-V + LR-HF
 Correlation:  1.0000 wB97X-V
 Using Euler-Maclaurin-Lebedev (99,590) quadrature formula
 Nonlocal Correlation:  VV10 with C = 0.0100 and b = 6.00 and scale = 1.00000
 Grid used for NLC:  SG-1 standard quadrature
Energy prior to optimization (guess energy) = -386.041093489934
Begin Timing: Total SCF Calculation
begin iterations for algorithm: DIIS         
the SCF tolerance is set to 1.00e-08
    1    -386.0410934899      1.99e-03     00000 
    2    -386.0973442478      1.56e-03     00000 
    3    -386.1406903946      2.73e-04     00000 
    4    -386.1425721312      1.22e-04     00000 
    5    -386.1430041781      3.47e-05     00000 
    6    -386.1430393276      1.10e-05     00000 
    7    -386.1430431667      4.94e-06     00000 
    8    -386.1430439764      1.17e-06     00000 
    9    -386.1430440719      5.28e-07     00000 
   10    -386.1430440908      2.46e-07     00000 
   11    -386.1430440956      6.63e-08     00000 
   12    -386.1430440961      2.93e-08     00000 
   13    -386.1430440961      8.46e-09     00000 Convergence criterion met
Timing for Total SCF: 1022.00s (wall), 7322.19s (cpu)
(3)  G-ENP(liq) elect-nuc-pol free energy of system     -386.143044096 a.u.
(4)  G-CDS(liq) cavity-dispersion-solvent structure 
     free energy                                                4.0964 kcal/mol
(6)  G-S(liq) free energy of system                     -386.136516041 a.u.
E_pcm = -0.0178441594
E_cds = 0.0065280554
Multipole orders to be included
        2
        3
computing dipole RHS
computing quadrupole RHS
total number of RHS in solve_reponses: 8
RHS batch sizes
        8
Beginning Block Conjugate Gradient Iterations. Batch Number: 0
computing hessian-vector products by finite difference
              1      6.22e-01     00000 Conjugate Gradient Iteration
computing hessian-vector products by finite difference
              2      1.97e-01     00000 Conjugate Gradient Iteration
computing hessian-vector products by finite difference
              3      5.25e-02     00000 Conjugate Gradient Iteration
computing hessian-vector products by finite difference
              4      1.63e-02     00000 Conjugate Gradient Iteration
computing hessian-vector products by finite difference
              5      4.71e-03     00000 Conjugate Gradient Iteration
computing hessian-vector products by finite difference
              6      1.85e-03     00000 Conjugate Gradient Iteration
computing hessian-vector products by finite difference
              7      4.35e-04     00000 Conjugate Gradient Iteration
computing hessian-vector products by finite difference
              8      8.83e-05     00000 Conjugate Gradient Iteration
computing hessian-vector products by finite difference
              9      1.73e-05     00000 Conjugate Gradient Iteration
computing hessian-vector products by finite difference
             10      2.55e-06     00000 Conjugate Gradient Iteration
computing hessian-vector products by finite difference
             11      3.43e-07     00000 Conjugate Gradient Iteration
computing hessian-vector products by finite difference
             12      5.83e-08     00000 Conjugate Gradient Iteration
computing hessian-vector products by finite difference
             13      9.50e-09     00000 CG Converged
batch 0 complete
Done Calculating Responses
TESTING ORTHOGONALIZATION OF MULTIPOLE BASIS
Multipole virts passed orthogonality test
Virts Per Order
           99
          165

 --------------------------------------------------------------

                    Orbital Energies (a.u.)
 --------------------------------------------------------------

 Alpha MOs
 -- Occupied --
-19.2392 -10.3320 -10.2699 -10.2687 -10.2682 -10.2669 -10.2655 -10.2572
-10.2491  -1.1907  -0.9906  -0.9118  -0.8787  -0.8447  -0.7545  -0.7396
 -0.6981  -0.6610  -0.6004  -0.5790  -0.5484  -0.5367  -0.5341  -0.5244
 -0.5132  -0.4887  -0.4756  -0.4462  -0.4357  -0.4291  -0.4260  -0.3488
 -0.3092
 -- Virtual --
  0.0631   0.0641   0.0726   0.0824   0.0876   0.0954   0.1026   0.1138
  0.1147   0.1193   0.1343   0.1483   0.1586   0.1663   0.1755   0.1827
  0.1918   0.1953   0.2022   0.2060   0.2136   0.2242   0.2335   0.2365
  0.2456   0.2525   0.2580   0.2688   0.2745   0.2776   0.2833   0.2898
  0.2957   0.2987   0.3022   0.3050   0.3090   0.3127   0.3233   0.3269
  0.3316   0.3371   0.3498   0.3515   0.3568   0.3587   0.3635   0.3662
  0.3711   0.3723   0.3762   0.3801   0.3843   0.3875   0.3950   0.3979
  0.4068   0.4124   0.4177   0.4221   0.4258   0.4339   0.4384   0.4423
  0.4482   0.4542   0.4597   0.4686   0.4729   0.4792   0.4820   0.4847
  0.4913   0.4940   0.4953   0.5025   0.5097   0.5124   0.5186   0.5282
  0.5302   0.5414   0.5437   0.5509   0.5541   0.5558   0.5679   0.5768
  0.5843   0.5895   0.5947   0.5990   0.6067   0.6124   0.6219   0.6256
  0.6412   0.6554   0.6647   0.6696   0.6716   0.6760   0.6849   0.6953
  0.6985   0.7055   0.7119   0.7185   0.7223   0.7293   0.7326   0.7378
  0.7456   0.7545   0.7579   0.7715   0.7743   0.7808   0.7874   0.7922
  0.7950   0.7984   0.8060   0.8093   0.8149   0.8166   0.8196   0.8227
  0.8282   0.8410   0.8526   0.8570   0.8609   0.8666   0.8744   0.8817
  0.8939   0.8982   0.9085   0.9214   0.9357   0.9448   0.9558   0.9820
  0.9861   0.9952   1.0077   1.0232   1.0289   1.0417   1.0566   1.0598
  1.0740   1.0817   1.0931   1.1055   1.1124   1.1229   1.1285   1.1685
  1.1735   1.1921   1.2331   1.2375   1.2578   1.2903   1.3176   1.3302
  1.3357   1.3427   1.3710   1.3826   1.4071   1.4123   1.4280   1.4491
  1.4616   1.4804   1.4877   1.5128   1.5204   1.5574   1.5729   1.5874
  1.6281   1.6500   1.6600   1.6709   1.7003   1.7255   1.7592   1.7638
  1.7735   1.8144   1.8352   1.8408   1.8584   1.8675   1.8903   1.9039
  1.9171   1.9269   1.9401   1.9428   1.9804   1.9880   2.0032   2.0043
  2.0172   2.0419   2.0439   2.0519   2.0659   2.0674   2.0751   2.0935
  2.1134   2.1431   2.1602   2.1841   2.2106   2.2151   2.2237   2.2567
  2.2690   2.2857   2.3181   2.3203   2.3340   2.3601   2.3802   2.4081
  2.4166   2.4336   2.4623   2.4978   2.5068   2.5114   2.5491   2.5544
  2.5921   2.6051   2.6364   2.6410   2.6596   2.6712   2.6839   2.7191
  2.7303   2.7445   2.7579   2.7806   2.7875   2.8069   2.8210   2.8296
  2.8562   2.8650   2.8869   2.9025   2.9186   2.9367   2.9401   2.9555
  2.9765   2.9801   2.9955   3.0069   3.0186   3.0330   3.0583   3.0758
  3.0822   3.0952   3.1227   3.1430   3.1530   3.1789   3.1873   3.2115
  3.2176   3.2540   3.2665   3.2811   3.2869   3.3048   3.3246   3.3436
  3.3716   3.3870   3.4050   3.4254   3.4338   3.4611   3.4663   3.4697
  3.4788   3.4952   3.5041   3.5154   3.5235   3.5324   3.5405   3.5534
  3.5633   3.5740   3.5784   3.5914   3.6046   3.6221   3.6270   3.6628
  3.6759   3.6829   3.6971   3.7153   3.7305   3.7543   3.7773   3.7995
  3.8244   3.8368   3.8599   3.8774   3.9443   3.9683   3.9993   4.0197
  4.0477   4.0912   4.1317   4.1480   4.1647   4.2001   4.2064   4.2657
  4.2831   4.3182   4.3323   4.3336   4.3485   4.3741   4.3959   4.4091
  4.4266   4.4553   4.4797   4.5013   4.5654   4.5875   4.6082   4.6961
  4.7414   4.7516   4.7797   4.8455   4.8771   4.9041   4.9351   5.0259
  5.0580   5.0802   5.1278   5.1460   5.1714   5.3345   5.3470   5.3974
  5.4697   5.5510   5.6228   5.6646   5.7404   5.7817   5.9500   6.2257
  6.4949   6.6067   6.6448   6.8770   7.0145   7.3088   7.4658  22.6578
 22.7119  22.8268  22.9497  23.0148  23.0498  23.1873  23.5243  44.4292
 --------------------------------------------------------------

          Ground-State Mulliken Net Atomic Charges

     Atom                 Charge (a.u.)
  ----------------------------------------
      1 C                    -0.519841
      2 C                    -0.878066
      3 C                     0.412281
      4 C                    -0.534282
      5 C                    -0.473394
      6 C                    -0.486607
      7 C                    -0.852289
      8 C                     0.660541
      9 O                    -0.541930
     10 H                     0.274724
     11 H                     0.288270
     12 H                     0.234736
     13 H                     0.405643
     14 H                     0.374909
     15 H                     0.375485
     16 H                     0.403719
     17 H                     0.323038
     18 H                     0.267568
     19 H                     0.265495
  ----------------------------------------
  Sum of atomic charges =     0.000000

 -----------------------------------------------------------------
                    Cartesian Multipole Moments
 -----------------------------------------------------------------
    Charge (ESU x 10^10)
                 0.0000
    Dipole Moment (Debye)
         X      -0.2068      Y       0.0426      Z      -2.1027
       Tot       2.1133
    Quadrupole Moments (Debye-Ang)
        XX     -58.2062     XY      -1.4436     YY     -46.0404
        XZ       2.6300     YZ      10.3540     ZZ     -52.5229
    Octopole Moments (Debye-Ang^2)
       XXX     265.6715    XXY      97.3507    XYY      81.3334
       YYY     193.4324    XXZ     -16.2752    XYZ      -8.6510
       YYZ     -57.6728    XZZ      78.6533    YZZ      93.7550
       ZZZ     -32.6959
    Hexadecapole Moments (Debye-Ang^3)
      XXXX   -1181.1667   XXXY    -194.6966   XXYY    -539.9206
      XYYY    -149.2533   YYYY   -1504.8367   XXXZ     -43.7208
      XXYZ      75.6248   XYYZ      14.0571   YYYZ     395.3961
      XXZZ    -253.0627   XYZZ     -55.8242   YYZZ    -448.0755
      XZZZ     -38.3118   YZZZ     197.3417   ZZZZ    -394.3968
 -----------------------------------------------------------------
Archival summary:
1\1\compute-0-0.local\SP\ProcedureUnspecified\BasisUnspecified\1810\meili\TueSep2819:25:172021TueSep2819:25:172021\0\\#,ProcedureUnspecified,BasisUnspecified,\\0,1\C\C,1,1.39666\H,2,1.08002,1,120.287\C,2,1.39256,1,120.676,3,179.361,0\H,4,1.07475,2,119.036,1,-179.866,0\C,4,1.39577,2,119.945,1,-0.107838,0\O,6,1.36296,4,119.766,2,-179.7,0\H,7,0.956785,6,112.538,4,4.43207,0\C,6,1.39409,4,120.018,2,0.203755,0\H,9,1.08012,6,119.75,4,-179.253,0\C,1,1.39733,2,118.952,3,-179.411,0\H,11,1.08288,1,119.924,2,178.655,0\C,1,1.50921,2,120.541,3,-0.936605,0\H,13,1.08994,1,108.428,2,-45.1537,0\H,13,1.09169,1,109.189,2,-160.836,0\C,13,1.52903,1,114.739,2,77.1626,0\H,16,1.08713,13,107.162,1,-179.943,0\H,16,1.1,13,111.375,1,62.4423,0\H,16,1.1,13,111.127,1,-63.9329,0\\\@

 Total job time:  20400.44s(wall), 146505.68s(cpu) 
 Tue Sep 28 19:25:17 2021

        *************************************************************
        *                                                           *
        *  Thank you very much for using Q-Chem.  Have a nice day.  *
        *                                                           *
        *************************************************************


Done Job For Fragment 1
calling putenv with: QCSCRATCH=/home/meili/scratch 
calling putenv with: QCTHREADS=8 
Doing General SCFMI
 Exchange:     0.1670 Hartree-Fock + 1.0000 wB97X-V + LR-HF
 Correlation:  1.0000 wB97X-V
 Using Euler-Maclaurin-Lebedev (99,590) quadrature formula
 Nonlocal Correlation:  VV10 with C = 0.0100 and b = 6.00 and scale = 1.00000
 Grid used for NLC:  SG-1 standard quadrature
performing fock build before subrot guess so that all methods have access
Printing subrot_rss_gen Method Specification:
Occupied Subspace Method is 0
Virtual Subspace Method is 0
Energy of the unrelaxed supersystem initial determinant -732.937925055415
performing fock build before subrot guess so that all methods have access
Printing subrot_rss_gen Method Specification:
Occupied Subspace Method is 0
Virtual Subspace Method is 0
Energy of the unrelaxed supersystem initial determinant w/ solvent -732.973865716023
write pseudocanon occs and virts to disk
write pseudocanon orbital energies to disk
Tolerance of ortho_decomp_scf: 1.00e-06
GDM subspace size: 20
Beginning the Orthogonal Decomposition of the Initial Supersystem Wavefunction
    1    -732.9143135994      1.94e-02     ortho_decomp Preconditoned Steepest Descent
    2    -732.9166235208      4.85e-04     ortho_decomp BFGS Step
    3    -732.9166312051      3.70e-05     ortho_decomp BFGS Step
    4    -732.9166312185      1.52e-06     ortho_decomp BFGS Step
    5    -732.9166312185      6.23e-08     ortho_decomp 00000 Convergence criterion met
 Hartree-Fock
 Hartree-Fock
 Hartree-Fock
Doing General SCFMI
 Exchange:     0.1670 Hartree-Fock + 1.0000 wB97X-V + LR-HF
 Correlation:  1.0000 wB97X-V
 Using Euler-Maclaurin-Lebedev (99,590) quadrature formula
 Nonlocal Correlation:  VV10 with C = 0.0100 and b = 6.00 and scale = 1.00000
 Grid used for NLC:  SG-1 standard quadrature
performing fock build at end of subrot_r(subrot) constructor so that all methods have access
<S^2> of initial wavefunction before polarization iterations 0.0000000000
Beginning iterations for the determination of the polarized wavefunction
Energy prior to optimization (guess energy) = -732.973865716023
Begin Timing: Total SCF Calculation
begin iterations for algorithm: DIIS         
the SCF tolerance is set to 1.00e-08
    1    -732.9738657160      3.65e-05     00000 
    2    -732.9740578117      1.84e-05     00000 
    3    -732.9740868540      8.59e-06     00000 
    4    -732.9740955855      3.07e-06     00000 
    5    -732.9740966754      1.67e-06     00000 
    6    -732.9740970008      7.62e-07     00000 
    7    -732.9740970376      4.28e-07     00000 
    8    -732.9740970484      1.72e-07     00000 
    9    -732.9740970505      7.12e-08     00000 
   10    -732.9740970510      3.61e-08     00000 
   11    -732.9740970512      1.32e-08     00000 
   12    -732.9740970512      6.13e-09     00000 Convergence criterion met
write pseudocanon occs and virts to disk
write pseudocanon orbital energies to disk
Timing for Total SCF: 6607.00s (wall), 48625.38s (cpu)
<S^2> of polarized wavefunction after polarization iterations 0.0000000000
relaxing scfmi constraint to allow all rotations in the entire AO span
Doing General SCFMI
 Exchange:     0.1670 Hartree-Fock + 1.0000 wB97X-V + LR-HF
 Correlation:  1.0000 wB97X-V
 Using Euler-Maclaurin-Lebedev (99,590) quadrature formula
 Nonlocal Correlation:  VV10 with C = 0.0100 and b = 6.00 and scale = 1.00000
 Grid used for NLC:  SG-1 standard quadrature
performing fock build at end of subrot_r(subrot) constructor so that all methods have access
<S^2> of polarized wavefunction before ct-allowed iterations 0.0000000000
Beginning iterations for the determination of the CT-Allowed wavefunction
Energy prior to optimization (guess energy) = -732.974097051247
Begin Timing: Total SCF Calculation
begin iterations for algorithm: DIIS         
the SCF tolerance is set to 1.00e-08
    1    -732.9740970512      5.36e-05     00000 
    2    -732.9748698388      4.92e-06     00000 
    3    -732.9748979854      1.02e-06     00000 
    4    -732.9748995139      4.56e-07     00000 
    5    -732.9748995846      1.43e-07     00000 
    6    -732.9748995960      5.10e-08     00000 
    7    -732.9748995969      1.09e-08     00000 
    8    -732.9748995970      3.71e-09     00000 Convergence criterion met
write pseudocanon occs and virts to disk
write pseudocanon orbital energies to disk
Timing for Total SCF: 4126.00s (wall), 30064.70s (cpu)
<S^2> of ct_allowed wavefunction after ct-allowed iterations 0.0000000000

================================
        Results of EDA2         
================================
Basic EDA Quantities
--------------------
Fragment Energies (Ha):
1 -346.8203756059
2 -386.1365160408
--------------------
  E_prp (kJ/mol) = 0.0000
  E_sol (kJ/mol) = -4.1857
  E_frz (kJ/mol) = -10.0692
  E_pol (kJ/mol) = -0.6074
  E_vct (kJ/mol) = -2.1071
  E_int (kJ/mol) = -16.9693
--------------------


Initial Wavefunction Decomposition
--------------------
  --------------------
  Orthogonal Fragment Subspace Decomposition:
  --------------------
     E_elec   (ELEC)   (kJ/mol) = -19.4448
     E_pauli  (PAULI)  (kJ/mol) = 34.7685
     E_disp   (DISP)   (kJ/mol) = -25.3929
     --------------------
     Terms summing to E_pauli:
     --------------------
        E_kep_pauli       (kJ/mol) = 45.8384
        E_disp_free_pauli (kJ/mol) = -11.0699
  --------------------
  Classical Frozen Decomposition:
  --------------------
     E_cls_elec  (CLS ELEC)  (kJ/mol) = -3.0343
     E_cls_pauli (CLS PAULI) (kJ/mol) = -7.0349
    [E_mod_pauli (MOD PAULI) (kJ/mol) = 18.3580 (CLS PAULI - DISP from orthogonal decomposition) ]
  --------------------
--------------------

Simplified EDA Summary (kJ/mol)
--------------------
 PREPARATION     0.0000
 SOLVATION       -4.1857
 FROZEN          15.3237      (does not include dispersion)
[PAULI           34.7685]     (if this is negligible, then frozen describes electrostatics)
 DISPERSION      -25.3929
 POLARIZATION    -0.6074
 CHARGE TRANSFER -2.1071
 TOTAL           -16.9693     (PRP + SOL + FRZ + DISP + POL + CT)
--------------------

 --------------------------------------------------------------

                    Orbital Energies (a.u.)
 --------------------------------------------------------------

 Alpha MOs
 -- Occupied --
-19.2398 -19.2391 -10.3319 -10.3309 -10.2707 -10.2694 -10.2690 -10.2682
-10.2678 -10.2677 -10.2668 -10.2666 -10.2660 -10.2653 -10.2567 -10.2519
-10.2488  -1.1905  -1.1896  -0.9906  -0.9891  -0.9115  -0.8961  -0.8784
 -0.8777  -0.8444  -0.8039  -0.7543  -0.7421  -0.7393  -0.7080  -0.6978
 -0.6608  -0.6596  -0.6001  -0.5965  -0.5789  -0.5743  -0.5483  -0.5441
 -0.5396  -0.5364  -0.5323  -0.5261  -0.5243  -0.5152  -0.5123  -0.5068
 -0.4882  -0.4757  -0.4718  -0.4498  -0.4460  -0.4407  -0.4364  -0.4306
 -0.4284  -0.4252  -0.3490  -0.3471  -0.3127  -0.3047
 -- Virtual --
  0.0563   0.0604   0.0643   0.0666   0.0708   0.0768   0.0814   0.0837
  0.0885   0.0947   0.1029   0.1049   0.1093   0.1132   0.1153   0.1191
  0.1232   0.1331   0.1397   0.1427   0.1438   0.1502   0.1567   0.1657
  0.1726   0.1742   0.1776   0.1796   0.1893   0.1915   0.1929   0.1978
  0.2034   0.2081   0.2096   0.2197   0.2219   0.2255   0.2268   0.2281
  0.2351   0.2401   0.2429   0.2499   0.2538   0.2555   0.2604   0.2641
  0.2660   0.2705   0.2729   0.2785   0.2802   0.2835   0.2900   0.2935
  0.2954   0.3008   0.3014   0.3037   0.3051   0.3072   0.3110   0.3162
  0.3191   0.3220   0.3234   0.3276   0.3295   0.3338   0.3344   0.3375
  0.3417   0.3457   0.3462   0.3510   0.3533   0.3574   0.3579   0.3607
  0.3651   0.3652   0.3673   0.3701   0.3704   0.3717   0.3742   0.3798
  0.3829   0.3839   0.3858   0.3876   0.3919   0.3934   0.3993   0.4026
  0.4065   0.4098   0.4111   0.4122   0.4142   0.4186   0.4202   0.4233
  0.4251   0.4316   0.4353   0.4384   0.4441   0.4481   0.4489   0.4519
  0.4554   0.4588   0.4612   0.4656   0.4662   0.4705   0.4722   0.4745
  0.4796   0.4799   0.4842   0.4884   0.4928   0.4936   0.4946   0.4972
  0.4981   0.4994   0.5053   0.5109   0.5122   0.5170   0.5197   0.5213
  0.5252   0.5271   0.5302   0.5325   0.5372   0.5397   0.5443   0.5454
  0.5527   0.5576   0.5616   0.5639   0.5684   0.5717   0.5728   0.5794
  0.5812   0.5841   0.5864   0.5889   0.5962   0.6036   0.6044   0.6107
  0.6155   0.6161   0.6239   0.6258   0.6331   0.6349   0.6389   0.6437
  0.6460   0.6502   0.6521   0.6579   0.6611   0.6621   0.6656   0.6732
  0.6771   0.6836   0.6880   0.6919   0.6943   0.6950   0.6986   0.7066
  0.7092   0.7128   0.7159   0.7200   0.7216   0.7278   0.7311   0.7342
  0.7375   0.7430   0.7447   0.7458   0.7526   0.7569   0.7588   0.7608
  0.7626   0.7685   0.7707   0.7714   0.7780   0.7785   0.7826   0.7845
  0.7873   0.7895   0.7931   0.7953   0.7973   0.8025   0.8077   0.8107
  0.8122   0.8134   0.8150   0.8210   0.8231   0.8260   0.8338   0.8355
  0.8389   0.8407   0.8481   0.8512   0.8542   0.8568   0.8596   0.8617
  0.8655   0.8694   0.8752   0.8777   0.8813   0.8839   0.8875   0.8906
  0.8963   0.8994   0.9019   0.9026   0.9148   0.9182   0.9250   0.9255
  0.9338   0.9358   0.9398   0.9452   0.9482   0.9549   0.9603   0.9637
  0.9660   0.9694   0.9815   0.9837   0.9903   0.9978   1.0079   1.0091
  1.0123   1.0184   1.0234   1.0340   1.0404   1.0424   1.0476   1.0560
  1.0674   1.0705   1.0764   1.0826   1.0849   1.0869   1.1013   1.1112
  1.1159   1.1278   1.1305   1.1341   1.1413   1.1546   1.1592   1.1611
  1.1672   1.1679   1.1862   1.1913   1.2024   1.2147   1.2225   1.2310
  1.2369   1.2460   1.2573   1.2659   1.2833   1.2892   1.2981   1.3163
  1.3221   1.3246   1.3365   1.3387   1.3548   1.3590   1.3621   1.3746
  1.3869   1.3886   1.3994   1.4045   1.4215   1.4281   1.4375   1.4428
  1.4555   1.4620   1.4668   1.4789   1.4849   1.4943   1.5057   1.5144
  1.5166   1.5241   1.5366   1.5410   1.5476   1.5629   1.5761   1.5825
  1.5909   1.5939   1.6185   1.6332   1.6478   1.6522   1.6611   1.6684
  1.6800   1.6845   1.6977   1.7087   1.7293   1.7351   1.7428   1.7580
  1.7799   1.7836   1.7903   1.7971   1.8190   1.8346   1.8418   1.8532
  1.8580   1.8697   1.8746   1.8835   1.8932   1.8986   1.9148   1.9245
  1.9315   1.9367   1.9444   1.9496   1.9519   1.9671   1.9740   1.9800
  1.9889   1.9957   2.0078   2.0120   2.0202   2.0267   2.0311   2.0411
  2.0424   2.0534   2.0587   2.0682   2.0718   2.0742   2.0844   2.0895
  2.0968   2.1047   2.1134   2.1286   2.1304   2.1372   2.1451   2.1484
  2.1558   2.1736   2.1802   2.1904   2.1953   2.2136   2.2194   2.2335
  2.2442   2.2486   2.2699   2.2771   2.2882   2.2900   2.2942   2.3089
  2.3177   2.3292   2.3361   2.3425   2.3443   2.3499   2.3563   2.3676
  2.3726   2.3882   2.3959   2.4037   2.4194   2.4330   2.4440   2.4557
  2.4609   2.4720   2.4789   2.4858   2.5150   2.5267   2.5399   2.5473
  2.5564   2.5656   2.5734   2.5785   2.5954   2.6048   2.6101   2.6262
  2.6310   2.6387   2.6545   2.6600   2.6719   2.6789   2.6849   2.6944
  2.7029   2.7146   2.7205   2.7353   2.7534   2.7549   2.7692   2.7703
  2.7749   2.7812   2.7962   2.8078   2.8143   2.8223   2.8298   2.8346
  2.8528   2.8540   2.8634   2.8720   2.8964   2.9004   2.9130   2.9183
  2.9212   2.9368   2.9384   2.9513   2.9547   2.9693   2.9729   2.9819
  2.9867   2.9918   2.9974   3.0083   3.0107   3.0215   3.0267   3.0310
  3.0375   3.0544   3.0567   3.0655   3.0716   3.0850   3.0911   3.1030
  3.1051   3.1150   3.1266   3.1295   3.1402   3.1538   3.1643   3.1804
  3.1866   3.1996   3.2045   3.2074   3.2170   3.2233   3.2346   3.2456
  3.2570   3.2759   3.2811   3.2884   3.2999   3.3042   3.3075   3.3234
  3.3254   3.3340   3.3350   3.3520   3.3714   3.3745   3.3792   3.3908
  3.4001   3.4148   3.4195   3.4271   3.4308   3.4511   3.4566   3.4622
  3.4668   3.4711   3.4816   3.4843   3.4896   3.4963   3.4986   3.5029
  3.5134   3.5238   3.5326   3.5423   3.5473   3.5501   3.5545   3.5579
  3.5616   3.5682   3.5715   3.5747   3.5791   3.5869   3.5912   3.5951
  3.5997   3.6066   3.6127   3.6176   3.6288   3.6352   3.6379   3.6443
  3.6526   3.6570   3.6689   3.6776   3.6857   3.7006   3.7082   3.7147
  3.7194   3.7310   3.7326   3.7401   3.7558   3.7600   3.7831   3.7940
  3.8082   3.8115   3.8220   3.8401   3.8594   3.8683   3.8703   3.8790
  3.9183   3.9251   3.9596   3.9740   3.9841   3.9980   4.0000   4.0175
  4.0190   4.0386   4.0619   4.0650   4.0980   4.1202   4.1555   4.1659
  4.1697   4.1753   4.1828   4.2150   4.2386   4.2735   4.2868   4.2928
  4.2996   4.3095   4.3280   4.3317   4.3341   4.3395   4.3475   4.3505
  4.3590   4.3685   4.3753   4.3861   4.3903   4.4106   4.4218   4.4365
  4.4520   4.4526   4.4692   4.4798   4.4946   4.5126   4.5165   4.5630
  4.5893   4.6106   4.6320   4.6342   4.6458   4.7220   4.7463   4.7532
  4.7580   4.7671   4.7977   4.8065   4.8261   4.8635   4.8886   4.8963
  4.9355   4.9486   4.9651   5.0411   5.0455   5.0667   5.0752   5.0961
  5.1169   5.1468   5.1494   5.1606   5.1832   5.1957   5.3125   5.3379
  5.3425   5.3640   5.4003   5.4069   5.4568   5.4893   5.5456   5.5682
  5.6245   5.6292   5.6606   5.6672   5.7279   5.7535   5.7669   5.7907
  5.9513   5.9678   6.2283   6.2299   6.4843   6.4961   6.6136   6.6182
  6.6523   6.6943   6.8853   6.9045   7.0182   7.0343   7.3117   7.3308
  7.4708   7.4870  22.6859  22.7032  22.7609  22.7841  22.9019  22.9782
 23.0006  23.0224  23.0561  23.0905  23.1238  23.2123  23.2159  23.5175
 23.5288  44.4620  44.5365
 --------------------------------------------------------------

          Ground-State Mulliken Net Atomic Charges

     Atom                 Charge (a.u.)
  ----------------------------------------
      1 C                    -1.319840
      2 C                    -0.567611
      3 C                     0.618074
      4 C                    -0.536073
      5 C                    -0.555125
      6 C                     0.553955
      7 C                    -0.480480
      8 O                    -0.521245
      9 H                     0.359355
     10 H                     0.419033
     11 H                     0.297091
     12 H                     0.309001
     13 H                     0.424007
     14 H                     0.385612
     15 H                     0.328977
     16 H                     0.287847
     17 C                    -0.277479
     18 C                    -1.147642
     19 C                     0.550237
     20 C                    -0.504720
     21 C                    -0.428958
     22 C                    -0.581755
     23 C                    -0.934312
     24 C                     0.593214
     25 O                    -0.534605
     26 H                     0.149876
     27 H                     0.298659
     28 H                     0.283374
     29 H                     0.392073
     30 H                     0.414066
     31 H                     0.387544
     32 H                     0.419521
     33 H                     0.333166
     34 H                     0.292660
     35 H                     0.292503
  ----------------------------------------
  Sum of atomic charges =     0.000000

 -----------------------------------------------------------------
                    Cartesian Multipole Moments
 -----------------------------------------------------------------
    Charge (ESU x 10^10)
                -0.0000
    Dipole Moment (Debye)
         X      -0.1075      Y       1.9943      Z      -1.3703
       Tot       2.4221
    Quadrupole Moments (Debye-Ang)
        XX    -109.7824     XY       2.4857     YY     -86.5986
        XZ       5.9312     YZ      14.2512     ZZ     -89.6906
    Octopole Moments (Debye-Ang^2)
       XXX      13.4965    XXY       2.6976    XYY      16.1991
       YYY     -60.4324    XXZ      10.9787    XYZ       1.2104
       YYZ     -38.2692    XZZ      21.0646    YZZ      17.9028
       ZZZ      39.0328
    Hexadecapole Moments (Debye-Ang^3)
      XXXX   -2092.6376   XXXY    -660.5624   XXYY    -959.2563
      XYYY    -543.5431   YYYY   -3056.2745   XXXZ      19.6439
      XXYZ     182.8148   XYYZ      34.8674   YYYZ     650.5714
      XXZZ    -482.4279   XYZZ    -165.8191   YYZZ    -826.1261
      XZZZ      56.8570   YZZZ     485.1947   ZZZZ   -1027.0252
 -----------------------------------------------------------------
Archival summary:
1\1\compute-0-0.local\SP\ProcedureUnspecified\BasisUnspecified\21518\meili\WedSep2900:57:232021WedSep2900:57:232021\0\\#,ProcedureUnspecified,BasisUnspecified,\\0,1\O\H,1,0.962679\C,1,1.36359,2,111.963\C,3,1.39489,1,119.962,2,0.0808419,0\H,4,1.08037,3,120.292,1,-0.56055,0\C,3,1.39501,1,120.081,2,179.555,0\H,6,1.07676,3,118.97,1,2.69913,0\C,4,1.39665,3,119.629,1,179.246,0\H,8,1.08333,4,119.498,3,-179.911,0\C,6,1.39698,3,119.962,1,-179.091,0\H,10,1.07503,6,119.907,3,179.55,0\C,10,1.39307,6,120.636,3,-0.199764,0\C,12,1.50374,10,120.646,6,178.261,0\H,13,1.08543,12,107.651,10,136.704,0\H,13,1.09072,12,110.227,10,18.6598,0\H,13,1.1,12,112.458,10,-104.776,0\H,10,2.99118,6,87.704,3,-101.402,0\C,17,1.08994,10,122.963,6,31.3635,0\H,18,1.09169,17,106.523,10,44.8296,0\C,18,1.50921,17,108.428,10,-72.5717,0\C,20,1.39666,18,120.541,17,-45.1537,0\H,21,1.08002,20,120.287,18,-0.936605,0\C,21,1.39256,20,120.676,18,178.425,0\H,23,1.07475,21,119.036,20,-179.866,0\C,23,1.39577,21,119.945,20,-0.107838,0\O,25,1.36296,23,119.766,21,-179.7,0\H,26,0.956785,25,112.538,23,4.43207,0\C,25,1.39409,23,120.018,21,0.203755,0\H,28,1.08012,25,119.75,23,-179.253,0\C,20,1.39733,18,120.489,17,133.298,0\H,30,1.08288,20,119.924,18,0.179181,0\C,18,1.52903,17,109.168,10,161.779,0\H,32,1.08713,18,107.162,17,-58.0283,0\H,32,1.1,18,111.375,17,-175.643,0\H,32,1.1,18,111.127,17,57.9822,0\\\@

 Total job time:  53051.93s(wall), 149680.81s(cpu) 
 Wed Sep 29 00:57:23 2021

        *************************************************************
        *                                                           *
        *  Thank you very much for using Q-Chem.  Have a nice day.  *
        *                                                           *
        *************************************************************


