
Running Job 1 of 1 SSI-042GLU-103PHE-1_PCM_TZVPD.in
qchem SSI-042GLU-103PHE-1_PCM_TZVPD.in_15129.0 /tmp/qchem15129/ 0
/global/common/cori/software/qchem/5.2/exe/qcprog.exe_s SSI-042GLU-103PHE-1_PCM_TZVPD.in_15129.0 /tmp/qchem15129/
                  Welcome to Q-Chem
     A Quantum Leap Into The Future Of Chemistry


 Q-Chem 5.2, Q-Chem, Inc., Pleasanton, CA (2019)

 License issued to: National Energy Research Scientific Computing Center

 Yihan Shao,  Zhengting Gan,  E. Epifanovsky,  A. T. B. Gilbert,  M. Wormit,  
 J. Kussmann,  A. W. Lange,  A. Behn,  Jia Deng,  Xintian Feng,  D. Ghosh,  
 M. Goldey,  P. R. Horn,  L. D. Jacobson,  I. Kaliman,  T. Kus,  A. Landau,  
 Jie Liu,  E. I. Proynov,  R. M. Richard,  R. P. Steele,  E. J. Sundstrom,  
 H. L. Woodcock III,  P. M. Zimmerman,  D. Zuev,  B. Albrecht,  E. Alguire,  
 S. A. Baeppler,  D. Barton,  Z. Benda,  Y. A. Bernard,  E. J. Berquist,  
 K. B. Bravaya,  H. Burton,  D. Casanova,  Chun-Min Chang,  Yunqing Chen,  
 A. Chien,  K. D. Closser,  M. P. Coons,  S. Coriani,  S. Dasgupta,  
 A. L. Dempwolff,  M. Diedenhofen,  Hainam Do,  R. G. Edgar,  Po-Tung Fang,  
 S. Faraji,  S. Fatehi,  Qingguo Feng,  K. D. Fenk,  J. Fosso-Tande,  
 J. Gayvert,  Qinghui Ge,  A. Ghysels,  G. Gidofalvi,  J. Gomes,  
 J. Gonthier,  A. Gunina,  D. Hait,  M. W. D. Hanson-Heine,  
 P. H. P. Harbach,  A. W. Hauser,  M. F. Herbst,  J. E. Herr,  
 E. G. Hohenstein,  Z. C. Holden,  Kerwin Hui,  B. C. Huynh,  T.-C. Jagau,  
 Hyunjun Ji,  B. Kaduk,  K. Khistyaev,  Jaehoon Kim,  P. Klunzinger,  K. Koh,  
 D. Kosenkov,  L. Koulias,  T. Kowalczyk,  C. M. Krauter,  A. Kunitsa,  
 Ka Un Lao,  A. Laurent,  K. V. Lawler,  Joonho Lee,  D. Lefrancois,  
 S. Lehtola,  D. S. Levine,  Yi-Pei Li,  You-Sheng Lin,  Fenglai Liu,  
 E. Livshits,  A. Luenser,  P. Manohar,  E. Mansoor,  S. F. Manzer,  
 Shan-Ping Mao,  Yuezhi Mao,  N. Mardirossian,  A. V. Marenich,  
 T. Markovich,  L. A. Martinez-Martinez,  S. A. Maurer,  N. J. Mayhall,  
 S. C. McKenzie,  J.-M. Mewes,  P. Morgante,  A. F. Morrison,  
 J. W. Mullinax,  K. Nanda,  T. S. Nguyen-Beck,  R. Olivares-Amaya,  
 J. A. Parkhill,  Zheng Pei,  T. M. Perrine,  F. Plasser,  P. Pokhilko,  
 S. Prager,  A. Prociuk,  E. Ramos,  D. R. Rehn,  F. Rob,  M. Scheurer,  
 M. Schneider,  N. Sergueev,  S. M. Sharada,  S. Sharma,  D. W. Small,  
 T. Stauch,  T. Stein,  Yu-Chuan Su,  A. J. W. Thom,  A. Tkatchenko,  
 T. Tsuchimochi,  N. M. Tubman,  L. Vogt,  M. L. Vidal,  O. Vydrov,  
 M. A. Watson,  J. Wenzel,  M. de Wergifosse,  T. A. Wesolowski,  A. White,  
 J. Witte,  A. Yamada,  Jun Yang,  K. Yao,  S. Yeganeh,  S. R. Yost,  
 Zhi-Qiang You,  A. Zech,  Igor Ying Zhang,  Xing Zhang,  Yan Zhao,  
 Ying Zhu,  B. R. Brooks,  G. K. L. Chan,  C. J. Cramer,  M. S. Gordon,  
 W. J. Hehre,  A. Klamt,  M. W. Schmidt,  C. D. Sherrill,  D. G. Truhlar,  
 A. Aspuru-Guzik,  R. Baer,  A. T. Bell,  N. A. Besley,  Jeng-Da Chai,  
 A. E. DePrince, III,  R. A. DiStasio Jr.,  A. Dreuw,  B. D. Dunietz,  
 T. R. Furlani,  Chao-Ping Hsu,  Yousung Jung,  Jing Kong,  D. S. Lambrecht,  
 WanZhen Liang,  C. Ochsenfeld,  V. A. Rassolov,  L. V. Slipchenko,  
 J. E. Subotnik,  T. Van Voorhis,  J. M. Herbert,  A. I. Krylov,  
 P. M. W. Gill,  M. Head-Gordon

 Contributors to earlier versions of Q-Chem not listed above: 
 R. D. Adamson,  B. Austin,  J. Baker,  G. J. O. Beran,  K. Brandhorst,  
 S. T. Brown,  E. F. C. Byrd,  A. K. Chakraborty,  C.-L. Cheng,  
 Siu Hung Chien,  D. M. Chipman,  D. L. Crittenden,  H. Dachsel,  
 R. J. Doerksen,  A. D. Dutoi,  L. Fusti-Molnar,  W. A. Goddard III,  
 A. Golubeva-Zadorozhnaya,  S. R. Gwaltney,  G. Hawkins,  A. Heyden,  
 S. Hirata,  G. Kedziora,  F. J. Keil,  C. Kelley,  Jihan Kim,  R. A. King,  
 R. Z. Khaliullin,  P. P. Korambath,  W. Kurlancheek,  A. M. Lee,  M. S. Lee,  
 S. V. Levchenko,  Ching Yeh Lin,  D. Liotard,  R. C. Lochan,  I. Lotan,  
 P. E. Maslen,  N. Nair,  D. P. O'Neill,  D. Neuhauser,  E. Neuscamman,  
 C. M. Oana,  R. Olson,  B. Peters,  R. Peverati,  P. A. Pieniazek,  
 Y. M. Rhee,  J. Ritchie,  M. A. Rohrdanz,  E. Rosta,  N. J. Russ,  
 H. F. Schaefer III,  N. E. Schultz,  N. Shenvi,  A. C. Simmonett,  A. Sodt,  
 D. Stuck,  K. S. Thanthiriwatte,  V. Vanovschi,  Tao Wang,  A. Warshel,  
 C. F. Williams,  Q. Wu,  X. Xu,  W. Zhang

 Please cite Q-Chem as follows:
 Y. Shao et al., Mol. Phys. 113, 184-215 (2015)
 DOI: 10.1080/00268976.2014.952696

 Q-Chem 5.2.0 for Intel X86 EM64T Linux

 Parts of Q-Chem use Armadillo 8.300.2 (Tropical Shenanigans).
 http://arma.sourceforge.net/

 Q-Chem begins on Sun Sep 26 07:02:10 2021  

Host: cori01
0

     Scratch files written to /tmp/qchem15129//
 May1019 |scratch|qcdevops|jenkins|workspace|build_RNUM -1
Processing $rem in /global/common/cori/software/qchem/5.2/config/preferences:
	 MEM_TOTAL  96000 
NAlpha2: 82
NElect   82
Mult     1
Symmetry turned off for PCM/SM12/SMD calculation

 Q-Chem warning in module libgen/rem_setup.C, line 2803:

 Neither GIA nor STOLL is specified by user. Use STOLL as the default


Checking the input file for inconsistencies... 	...done.

--------------------------------------------------------------
User input:
--------------------------------------------------------------
$comment
SSI-042GLU-103PHE-1.pdb
$end

$molecule
-1 1
--
-1 1
C   -3.984469171928   -1.409045405196    0.969534816165
C   -2.797469171928   -0.587045405196    1.415534816165
O   -1.736469171928   -1.154045405196    1.737534816165
O   -2.964469171928    0.663954594804    1.431534816165
H   -4.366469171928   -1.009045405196    0.027534816165
H   -4.766469171928   -1.320045405196    1.719534816165
H   -3.743520171928   -2.472393405196    0.823814816165
--
0 1
C    3.900530828072    1.668954594804   -0.795465183835
C    0.340530828072    0.586954594804   -0.184465183835
C    1.522530828072    1.303954594804   -0.104465183835
C    0.287530828072   -0.547045405196   -0.980465183835
C    2.634530828072    0.866954594804   -0.834465183835
C    1.379530828072   -0.994045405196   -1.702465183835
C    2.567530828072   -0.271045405196   -1.622465183835
H   -0.530469171928    0.907954594804    0.367534816165
H    1.575530828072    2.195954594804    0.503534816165
H   -0.639469171928   -1.101045405196   -1.034465183835
H    1.310530828072   -1.877045405196   -2.321465183835
H    3.636530828072    2.725954594804   -0.834465183835
H    4.462530828072    1.450954594804   -1.705465183835
H    3.429530828072   -0.596045405196   -2.187465183835
H    4.574840828072    1.507437594804    0.058474816165
$end

$rem
JOBTYPE			EDA
EDA2			1
method			wB97X-V
BASIS			def2-TZVPD
XC_GRID			000099000590
NL_GRID			1
UNRESTRICTED		FALSE
MAX_SCF_CYCLES		200
SYMMETRY		FALSE
SYM_IGNORE		TRUE
MEM_STATIC		2000
BASIS_LIN_DEP_THRESH 	6
THRESH 			14
SCF_CONVERGENCE 	8
SCF_PRINT_FRGM 		TRUE
SOLVENT_METHOD          PCM
$end

$PCM
THEORY                  CPCM
METHOD                  SWIG
SOLVER                  INVERSION
RADII                   UFF
HPOINTS                 302
HEAVYPOINTS             302
PRINTLEVEL              0
$END

$SOLVENT
DIELECTRIC              78.390000 ! water
$END
--------------------------------------------------------------
 ----------------------------------------------------------------
             Standard Nuclear Orientation (Angstroms)
    I     Atom           X                Y                Z
 ----------------------------------------------------------------
    1      C      -3.9844691719    -1.4090454052     0.9695348162
    2      C      -2.7974691719    -0.5870454052     1.4155348162
    3      O      -1.7364691719    -1.1540454052     1.7375348162
    4      O      -2.9644691719     0.6639545948     1.4315348162
    5      H      -4.3664691719    -1.0090454052     0.0275348162
    6      H      -4.7664691719    -1.3200454052     1.7195348162
    7      H      -3.7435201719    -2.4723934052     0.8238148162
    8      C       3.9005308281     1.6689545948    -0.7954651838
    9      C       0.3405308281     0.5869545948    -0.1844651838
   10      C       1.5225308281     1.3039545948    -0.1044651838
   11      C       0.2875308281    -0.5470454052    -0.9804651838
   12      C       2.6345308281     0.8669545948    -0.8344651838
   13      C       1.3795308281    -0.9940454052    -1.7024651838
   14      C       2.5675308281    -0.2710454052    -1.6224651838
   15      H      -0.5304691719     0.9079545948     0.3675348162
   16      H       1.5755308281     2.1959545948     0.5035348162
   17      H      -0.6394691719    -1.1010454052    -1.0344651838
   18      H       1.3105308281    -1.8770454052    -2.3214651838
   19      H       3.6365308281     2.7259545948    -0.8344651838
   20      H       4.4625308281     1.4509545948    -1.7054651838
   21      H       3.4295308281    -0.5960454052    -2.1874651838
   22      H       4.5748408281     1.5074375948     0.0584748162
 ----------------------------------------------------------------
 Nuclear Repulsion Energy =         539.37736247 hartrees
 There are       41 alpha and       41 beta electrons
 Requested basis set is def2-TZVPD
 There are 200 shells and 512 basis functions

 Total QAlloc Memory Limit  96000 MB
 Mega-Array Size      1956 MB
 MEM_STATIC part      2000 MB
 Discretize the solute cavity surface with Lebedev spheres
	Using 302 Lebedev grid points for each H atom
	Using 302 Lebedev grid points for other atoms
	Atomic van der Waals radii will be scaled by 1.20
 Remove points where switching function is < 1.0e-08
 Keep 2594 surface tesserae and discard 4050 interior tesserae
 Molecular Surface Area = 267.877 Angst**2
 A cutoff of  1.0D-14 yielded  17287 shell pairs
 There are    113843 function pairs (    144122 Cartesian)
 Smallest overlap matrix eigenvalue = 4.76E-07
 Linear dependence detected in AO basis
 Tighter screening thresholds may be required for diffuse basis sets
 Use S2THRESH > 14 and THRESH = 14 in case of SCF convergence issues
 Number of orthogonalized atomic orbitals = 510
 Maximum deviation from orthogonality = 8.879E-11

 Scale SEOQF with 1.000000e-01/1.000000e-01/1.000000e-01

 Standard Electronic Orientation quadrupole field applied
 Nucleus-field energy     =     0.0000000140 hartrees

 -----------------------------------------------------------------------
  General SCF calculation program by
  Eric Jon Sundstrom, Paul Horn, Yuezhi Mao, Dmitri Zuev, Alec White,
  David Stuck, Shaama M.S., Shane Yost, Joonho Lee, David Small,
  Daniel Levine, Susi Lehtola, Hugh Burton, Evgeny Epifanovsky
 -----------------------------------------------------------------------
================================================================
                 ALMO-EDA with the EDA2 driver                  
================================================================
 The second-generation ALMO-EDA (for DFT):                      
 P. R. Horn, Y. Mao and M. Head-Gordon, PCCP, 18, 23067 (2016)  
 Decomposition of the frozen energy:                            
 P. R. Horn, Y. Mao and M. Head-Gordon, JCP, 144, 114107 (2016) 
 FERF model for polarization:                                   
 P. R. Horn and M. Head-Gordon, JCP, 143, 114111 (2015)         
Using eda2 option set 1
Option set summary: Frozen orbital wavefunction, initial wavefunction decomposition, and nDQ polarization.
--------------------------------
Printing EDA Options
--------------------------------
eda_child_super_basis      0
fragmo_guess_mode          0
child_mp                   1
child_mp_orders            232
cls_elec                   1
cls_disp                   0
scfmi_mode                 1
scfmi_occs                 0
scfmi_virts                0
frz_relax                  0
frz_relax_method           0
dc_pen_start               0
dc_pen_conv                0
dc_pen_increment           0
dc_pen_steps               0
dc_pen_thresh_factor       0
dc_pen_pre_newton_thresh   0
frz_ortho_decomp           1
frz_ortho_decomp_conv      6
frgm_method                2
scfmi_freeze_ss            0
separate_rehyb             0
plot_diff_den              0
eda_nocv                   0
eda_vct_relax              1
disp_free_x                0
disp_free_c                0
eda_bsse                   0
eda_pct_a                  0
eda_covp                   0
--------------------------------
Attempting to make child job directory: /tmp/qchem15129//Frg1/
Attempting to make child job directory: /tmp/qchem15129//Frg2/
Creating input file /tmp/qchem15129/Frg1.input
using default PutDataFrgm: nothing
calling putenv with: QCSCRATCH=/tmp/qchem15129/ 
calling putenv with: QCLOCALSCR=/tmp/qchem15129/ 
Spawning Job For Fragment 0
                  Welcome to Q-Chem
     A Quantum Leap Into The Future Of Chemistry


 Q-Chem 5.2, Q-Chem, Inc., Pleasanton, CA (2019)

 License issued to: National Energy Research Scientific Computing Center

 Yihan Shao,  Zhengting Gan,  E. Epifanovsky,  A. T. B. Gilbert,  M. Wormit,  
 J. Kussmann,  A. W. Lange,  A. Behn,  Jia Deng,  Xintian Feng,  D. Ghosh,  
 M. Goldey,  P. R. Horn,  L. D. Jacobson,  I. Kaliman,  T. Kus,  A. Landau,  
 Jie Liu,  E. I. Proynov,  R. M. Richard,  R. P. Steele,  E. J. Sundstrom,  
 H. L. Woodcock III,  P. M. Zimmerman,  D. Zuev,  B. Albrecht,  E. Alguire,  
 S. A. Baeppler,  D. Barton,  Z. Benda,  Y. A. Bernard,  E. J. Berquist,  
 K. B. Bravaya,  H. Burton,  D. Casanova,  Chun-Min Chang,  Yunqing Chen,  
 A. Chien,  K. D. Closser,  M. P. Coons,  S. Coriani,  S. Dasgupta,  
 A. L. Dempwolff,  M. Diedenhofen,  Hainam Do,  R. G. Edgar,  Po-Tung Fang,  
 S. Faraji,  S. Fatehi,  Qingguo Feng,  K. D. Fenk,  J. Fosso-Tande,  
 J. Gayvert,  Qinghui Ge,  A. Ghysels,  G. Gidofalvi,  J. Gomes,  
 J. Gonthier,  A. Gunina,  D. Hait,  M. W. D. Hanson-Heine,  
 P. H. P. Harbach,  A. W. Hauser,  M. F. Herbst,  J. E. Herr,  
 E. G. Hohenstein,  Z. C. Holden,  Kerwin Hui,  B. C. Huynh,  T.-C. Jagau,  
 Hyunjun Ji,  B. Kaduk,  K. Khistyaev,  Jaehoon Kim,  P. Klunzinger,  K. Koh,  
 D. Kosenkov,  L. Koulias,  T. Kowalczyk,  C. M. Krauter,  A. Kunitsa,  
 Ka Un Lao,  A. Laurent,  K. V. Lawler,  Joonho Lee,  D. Lefrancois,  
 S. Lehtola,  D. S. Levine,  Yi-Pei Li,  You-Sheng Lin,  Fenglai Liu,  
 E. Livshits,  A. Luenser,  P. Manohar,  E. Mansoor,  S. F. Manzer,  
 Shan-Ping Mao,  Yuezhi Mao,  N. Mardirossian,  A. V. Marenich,  
 T. Markovich,  L. A. Martinez-Martinez,  S. A. Maurer,  N. J. Mayhall,  
 S. C. McKenzie,  J.-M. Mewes,  P. Morgante,  A. F. Morrison,  
 J. W. Mullinax,  K. Nanda,  T. S. Nguyen-Beck,  R. Olivares-Amaya,  
 J. A. Parkhill,  Zheng Pei,  T. M. Perrine,  F. Plasser,  P. Pokhilko,  
 S. Prager,  A. Prociuk,  E. Ramos,  D. R. Rehn,  F. Rob,  M. Scheurer,  
 M. Schneider,  N. Sergueev,  S. M. Sharada,  S. Sharma,  D. W. Small,  
 T. Stauch,  T. Stein,  Yu-Chuan Su,  A. J. W. Thom,  A. Tkatchenko,  
 T. Tsuchimochi,  N. M. Tubman,  L. Vogt,  M. L. Vidal,  O. Vydrov,  
 M. A. Watson,  J. Wenzel,  M. de Wergifosse,  T. A. Wesolowski,  A. White,  
 J. Witte,  A. Yamada,  Jun Yang,  K. Yao,  S. Yeganeh,  S. R. Yost,  
 Zhi-Qiang You,  A. Zech,  Igor Ying Zhang,  Xing Zhang,  Yan Zhao,  
 Ying Zhu,  B. R. Brooks,  G. K. L. Chan,  C. J. Cramer,  M. S. Gordon,  
 W. J. Hehre,  A. Klamt,  M. W. Schmidt,  C. D. Sherrill,  D. G. Truhlar,  
 A. Aspuru-Guzik,  R. Baer,  A. T. Bell,  N. A. Besley,  Jeng-Da Chai,  
 A. E. DePrince, III,  R. A. DiStasio Jr.,  A. Dreuw,  B. D. Dunietz,  
 T. R. Furlani,  Chao-Ping Hsu,  Yousung Jung,  Jing Kong,  D. S. Lambrecht,  
 WanZhen Liang,  C. Ochsenfeld,  V. A. Rassolov,  L. V. Slipchenko,  
 J. E. Subotnik,  T. Van Voorhis,  J. M. Herbert,  A. I. Krylov,  
 P. M. W. Gill,  M. Head-Gordon

 Contributors to earlier versions of Q-Chem not listed above: 
 R. D. Adamson,  B. Austin,  J. Baker,  G. J. O. Beran,  K. Brandhorst,  
 S. T. Brown,  E. F. C. Byrd,  A. K. Chakraborty,  C.-L. Cheng,  
 Siu Hung Chien,  D. M. Chipman,  D. L. Crittenden,  H. Dachsel,  
 R. J. Doerksen,  A. D. Dutoi,  L. Fusti-Molnar,  W. A. Goddard III,  
 A. Golubeva-Zadorozhnaya,  S. R. Gwaltney,  G. Hawkins,  A. Heyden,  
 S. Hirata,  G. Kedziora,  F. J. Keil,  C. Kelley,  Jihan Kim,  R. A. King,  
 R. Z. Khaliullin,  P. P. Korambath,  W. Kurlancheek,  A. M. Lee,  M. S. Lee,  
 S. V. Levchenko,  Ching Yeh Lin,  D. Liotard,  R. C. Lochan,  I. Lotan,  
 P. E. Maslen,  N. Nair,  D. P. O'Neill,  D. Neuhauser,  E. Neuscamman,  
 C. M. Oana,  R. Olson,  B. Peters,  R. Peverati,  P. A. Pieniazek,  
 Y. M. Rhee,  J. Ritchie,  M. A. Rohrdanz,  E. Rosta,  N. J. Russ,  
 H. F. Schaefer III,  N. E. Schultz,  N. Shenvi,  A. C. Simmonett,  A. Sodt,  
 D. Stuck,  K. S. Thanthiriwatte,  V. Vanovschi,  Tao Wang,  A. Warshel,  
 C. F. Williams,  Q. Wu,  X. Xu,  W. Zhang

 Please cite Q-Chem as follows:
 Y. Shao et al., Mol. Phys. 113, 184-215 (2015)
 DOI: 10.1080/00268976.2014.952696

 Q-Chem 5.2.0 for Intel X86 EM64T Linux

 Parts of Q-Chem use Armadillo 8.300.2 (Tropical Shenanigans).
 http://arma.sourceforge.net/

 Q-Chem begins on Sun Sep 26 07:02:14 2021  

Host: cori01
0

     Scratch files written to /tmp/qchem15129//Frg1//
 May1019 |scratch|qcdevops|jenkins|workspace|build_RNUM -1
Processing $rem in /global/common/cori/software/qchem/5.2/config/preferences:
	 MEM_TOTAL  96000 
NAlpha2: 32
NElect   32
Mult     1
Symmetry turned off for PCM/SM12/SMD calculation

Checking the input file for inconsistencies... 	...done.

--------------------------------------------------------------
User input:
--------------------------------------------------------------
$molecule
-1 1
 6	-3.9844691719	-1.4090454052	0.9695348162
 6	-2.7974691719	-0.5870454052	1.4155348162
 8	-1.7364691719	-1.1540454052	1.7375348162
 8	-2.9644691719	0.6639545948	1.4315348162
 1	-4.3664691719	-1.0090454052	0.0275348162
 1	-4.7664691719	-1.3200454052	1.7195348162
 1	-3.7435201719	-2.4723934052	0.8238148162
$end
$rem
EDA2		1
METHOD		WB97X-V
BASIS		DEF2-TZVPD
XC_GRID		000099000590
NL_GRID		1
UNRESTRICTED		FALSE
MAX_SCF_CYCLES		200
SYMMETRY		FALSE
SYM_IGNORE		TRUE
BASIS_LIN_DEP_THRESH		6
THRESH		14
SCF_CONVERGENCE		8
SCF_PRINT_FRGM		TRUE
SOLVENT_METHOD		PCM
!required keywords
JOBTYPE		SP
SYM_IGNORE		TRUE
SUBSYSTEM		TRUE
GEN_SCFMAN		TRUE
CHILD_INSTRUCTION		2
SYM_IGNORE		TRUE
SCFMI		0
RI_K 0		
PARI_K 0		
MIN_PARI_K 0		
IARI_K 0		
OCC_RI_K 0		
PURECART		1111
MEM_STATIC		2000
MEM_TOTAL		96000
GUI		0
CHILD_MP		1
CHILD_MP_ORDERS		232
FRZ_RELAX		0
FRZ_RELAX_METHOD		0
EDA_CLS_ELEC		1
EDA_CLS_DISP		0
FRZ_ORTHO_DECOMP		1
EDA2		FALSE
FRGM_METHOD		FALSE
CIS_N_ROOTS  0
LOCAL_CIS    0
CIS_RLX_DNS  1
$end
$pcm
THEORY                  CPCM
METHOD                  SWIG
SOLVER                  INVERSION
RADII                   UFF
HPOINTS                 302
HEAVYPOINTS             302
PRINTLEVEL              0
$end
$solvent
DIELECTRIC              78.390000 ! water
$end
--------------------------------------------------------------
 ----------------------------------------------------------------
             Standard Nuclear Orientation (Angstroms)
    I     Atom           X                Y                Z
 ----------------------------------------------------------------
    1      C      -3.9844691719    -1.4090454052     0.9695348162
    2      C      -2.7974691719    -0.5870454052     1.4155348162
    3      O      -1.7364691719    -1.1540454052     1.7375348162
    4      O      -2.9644691719     0.6639545948     1.4315348162
    5      H      -4.3664691719    -1.0090454052     0.0275348162
    6      H      -4.7664691719    -1.3200454052     1.7195348162
    7      H      -3.7435201719    -2.4723934052     0.8238148162
 ----------------------------------------------------------------
 Nuclear Repulsion Energy =         112.74622471 hartrees
 There are       16 alpha and       16 beta electrons
 Requested basis set is def2-TZVPD
 There are 69 shells and 181 basis functions

 Total QAlloc Memory Limit  96000 MB
 Mega-Array Size      1956 MB
 MEM_STATIC part      2000 MB
 Discretize the solute cavity surface with Lebedev spheres
	Using 302 Lebedev grid points for each H atom
	Using 302 Lebedev grid points for other atoms
	Atomic van der Waals radii will be scaled by 1.20
 Remove points where switching function is < 1.0e-08
 Keep 1017 surface tesserae and discard 1097 interior tesserae
 Molecular Surface Area = 119.750 Angst**2

                       Distance Matrix (Angstroms)
             C (  1)   C (  2)   O (  3)   O (  4)   H (  5)   H (  6)
   C (  2)  1.511148
   O (  3)  2.389216  1.245349
   O (  4)  2.356093  1.262199  2.215117
   H (  5)  1.092377  2.136911  3.140386  2.595332
   H (  6)  1.087173  2.122891  3.034597  2.695627  1.766235
   H (  7)  1.100000  2.190818  2.569276  3.288301  1.778627  1.782314

 
 A cutoff of  1.0D-14 yielded   2391 shell pairs
 There are     16695 function pairs (     21491 Cartesian)
 Smallest overlap matrix eigenvalue = 1.61E-05

 Scale SEOQF with 1.000000e-01/1.000000e-01/1.000000e-01

 Standard Electronic Orientation quadrupole field applied
 Nucleus-field energy     =     0.0000000065 hartrees
 Guess from superposition of atomic densities
 Warning:  Energy on first SCF cycle will be non-variational
 SAD guess density has 30.625312 electrons

 -----------------------------------------------------------------------
  General SCF calculation program by
  Eric Jon Sundstrom, Paul Horn, Yuezhi Mao, Dmitri Zuev, Alec White,
  David Stuck, Shaama M.S., Shane Yost, Joonho Lee, David Small,
  Daniel Levine, Susi Lehtola, Hugh Burton, Evgeny Epifanovsky
 -----------------------------------------------------------------------
 Exchange:     0.1670 Hartree-Fock + 1.0000 wB97X-V + LR-HF
 Correlation:  1.0000 wB97X-V
 Using Euler-Maclaurin-Lebedev (99,590) quadrature formula
 Nonlocal Correlation:  VV10 with C = 0.0100 and b = 6.00 and scale = 1.00000
 Grid used for NLC:  SG-1 standard quadrature
Energy prior to optimization (guess energy) = -227.764701204228
Begin Timing: Total SCF Calculation
begin iterations for algorithm: DIIS         
the SCF tolerance is set to 1.00e-08
    1    -227.7647012042      1.66e-02     00000 
    2    -225.6080572368      2.53e-02     00000 
    3    -228.5772296795      4.16e-03     00000 
    4    -228.6360659504      1.46e-03     00000 
    5    -228.6424554499      3.99e-04     00000 
    6    -228.6428535115      2.58e-04     00000 
    7    -228.6430448392      4.37e-05     00000 
    8    -228.6430546928      1.38e-05     00000 
    9    -228.6430559922      2.86e-06     00000 
   10    -228.6430560956      6.87e-07     00000 
   11    -228.6430560996      2.60e-07     00000 
   12    -228.6430561003      5.99e-08     00000 
   13    -228.6430561004      1.68e-08     00000 
   14    -228.6430561004      2.71e-09     00000 Convergence criterion met
Timing for Total SCF: 294.00s (wall), 575.05s (cpu)

************** Final PCM Free Energy Summary **************
 G_electrostatic  =      -0.10158130 hartree =     -63.74322479 kcal/mol
 G_cavitation     =       0.00000000 hartree =       0.00000000 kcal/mol
 G_dispersion     =       0.00000000 hartree =       0.00000000 kcal/mol
 G_repulsion      =       0.00000000 hartree =       0.00000000 kcal/mol
 --------------------------------------------------
 Non-electrostatic Free Energy =       0.00000000 hartree =       0.00000000 kcal/mol
 Total                         =      -0.10158130 hartree =     -63.74322479 kcal/mol
 --------------------------------------------------
 SCF Energy (H0 + V/2)                       =    -228.64305610 
 Solute Internal Energy (H0)                 =    -228.54147481 
 Total Free Energy (H0 + V/2 + non-elec)     =    -228.64305610 hartree
                                             = -143475.68318136 kcal/mol
***********************************************************

E_pcm = -0.1015812952
Multipole orders to be included
        2
        3
computing dipole RHS
computing quadrupole RHS
total number of RHS in solve_reponses: 8
RHS batch sizes
        8
Beginning Block Conjugate Gradient Iterations. Batch Number: 0
computing hessian-vector products by finite difference
              1      6.81e-01     00000 Conjugate Gradient Iteration
computing hessian-vector products by finite difference
              2      2.49e-01     00000 Conjugate Gradient Iteration
computing hessian-vector products by finite difference
              3      6.55e-02     00000 Conjugate Gradient Iteration
computing hessian-vector products by finite difference
              4      1.72e-02     00000 Conjugate Gradient Iteration
computing hessian-vector products by finite difference
              5      3.07e-03     00000 Conjugate Gradient Iteration
computing hessian-vector products by finite difference
              6      7.35e-04     00000 Conjugate Gradient Iteration
computing hessian-vector products by finite difference
              7      1.23e-04     00000 Conjugate Gradient Iteration
computing hessian-vector products by finite difference
              8      1.52e-05     00000 Conjugate Gradient Iteration
computing hessian-vector products by finite difference
              9      2.34e-06     00000 Conjugate Gradient Iteration
computing hessian-vector products by finite difference
             10      2.64e-07     00000 Conjugate Gradient Iteration
computing hessian-vector products by finite difference
             11      6.14e-08     00000 Conjugate Gradient Iteration
computing hessian-vector products by finite difference
             12      1.02e-08     00000 Conjugate Gradient Iteration
computing hessian-vector products by finite difference
             13      1.30e-09     00000 CG Converged
batch 0 complete
Done Calculating Responses
TESTING ORTHOGONALIZATION OF MULTIPOLE BASIS
Multipole virts passed orthogonality test
Virts Per Order
        48
        80
 
 --------------------------------------------------------------
 
                    Orbital Energies (a.u.)
 --------------------------------------------------------------
 
 Alpha MOs
 -- Occupied --
-19.1251 -19.1198 -10.3250 -10.2379  -1.1310  -1.0321  -0.8295  -0.5930
 -0.5307  -0.5176  -0.5156  -0.4621  -0.4419  -0.3296  -0.3251  -0.3101
 -- Virtual --
  0.0632   0.0953   0.0961   0.1052   0.1306   0.1403   0.1428   0.1448
  0.1695   0.1915   0.1987   0.2249   0.2306   0.2365   0.2640   0.2675
  0.2988   0.3137   0.3348   0.3468   0.3531   0.3618   0.3738   0.3842
  0.3933   0.4046   0.4247   0.4271   0.4336   0.4640   0.4752   0.4775
  0.4907   0.4974   0.5049   0.5222   0.5613   0.5732   0.6002   0.6168
  0.6220   0.6416   0.6448   0.6628   0.6754   0.6842   0.6948   0.7125
  0.7238   0.7402   0.7770   0.8008   0.8126   0.8173   0.8436   0.8627
  0.8702   0.9779   0.9867   0.9988   1.0045   1.0522   1.0606   1.1297
  1.1760   1.2105   1.2658   1.2837   1.3007   1.3174   1.3536   1.3585
  1.4558   1.5775   1.6121   1.7378   1.8262   1.8639   1.8743   1.9195
  1.9303   1.9601   1.9677   1.9763   2.0248   2.1221   2.1328   2.1761
  2.2237   2.2278   2.3343   2.3499   2.4142   2.4421   2.4952   2.5021
  2.5827   2.5974   2.6152   2.6646   2.8013   2.8190   2.8822   2.9276
  2.9496   3.0059   3.0370   3.1918   3.2140   3.2567   3.2870   3.3160
  3.3398   3.3610   3.4073   3.4233   3.4317   3.5472   3.5695   3.5876
  3.6166   3.6638   3.7014   3.7377   3.7826   3.8908   3.9574   4.0585
  4.0955   4.2059   4.3872   4.5622   4.6288   4.6719   4.8189   4.8416
  4.9887   5.3334   5.3618   5.3711   5.3782   5.5115   5.7219   5.7547
  5.8143   6.0180   6.2498   6.3369   6.3489   6.6300   6.6313   6.7093
  6.7455   6.7578   6.9573   6.9751   7.0460   7.2439   7.3760   7.3818
  7.4179  22.6095  23.7395  44.2226  44.3496
 --------------------------------------------------------------
 
          Ground-State Mulliken Net Atomic Charges

     Atom                 Charge (a.u.)
  ----------------------------------------
      1 C                    -0.387242
      2 C                     0.286970
      3 O                    -0.664533
      4 O                    -0.689510
      5 H                     0.153066
      6 H                     0.136086
      7 H                     0.165163
  ----------------------------------------
  Sum of atomic charges =    -1.000000

 -----------------------------------------------------------------
                    Cartesian Multipole Moments
 -----------------------------------------------------------------
    Charge (ESU x 10^10)
                -4.8032
    Dipole Moment (Debye)
         X      10.0886      Y       0.1530      Z      -8.0645
       Tot      12.9166
    Quadrupole Moments (Debye-Ang)
        XX     -49.9903     XY       4.5287     YY     -32.8515
        XZ      16.0765     YZ       1.4455     ZZ     -39.2301
    Octopole Moments (Debye-Ang^2)
       XXX     294.5872    XXY      -4.1082    XYY      90.9466
       YYY      57.2191    XXZ     -70.4231    XYZ       4.8564
       YYZ     -46.8341    XZZ     100.7613    YZZ      21.4000
       ZZZ    -128.2160
    Hexadecapole Moments (Debye-Ang^3)
      XXXX   -1704.0350   XXXY     -86.9493   XXYY    -323.6825
      XYYY    -169.6843   YYYY    -226.8409   XXXZ     374.7990
      XXYZ      -9.6850   XYYZ     119.9980   YYYZ      75.2417
      XXZZ    -352.1518   XYZZ     -49.0987   YYZZ    -113.4360
      XZZZ     329.4263   YZZZ      73.7875   ZZZZ    -375.9174
 -----------------------------------------------------------------
Archival summary:
1\1\nid00534\SP\ProcedureUnspecified\BasisUnspecified\223(1-,1)\meili\SunSep2608:28:072021SunSep2608:28:072021\0\\#,ProcedureUnspecified,BasisUnspecified,\\-1,1\C\O,1,1.24535\O,1,1.2622,2,124.104\C,1,1.51115,2,119.859,3,179.91,0\H,4,1.08717,1,108.474,2,112.438,0\H,4,1.09238,1,109.27,2,-129.734,0\H,4,1.1,1,113.133,2,-8.81905,0\\\@

 Total job time:  5153.40s(wall), 9790.82s(cpu) 
 Sun Sep 26 08:28:07 2021

        *************************************************************
        *                                                           *
        *  Thank you very much for using Q-Chem.  Have a nice day.  *
        *                                                           *
        *************************************************************


Done Job For Fragment 0
calling putenv with: QCSCRATCH=/global/cscratch1/sd/meili 
calling putenv with: QCLOCALSCR=/tmp 
calling putenv with: QCTHREADS=32 
Creating input file /tmp/qchem15129/Frg2.input
using default PutDataFrgm: nothing
calling putenv with: QCSCRATCH=/tmp/qchem15129/ 
calling putenv with: QCLOCALSCR=/tmp/qchem15129/ 
Spawning Job For Fragment 1
                  Welcome to Q-Chem
     A Quantum Leap Into The Future Of Chemistry


 Q-Chem 5.2, Q-Chem, Inc., Pleasanton, CA (2019)

 License issued to: National Energy Research Scientific Computing Center

 Yihan Shao,  Zhengting Gan,  E. Epifanovsky,  A. T. B. Gilbert,  M. Wormit,  
 J. Kussmann,  A. W. Lange,  A. Behn,  Jia Deng,  Xintian Feng,  D. Ghosh,  
 M. Goldey,  P. R. Horn,  L. D. Jacobson,  I. Kaliman,  T. Kus,  A. Landau,  
 Jie Liu,  E. I. Proynov,  R. M. Richard,  R. P. Steele,  E. J. Sundstrom,  
 H. L. Woodcock III,  P. M. Zimmerman,  D. Zuev,  B. Albrecht,  E. Alguire,  
 S. A. Baeppler,  D. Barton,  Z. Benda,  Y. A. Bernard,  E. J. Berquist,  
 K. B. Bravaya,  H. Burton,  D. Casanova,  Chun-Min Chang,  Yunqing Chen,  
 A. Chien,  K. D. Closser,  M. P. Coons,  S. Coriani,  S. Dasgupta,  
 A. L. Dempwolff,  M. Diedenhofen,  Hainam Do,  R. G. Edgar,  Po-Tung Fang,  
 S. Faraji,  S. Fatehi,  Qingguo Feng,  K. D. Fenk,  J. Fosso-Tande,  
 J. Gayvert,  Qinghui Ge,  A. Ghysels,  G. Gidofalvi,  J. Gomes,  
 J. Gonthier,  A. Gunina,  D. Hait,  M. W. D. Hanson-Heine,  
 P. H. P. Harbach,  A. W. Hauser,  M. F. Herbst,  J. E. Herr,  
 E. G. Hohenstein,  Z. C. Holden,  Kerwin Hui,  B. C. Huynh,  T.-C. Jagau,  
 Hyunjun Ji,  B. Kaduk,  K. Khistyaev,  Jaehoon Kim,  P. Klunzinger,  K. Koh,  
 D. Kosenkov,  L. Koulias,  T. Kowalczyk,  C. M. Krauter,  A. Kunitsa,  
 Ka Un Lao,  A. Laurent,  K. V. Lawler,  Joonho Lee,  D. Lefrancois,  
 S. Lehtola,  D. S. Levine,  Yi-Pei Li,  You-Sheng Lin,  Fenglai Liu,  
 E. Livshits,  A. Luenser,  P. Manohar,  E. Mansoor,  S. F. Manzer,  
 Shan-Ping Mao,  Yuezhi Mao,  N. Mardirossian,  A. V. Marenich,  
 T. Markovich,  L. A. Martinez-Martinez,  S. A. Maurer,  N. J. Mayhall,  
 S. C. McKenzie,  J.-M. Mewes,  P. Morgante,  A. F. Morrison,  
 J. W. Mullinax,  K. Nanda,  T. S. Nguyen-Beck,  R. Olivares-Amaya,  
 J. A. Parkhill,  Zheng Pei,  T. M. Perrine,  F. Plasser,  P. Pokhilko,  
 S. Prager,  A. Prociuk,  E. Ramos,  D. R. Rehn,  F. Rob,  M. Scheurer,  
 M. Schneider,  N. Sergueev,  S. M. Sharada,  S. Sharma,  D. W. Small,  
 T. Stauch,  T. Stein,  Yu-Chuan Su,  A. J. W. Thom,  A. Tkatchenko,  
 T. Tsuchimochi,  N. M. Tubman,  L. Vogt,  M. L. Vidal,  O. Vydrov,  
 M. A. Watson,  J. Wenzel,  M. de Wergifosse,  T. A. Wesolowski,  A. White,  
 J. Witte,  A. Yamada,  Jun Yang,  K. Yao,  S. Yeganeh,  S. R. Yost,  
 Zhi-Qiang You,  A. Zech,  Igor Ying Zhang,  Xing Zhang,  Yan Zhao,  
 Ying Zhu,  B. R. Brooks,  G. K. L. Chan,  C. J. Cramer,  M. S. Gordon,  
 W. J. Hehre,  A. Klamt,  M. W. Schmidt,  C. D. Sherrill,  D. G. Truhlar,  
 A. Aspuru-Guzik,  R. Baer,  A. T. Bell,  N. A. Besley,  Jeng-Da Chai,  
 A. E. DePrince, III,  R. A. DiStasio Jr.,  A. Dreuw,  B. D. Dunietz,  
 T. R. Furlani,  Chao-Ping Hsu,  Yousung Jung,  Jing Kong,  D. S. Lambrecht,  
 WanZhen Liang,  C. Ochsenfeld,  V. A. Rassolov,  L. V. Slipchenko,  
 J. E. Subotnik,  T. Van Voorhis,  J. M. Herbert,  A. I. Krylov,  
 P. M. W. Gill,  M. Head-Gordon

 Contributors to earlier versions of Q-Chem not listed above: 
 R. D. Adamson,  B. Austin,  J. Baker,  G. J. O. Beran,  K. Brandhorst,  
 S. T. Brown,  E. F. C. Byrd,  A. K. Chakraborty,  C.-L. Cheng,  
 Siu Hung Chien,  D. M. Chipman,  D. L. Crittenden,  H. Dachsel,  
 R. J. Doerksen,  A. D. Dutoi,  L. Fusti-Molnar,  W. A. Goddard III,  
 A. Golubeva-Zadorozhnaya,  S. R. Gwaltney,  G. Hawkins,  A. Heyden,  
 S. Hirata,  G. Kedziora,  F. J. Keil,  C. Kelley,  Jihan Kim,  R. A. King,  
 R. Z. Khaliullin,  P. P. Korambath,  W. Kurlancheek,  A. M. Lee,  M. S. Lee,  
 S. V. Levchenko,  Ching Yeh Lin,  D. Liotard,  R. C. Lochan,  I. Lotan,  
 P. E. Maslen,  N. Nair,  D. P. O'Neill,  D. Neuhauser,  E. Neuscamman,  
 C. M. Oana,  R. Olson,  B. Peters,  R. Peverati,  P. A. Pieniazek,  
 Y. M. Rhee,  J. Ritchie,  M. A. Rohrdanz,  E. Rosta,  N. J. Russ,  
 H. F. Schaefer III,  N. E. Schultz,  N. Shenvi,  A. C. Simmonett,  A. Sodt,  
 D. Stuck,  K. S. Thanthiriwatte,  V. Vanovschi,  Tao Wang,  A. Warshel,  
 C. F. Williams,  Q. Wu,  X. Xu,  W. Zhang

 Please cite Q-Chem as follows:
 Y. Shao et al., Mol. Phys. 113, 184-215 (2015)
 DOI: 10.1080/00268976.2014.952696

 Q-Chem 5.2.0 for Intel X86 EM64T Linux

 Parts of Q-Chem use Armadillo 8.300.2 (Tropical Shenanigans).
 http://arma.sourceforge.net/

 Q-Chem begins on Sun Sep 26 08:28:09 2021  

Host: cori01
0

     Scratch files written to /tmp/qchem15129//Frg2//
 May1019 |scratch|qcdevops|jenkins|workspace|build_RNUM -1
Processing $rem in /global/common/cori/software/qchem/5.2/config/preferences:
	 MEM_TOTAL  96000 
NAlpha2: 50
NElect   50
Mult     1
Symmetry turned off for PCM/SM12/SMD calculation

Checking the input file for inconsistencies... 	...done.

--------------------------------------------------------------
User input:
--------------------------------------------------------------
$molecule
0 1
 6	3.9005308281	1.6689545948	-0.7954651838
 6	0.3405308281	0.5869545948	-0.1844651838
 6	1.5225308281	1.3039545948	-0.1044651838
 6	0.2875308281	-0.5470454052	-0.9804651838
 6	2.6345308281	0.8669545948	-0.8344651838
 6	1.3795308281	-0.9940454052	-1.7024651838
 6	2.5675308281	-0.2710454052	-1.6224651838
 1	-0.5304691719	0.9079545948	0.3675348162
 1	1.5755308281	2.1959545948	0.5035348162
 1	-0.6394691719	-1.1010454052	-1.0344651838
 1	1.3105308281	-1.8770454052	-2.3214651838
 1	3.6365308281	2.7259545948	-0.8344651838
 1	4.4625308281	1.4509545948	-1.7054651838
 1	3.4295308281	-0.5960454052	-2.1874651838
 1	4.5748408281	1.5074375948	0.0584748162
$end
$rem
EDA2		1
METHOD		WB97X-V
BASIS		DEF2-TZVPD
XC_GRID		000099000590
NL_GRID		1
UNRESTRICTED		FALSE
MAX_SCF_CYCLES		200
SYMMETRY		FALSE
SYM_IGNORE		TRUE
BASIS_LIN_DEP_THRESH		6
THRESH		14
SCF_CONVERGENCE		8
SCF_PRINT_FRGM		TRUE
SOLVENT_METHOD		PCM
!required keywords
JOBTYPE		SP
SYM_IGNORE		TRUE
SUBSYSTEM		TRUE
GEN_SCFMAN		TRUE
CHILD_INSTRUCTION		2
SYM_IGNORE		TRUE
SCFMI		0
RI_K 0		
PARI_K 0		
MIN_PARI_K 0		
IARI_K 0		
OCC_RI_K 0		
PURECART		1111
MEM_STATIC		2000
MEM_TOTAL		96000
GUI		0
CHILD_MP		1
CHILD_MP_ORDERS		232
FRZ_RELAX		0
FRZ_RELAX_METHOD		0
EDA_CLS_ELEC		1
EDA_CLS_DISP		0
FRZ_ORTHO_DECOMP		1
EDA2		FALSE
FRGM_METHOD		FALSE
CIS_N_ROOTS  0
LOCAL_CIS    0
CIS_RLX_DNS  1
$end
$pcm
THEORY                  CPCM
METHOD                  SWIG
SOLVER                  INVERSION
RADII                   UFF
HPOINTS                 302
HEAVYPOINTS             302
PRINTLEVEL              0
$end
$solvent
DIELECTRIC              78.390000 ! water
$end
--------------------------------------------------------------
 ----------------------------------------------------------------
             Standard Nuclear Orientation (Angstroms)
    I     Atom           X                Y                Z
 ----------------------------------------------------------------
    1      C       3.9005308281     1.6689545948    -0.7954651838
    2      C       0.3405308281     0.5869545948    -0.1844651838
    3      C       1.5225308281     1.3039545948    -0.1044651838
    4      C       0.2875308281    -0.5470454052    -0.9804651838
    5      C       2.6345308281     0.8669545948    -0.8344651838
    6      C       1.3795308281    -0.9940454052    -1.7024651838
    7      C       2.5675308281    -0.2710454052    -1.6224651838
    8      H      -0.5304691719     0.9079545948     0.3675348162
    9      H       1.5755308281     2.1959545948     0.5035348162
   10      H      -0.6394691719    -1.1010454052    -1.0344651838
   11      H       1.3105308281    -1.8770454052    -2.3214651838
   12      H       3.6365308281     2.7259545948    -0.8344651838
   13      H       4.4625308281     1.4509545948    -1.7054651838
   14      H       3.4295308281    -0.5960454052    -2.1874651838
   15      H       4.5748408281     1.5074375948     0.0584748162
 ----------------------------------------------------------------
 Nuclear Repulsion Energy =         270.66641152 hartrees
 There are       25 alpha and       25 beta electrons
 Requested basis set is def2-TZVPD
 There are 131 shells and 331 basis functions

 Total QAlloc Memory Limit  96000 MB
 Mega-Array Size      1956 MB
 MEM_STATIC part      2000 MB
 Discretize the solute cavity surface with Lebedev spheres
	Using 302 Lebedev grid points for each H atom
	Using 302 Lebedev grid points for other atoms
	Atomic van der Waals radii will be scaled by 1.20
 Remove points where switching function is < 1.0e-08
 Keep 1782 surface tesserae and discard 2748 interior tesserae
 Molecular Surface Area = 177.690 Angst**2

                       Distance Matrix (Angstroms)
             C (  1)   C (  2)   C (  3)   C (  4)   C (  5)   C (  6)
   C (  2)  3.770629
   C (  3)  2.503116  1.384779
   C (  4)  4.242482  1.386500  2.391402
   C (  5)  1.499160  2.400695  1.400147  2.743924
   C (  6)  3.777520  2.425573  2.802652  1.383314  2.406610
   C (  7)  2.494878  2.786312  2.424247  2.384689  1.385813  1.393009
   H (  8)  4.643862  1.079994  2.143457  2.145519  3.385810  3.398618
   H (  9)  2.714913  2.141833  1.080804  3.374203  2.162861  3.883420
   H ( 10)  5.323685  2.128907  3.364992  1.081277  3.825193  2.129327
   H ( 11)  4.648752  3.402788  3.883142  2.147955  3.390233  1.080561
   H ( 12)  1.090168  3.982642  2.650279  4.685045  2.111844  4.436876
   H ( 13)  1.091544  4.477814  3.350882  4.684896  2.107435  3.934835
   H ( 14)  2.699950  3.866965  3.403754  3.366217  2.145461  2.143858
   H ( 15)  1.099998  4.340010  3.063421  4.866346  2.229880  4.423611
             C (  7)   H (  8)   H (  9)   H ( 10)   H ( 11)   H ( 12)
   H (  8)  3.866231
   H (  9)  3.404413  2.472383
   H ( 10)  3.364445  2.452257  4.259328
   H ( 11)  2.155896  4.286750  4.963887  2.461919
   H ( 12)  3.278066  4.702533  2.513735  5.741960  5.367407
   H ( 13)  2.561874  5.433436  3.710724  5.743984  4.624948  1.751154
   H ( 14)  1.080691  4.946882  4.298146  4.259248  2.479733  3.592929
   H ( 15)  3.165099  5.149669  3.109340  5.931925  5.270157  1.778356
             H ( 13)   H ( 14)
   H ( 14)  2.342994
   H ( 15)  1.768414  3.283386
 
 A cutoff of  1.0D-14 yielded   8371 shell pairs
 There are     54541 function pairs (     69496 Cartesian)
 Smallest overlap matrix eigenvalue = 5.44E-07
 Linear dependence detected in AO basis
 Tighter screening thresholds may be required for diffuse basis sets
 Use S2THRESH > 14 and THRESH = 14 in case of SCF convergence issues
 Number of orthogonalized atomic orbitals = 330
 Maximum deviation from orthogonality = 2.545E-10

 Scale SEOQF with 1.000000e-01/1.000000e-01/1.000000e-01

 Standard Electronic Orientation quadrupole field applied
 Nucleus-field energy     =     0.0000000075 hartrees
 Guess from superposition of atomic densities
 Warning:  Energy on first SCF cycle will be non-variational
 SAD guess density has 49.913408 electrons

 -----------------------------------------------------------------------
  General SCF calculation program by
  Eric Jon Sundstrom, Paul Horn, Yuezhi Mao, Dmitri Zuev, Alec White,
  David Stuck, Shaama M.S., Shane Yost, Joonho Lee, David Small,
  Daniel Levine, Susi Lehtola, Hugh Burton, Evgeny Epifanovsky
 -----------------------------------------------------------------------
 Exchange:     0.1670 Hartree-Fock + 1.0000 wB97X-V + LR-HF
 Correlation:  1.0000 wB97X-V
 Using Euler-Maclaurin-Lebedev (99,590) quadrature formula
 Nonlocal Correlation:  VV10 with C = 0.0100 and b = 6.00 and scale = 1.00000
 Grid used for NLC:  SG-1 standard quadrature
Energy prior to optimization (guess energy) = -271.516887139972
Begin Timing: Total SCF Calculation
begin iterations for algorithm: DIIS         
the SCF tolerance is set to 1.00e-08
    1    -271.5168871400      1.99e-03     00000 
    2    -271.5564346120      1.28e-03     00000 
    3    -271.5792531786      1.41e-04     00000 
    4    -271.5796689235      5.25e-05     00000 
    5    -271.5797080445      1.69e-05     00000 
    6    -271.5797129153      4.02e-06     00000 
    7    -271.5797132490      1.83e-06     00000 
    8    -271.5797133077      3.77e-07     00000 
    9    -271.5797133119      1.16e-07     00000 
   10    -271.5797133125      6.26e-08     00000 
   11    -271.5797133127      2.16e-08     00000 
   12    -271.5797133127      5.66e-09     00000 Convergence criterion met
Timing for Total SCF: 1435.00s (wall), 2848.82s (cpu)

************** Final PCM Free Energy Summary **************
 G_electrostatic  =      -0.00242130 hartree =      -1.51938642 kcal/mol
 G_cavitation     =       0.00000000 hartree =       0.00000000 kcal/mol
 G_dispersion     =       0.00000000 hartree =       0.00000000 kcal/mol
 G_repulsion      =       0.00000000 hartree =       0.00000000 kcal/mol
 --------------------------------------------------
 Non-electrostatic Free Energy =       0.00000000 hartree =       0.00000000 kcal/mol
 Total                         =      -0.00242130 hartree =      -1.51938642 kcal/mol
 --------------------------------------------------
 SCF Energy (H0 + V/2)                       =    -271.57971331 
 Solute Internal Energy (H0)                 =    -271.57729202 
 Total Free Energy (H0 + V/2 + non-elec)     =    -271.57971331 hartree
                                             = -170418.84223519 kcal/mol
***********************************************************

E_pcm = -0.0024212964
Multipole orders to be included
        2
        3
computing dipole RHS
computing quadrupole RHS
total number of RHS in solve_reponses: 8
RHS batch sizes
        8
Beginning Block Conjugate Gradient Iterations. Batch Number: 0
computing hessian-vector products by finite difference
              1      5.71e-01     00000 Conjugate Gradient Iteration
computing hessian-vector products by finite difference
              2      1.85e-01     00000 Conjugate Gradient Iteration
computing hessian-vector products by finite difference
              3      4.29e-02     00000 Conjugate Gradient Iteration
computing hessian-vector products by finite difference
              4      1.05e-02     00000 Conjugate Gradient Iteration
computing hessian-vector products by finite difference
              5      2.25e-03     00000 Conjugate Gradient Iteration
computing hessian-vector products by finite difference
              6      5.68e-04     00000 Conjugate Gradient Iteration
computing hessian-vector products by finite difference
              7      1.72e-04     00000 Conjugate Gradient Iteration
computing hessian-vector products by finite difference
              8      2.52e-05     00000 Conjugate Gradient Iteration
computing hessian-vector products by finite difference
              9      3.48e-06     00000 Conjugate Gradient Iteration
computing hessian-vector products by finite difference
             10      5.91e-07     00000 Conjugate Gradient Iteration
computing hessian-vector products by finite difference
             11      1.10e-07     00000 Conjugate Gradient Iteration
computing hessian-vector products by finite difference
             12      2.04e-08     00000 Conjugate Gradient Iteration
computing hessian-vector products by finite difference
             13      5.49e-09     00000 CG Converged
batch 0 complete
Done Calculating Responses
TESTING ORTHOGONALIZATION OF MULTIPOLE BASIS
Multipole virts passed orthogonality test
Virts Per Order
           75
          125
 
 --------------------------------------------------------------
 
                    Orbital Energies (a.u.)
 --------------------------------------------------------------
 
 Alpha MOs
 -- Occupied --
-10.2809 -10.2727 -10.2720 -10.2700 -10.2692 -10.2682 -10.2606  -0.9996
 -0.9078  -0.8823  -0.8120  -0.7326  -0.7061  -0.6310  -0.5752  -0.5689
 -0.5357  -0.5350  -0.5107  -0.4856  -0.4739  -0.4457  -0.4381  -0.3513
 -0.3377
 -- Virtual --
  0.0622   0.0636   0.0692   0.0790   0.0844   0.1044   0.1104   0.1132
  0.1357   0.1536   0.1661   0.1686   0.1856   0.1893   0.1944   0.2007
  0.2209   0.2235   0.2332   0.2406   0.2520   0.2578   0.2600   0.2708
  0.2805   0.2822   0.2858   0.2912   0.2933   0.3000   0.3028   0.3079
  0.3192   0.3242   0.3318   0.3368   0.3510   0.3546   0.3649   0.3750
  0.3786   0.3815   0.3845   0.3891   0.3904   0.4015   0.4036   0.4081
  0.4128   0.4285   0.4304   0.4367   0.4423   0.4469   0.4499   0.4512
  0.4623   0.4700   0.4720   0.4828   0.4952   0.4979   0.5111   0.5158
  0.5195   0.5257   0.5348   0.5397   0.5446   0.5490   0.5518   0.5642
  0.5843   0.5853   0.5937   0.5992   0.6030   0.6244   0.6398   0.6435
  0.6591   0.6777   0.6804   0.6841   0.6929   0.6951   0.7213   0.7237
  0.7281   0.7348   0.7447   0.7577   0.7638   0.7654   0.7751   0.7851
  0.7898   0.7923   0.7977   0.8050   0.8109   0.8238   0.8284   0.8296
  0.8357   0.8362   0.8403   0.8548   0.8588   0.8722   0.8903   0.8932
  0.9046   0.9101   0.9385   0.9468   0.9526   1.0099   1.0233   1.0391
  1.0419   1.0641   1.0704   1.0793   1.0943   1.0983   1.1055   1.1413
  1.1638   1.1825   1.2560   1.2707   1.2995   1.3302   1.3469   1.3573
  1.3749   1.4350   1.4470   1.4622   1.4653   1.4857   1.5300   1.5361
  1.6022   1.6056   1.6218   1.6255   1.6746   1.6800   1.7361   1.7600
  1.7883   1.8013   1.8124   1.8139   1.8302   1.8751   1.8942   1.9120
  1.9162   1.9212   1.9404   1.9574   1.9829   1.9973   2.0150   2.0258
  2.0334   2.0416   2.0646   2.0898   2.1152   2.1244   2.1769   2.1813
  2.1905   2.2242   2.2448   2.2786   2.2849   2.3135   2.3892   2.3936
  2.4077   2.4182   2.4724   2.5042   2.5379   2.5597   2.5706   2.6006
  2.6184   2.6324   2.6684   2.6736   2.6941   2.7053   2.7557   2.7756
  2.7855   2.8092   2.8225   2.8455   2.8639   2.8964   2.9109   2.9178
  2.9340   2.9442   2.9652   2.9740   2.9802   3.0147   3.0190   3.0537
  3.0626   3.0922   3.1038   3.1148   3.1804   3.1919   3.2019   3.2174
  3.2364   3.2399   3.2856   3.2977   3.3367   3.3554   3.3674   3.3829
  3.3999   3.4402   3.4454   3.4585   3.4620   3.4831   3.4968   3.5044
  3.5089   3.5306   3.5406   3.5456   3.5530   3.5740   3.5843   3.5993
  3.6275   3.6347   3.6519   3.6946   3.7124   3.7541   3.7893   3.8119
  3.8459   3.8920   3.9163   3.9553   3.9605   4.0179   4.0484   4.0589
  4.1050   4.2048   4.2632   4.2827   4.3085   4.3164   4.3351   4.3488
  4.3620   4.3654   4.3976   4.4092   4.4284   4.4525   4.5020   4.5360
  4.5969   4.6345   4.7599   4.7692   4.8371   4.8886   4.8976   4.9589
  5.0280   5.0650   5.1626   5.2648   5.3879   5.3927   5.5055   5.5306
  5.6721   5.8518  22.5749  22.6845  22.8913  22.9151  23.0115  23.0939
 23.4260
 --------------------------------------------------------------
 
          Ground-State Mulliken Net Atomic Charges

     Atom                 Charge (a.u.)
  ----------------------------------------
      1 C                    -1.037092
      2 C                    -0.492743
      3 C                    -0.390050
      4 C                    -0.428071
      5 C                     0.967077
      6 C                    -0.552513
      7 C                    -0.405188
      8 H                     0.313060
      9 H                     0.334111
     10 H                     0.327629
     11 H                     0.310658
     12 H                     0.255119
     13 H                     0.271038
     14 H                     0.307841
     15 H                     0.219125
  ----------------------------------------
  Sum of atomic charges =     0.000000

 -----------------------------------------------------------------
                    Cartesian Multipole Moments
 -----------------------------------------------------------------
    Charge (ESU x 10^10)
                -0.0000
    Dipole Moment (Debye)
         X       0.3461      Y       0.2717      Z      -0.0141
       Tot       0.4402
    Quadrupole Moments (Debye-Ang)
        XX     -37.7345     XY       1.8208     YY     -40.4321
        XZ      -2.1448     YZ       3.3893     ZZ     -42.9866
    Octopole Moments (Debye-Ang^2)
       XXX    -217.5594    XXY     -12.1642    XYY     -75.7124
       YYY     -49.8956    XXZ      29.2638    XYZ       3.2362
       YYZ      36.5824    XZZ     -74.8916    YZZ     -23.8758
       ZZZ     114.8125
    Hexadecapole Moments (Debye-Ang^3)
      XXXX   -1318.0868   XXXY    -170.5911   XXYY    -287.1971
      XYYY    -178.8032   YYYY    -352.0873   XXXZ     204.2413
      XXYZ       3.3051   XYYZ      76.7501   YYYZ      -1.9225
      XXZZ    -272.1696   XYZZ     -72.5252   YYZZ    -113.6537
      XZZZ     227.3250   YZZZ       1.1265   ZZZZ    -371.0651
 -----------------------------------------------------------------
Archival summary:
1\1\nid00534\SP\ProcedureUnspecified\BasisUnspecified\78\meili\SunSep2616:37:562021SunSep2616:37:562021\0\\#,ProcedureUnspecified,BasisUnspecified,\\0,1\C\C,1,1.38581\H,2,1.08069,1,120.376\C,2,1.39301,1,120.006,3,-179.215,0\H,4,1.08056,2,120.763,1,179.335,0\C,4,1.38331,2,118.395,1,-0.0660692,0\H,6,1.08128,4,119.022,2,-179.946,0\C,6,1.3865,4,122.26,2,-0.149663,0\H,8,1.07999,6,120.378,4,-179.92,0\C,8,1.38478,6,119.293,4,0.0738346,0\H,10,1.0808,8,120.111,6,179.335,0\C,1,1.49916,2,119.665,3,1.57424,0\H,12,1.09017,1,108.256,2,137.572,0\H,12,1.09154,1,107.834,2,22.4061,0\H,12,1.1,1,117.343,2,-99.1816,0\\\@

 Total job time:  29392.53s(wall), 58333.13s(cpu) 
 Sun Sep 26 16:38:01 2021

        *************************************************************
        *                                                           *
        *  Thank you very much for using Q-Chem.  Have a nice day.  *
        *                                                           *
        *************************************************************


Done Job For Fragment 1
calling putenv with: QCSCRATCH=/global/cscratch1/sd/meili 
calling putenv with: QCLOCALSCR=/tmp 
calling putenv with: QCTHREADS=32 
Doing General SCFMI
 Exchange:     0.1670 Hartree-Fock + 1.0000 wB97X-V + LR-HF
 Correlation:  1.0000 wB97X-V
 Using Euler-Maclaurin-Lebedev (99,590) quadrature formula
 Nonlocal Correlation:  VV10 with C = 0.0100 and b = 6.00 and scale = 1.00000
 Grid used for NLC:  SG-1 standard quadrature
performing fock build before subrot guess so that all methods have access
Printing subrot_rss_gen Method Specification:
Occupied Subspace Method is 0
Virtual Subspace Method is 0
Energy of the unrelaxed supersystem initial determinant -500.120999460168
performing fock build before subrot guess so that all methods have access
Printing subrot_rss_gen Method Specification:
Occupied Subspace Method is 0
Virtual Subspace Method is 0
Energy of the unrelaxed supersystem initial determinant w/ solvent -500.221834773884
write pseudocanon occs and virts to disk
write pseudocanon orbital energies to disk
Tolerance of ortho_decomp_scf: 1.00e-06
GDM subspace size: 20
Beginning the Orthogonal Decomposition of the Initial Supersystem Wavefunction
    1    -500.0954111596      3.81e-02     ortho_decomp Preconditoned Steepest Descent
    2    -500.1001166564      1.38e-03     ortho_decomp BFGS Step
    3    -500.1001416410      7.97e-05     ortho_decomp BFGS Step
    4    -500.1001416608      3.31e-06     ortho_decomp BFGS Step
    5    -500.1001416609      1.44e-07     ortho_decomp 00000 Convergence criterion met
 Hartree-Fock
 Hartree-Fock
 Hartree-Fock
Doing General SCFMI
 Exchange:     0.1670 Hartree-Fock + 1.0000 wB97X-V + LR-HF
 Correlation:  1.0000 wB97X-V
 Using Euler-Maclaurin-Lebedev (99,590) quadrature formula
 Nonlocal Correlation:  VV10 with C = 0.0100 and b = 6.00 and scale = 1.00000
 Grid used for NLC:  SG-1 standard quadrature
performing fock build at end of subrot_r(subrot) constructor so that all methods have access
<S^2> of initial wavefunction before polarization iterations 0.0000000000
Beginning iterations for the determination of the polarized wavefunction
Energy prior to optimization (guess energy) = -500.221834773884
Begin Timing: Total SCF Calculation
begin iterations for algorithm: DIIS         
the SCF tolerance is set to 1.00e-08
    1    -500.2218347739      1.10e-04     00000 
    2    -500.2226168831      7.03e-05     00000 
    3    -500.2227767568      2.72e-05     00000 
    4    -500.2228111271      1.05e-05     00000 
    5    -500.2228176901      5.83e-06     00000 
    6    -500.2228197771      1.97e-06     00000 
    7    -500.2228201282      9.14e-07     00000 
    8    -500.2228201883      3.33e-07     00000 
    9    -500.2228201975      1.41e-07     00000 
   10    -500.2228201988      4.80e-08     00000 
   11    -500.2228201991      1.88e-08     00000 
   12    -500.2228201991      7.85e-09     00000 Convergence criterion met
write pseudocanon occs and virts to disk
write pseudocanon orbital energies to disk
Timing for Total SCF: 4563.00s (wall), 9067.67s (cpu)
<S^2> of polarized wavefunction after polarization iterations 0.0000000000
relaxing scfmi constraint to allow all rotations in the entire AO span
Doing General SCFMI
 Exchange:     0.1670 Hartree-Fock + 1.0000 wB97X-V + LR-HF
 Correlation:  1.0000 wB97X-V
 Using Euler-Maclaurin-Lebedev (99,590) quadrature formula
 Nonlocal Correlation:  VV10 with C = 0.0100 and b = 6.00 and scale = 1.00000
 Grid used for NLC:  SG-1 standard quadrature
performing fock build at end of subrot_r(subrot) constructor so that all methods have access
<S^2> of polarized wavefunction before ct-allowed iterations 0.0000000000
Beginning iterations for the determination of the CT-Allowed wavefunction
Energy prior to optimization (guess energy) = -500.222820199112
Begin Timing: Total SCF Calculation
begin iterations for algorithm: DIIS         
the SCF tolerance is set to 1.00e-08
    1    -500.2228201991      7.23e-05     00000 
    2    -500.2235847016      8.71e-06     00000 
    3    -500.2236154587      2.30e-06     00000 
    4    -500.2236167101      2.02e-06     00000 
    5    -500.2236171342      2.41e-07     00000 
    6    -500.2236171523      1.31e-07     00000 
    7    -500.2236171558      2.47e-08     00000 
    8    -500.2236171561      1.55e-08     00000 
    9    -500.2236171561      4.69e-09     00000 Convergence criterion met
write pseudocanon occs and virts to disk
write pseudocanon orbital energies to disk
Timing for Total SCF: 3259.00s (wall), 6331.38s (cpu)
<S^2> of ct_allowed wavefunction after ct-allowed iterations 0.0000000000

================================
        Results of EDA2         
================================
Basic EDA Quantities
--------------------
Fragment Energies (Ha):
1 -228.6430561004
2 -271.5797133127
--------------------
  E_prp (kJ/mol) = 0.0000
  E_sol (kJ/mol) = 8.3158
  E_frz (kJ/mol) = -5.8619
  E_pol (kJ/mol) = -2.5873
  E_vct (kJ/mol) = -2.0924
  E_int (kJ/mol) = -2.2258
--------------------


Initial Wavefunction Decomposition
--------------------
  --------------------
  Orthogonal Fragment Subspace Decomposition:
  --------------------
     E_elec   (ELEC)   (kJ/mol) = -30.1674
     E_pauli  (PAULI)  (kJ/mol) = 38.0560
     E_disp   (DISP)   (kJ/mol) = -13.7505
     --------------------
     Terms summing to E_pauli:
     --------------------
        E_kep_pauli       (kJ/mol) = 48.9009
        E_disp_free_pauli (kJ/mol) = -10.8449
  --------------------
  Classical Frozen Decomposition:
  --------------------
     E_cls_elec  (CLS ELEC)  (kJ/mol) = -9.7840
     E_cls_pauli (CLS PAULI) (kJ/mol) = 3.9222
    [E_mod_pauli (MOD PAULI) (kJ/mol) = 17.6726 (CLS PAULI - DISP from orthogonal decomposition) ]
  --------------------
--------------------

Simplified EDA Summary (kJ/mol)
--------------------
 PREPARATION     0.0000
 SOLVATION       8.3158
 FROZEN          7.8886      (does not include dispersion)
[PAULI           38.0560]     (if this is negligible, then frozen describes electrostatics)
 DISPERSION      -13.7505
 POLARIZATION    -2.5873
 CHARGE TRANSFER -2.0924
 TOTAL           -2.2258     (PRP + SOL + FRZ + DISP + POL + CT)
--------------------
 
 --------------------------------------------------------------
 
                    Orbital Energies (a.u.)
 --------------------------------------------------------------
 
 Alpha MOs
 -- Occupied --
-19.1219 -19.1183 -10.3226 -10.2747 -10.2662 -10.2629 -10.2623 -10.2592
-10.2585 -10.2575 -10.2368  -1.1287  -1.0299  -0.9922  -0.9012  -0.8744
 -0.8284  -0.8062  -0.7245  -0.6986  -0.6235  -0.5914  -0.5681  -0.5607
 -0.5318  -0.5307  -0.5255  -0.5157  -0.5139  -0.5034  -0.4812  -0.4676
 -0.4602  -0.4419  -0.4359  -0.4297  -0.3445  -0.3330  -0.3250  -0.3207
 -0.3081
 -- Virtual --
  0.0590   0.0692   0.0724   0.0752   0.0796   0.0905   0.0938   0.0981
  0.1101   0.1145   0.1236   0.1311   0.1396   0.1413   0.1442   0.1552
  0.1617   0.1708   0.1735   0.1766   0.1857   0.1927   0.2034   0.2053
  0.2116   0.2140   0.2222   0.2311   0.2320   0.2441   0.2466   0.2476
  0.2567   0.2606   0.2644   0.2723   0.2725   0.2817   0.2841   0.2859
  0.2938   0.3012   0.3044   0.3096   0.3108   0.3191   0.3237   0.3297
  0.3362   0.3406   0.3463   0.3518   0.3542   0.3550   0.3555   0.3618
  0.3662   0.3709   0.3751   0.3784   0.3828   0.3871   0.3911   0.3919
  0.3927   0.3944   0.4013   0.4068   0.4108   0.4137   0.4201   0.4278
  0.4329   0.4399   0.4416   0.4423   0.4464   0.4497   0.4540   0.4589
  0.4634   0.4729   0.4735   0.4797   0.4810   0.4880   0.4907   0.4981
  0.5052   0.5056   0.5089   0.5108   0.5197   0.5209   0.5284   0.5319
  0.5400   0.5426   0.5487   0.5593   0.5624   0.5656   0.5731   0.5780
  0.5830   0.5849   0.5904   0.5916   0.6036   0.6095   0.6143   0.6279
  0.6289   0.6419   0.6460   0.6530   0.6629   0.6680   0.6753   0.6794
  0.6860   0.6914   0.6960   0.7007   0.7050   0.7171   0.7261   0.7363
  0.7398   0.7408   0.7465   0.7503   0.7557   0.7656   0.7677   0.7725
  0.7762   0.7787   0.7872   0.7883   0.7925   0.8007   0.8032   0.8169
  0.8184   0.8207   0.8253   0.8326   0.8359   0.8423   0.8450   0.8494
  0.8515   0.8577   0.8640   0.8668   0.8709   0.8760   0.8889   0.8908
  0.8981   0.9056   0.9114   0.9160   0.9242   0.9338   0.9509   0.9525
  0.9684   0.9786   0.9882   0.9995   1.0089   1.0189   1.0298   1.0452
  1.0495   1.0542   1.0639   1.0756   1.0901   1.0949   1.1058   1.1165
  1.1175   1.1338   1.1497   1.1541   1.1608   1.1830   1.1910   1.2083
  1.2205   1.2364   1.2666   1.2821   1.2904   1.3041   1.3416   1.3477
  1.3530   1.3594   1.3708   1.3743   1.3884   1.3959   1.4021   1.4207
  1.4628   1.4676   1.4858   1.4911   1.5027   1.5129   1.5558   1.5688
  1.6053   1.6216   1.6258   1.6452   1.6488   1.6714   1.6801   1.6951
  1.7229   1.7503   1.7806   1.7862   1.8136   1.8186   1.8325   1.8606
  1.8900   1.9017   1.9023   1.9157   1.9272   1.9348   1.9440   1.9542
  1.9624   1.9688   1.9815   1.9936   2.0059   2.0125   2.0177   2.0261
  2.0303   2.0451   2.0543   2.0694   2.0715   2.0889   2.1060   2.1256
  2.1458   2.1492   2.1632   2.1933   2.2048   2.2132   2.2179   2.2327
  2.2444   2.2644   2.2686   2.2909   2.3024   2.3234   2.3478   2.3563
  2.3779   2.4109   2.4205   2.4297   2.4387   2.4510   2.4775   2.4894
  2.5182   2.5281   2.5362   2.5622   2.5836   2.5944   2.6116   2.6183
  2.6258   2.6371   2.6468   2.6713   2.6915   2.6934   2.7017   2.7189
  2.7362   2.7672   2.7934   2.7996   2.8162   2.8181   2.8400   2.8545
  2.8654   2.8746   2.8993   2.9159   2.9242   2.9354   2.9537   2.9543
  2.9632   2.9698   2.9831   2.9997   3.0099   3.0305   3.0408   3.0695
  3.0742   3.0865   3.1080   3.1195   3.1273   3.1553   3.1961   3.2041
  3.2161   3.2205   3.2372   3.2536   3.2649   3.2713   3.2794   3.3115
  3.3130   3.3247   3.3439   3.3509   3.3660   3.3743   3.3795   3.3922
  3.4050   3.4196   3.4371   3.4441   3.4502   3.4579   3.4718   3.4794
  3.4872   3.5015   3.5169   3.5256   3.5421   3.5513   3.5549   3.5590
  3.5660   3.5770   3.5866   3.6023   3.6057   3.6212   3.6217   3.6398
  3.6528   3.6627   3.6736   3.7104   3.7122   3.7172   3.7287   3.7549
  3.7643   3.8053   3.8194   3.8314   3.8565   3.8988   3.9120   3.9343
  3.9649   3.9732   3.9821   4.0343   4.0606   4.0700   4.0791   4.1105
  4.1296   4.2228   4.2386   4.2908   4.3038   4.3277   4.3337   4.3479
  4.3625   4.3720   4.3830   4.4061   4.4156   4.4253   4.4480   4.4677
  4.5219   4.5568   4.5998   4.6112   4.6408   4.6421   4.6895   4.7727
  4.7781   4.8432   4.8590   4.8612   4.8999   4.9160   4.9780   5.0099
  5.0562   5.0820   5.1788   5.2817   5.3451   5.3765   5.3828   5.3929
  5.4030   5.4117   5.5160   5.5203   5.5414   5.6936   5.7291   5.7670
  5.8185   5.8332   6.0296   6.2698   6.3519   6.3641   6.6449   6.7098
  6.7480   6.7825   6.8038   6.9814   7.0414   7.0808   7.2559   7.3862
  7.4020   7.4339  22.6288  22.6346  22.6956  22.9184  22.9515  23.0418
 23.1117  23.4425  23.7705  44.3489  44.3978
 --------------------------------------------------------------
 
          Ground-State Mulliken Net Atomic Charges

     Atom                 Charge (a.u.)
  ----------------------------------------
      1 C                    -0.551432
      2 C                     0.405317
      3 O                    -0.658302
      4 O                    -0.704366
      5 H                     0.148026
      6 H                     0.204103
      7 H                     0.169674
      8 C                    -1.068693
      9 C                    -0.218535
     10 C                    -0.544996
     11 C                    -0.321767
     12 C                     0.675502
     13 C                    -0.582703
     14 C                    -0.355531
     15 H                     0.333986
     16 H                     0.349471
     17 H                     0.327398
     18 H                     0.314301
     19 H                     0.258172
     20 H                     0.271462
     21 H                     0.332736
     22 H                     0.216178
  ----------------------------------------
  Sum of atomic charges =    -1.000000

 -----------------------------------------------------------------
                    Cartesian Multipole Moments
 -----------------------------------------------------------------
    Charge (ESU x 10^10)
                -4.8032
    Dipole Moment (Debye)
         X       9.9388      Y       0.3572      Z      -7.7067
       Tot      12.5817
    Quadrupole Moments (Debye-Ang)
        XX     -89.7582     XY       5.9249     YY     -73.9078
        XZ      14.6047     YZ       4.7935     ZZ     -82.9912
    Octopole Moments (Debye-Ang^2)
       XXX      73.5787    XXY     -16.8384    XYY      14.1825
       YYY       6.8864    XXZ     -39.9631    XYZ       7.7997
       YYZ      -9.7826    XZZ      24.8933    YZZ      -2.0478
       ZZZ     -11.9132
    Hexadecapole Moments (Debye-Ang^3)
      XXXX   -3058.4092   XXXY    -264.8088   XXYY    -617.0205
      XYYY    -351.4455   YYYY    -583.8771   XXXZ     588.1419
      XXYZ      -5.6483   XYYZ     198.4308   YYYZ      73.3091
      XXZZ    -630.6570   XYZZ    -122.0977   YYZZ    -229.1222
      XZZZ     561.3000   YZZZ      74.5015   ZZZZ    -753.3915
 -----------------------------------------------------------------
Archival summary:
1\1\nid00534\SP\ProcedureUnspecified\BasisUnspecified\2911(1-,1)\meili\SunSep2620:26:362021SunSep2620:26:362021\0\\#,ProcedureUnspecified,BasisUnspecified,\\-1,1\O\C,1,1.24535\O,2,1.2622,1,124.104\C,2,1.51115,1,119.859,3,179.91,0\H,4,1.08717,2,108.474,1,112.438,0\H,4,1.09238,2,109.27,1,-129.734,0\H,4,1.1,2,113.133,1,-8.81905,0\H,3,2.66758,2,87.9872,1,42.2126,0\C,8,1.07999,3,155.86,2,23.1823,0\C,9,1.38478,8,120.329,3,-165.88,0\H,10,1.0808,9,120.111,8,-0.671674,0\C,9,1.3865,8,120.378,3,14.1134,0\H,12,1.08128,9,118.718,8,-0.123506,0\C,12,1.38331,9,122.26,8,-179.92,0\H,14,1.08056,12,120.84,9,-179.55,0\C,14,1.39301,12,118.395,9,-0.149663,0\H,16,1.08069,14,119.613,12,-179.287,0\C,16,1.38581,14,120.006,12,-0.0660692,0\C,18,1.49916,16,119.665,14,-177.641,0\H,19,1.09017,18,108.256,16,137.572,0\H,19,1.09154,18,107.834,16,22.4061,0\H,19,1.1,18,117.343,16,-99.1816,0\\\@

 Total job time:  48271.38s(wall), 27134.43s(cpu) 
 Sun Sep 26 20:26:41 2021

        *************************************************************
        *                                                           *
        *  Thank you very much for using Q-Chem.  Have a nice day.  *
        *                                                           *
        *************************************************************


