                  Welcome to Q-Chem
     A Quantum Leap Into The Future Of Chemistry


 Q-Chem 5.2 (devel), Q-Chem, Inc., Pleasanton, CA (2019)

 Yihan Shao,  Zhengting Gan,  E. Epifanovsky,  A. T. B. Gilbert,  M. Wormit,  
 J. Kussmann,  A. W. Lange,  A. Behn,  Jia Deng,  Xintian Feng,  D. Ghosh,  
 M. Goldey,  P. R. Horn,  L. D. Jacobson,  I. Kaliman,  T. Kus,  A. Landau,  
 Jie Liu,  E. I. Proynov,  R. M. Richard,  R. P. Steele,  E. J. Sundstrom,  
 H. L. Woodcock III,  P. M. Zimmerman,  D. Zuev,  B. Albrecht,  E. Alguire,  
 S. A. Baeppler,  D. Barton,  Z. Benda,  Y. A. Bernard,  E. J. Berquist,  
 K. B. Bravaya,  H. Burton,  D. Casanova,  Chun-Min Chang,  Yunqing Chen,  
 A. Chien,  K. D. Closser,  M. P. Coons,  S. Coriani,  S. Dasgupta,  
 A. L. Dempwolff,  M. Diedenhofen,  Hainam Do,  R. G. Edgar,  Po-Tung Fang,  
 S. Faraji,  S. Fatehi,  Qingguo Feng,  K. D. Fenk,  J. Fosso-Tande,  
 J. Gayvert,  Qinghui Ge,  A. Ghysels,  G. Gidofalvi,  J. Gomes,  
 J. Gonthier,  A. Gunina,  D. Hait,  M. W. D. Hanson-Heine,  
 P. H. P. Harbach,  A. W. Hauser,  M. F. Herbst,  J. E. Herr,  
 E. G. Hohenstein,  Z. C. Holden,  Kerwin Hui,  B. C. Huynh,  T.-C. Jagau,  
 Hyunjun Ji,  B. Kaduk,  K. Khistyaev,  Jaehoon Kim,  P. Klunzinger,  K. Koh,  
 D. Kosenkov,  L. Koulias,  T. Kowalczyk,  C. M. Krauter,  A. Kunitsa,  
 Ka Un Lao,  A. Laurent,  K. V. Lawler,  Joonho Lee,  D. Lefrancois,  
 S. Lehtola,  D. S. Levine,  Yi-Pei Li,  You-Sheng Lin,  Fenglai Liu,  
 E. Livshits,  A. Luenser,  P. Manohar,  E. Mansoor,  S. F. Manzer,  
 Shan-Ping Mao,  Yuezhi Mao,  N. Mardirossian,  A. V. Marenich,  
 T. Markovich,  L. A. Martinez-Martinez,  S. A. Maurer,  N. J. Mayhall,  
 S. C. McKenzie,  J.-M. Mewes,  P. Morgante,  A. F. Morrison,  
 J. W. Mullinax,  K. Nanda,  T. S. Nguyen-Beck,  R. Olivares-Amaya,  
 J. A. Parkhill,  Zheng Pei,  T. M. Perrine,  F. Plasser,  P. Pokhilko,  
 S. Prager,  A. Prociuk,  E. Ramos,  D. R. Rehn,  F. Rob,  M. Scheurer,  
 M. Schneider,  N. Sergueev,  S. M. Sharada,  S. Sharma,  D. W. Small,  
 T. Stauch,  T. Stein,  Yu-Chuan Su,  A. J. W. Thom,  A. Tkatchenko,  
 T. Tsuchimochi,  N. M. Tubman,  L. Vogt,  M. L. Vidal,  O. Vydrov,  
 M. A. Watson,  J. Wenzel,  M. de Wergifosse,  T. A. Wesolowski,  A. White,  
 J. Witte,  A. Yamada,  Jun Yang,  K. Yao,  S. Yeganeh,  S. R. Yost,  
 Zhi-Qiang You,  A. Zech,  Igor Ying Zhang,  Xing Zhang,  Yan Zhao,  
 Ying Zhu,  B. R. Brooks,  G. K. L. Chan,  C. J. Cramer,  M. S. Gordon,  
 W. J. Hehre,  A. Klamt,  M. W. Schmidt,  C. D. Sherrill,  D. G. Truhlar,  
 A. Aspuru-Guzik,  R. Baer,  A. T. Bell,  N. A. Besley,  Jeng-Da Chai,  
 A. E. DePrince, III,  R. A. DiStasio Jr.,  A. Dreuw,  B. D. Dunietz,  
 T. R. Furlani,  Chao-Ping Hsu,  Yousung Jung,  Jing Kong,  D. S. Lambrecht,  
 WanZhen Liang,  C. Ochsenfeld,  V. A. Rassolov,  L. V. Slipchenko,  
 J. E. Subotnik,  T. Van Voorhis,  J. M. Herbert,  A. I. Krylov,  
 P. M. W. Gill,  M. Head-Gordon

 Contributors to earlier versions of Q-Chem not listed above: 
 R. D. Adamson,  B. Austin,  J. Baker,  G. J. O. Beran,  K. Brandhorst,  
 S. T. Brown,  E. F. C. Byrd,  A. K. Chakraborty,  C.-L. Cheng,  
 Siu Hung Chien,  D. M. Chipman,  D. L. Crittenden,  H. Dachsel,  
 R. J. Doerksen,  A. D. Dutoi,  L. Fusti-Molnar,  W. A. Goddard III,  
 A. Golubeva-Zadorozhnaya,  S. R. Gwaltney,  G. Hawkins,  A. Heyden,  
 S. Hirata,  G. Kedziora,  F. J. Keil,  C. Kelley,  Jihan Kim,  R. A. King,  
 R. Z. Khaliullin,  P. P. Korambath,  W. Kurlancheek,  A. M. Lee,  M. S. Lee,  
 S. V. Levchenko,  Ching Yeh Lin,  D. Liotard,  R. C. Lochan,  I. Lotan,  
 P. E. Maslen,  N. Nair,  D. P. O'Neill,  D. Neuhauser,  E. Neuscamman,  
 C. M. Oana,  R. Olson,  B. Peters,  R. Peverati,  P. A. Pieniazek,  
 Y. M. Rhee,  J. Ritchie,  M. A. Rohrdanz,  E. Rosta,  N. J. Russ,  
 H. F. Schaefer III,  N. E. Schultz,  N. Shenvi,  A. C. Simmonett,  A. Sodt,  
 D. Stuck,  K. S. Thanthiriwatte,  V. Vanovschi,  Tao Wang,  A. Warshel,  
 C. F. Williams,  Q. Wu,  X. Xu,  W. Zhang

 Please cite Q-Chem as follows:
 Y. Shao et al., Mol. Phys. 113, 184-215 (2015)
 DOI: 10.1080/00268976.2014.952696

 Q-Chem 5.2.1 for Intel X86 EM64T Linux

 Parts of Q-Chem use Armadillo 8.300.2 (Tropical Shenanigans).
 http://arma.sourceforge.net/

 Q-Chem begins on Tue Sep 28 10:13:05 2021  

compute-0-8.local
Host: 0

     Scratch files written to /home/meili/scratch/qchem58508//
NAlpha2: 116
NElect   116
Mult     1
Symmetry turned off for PCM/SM12/SMD calculation

 Q-Chem warning in module libgen/rem_setup.C, line 2813:

 Neither GIA nor STOLL is specified by user. Use STOLL as the default


Checking the input file for inconsistencies... 	...done.

--------------------------------------------------------------
User input:
--------------------------------------------------------------
$comment
SSI-013PHE-060TYR-1.pdb
$end

$molecule
0 1
--
0 1
C    5.895207064265   -0.157709514602    1.205418202603
C    1.741207064265   -0.049709514602    0.006418202603
C    2.064207064265   -0.131709514602    1.315418202603
C    2.761207064265    0.014290485398   -0.933581797397
C    3.418207064265   -0.188709514602    1.717418202603
C    4.092207064265   -0.035709514602   -0.554581797397
C    4.447207064265   -0.116709514602    0.778418202603
H    0.706207064265   -0.024709514602   -0.305581797397
H    1.280207064265   -0.180709514602    2.060418202603
H    2.504207064265    0.082290485398   -1.979581797397
H    3.655207064265   -0.287709514602    2.766418202603
H    4.859207064265    0.005290485398   -1.315581797397
H    6.053207064265    0.600290485398    1.972418202603
H    6.508207064265    0.106290485398    0.348418202603
H    6.234567064265   -1.131879514602    1.587288202603
--
0 1
C   -1.392792935735    1.898290485398    0.777418202603
C   -2.338792935735    2.923290485398    1.382418202603
C   -2.081792935735    0.781290485398    0.067418202603
C   -2.411792935735   -0.366709514602    0.737418202603
C   -2.404792935735    0.885290485398   -1.285581797397
C   -2.970792935735   -1.434709514602    0.049418202603
C   -3.002792935735   -0.159709514602   -1.959581797397
C   -3.306792935735   -1.346709514602   -1.303581797397
O   -3.879792935735   -2.411709514602   -1.974581797397
H   -0.730792935735    2.393290485398    0.076418202603
H   -0.768792935735    1.479290485398    1.569418202603
H   -2.967792935735    2.444290485398    2.135418202603
H   -2.189792935735   -0.462709514602    1.793418202603
H   -2.172792935735    1.795290485398   -1.822581797397
H   -3.219792935735   -2.329709514602    0.601418202603
H   -3.233792935735   -0.064709514602   -3.010581797397
H   -3.993792935735   -3.182709514602   -1.408581797397
H   -2.937252935735    3.410980485398    0.598838202603
H   -1.700442935735    3.685100485398    1.853738202603
$end

$rem
JOBTYPE			EDA
EDA2			1
method			wB97X-V
BASIS			def2-TZVPD
XC_GRID			000099000590
NL_GRID			1
UNRESTRICTED		FALSE
MAX_SCF_CYCLES		200
SYMMETRY		FALSE
SYM_IGNORE		TRUE
MEM_STATIC		2000
BASIS_LIN_DEP_THRESH 	6
THRESH 			14
SCF_CONVERGENCE 	8
SCF_PRINT_FRGM 		TRUE
SOLVENT_METHOD          SMD
$end

$SMX
SOLVENT			WATER
$END
--------------------------------------------------------------
 ----------------------------------------------------------------
             Standard Nuclear Orientation (Angstroms)
    I     Atom           X                Y                Z
 ----------------------------------------------------------------
    1      C       5.8952070643    -0.1577095146     1.2054182026
    2      C       1.7412070643    -0.0497095146     0.0064182026
    3      C       2.0642070643    -0.1317095146     1.3154182026
    4      C       2.7612070643     0.0142904854    -0.9335817974
    5      C       3.4182070643    -0.1887095146     1.7174182026
    6      C       4.0922070643    -0.0357095146    -0.5545817974
    7      C       4.4472070643    -0.1167095146     0.7784182026
    8      H       0.7062070643    -0.0247095146    -0.3055817974
    9      H       1.2802070643    -0.1807095146     2.0604182026
   10      H       2.5042070643     0.0822904854    -1.9795817974
   11      H       3.6552070643    -0.2877095146     2.7664182026
   12      H       4.8592070643     0.0052904854    -1.3155817974
   13      H       6.0532070643     0.6002904854     1.9724182026
   14      H       6.5082070643     0.1062904854     0.3484182026
   15      H       6.2345670643    -1.1318795146     1.5872882026
   16      C      -1.3927929357     1.8982904854     0.7774182026
   17      C      -2.3387929357     2.9232904854     1.3824182026
   18      C      -2.0817929357     0.7812904854     0.0674182026
   19      C      -2.4117929357    -0.3667095146     0.7374182026
   20      C      -2.4047929357     0.8852904854    -1.2855817974
   21      C      -2.9707929357    -1.4347095146     0.0494182026
   22      C      -3.0027929357    -0.1597095146    -1.9595817974
   23      C      -3.3067929357    -1.3467095146    -1.3035817974
   24      O      -3.8797929357    -2.4117095146    -1.9745817974
   25      H      -0.7307929357     2.3932904854     0.0764182026
   26      H      -0.7687929357     1.4792904854     1.5694182026
   27      H      -2.9677929357     2.4442904854     2.1354182026
   28      H      -2.1897929357    -0.4627095146     1.7934182026
   29      H      -2.1727929357     1.7952904854    -1.8225817974
   30      H      -3.2197929357    -2.3297095146     0.6014182026
   31      H      -3.2337929357    -0.0647095146    -3.0105817974
   32      H      -3.9937929357    -3.1827095146    -1.4085817974
   33      H      -2.9372529357     3.4109804854     0.5988382026
   34      H      -1.7004429357     3.6851004854     1.8537382026
 ----------------------------------------------------------------
 Nuclear Repulsion Energy =         967.23310335 hartrees
 There are       58 alpha and       58 beta electrons
 Requested basis set is def2-TZVPD
 There are 299 shells and 757 basis functions

 Total QAlloc Memory Limit   2000 MB
 Mega-Array Size      1956 MB
 MEM_STATIC part      2000 MB

 Citation of the SMD model:
 Marenich, A.V.; Cramer, C.J.; Truhlar, D.G.
 J. Phys. Chem. B 2009, 113, 6378-6396.
 iSolventCode=           1
 Solvent: water                                                           

 vradii
            1           2           3           4           5           6
    1   1.8500000   1.8500000   1.8500000   1.8500000   1.8500000   1.8500000
            7           8           9          10          11          12
    1   1.8500000   1.2000000   1.2000000   1.2000000   1.2000000   1.2000000
           13          14          15          16          17          18
    1   1.2000000   1.2000000   1.2000000   1.8500000   1.8500000   1.8500000
           19          20          21          22          23          24
    1   1.8500000   1.8500000   1.8500000   1.8500000   1.8500000   1.5200000
           25          26          27          28          29          30
    1   1.2000000   1.2000000   1.2000000   1.2000000   1.2000000   1.2000000
           31          32          33          34
    1   1.2000000   1.2000000   1.2000000   1.2000000
 Changing PCM_VDW_RADII to SMD_RADIUS
 Discretize the solute cavity surface with Lebedev spheres
	Using 110 Lebedev grid points for each H atom
	Using 194 Lebedev grid points for other atoms
	Atomic van der Waals radii will be scaled by 1.20
 Remove points where switching function is < 1.0e-08
 Keep 2484 surface tesserae and discard 2600 interior tesserae
 Molecular Surface Area = 292.070 Angst**2
 A cutoff of  1.0D-14 yielded  36162 shell pairs
 There are    230972 function pairs (    290221 Cartesian)
 Smallest overlap matrix eigenvalue = 4.29E-07
 Linear dependence detected in AO basis
 Tighter screening thresholds may be required for diffuse basis sets
 Use S2THRESH > 14 and THRESH = 14 in case of SCF convergence issues
 Number of orthogonalized atomic orbitals = 753
 Maximum deviation from orthogonality = 4.746E-10

 Scale SEOQF with 1.000000e-02/1.000000e-01/1.000000e-01

 Standard Electronic Orientation quadrupole field applied
 Nucleus-field energy     =    -0.0000000011 hartrees

 -----------------------------------------------------------------------
  General SCF calculation program by
  Eric Jon Sundstrom, Paul Horn, Yuezhi Mao, Dmitri Zuev, Alec White,
  David Stuck, Shaama M.S., Shane Yost, Joonho Lee, David Small,
  Daniel Levine, Susi Lehtola, Hugh Burton, Evgeny Epifanovsky,
  Bang C. Huynh
 -----------------------------------------------------------------------
================================================================
                 ALMO-EDA with the EDA2 driver                  
================================================================
 The second-generation ALMO-EDA (for DFT):                      
 P. R. Horn, Y. Mao and M. Head-Gordon, PCCP, 18, 23067 (2016)  
 Decomposition of the frozen energy:                            
 P. R. Horn, Y. Mao and M. Head-Gordon, JCP, 144, 114107 (2016) 
 FERF model for polarization:                                   
 P. R. Horn and M. Head-Gordon, JCP, 143, 114111 (2015)         
Using eda2 option set 1
Option set summary: Frozen orbital wavefunction, initial wavefunction decomposition, and nDQ polarization.
--------------------------------
Printing EDA Options
--------------------------------
eda_child_super_basis      0
fragmo_guess_mode          0
child_mp                   1
child_mp_orders            232
cls_elec                   1
cls_disp                   0
scfmi_mode                 1
scfmi_occs                 0
scfmi_virts                0
frz_relax                  0
frz_relax_method           0
dc_pen_start               0
dc_pen_conv                0
dc_pen_increment           0
dc_pen_steps               0
dc_pen_thresh_factor       0
dc_pen_pre_newton_thresh   0
frz_ortho_decomp           1
frz_ortho_decomp_conv      6
frgm_method                2
scfmi_freeze_ss            0
separate_rehyb             0
plot_diff_den              0
eda_nocv                   0
eda_vct_relax              1
disp_free_x                0
disp_free_c                0
eda_bsse                   0
eda_pct_a                  0
eda_covp                   0
--------------------------------
Attempting to make child job directory: /home/meili/scratch/qchem58508//Frg1/
Attempting to make child job directory: /home/meili/scratch/qchem58508//Frg2/
Creating input file /home/meili/scratch/qchem58508/Frg1.input
using default PutDataFrgm: nothing
calling putenv with: QCSCRATCH=/home/meili/scratch/qchem58508/ 
Spawning Job For Fragment 0
                  Welcome to Q-Chem
     A Quantum Leap Into The Future Of Chemistry


 Q-Chem 5.2 (devel), Q-Chem, Inc., Pleasanton, CA (2019)

 Yihan Shao,  Zhengting Gan,  E. Epifanovsky,  A. T. B. Gilbert,  M. Wormit,  
 J. Kussmann,  A. W. Lange,  A. Behn,  Jia Deng,  Xintian Feng,  D. Ghosh,  
 M. Goldey,  P. R. Horn,  L. D. Jacobson,  I. Kaliman,  T. Kus,  A. Landau,  
 Jie Liu,  E. I. Proynov,  R. M. Richard,  R. P. Steele,  E. J. Sundstrom,  
 H. L. Woodcock III,  P. M. Zimmerman,  D. Zuev,  B. Albrecht,  E. Alguire,  
 S. A. Baeppler,  D. Barton,  Z. Benda,  Y. A. Bernard,  E. J. Berquist,  
 K. B. Bravaya,  H. Burton,  D. Casanova,  Chun-Min Chang,  Yunqing Chen,  
 A. Chien,  K. D. Closser,  M. P. Coons,  S. Coriani,  S. Dasgupta,  
 A. L. Dempwolff,  M. Diedenhofen,  Hainam Do,  R. G. Edgar,  Po-Tung Fang,  
 S. Faraji,  S. Fatehi,  Qingguo Feng,  K. D. Fenk,  J. Fosso-Tande,  
 J. Gayvert,  Qinghui Ge,  A. Ghysels,  G. Gidofalvi,  J. Gomes,  
 J. Gonthier,  A. Gunina,  D. Hait,  M. W. D. Hanson-Heine,  
 P. H. P. Harbach,  A. W. Hauser,  M. F. Herbst,  J. E. Herr,  
 E. G. Hohenstein,  Z. C. Holden,  Kerwin Hui,  B. C. Huynh,  T.-C. Jagau,  
 Hyunjun Ji,  B. Kaduk,  K. Khistyaev,  Jaehoon Kim,  P. Klunzinger,  K. Koh,  
 D. Kosenkov,  L. Koulias,  T. Kowalczyk,  C. M. Krauter,  A. Kunitsa,  
 Ka Un Lao,  A. Laurent,  K. V. Lawler,  Joonho Lee,  D. Lefrancois,  
 S. Lehtola,  D. S. Levine,  Yi-Pei Li,  You-Sheng Lin,  Fenglai Liu,  
 E. Livshits,  A. Luenser,  P. Manohar,  E. Mansoor,  S. F. Manzer,  
 Shan-Ping Mao,  Yuezhi Mao,  N. Mardirossian,  A. V. Marenich,  
 T. Markovich,  L. A. Martinez-Martinez,  S. A. Maurer,  N. J. Mayhall,  
 S. C. McKenzie,  J.-M. Mewes,  P. Morgante,  A. F. Morrison,  
 J. W. Mullinax,  K. Nanda,  T. S. Nguyen-Beck,  R. Olivares-Amaya,  
 J. A. Parkhill,  Zheng Pei,  T. M. Perrine,  F. Plasser,  P. Pokhilko,  
 S. Prager,  A. Prociuk,  E. Ramos,  D. R. Rehn,  F. Rob,  M. Scheurer,  
 M. Schneider,  N. Sergueev,  S. M. Sharada,  S. Sharma,  D. W. Small,  
 T. Stauch,  T. Stein,  Yu-Chuan Su,  A. J. W. Thom,  A. Tkatchenko,  
 T. Tsuchimochi,  N. M. Tubman,  L. Vogt,  M. L. Vidal,  O. Vydrov,  
 M. A. Watson,  J. Wenzel,  M. de Wergifosse,  T. A. Wesolowski,  A. White,  
 J. Witte,  A. Yamada,  Jun Yang,  K. Yao,  S. Yeganeh,  S. R. Yost,  
 Zhi-Qiang You,  A. Zech,  Igor Ying Zhang,  Xing Zhang,  Yan Zhao,  
 Ying Zhu,  B. R. Brooks,  G. K. L. Chan,  C. J. Cramer,  M. S. Gordon,  
 W. J. Hehre,  A. Klamt,  M. W. Schmidt,  C. D. Sherrill,  D. G. Truhlar,  
 A. Aspuru-Guzik,  R. Baer,  A. T. Bell,  N. A. Besley,  Jeng-Da Chai,  
 A. E. DePrince, III,  R. A. DiStasio Jr.,  A. Dreuw,  B. D. Dunietz,  
 T. R. Furlani,  Chao-Ping Hsu,  Yousung Jung,  Jing Kong,  D. S. Lambrecht,  
 WanZhen Liang,  C. Ochsenfeld,  V. A. Rassolov,  L. V. Slipchenko,  
 J. E. Subotnik,  T. Van Voorhis,  J. M. Herbert,  A. I. Krylov,  
 P. M. W. Gill,  M. Head-Gordon

 Contributors to earlier versions of Q-Chem not listed above: 
 R. D. Adamson,  B. Austin,  J. Baker,  G. J. O. Beran,  K. Brandhorst,  
 S. T. Brown,  E. F. C. Byrd,  A. K. Chakraborty,  C.-L. Cheng,  
 Siu Hung Chien,  D. M. Chipman,  D. L. Crittenden,  H. Dachsel,  
 R. J. Doerksen,  A. D. Dutoi,  L. Fusti-Molnar,  W. A. Goddard III,  
 A. Golubeva-Zadorozhnaya,  S. R. Gwaltney,  G. Hawkins,  A. Heyden,  
 S. Hirata,  G. Kedziora,  F. J. Keil,  C. Kelley,  Jihan Kim,  R. A. King,  
 R. Z. Khaliullin,  P. P. Korambath,  W. Kurlancheek,  A. M. Lee,  M. S. Lee,  
 S. V. Levchenko,  Ching Yeh Lin,  D. Liotard,  R. C. Lochan,  I. Lotan,  
 P. E. Maslen,  N. Nair,  D. P. O'Neill,  D. Neuhauser,  E. Neuscamman,  
 C. M. Oana,  R. Olson,  B. Peters,  R. Peverati,  P. A. Pieniazek,  
 Y. M. Rhee,  J. Ritchie,  M. A. Rohrdanz,  E. Rosta,  N. J. Russ,  
 H. F. Schaefer III,  N. E. Schultz,  N. Shenvi,  A. C. Simmonett,  A. Sodt,  
 D. Stuck,  K. S. Thanthiriwatte,  V. Vanovschi,  Tao Wang,  A. Warshel,  
 C. F. Williams,  Q. Wu,  X. Xu,  W. Zhang

 Please cite Q-Chem as follows:
 Y. Shao et al., Mol. Phys. 113, 184-215 (2015)
 DOI: 10.1080/00268976.2014.952696

 Q-Chem 5.2.1 for Intel X86 EM64T Linux

 Parts of Q-Chem use Armadillo 8.300.2 (Tropical Shenanigans).
 http://arma.sourceforge.net/

 Q-Chem begins on Tue Sep 28 10:15:00 2021  

compute-0-8.local
Host: 0

     Scratch files written to /home/meili/scratch/qchem58508//Frg1//
NAlpha2: 50
NElect   50
Mult     1
Symmetry turned off for PCM/SM12/SMD calculation

Checking the input file for inconsistencies... 	...done.

--------------------------------------------------------------
User input:
--------------------------------------------------------------
$molecule
0 1
 6	5.8952070643	-0.1577095146	1.2054182026
 6	1.7412070643	-0.0497095146	0.0064182026
 6	2.0642070643	-0.1317095146	1.3154182026
 6	2.7612070643	0.0142904854	-0.9335817974
 6	3.4182070643	-0.1887095146	1.7174182026
 6	4.0922070643	-0.0357095146	-0.5545817974
 6	4.4472070643	-0.1167095146	0.7784182026
 1	0.7062070643	-0.0247095146	-0.3055817974
 1	1.2802070643	-0.1807095146	2.0604182026
 1	2.5042070643	0.0822904854	-1.9795817974
 1	3.6552070643	-0.2877095146	2.7664182026
 1	4.8592070643	0.0052904854	-1.3155817974
 1	6.0532070643	0.6002904854	1.9724182026
 1	6.5082070643	0.1062904854	0.3484182026
 1	6.2345670643	-1.1318795146	1.5872882026
$end
$rem
EDA2		1
METHOD		WB97X-V
BASIS		DEF2-TZVPD
XC_GRID		000099000590
NL_GRID		1
UNRESTRICTED		FALSE
MAX_SCF_CYCLES		200
SYMMETRY		FALSE
SYM_IGNORE		TRUE
BASIS_LIN_DEP_THRESH		6
THRESH		14
SCF_CONVERGENCE		8
SCF_PRINT_FRGM		TRUE
SOLVENT_METHOD		SMD
!required keywords
JOBTYPE		SP
SYM_IGNORE		TRUE
SUBSYSTEM		TRUE
GEN_SCFMAN		TRUE
CHILD_INSTRUCTION		2
SYM_IGNORE		TRUE
SCFMI		0
RI_K 0		
PARI_K 0		
MIN_PARI_K 0		
IARI_K 0		
OCC_RI_K 0		
PURECART		1111
MEM_STATIC		2000
MEM_TOTAL		2000
GUI		0
CHILD_MP		1
CHILD_MP_ORDERS		232
FRZ_RELAX		0
FRZ_RELAX_METHOD		0
EDA_CLS_ELEC		1
EDA_CLS_DISP		0
FRZ_ORTHO_DECOMP		1
EDA2		FALSE
FRGM_METHOD		FALSE
CIS_N_ROOTS  0
LOCAL_CIS    0
CIS_RLX_DNS  1
$end
$smx
SOLVENT			WATER
$end
--------------------------------------------------------------
 ----------------------------------------------------------------
             Standard Nuclear Orientation (Angstroms)
    I     Atom           X                Y                Z
 ----------------------------------------------------------------
    1      C       5.8952070643    -0.1577095146     1.2054182026
    2      C       1.7412070643    -0.0497095146     0.0064182026
    3      C       2.0642070643    -0.1317095146     1.3154182026
    4      C       2.7612070643     0.0142904854    -0.9335817974
    5      C       3.4182070643    -0.1887095146     1.7174182026
    6      C       4.0922070643    -0.0357095146    -0.5545817974
    7      C       4.4472070643    -0.1167095146     0.7784182026
    8      H       0.7062070643    -0.0247095146    -0.3055817974
    9      H       1.2802070643    -0.1807095146     2.0604182026
   10      H       2.5042070643     0.0822904854    -1.9795817974
   11      H       3.6552070643    -0.2877095146     2.7664182026
   12      H       4.8592070643     0.0052904854    -1.3155817974
   13      H       6.0532070643     0.6002904854     1.9724182026
   14      H       6.5082070643     0.1062904854     0.3484182026
   15      H       6.2345670643    -1.1318795146     1.5872882026
 ----------------------------------------------------------------
 Nuclear Repulsion Energy =         270.52048659 hartrees
 There are       25 alpha and       25 beta electrons
 Requested basis set is def2-TZVPD
 There are 131 shells and 331 basis functions

 Total QAlloc Memory Limit   2000 MB
 Mega-Array Size      1956 MB
 MEM_STATIC part      2000 MB

 Citation of the SMD model:
 Marenich, A.V.; Cramer, C.J.; Truhlar, D.G.
 J. Phys. Chem. B 2009, 113, 6378-6396.
 iSolventCode=           1
 Solvent: water                                                           

 vradii
            1           2           3           4           5           6
    1   1.8500000   1.8500000   1.8500000   1.8500000   1.8500000   1.8500000
            7           8           9          10          11          12
    1   1.8500000   1.2000000   1.2000000   1.2000000   1.2000000   1.2000000
           13          14          15
    1   1.2000000   1.2000000   1.2000000
 Changing PCM_VDW_RADII to SMD_RADIUS
 Discretize the solute cavity surface with Lebedev spheres
	Using 110 Lebedev grid points for each H atom
	Using 194 Lebedev grid points for other atoms
	Atomic van der Waals radii will be scaled by 1.20
 Remove points where switching function is < 1.0e-08
 Keep 1101 surface tesserae and discard 1137 interior tesserae
 Molecular Surface Area = 131.843 Angst**2

                       Distance Matrix (Angstroms)
             C (  1)   C (  2)   C (  3)   C (  4)   C (  5)   C (  6)
   C (  2)  4.324926
   C (  3)  3.832667  1.350753
   C (  4)  3.798271  1.388559  2.359052
   C (  5)  2.529552  2.399827  1.413566  2.738733
   C (  6)  2.522557  2.417047  2.760235  1.384811  2.374799
   C (  7)  1.510203  2.814766  2.442802  2.406388  1.394900  1.381838
   H (  8)  5.406157  1.081293  2.117370  2.149170  3.387384  3.395161
   H (  9)  4.693589  2.109170  1.082627  3.345956  2.165354  3.842733
   H ( 10)  4.658402  2.131617  3.331129  1.079254  3.817937  2.136889
   H ( 11)  2.733353  3.367141  2.158939  3.818434  1.079987  3.359094
   H ( 12)  2.730441  3.387128  3.840958  2.132512  3.363511  1.081245
   H ( 13)  1.089870  4.783409  4.108478  4.430067  2.762385  3.261249
   H ( 14)  1.086238  4.781798  4.554214  3.961313  3.392534  2.583143
   H ( 15)  1.099999  4.884724  4.297227  4.442153  2.972943  3.221630
             C (  7)   H (  8)   H (  9)   H ( 10)   H ( 11)   H ( 12)
   H (  8)  3.895972
   H (  9)  3.417237  2.439625
   H ( 10)  3.379558  2.458969  4.229532
   H ( 11)  2.146776  4.266492  2.480022  4.897573
   H ( 12)  2.137630  4.274156  4.923537  2.448030  4.265934
   H ( 13)  2.125785  5.845538  4.837275  5.336856  2.677571  3.548324
   H ( 14)  2.117156  5.840212  5.508657  4.631649  3.760528  2.344845
   H ( 15)  2.208958  5.947398  5.066977  5.302109  2.959065  3.407554
             H ( 13)   H ( 14)
   H ( 14)  1.757395
   H ( 15)  1.783712  1.772778

 A cutoff of  1.0D-14 yielded   8360 shell pairs
 There are     54504 function pairs (     69458 Cartesian)
 Smallest overlap matrix eigenvalue = 5.43E-07
 Linear dependence detected in AO basis
 Tighter screening thresholds may be required for diffuse basis sets
 Use S2THRESH > 14 and THRESH = 14 in case of SCF convergence issues
 Number of orthogonalized atomic orbitals = 330
 Maximum deviation from orthogonality = 1.416E-10

 Scale SEOQF with 1.000000e-02/1.000000e-01/1.000000e-01

 Standard Electronic Orientation quadrupole field applied
 Nucleus-field energy     =    -0.0000000048 hartrees
 Guess from superposition of atomic densities
 Warning:  Energy on first SCF cycle will be non-variational
 SAD guess density has 50.000000 electrons

 -----------------------------------------------------------------------
  General SCF calculation program by
  Eric Jon Sundstrom, Paul Horn, Yuezhi Mao, Dmitri Zuev, Alec White,
  David Stuck, Shaama M.S., Shane Yost, Joonho Lee, David Small,
  Daniel Levine, Susi Lehtola, Hugh Burton, Evgeny Epifanovsky,
  Bang C. Huynh
 -----------------------------------------------------------------------
 Exchange:     0.1670 Hartree-Fock + 1.0000 wB97X-V + LR-HF
 Correlation:  1.0000 wB97X-V
 Using Euler-Maclaurin-Lebedev (99,590) quadrature formula
 Nonlocal Correlation:  VV10 with C = 0.0100 and b = 6.00 and scale = 1.00000
 Grid used for NLC:  SG-1 standard quadrature
Energy prior to optimization (guess energy) = -271.523954128652
Begin Timing: Total SCF Calculation
begin iterations for algorithm: DIIS         
the SCF tolerance is set to 1.00e-08
    1    -271.5239541287      1.87e-03     00000 
    2    -271.5620874109      1.19e-03     00000 
    3    -271.5827761195      1.57e-04     00000 
    4    -271.5834444995      5.11e-05     00000 
    5    -271.5834958902      2.75e-05     00000 
    6    -271.5835081250      6.07e-06     00000 
    7    -271.5835089834      2.40e-06     00000 
    8    -271.5835090829      3.53e-07     00000 
    9    -271.5835090882      9.58e-08     00000 
   10    -271.5835090885      4.01e-08     00000 
   11    -271.5835090886      2.04e-08     00000 
   12    -271.5835090886      6.11e-09     00000 Convergence criterion met
Timing for Total SCF: 527.00s (wall), 3258.47s (cpu)
(3)  G-ENP(liq) elect-nuc-pol free energy of system     -271.583509089 a.u.
(4)  G-CDS(liq) cavity-dispersion-solvent structure 
     free energy                                                3.1452 kcal/mol
(6)  G-S(liq) free energy of system                     -271.578496857 a.u.
E_pcm = -0.0072826412
E_cds = 0.0050122318
Multipole orders to be included
        2
        3
computing dipole RHS
computing quadrupole RHS
total number of RHS in solve_reponses: 8
RHS batch sizes
        8
Beginning Block Conjugate Gradient Iterations. Batch Number: 0
computing hessian-vector products by finite difference
              1      6.29e-01     00000 Conjugate Gradient Iteration
computing hessian-vector products by finite difference
              2      1.98e-01     00000 Conjugate Gradient Iteration
computing hessian-vector products by finite difference
              3      4.70e-02     00000 Conjugate Gradient Iteration
computing hessian-vector products by finite difference
              4      1.17e-02     00000 Conjugate Gradient Iteration
computing hessian-vector products by finite difference
              5      2.34e-03     00000 Conjugate Gradient Iteration
computing hessian-vector products by finite difference
              6      7.19e-04     00000 Conjugate Gradient Iteration
computing hessian-vector products by finite difference
              7      1.74e-04     00000 Conjugate Gradient Iteration
computing hessian-vector products by finite difference
              8      2.90e-05     00000 Conjugate Gradient Iteration
computing hessian-vector products by finite difference
              9      3.93e-06     00000 Conjugate Gradient Iteration
computing hessian-vector products by finite difference
             10      5.19e-07     00000 Conjugate Gradient Iteration
computing hessian-vector products by finite difference
             11      7.10e-08     00000 Conjugate Gradient Iteration
computing hessian-vector products by finite difference
             12      1.07e-08     00000 Conjugate Gradient Iteration
computing hessian-vector products by finite difference
             13      3.15e-09     00000 CG Converged
batch 0 complete
Done Calculating Responses
TESTING ORTHOGONALIZATION OF MULTIPOLE BASIS
Multipole virts passed orthogonality test
Virts Per Order
           75
          125

 --------------------------------------------------------------

                    Orbital Energies (a.u.)
 --------------------------------------------------------------

 Alpha MOs
 -- Occupied --
-10.2767 -10.2654 -10.2650 -10.2648 -10.2621 -10.2599 -10.2541  -0.9962
 -0.9053  -0.8719  -0.8096  -0.7268  -0.6991  -0.6263  -0.5699  -0.5583
 -0.5289  -0.5205  -0.5108  -0.4813  -0.4722  -0.4360  -0.4324  -0.3461
 -0.3369
 -- Virtual --
  0.0653   0.0680   0.0770   0.0844   0.0900   0.1095   0.1158   0.1182
  0.1399   0.1592   0.1698   0.1768   0.1884   0.1945   0.2005   0.2060
  0.2274   0.2328   0.2400   0.2465   0.2506   0.2625   0.2657   0.2747
  0.2856   0.2865   0.2899   0.2980   0.3027   0.3053   0.3083   0.3163
  0.3245   0.3313   0.3341   0.3441   0.3554   0.3580   0.3707   0.3795
  0.3807   0.3877   0.3915   0.3951   0.3980   0.4043   0.4081   0.4090
  0.4197   0.4325   0.4369   0.4423   0.4451   0.4526   0.4569   0.4612
  0.4745   0.4771   0.4796   0.4908   0.4956   0.5052   0.5170   0.5200
  0.5221   0.5300   0.5374   0.5482   0.5510   0.5570   0.5597   0.5713
  0.5775   0.5860   0.5953   0.5992   0.6019   0.6300   0.6406   0.6481
  0.6726   0.6770   0.6812   0.6877   0.6918   0.7092   0.7214   0.7304
  0.7326   0.7386   0.7488   0.7664   0.7710   0.7748   0.7784   0.7860
  0.7958   0.8010   0.8021   0.8078   0.8151   0.8270   0.8320   0.8345
  0.8411   0.8448   0.8541   0.8642   0.8693   0.8726   0.8878   0.9006
  0.9175   0.9312   0.9389   0.9446   0.9620   1.0169   1.0382   1.0451
  1.0587   1.0632   1.0738   1.0812   1.0932   1.1032   1.1089   1.1479
  1.1657   1.1741   1.2674   1.2759   1.3091   1.3318   1.3625   1.3677
  1.3837   1.4476   1.4564   1.4671   1.4752   1.4800   1.5384   1.5509
  1.6120   1.6207   1.6281   1.6355   1.6607   1.6953   1.7428   1.7836
  1.7957   1.8056   1.8093   1.8168   1.8430   1.8581   1.8742   1.9161
  1.9219   1.9364   1.9412   1.9763   1.9923   1.9954   2.0163   2.0353
  2.0440   2.0498   2.0797   2.0992   2.1159   2.1284   2.1780   2.1907
  2.2134   2.2348   2.2509   2.2826   2.2911   2.3193   2.3886   2.3983
  2.4207   2.4272   2.4746   2.5211   2.5500   2.5617   2.5700   2.6071
  2.6351   2.6521   2.6721   2.6831   2.7064   2.7202   2.7780   2.7847
  2.7958   2.8149   2.8258   2.8599   2.8803   2.9025   2.9128   2.9242
  2.9449   2.9482   2.9822   2.9949   3.0125   3.0156   3.0267   3.0513
  3.0673   3.0963   3.1120   3.1262   3.1680   3.1946   3.1990   3.2173
  3.2283   3.2552   3.2865   3.2990   3.3581   3.3590   3.3606   3.3829
  3.4179   3.4390   3.4475   3.4537   3.4619   3.4836   3.4972   3.5084
  3.5142   3.5418   3.5509   3.5588   3.5680   3.5847   3.5907   3.6227
  3.6390   3.6438   3.6706   3.7110   3.7320   3.7590   3.7848   3.8155
  3.8716   3.9097   3.9245   3.9574   3.9706   3.9899   4.0549   4.0661
  4.1374   4.2127   4.2746   4.2966   4.3011   4.3213   4.3322   4.3608
  4.3694   4.3882   4.4189   4.4215   4.4471   4.4769   4.5087   4.5572
  4.6165   4.6212   4.7684   4.7989   4.8383   4.8685   4.9252   4.9490
  5.0386   5.0556   5.1843   5.2781   5.4004   5.4196   5.5020   5.5378
  5.6892   5.8542  22.5841  22.6817  22.8901  22.9547  23.0363  23.1355
 23.4621
 --------------------------------------------------------------

          Ground-State Mulliken Net Atomic Charges

     Atom                 Charge (a.u.)
  ----------------------------------------
      1 C                    -1.063356
      2 C                    -0.576342
      3 C                    -0.514970
      4 C                    -0.526329
      5 C                    -0.339903
      6 C                    -0.435038
      7 C                     0.753883
      8 H                     0.394275
      9 H                     0.366823
     10 H                     0.367542
     11 H                     0.406062
     12 H                     0.359141
     13 H                     0.260439
     14 H                     0.294713
     15 H                     0.253059
  ----------------------------------------
  Sum of atomic charges =     0.000000

 -----------------------------------------------------------------
                    Cartesian Multipole Moments
 -----------------------------------------------------------------
    Charge (ESU x 10^10)
                 0.0000
    Dipole Moment (Debye)
         X       0.4929      Y      -0.0392      Z       0.1422
       Tot       0.5145
    Quadrupole Moments (Debye-Ang)
        XX     -33.5200     XY      -0.3148     YY     -46.3064
        XZ       0.9606     YZ      -0.6686     ZZ     -37.7370
    Octopole Moments (Debye-Ang^2)
       XXX    -382.5048    XXY       1.5153    XYY    -160.9283
       YYY      12.6643    XXZ     -15.0823    XYZ      -2.4072
       YYZ     -22.5539    XZZ    -135.0479    YZZ       3.3314
       ZZZ     -61.0760
    Hexadecapole Moments (Debye-Ang^3)
      XXXX   -3383.1189   XXXY      30.1875   XXYY    -675.9033
      XYYY      47.5165   YYYY     -65.6074   XXXZ    -238.6741
      XXYZ      -6.0750   XYYZ     -90.3437   YYYZ      16.4865
      XXZZ    -637.1916   XYZZ      14.1335   YYZZ     -81.6927
      XZZZ    -260.5160   YZZZ      12.6359   ZZZZ    -363.9687
 -----------------------------------------------------------------
Archival summary:
1\1\compute-0-8.local\SP\ProcedureUnspecified\BasisUnspecified\78\meili\TueSep2813:11:482021TueSep2813:11:482021\0\\#,ProcedureUnspecified,BasisUnspecified,\\0,1\C\C,1,1.38184\H,2,1.08125,1,119.929\C,2,1.38481,1,120.867,3,-179.022,0\H,4,1.07925,2,119.762,1,179.7,0\C,4,1.38856,2,121.271,1,-1.67413,0\H,6,1.08129,4,120.446,2,-179.062,0\C,6,1.35075,4,118.893,2,1.51294,0\H,8,1.08263,6,119.765,4,179.901,0\C,1,1.3949,2,117.573,3,-178.989,0\H,10,1.07999,1,119.782,2,177.879,0\C,1,1.5102,2,121.377,3,-0.347765,0\H,12,1.08624,1,108.145,2,12.3646,0\H,12,1.08987,1,108.609,2,129.001,0\H,12,1.1,1,114.708,2,-108.681,0\\\@

 Total job time:  10607.73s(wall), 64684.83s(cpu) 
 Tue Sep 28 13:11:48 2021

        *************************************************************
        *                                                           *
        *  Thank you very much for using Q-Chem.  Have a nice day.  *
        *                                                           *
        *************************************************************


Done Job For Fragment 0
calling putenv with: QCSCRATCH=/home/meili/scratch 
calling putenv with: QCTHREADS=8 
Creating input file /home/meili/scratch/qchem58508/Frg2.input
using default PutDataFrgm: nothing
calling putenv with: QCSCRATCH=/home/meili/scratch/qchem58508/ 
Spawning Job For Fragment 1
                  Welcome to Q-Chem
     A Quantum Leap Into The Future Of Chemistry


 Q-Chem 5.2 (devel), Q-Chem, Inc., Pleasanton, CA (2019)

 Yihan Shao,  Zhengting Gan,  E. Epifanovsky,  A. T. B. Gilbert,  M. Wormit,  
 J. Kussmann,  A. W. Lange,  A. Behn,  Jia Deng,  Xintian Feng,  D. Ghosh,  
 M. Goldey,  P. R. Horn,  L. D. Jacobson,  I. Kaliman,  T. Kus,  A. Landau,  
 Jie Liu,  E. I. Proynov,  R. M. Richard,  R. P. Steele,  E. J. Sundstrom,  
 H. L. Woodcock III,  P. M. Zimmerman,  D. Zuev,  B. Albrecht,  E. Alguire,  
 S. A. Baeppler,  D. Barton,  Z. Benda,  Y. A. Bernard,  E. J. Berquist,  
 K. B. Bravaya,  H. Burton,  D. Casanova,  Chun-Min Chang,  Yunqing Chen,  
 A. Chien,  K. D. Closser,  M. P. Coons,  S. Coriani,  S. Dasgupta,  
 A. L. Dempwolff,  M. Diedenhofen,  Hainam Do,  R. G. Edgar,  Po-Tung Fang,  
 S. Faraji,  S. Fatehi,  Qingguo Feng,  K. D. Fenk,  J. Fosso-Tande,  
 J. Gayvert,  Qinghui Ge,  A. Ghysels,  G. Gidofalvi,  J. Gomes,  
 J. Gonthier,  A. Gunina,  D. Hait,  M. W. D. Hanson-Heine,  
 P. H. P. Harbach,  A. W. Hauser,  M. F. Herbst,  J. E. Herr,  
 E. G. Hohenstein,  Z. C. Holden,  Kerwin Hui,  B. C. Huynh,  T.-C. Jagau,  
 Hyunjun Ji,  B. Kaduk,  K. Khistyaev,  Jaehoon Kim,  P. Klunzinger,  K. Koh,  
 D. Kosenkov,  L. Koulias,  T. Kowalczyk,  C. M. Krauter,  A. Kunitsa,  
 Ka Un Lao,  A. Laurent,  K. V. Lawler,  Joonho Lee,  D. Lefrancois,  
 S. Lehtola,  D. S. Levine,  Yi-Pei Li,  You-Sheng Lin,  Fenglai Liu,  
 E. Livshits,  A. Luenser,  P. Manohar,  E. Mansoor,  S. F. Manzer,  
 Shan-Ping Mao,  Yuezhi Mao,  N. Mardirossian,  A. V. Marenich,  
 T. Markovich,  L. A. Martinez-Martinez,  S. A. Maurer,  N. J. Mayhall,  
 S. C. McKenzie,  J.-M. Mewes,  P. Morgante,  A. F. Morrison,  
 J. W. Mullinax,  K. Nanda,  T. S. Nguyen-Beck,  R. Olivares-Amaya,  
 J. A. Parkhill,  Zheng Pei,  T. M. Perrine,  F. Plasser,  P. Pokhilko,  
 S. Prager,  A. Prociuk,  E. Ramos,  D. R. Rehn,  F. Rob,  M. Scheurer,  
 M. Schneider,  N. Sergueev,  S. M. Sharada,  S. Sharma,  D. W. Small,  
 T. Stauch,  T. Stein,  Yu-Chuan Su,  A. J. W. Thom,  A. Tkatchenko,  
 T. Tsuchimochi,  N. M. Tubman,  L. Vogt,  M. L. Vidal,  O. Vydrov,  
 M. A. Watson,  J. Wenzel,  M. de Wergifosse,  T. A. Wesolowski,  A. White,  
 J. Witte,  A. Yamada,  Jun Yang,  K. Yao,  S. Yeganeh,  S. R. Yost,  
 Zhi-Qiang You,  A. Zech,  Igor Ying Zhang,  Xing Zhang,  Yan Zhao,  
 Ying Zhu,  B. R. Brooks,  G. K. L. Chan,  C. J. Cramer,  M. S. Gordon,  
 W. J. Hehre,  A. Klamt,  M. W. Schmidt,  C. D. Sherrill,  D. G. Truhlar,  
 A. Aspuru-Guzik,  R. Baer,  A. T. Bell,  N. A. Besley,  Jeng-Da Chai,  
 A. E. DePrince, III,  R. A. DiStasio Jr.,  A. Dreuw,  B. D. Dunietz,  
 T. R. Furlani,  Chao-Ping Hsu,  Yousung Jung,  Jing Kong,  D. S. Lambrecht,  
 WanZhen Liang,  C. Ochsenfeld,  V. A. Rassolov,  L. V. Slipchenko,  
 J. E. Subotnik,  T. Van Voorhis,  J. M. Herbert,  A. I. Krylov,  
 P. M. W. Gill,  M. Head-Gordon

 Contributors to earlier versions of Q-Chem not listed above: 
 R. D. Adamson,  B. Austin,  J. Baker,  G. J. O. Beran,  K. Brandhorst,  
 S. T. Brown,  E. F. C. Byrd,  A. K. Chakraborty,  C.-L. Cheng,  
 Siu Hung Chien,  D. M. Chipman,  D. L. Crittenden,  H. Dachsel,  
 R. J. Doerksen,  A. D. Dutoi,  L. Fusti-Molnar,  W. A. Goddard III,  
 A. Golubeva-Zadorozhnaya,  S. R. Gwaltney,  G. Hawkins,  A. Heyden,  
 S. Hirata,  G. Kedziora,  F. J. Keil,  C. Kelley,  Jihan Kim,  R. A. King,  
 R. Z. Khaliullin,  P. P. Korambath,  W. Kurlancheek,  A. M. Lee,  M. S. Lee,  
 S. V. Levchenko,  Ching Yeh Lin,  D. Liotard,  R. C. Lochan,  I. Lotan,  
 P. E. Maslen,  N. Nair,  D. P. O'Neill,  D. Neuhauser,  E. Neuscamman,  
 C. M. Oana,  R. Olson,  B. Peters,  R. Peverati,  P. A. Pieniazek,  
 Y. M. Rhee,  J. Ritchie,  M. A. Rohrdanz,  E. Rosta,  N. J. Russ,  
 H. F. Schaefer III,  N. E. Schultz,  N. Shenvi,  A. C. Simmonett,  A. Sodt,  
 D. Stuck,  K. S. Thanthiriwatte,  V. Vanovschi,  Tao Wang,  A. Warshel,  
 C. F. Williams,  Q. Wu,  X. Xu,  W. Zhang

 Please cite Q-Chem as follows:
 Y. Shao et al., Mol. Phys. 113, 184-215 (2015)
 DOI: 10.1080/00268976.2014.952696

 Q-Chem 5.2.1 for Intel X86 EM64T Linux

 Parts of Q-Chem use Armadillo 8.300.2 (Tropical Shenanigans).
 http://arma.sourceforge.net/

 Q-Chem begins on Tue Sep 28 13:11:48 2021  

compute-0-8.local
Host: 0

     Scratch files written to /home/meili/scratch/qchem58508//Frg2//
NAlpha2: 66
NElect   66
Mult     1
Symmetry turned off for PCM/SM12/SMD calculation

Checking the input file for inconsistencies... 	...done.

--------------------------------------------------------------
User input:
--------------------------------------------------------------
$molecule
0 1
 6	-1.3927929357	1.8982904854	0.7774182026
 6	-2.3387929357	2.9232904854	1.3824182026
 6	-2.0817929357	0.7812904854	0.0674182026
 6	-2.4117929357	-0.3667095146	0.7374182026
 6	-2.4047929357	0.8852904854	-1.2855817974
 6	-2.9707929357	-1.4347095146	0.0494182026
 6	-3.0027929357	-0.1597095146	-1.9595817974
 6	-3.3067929357	-1.3467095146	-1.3035817974
 8	-3.8797929357	-2.4117095146	-1.9745817974
 1	-0.7307929357	2.3932904854	0.0764182026
 1	-0.7687929357	1.4792904854	1.5694182026
 1	-2.9677929357	2.4442904854	2.1354182026
 1	-2.1897929357	-0.4627095146	1.7934182026
 1	-2.1727929357	1.7952904854	-1.8225817974
 1	-3.2197929357	-2.3297095146	0.6014182026
 1	-3.2337929357	-0.0647095146	-3.0105817974
 1	-3.9937929357	-3.1827095146	-1.4085817974
 1	-2.9372529357	3.4109804854	0.5988382026
 1	-1.7004429357	3.6851004854	1.8537382026
$end
$rem
EDA2		1
METHOD		WB97X-V
BASIS		DEF2-TZVPD
XC_GRID		000099000590
NL_GRID		1
UNRESTRICTED		FALSE
MAX_SCF_CYCLES		200
SYMMETRY		FALSE
SYM_IGNORE		TRUE
BASIS_LIN_DEP_THRESH		6
THRESH		14
SCF_CONVERGENCE		8
SCF_PRINT_FRGM		TRUE
SOLVENT_METHOD		SMD
!required keywords
JOBTYPE		SP
SYM_IGNORE		TRUE
SUBSYSTEM		TRUE
GEN_SCFMAN		TRUE
CHILD_INSTRUCTION		2
SYM_IGNORE		TRUE
SCFMI		0
RI_K 0		
PARI_K 0		
MIN_PARI_K 0		
IARI_K 0		
OCC_RI_K 0		
PURECART		1111
MEM_STATIC		2000
MEM_TOTAL		2000
GUI		0
CHILD_MP		1
CHILD_MP_ORDERS		232
FRZ_RELAX		0
FRZ_RELAX_METHOD		0
EDA_CLS_ELEC		1
EDA_CLS_DISP		0
FRZ_ORTHO_DECOMP		1
EDA2		FALSE
FRGM_METHOD		FALSE
CIS_N_ROOTS  0
LOCAL_CIS    0
CIS_RLX_DNS  1
$end
$smx
SOLVENT			WATER
$end
--------------------------------------------------------------
 ----------------------------------------------------------------
             Standard Nuclear Orientation (Angstroms)
    I     Atom           X                Y                Z
 ----------------------------------------------------------------
    1      C      -1.3927929357     1.8982904854     0.7774182026
    2      C      -2.3387929357     2.9232904854     1.3824182026
    3      C      -2.0817929357     0.7812904854     0.0674182026
    4      C      -2.4117929357    -0.3667095146     0.7374182026
    5      C      -2.4047929357     0.8852904854    -1.2855817974
    6      C      -2.9707929357    -1.4347095146     0.0494182026
    7      C      -3.0027929357    -0.1597095146    -1.9595817974
    8      C      -3.3067929357    -1.3467095146    -1.3035817974
    9      O      -3.8797929357    -2.4117095146    -1.9745817974
   10      H      -0.7307929357     2.3932904854     0.0764182026
   11      H      -0.7687929357     1.4792904854     1.5694182026
   12      H      -2.9677929357     2.4442904854     2.1354182026
   13      H      -2.1897929357    -0.4627095146     1.7934182026
   14      H      -2.1727929357     1.7952904854    -1.8225817974
   15      H      -3.2197929357    -2.3297095146     0.6014182026
   16      H      -3.2337929357    -0.0647095146    -3.0105817974
   17      H      -3.9937929357    -3.1827095146    -1.4085817974
   18      H      -2.9372529357     3.4109804854     0.5988382026
   19      H      -1.7004429357     3.6851004854     1.8537382026
 ----------------------------------------------------------------
 Nuclear Repulsion Energy =         419.68849160 hartrees
 There are       33 alpha and       33 beta electrons
 Requested basis set is def2-TZVPD
 There are 168 shells and 426 basis functions

 Total QAlloc Memory Limit   2000 MB
 Mega-Array Size      1956 MB
 MEM_STATIC part      2000 MB

 Citation of the SMD model:
 Marenich, A.V.; Cramer, C.J.; Truhlar, D.G.
 J. Phys. Chem. B 2009, 113, 6378-6396.
 iSolventCode=           1
 Solvent: water                                                           

 vradii
            1           2           3           4           5           6
    1   1.8500000   1.8500000   1.8500000   1.8500000   1.8500000   1.8500000
            7           8           9          10          11          12
    1   1.8500000   1.8500000   1.5200000   1.2000000   1.2000000   1.2000000
           13          14          15          16          17          18
    1   1.2000000   1.2000000   1.2000000   1.2000000   1.2000000   1.2000000
           19
    1   1.2000000
 Changing PCM_VDW_RADII to SMD_RADIUS
 Discretize the solute cavity surface with Lebedev spheres
	Using 110 Lebedev grid points for each H atom
	Using 194 Lebedev grid points for other atoms
	Atomic van der Waals radii will be scaled by 1.20
 Remove points where switching function is < 1.0e-08
 Keep 1383 surface tesserae and discard 1463 interior tesserae
 Molecular Surface Area = 161.715 Angst**2
 A cutoff of  1.0D-14 yielded  13235 shell pairs
 There are     86553 function pairs (    109977 Cartesian)
 Smallest overlap matrix eigenvalue = 5.31E-07
 Linear dependence detected in AO basis
 Tighter screening thresholds may be required for diffuse basis sets
 Use S2THRESH > 14 and THRESH = 14 in case of SCF convergence issues
 Number of orthogonalized atomic orbitals = 425
 Maximum deviation from orthogonality = 2.118E-10

 Scale SEOQF with 1.000000e-01/1.000000e-01/1.000000e-01

 Standard Electronic Orientation quadrupole field applied
 Nucleus-field energy     =     0.0000000199 hartrees
 Guess from superposition of atomic densities
 Warning:  Energy on first SCF cycle will be non-variational
 SAD guess density has 66.000000 electrons

 -----------------------------------------------------------------------
  General SCF calculation program by
  Eric Jon Sundstrom, Paul Horn, Yuezhi Mao, Dmitri Zuev, Alec White,
  David Stuck, Shaama M.S., Shane Yost, Joonho Lee, David Small,
  Daniel Levine, Susi Lehtola, Hugh Burton, Evgeny Epifanovsky,
  Bang C. Huynh
 -----------------------------------------------------------------------
 Exchange:     0.1670 Hartree-Fock + 1.0000 wB97X-V + LR-HF
 Correlation:  1.0000 wB97X-V
 Using Euler-Maclaurin-Lebedev (99,590) quadrature formula
 Nonlocal Correlation:  VV10 with C = 0.0100 and b = 6.00 and scale = 1.00000
 Grid used for NLC:  SG-1 standard quadrature
Energy prior to optimization (guess energy) = -386.036264059032
Begin Timing: Total SCF Calculation
begin iterations for algorithm: DIIS         
the SCF tolerance is set to 1.00e-08
    1    -386.0362640590      2.02e-03     00000 
    2    -386.0926037455      1.59e-03     00000 
    3    -386.1384982413      2.76e-04     00000 
    4    -386.1403886806      1.24e-04     00000 
    5    -386.1408278737      3.57e-05     00000 
    6    -386.1408644197      1.18e-05     00000 
    7    -386.1408687215      5.27e-06     00000 
    8    -386.1408696379      1.22e-06     00000 
    9    -386.1408697424      5.68e-07     00000 
   10    -386.1408697626      2.56e-07     00000 
   11    -386.1408697672      6.41e-08     00000 
   12    -386.1408697676      2.80e-08     00000 
   13    -386.1408697676      7.17e-09     00000 Convergence criterion met
Timing for Total SCF: 1294.00s (wall), 8116.85s (cpu)
(3)  G-ENP(liq) elect-nuc-pol free energy of system     -386.140869768 a.u.
(4)  G-CDS(liq) cavity-dispersion-solvent structure 
     free energy                                                3.9353 kcal/mol
(6)  G-S(liq) free energy of system                     -386.134598540 a.u.
E_pcm = -0.0175176081
E_cds = 0.0062712275
Multipole orders to be included
        2
        3
computing dipole RHS
computing quadrupole RHS
total number of RHS in solve_reponses: 8
RHS batch sizes
        8
Beginning Block Conjugate Gradient Iterations. Batch Number: 0
computing hessian-vector products by finite difference
              1      6.25e-01     00000 Conjugate Gradient Iteration
computing hessian-vector products by finite difference
              2      1.94e-01     00000 Conjugate Gradient Iteration
computing hessian-vector products by finite difference
              3      5.13e-02     00000 Conjugate Gradient Iteration
computing hessian-vector products by finite difference
              4      1.48e-02     00000 Conjugate Gradient Iteration
computing hessian-vector products by finite difference
              5      3.78e-03     00000 Conjugate Gradient Iteration
computing hessian-vector products by finite difference
              6      1.47e-03     00000 Conjugate Gradient Iteration
computing hessian-vector products by finite difference
              7      3.54e-04     00000 Conjugate Gradient Iteration
computing hessian-vector products by finite difference
              8      7.40e-05     00000 Conjugate Gradient Iteration
computing hessian-vector products by finite difference
              9      1.46e-05     00000 Conjugate Gradient Iteration
computing hessian-vector products by finite difference
             10      2.34e-06     00000 Conjugate Gradient Iteration
computing hessian-vector products by finite difference
             11      3.59e-07     00000 Conjugate Gradient Iteration
computing hessian-vector products by finite difference
             12      6.43e-08     00000 Conjugate Gradient Iteration
computing hessian-vector products by finite difference
             13      1.15e-08     00000 Conjugate Gradient Iteration
computing hessian-vector products by finite difference
             14      2.52e-09     00000 CG Converged
batch 0 complete
Done Calculating Responses
TESTING ORTHOGONALIZATION OF MULTIPOLE BASIS
Multipole virts passed orthogonality test
Virts Per Order
           99
          165

 --------------------------------------------------------------

                    Orbital Energies (a.u.)
 --------------------------------------------------------------

 Alpha MOs
 -- Occupied --
-19.2410 -10.3324 -10.2666 -10.2655 -10.2649 -10.2641 -10.2633 -10.2535
-10.2490  -1.1828  -0.9963  -0.9164  -0.8795  -0.8465  -0.7554  -0.7373
 -0.6982  -0.6599  -0.6017  -0.5806  -0.5479  -0.5391  -0.5304  -0.5224
 -0.5108  -0.4924  -0.4788  -0.4451  -0.4373  -0.4278  -0.4256  -0.3497
 -0.3114
 -- Virtual --
  0.0628   0.0675   0.0732   0.0823   0.0880   0.0947   0.1033   0.1139
  0.1145   0.1195   0.1336   0.1486   0.1579   0.1659   0.1730   0.1832
  0.1923   0.1934   0.2004   0.2060   0.2162   0.2222   0.2346   0.2372
  0.2453   0.2516   0.2574   0.2683   0.2749   0.2774   0.2831   0.2896
  0.2980   0.3004   0.3027   0.3082   0.3106   0.3123   0.3199   0.3265
  0.3322   0.3387   0.3489   0.3521   0.3580   0.3582   0.3644   0.3691
  0.3714   0.3739   0.3761   0.3777   0.3830   0.3881   0.3930   0.4021
  0.4028   0.4117   0.4167   0.4221   0.4274   0.4361   0.4421   0.4440
  0.4540   0.4607   0.4609   0.4677   0.4752   0.4783   0.4847   0.4867
  0.4932   0.4964   0.5010   0.5026   0.5055   0.5160   0.5187   0.5279
  0.5303   0.5350   0.5427   0.5498   0.5575   0.5614   0.5763   0.5805
  0.5839   0.5925   0.5963   0.6016   0.6056   0.6154   0.6256   0.6265
  0.6395   0.6554   0.6603   0.6688   0.6727   0.6785   0.6886   0.6952
  0.7064   0.7073   0.7136   0.7186   0.7215   0.7227   0.7327   0.7376
  0.7456   0.7568   0.7609   0.7707   0.7774   0.7828   0.7917   0.7934
  0.7942   0.8005   0.8039   0.8124   0.8154   0.8171   0.8197   0.8328
  0.8342   0.8429   0.8513   0.8558   0.8622   0.8702   0.8763   0.8825
  0.8870   0.8970   0.9123   0.9208   0.9424   0.9483   0.9641   0.9777
  0.9874   1.0014   1.0066   1.0219   1.0403   1.0494   1.0589   1.0622
  1.0724   1.0844   1.0891   1.1050   1.1151   1.1246   1.1271   1.1694
  1.1848   1.2004   1.2337   1.2413   1.2669   1.3005   1.3100   1.3295
  1.3458   1.3475   1.3625   1.3967   1.4104   1.4210   1.4252   1.4477
  1.4620   1.4827   1.5004   1.5079   1.5251   1.5787   1.5827   1.5959
  1.6277   1.6449   1.6621   1.6667   1.7035   1.7344   1.7460   1.7729
  1.7824   1.8237   1.8313   1.8425   1.8473   1.8768   1.8861   1.8993
  1.9228   1.9320   1.9417   1.9491   1.9787   1.9948   2.0062   2.0117
  2.0192   2.0412   2.0445   2.0536   2.0694   2.0759   2.0880   2.1051
  2.1205   2.1460   2.1679   2.1876   2.2105   2.2173   2.2200   2.2537
  2.2605   2.2799   2.3125   2.3271   2.3341   2.3650   2.3913   2.4159
  2.4265   2.4392   2.4597   2.5112   2.5190   2.5319   2.5523   2.5744
  2.5859   2.5878   2.6296   2.6379   2.6569   2.6741   2.6898   2.7199
  2.7318   2.7528   2.7711   2.7771   2.7950   2.8076   2.8297   2.8426
  2.8638   2.8695   2.8914   2.9051   2.9275   2.9474   2.9562   2.9636
  2.9708   2.9788   2.9875   3.0179   3.0215   3.0356   3.0575   3.0638
  3.0780   3.0984   3.1158   3.1379   3.1610   3.1685   3.1985   3.2036
  3.2339   3.2408   3.2615   3.2810   3.2908   3.3167   3.3355   3.3533
  3.3644   3.4094   3.4104   3.4376   3.4472   3.4545   3.4623   3.4768
  3.4817   3.4937   3.5054   3.5142   3.5340   3.5450   3.5488   3.5579
  3.5714   3.5910   3.5929   3.6052   3.6212   3.6383   3.6627   3.6632
  3.6891   3.6971   3.7039   3.7225   3.7417   3.7453   3.7883   3.8069
  3.8221   3.8506   3.8698   3.8952   3.9653   3.9822   4.0089   4.0525
  4.0707   4.0897   4.1235   4.1625   4.1702   4.2027   4.2056   4.2766
  4.2988   4.3216   4.3282   4.3469   4.3710   4.3901   4.4158   4.4290
  4.4455   4.4522   4.4868   4.5521   4.5740   4.6271   4.6418   4.7027
  4.7343   4.7636   4.7727   4.8532   4.9069   4.9474   4.9553   5.0257
  5.0517   5.0797   5.1333   5.1698   5.1876   5.3552   5.3668   5.3813
  5.4871   5.5458   5.6123   5.6449   5.7462   5.7692   5.9220   6.2129
  6.4665   6.5941   6.6284   6.8671   6.9982   7.3130   7.4516  22.6574
 22.7093  22.8523  22.9723  23.0428  23.0937  23.2095  23.5626  44.4174
 --------------------------------------------------------------

          Ground-State Mulliken Net Atomic Charges

     Atom                 Charge (a.u.)
  ----------------------------------------
      1 C                    -0.537281
      2 C                    -0.861893
      3 C                     0.414848
      4 C                    -0.555250
      5 C                    -0.394954
      6 C                    -0.482586
      7 C                    -0.851528
      8 C                     0.603116
      9 O                    -0.545832
     10 H                     0.294944
     11 H                     0.290477
     12 H                     0.270615
     13 H                     0.382121
     14 H                     0.395538
     15 H                     0.352877
     16 H                     0.396128
     17 H                     0.333625
     18 H                     0.267273
     19 H                     0.227763
  ----------------------------------------
  Sum of atomic charges =     0.000000

 -----------------------------------------------------------------
                    Cartesian Multipole Moments
 -----------------------------------------------------------------
    Charge (ESU x 10^10)
                 0.0000
    Dipole Moment (Debye)
         X       0.5113      Y      -0.4212      Z       1.9883
       Tot       2.0958
    Quadrupole Moments (Debye-Ang)
        XX     -59.9712     XY       5.5287     YY     -45.1632
        XZ      -5.9525     YZ      -4.9543     ZZ     -56.0752
    Octopole Moments (Debye-Ang^2)
       XXX     462.8864    XXY     -36.5880    XYY     110.3062
       YYY     -63.5640    XXZ      40.6025    XYZ      16.8501
       YYZ      17.5969    XZZ     154.1531    YZZ       4.4167
       ZZZ      61.6367
    Hexadecapole Moments (Debye-Ang^3)
      XXXX   -2674.3647   XXXY      22.5762   XXYY    -467.5640
      XYYY      73.0516   YYYY    -910.9565   XXXZ    -340.6909
      XXYZ    -128.6974   XYYZ     -77.4539   YYYZ    -213.2595
      XXZZ    -583.7724   XYZZ     -77.3281   YYZZ    -307.2592
      XZZZ    -273.0747   YZZZ    -260.5393   ZZZZ    -641.2353
 -----------------------------------------------------------------
Archival summary:
1\1\compute-0-8.local\SP\ProcedureUnspecified\BasisUnspecified\1810\meili\TueSep2820:50:522021TueSep2820:50:522021\0\\#,ProcedureUnspecified,BasisUnspecified,\\0,1\C\C,1,1.36956\H,2,1.08334,1,120.117\C,2,1.38797,1,119.969,3,-176.788,0\H,4,1.08062,2,118.483,1,179.858,0\C,1,1.3949,2,118.765,3,-178.729,0\H,6,1.0818,1,119.639,2,178.49,0\C,6,1.37982,1,121.177,2,-2.27888,0\H,8,1.08027,6,120.086,1,-179.213,0\C,8,1.38986,6,120.733,1,0.33111,0\O,10,1.38304,8,121.284,6,-178.591,0\H,11,0.96322,10,112.354,8,177.065,0\C,1,1.49215,2,120.395,3,1.114,0\H,13,1.08382,1,108.432,2,147.02,0\H,13,1.09188,1,108.77,2,30.7849,0\C,13,1.52038,1,113.998,2,-91.0714,0\H,16,1.09183,13,109.702,1,62.0305,0\H,16,1.09999,13,106.041,1,-179.176,0\H,16,1.1,13,110.729,1,-61.9154,0\\\@

 Total job time:  27544.69s(wall), 171989.46s(cpu) 
 Tue Sep 28 20:50:52 2021

        *************************************************************
        *                                                           *
        *  Thank you very much for using Q-Chem.  Have a nice day.  *
        *                                                           *
        *************************************************************


Done Job For Fragment 1
calling putenv with: QCSCRATCH=/home/meili/scratch 
calling putenv with: QCTHREADS=8 
Doing General SCFMI
 Exchange:     0.1670 Hartree-Fock + 1.0000 wB97X-V + LR-HF
 Correlation:  1.0000 wB97X-V
 Using Euler-Maclaurin-Lebedev (99,590) quadrature formula
 Nonlocal Correlation:  VV10 with C = 0.0100 and b = 6.00 and scale = 1.00000
 Grid used for NLC:  SG-1 standard quadrature
performing fock build before subrot guess so that all methods have access
Printing subrot_rss_gen Method Specification:
Occupied Subspace Method is 0
Virtual Subspace Method is 0
Energy of the unrelaxed supersystem initial determinant -657.702642435144
performing fock build before subrot guess so that all methods have access
Printing subrot_rss_gen Method Specification:
Occupied Subspace Method is 0
Virtual Subspace Method is 0
Energy of the unrelaxed supersystem initial determinant w/ solvent -657.726889927213
write pseudocanon occs and virts to disk
write pseudocanon orbital energies to disk
Tolerance of ortho_decomp_scf: 1.00e-06
GDM subspace size: 20
Beginning the Orthogonal Decomposition of the Initial Supersystem Wavefunction
    1    -657.6918476985      1.11e-02     ortho_decomp Preconditoned Steepest Descent
    2    -657.6925637003      2.61e-04     ortho_decomp BFGS Step
    3    -657.6925656374      1.86e-05     ortho_decomp BFGS Step
    4    -657.6925656409      7.50e-07     ortho_decomp 00000 Convergence criterion met
 Hartree-Fock
 Hartree-Fock
 Hartree-Fock
Doing General SCFMI
 Exchange:     0.1670 Hartree-Fock + 1.0000 wB97X-V + LR-HF
 Correlation:  1.0000 wB97X-V
 Using Euler-Maclaurin-Lebedev (99,590) quadrature formula
 Nonlocal Correlation:  VV10 with C = 0.0100 and b = 6.00 and scale = 1.00000
 Grid used for NLC:  SG-1 standard quadrature
performing fock build at end of subrot_r(subrot) constructor so that all methods have access
<S^2> of initial wavefunction before polarization iterations 0.0000000000
Beginning iterations for the determination of the polarized wavefunction
Energy prior to optimization (guess energy) = -657.726889927213
Begin Timing: Total SCF Calculation
begin iterations for algorithm: DIIS         
the SCF tolerance is set to 1.00e-08
    1    -657.7268899272      2.53e-05     00000 
    2    -657.7269818362      1.02e-05     00000 
    3    -657.7269932219      6.24e-06     00000 
    4    -657.7269974186      1.77e-06     00000 
    5    -657.7269979919      9.10e-07     00000 
    6    -657.7269981042      2.55e-07     00000 
    7    -657.7269981120      9.93e-08     00000 
    8    -657.7269981128      3.98e-08     00000 
    9    -657.7269981129      1.46e-08     00000 
   10    -657.7269981129      8.20e-09     00000 Convergence criterion met
write pseudocanon occs and virts to disk
write pseudocanon orbital energies to disk
Timing for Total SCF: 4660.00s (wall), 29443.95s (cpu)
<S^2> of polarized wavefunction after polarization iterations 0.0000000000
relaxing scfmi constraint to allow all rotations in the entire AO span
Doing General SCFMI
 Exchange:     0.1670 Hartree-Fock + 1.0000 wB97X-V + LR-HF
 Correlation:  1.0000 wB97X-V
 Using Euler-Maclaurin-Lebedev (99,590) quadrature formula
 Nonlocal Correlation:  VV10 with C = 0.0100 and b = 6.00 and scale = 1.00000
 Grid used for NLC:  SG-1 standard quadrature
performing fock build at end of subrot_r(subrot) constructor so that all methods have access
<S^2> of polarized wavefunction before ct-allowed iterations 0.0000000000
Beginning iterations for the determination of the CT-Allowed wavefunction
Energy prior to optimization (guess energy) = -657.726998112906
Begin Timing: Total SCF Calculation
begin iterations for algorithm: DIIS         
the SCF tolerance is set to 1.00e-08
    1    -657.7269981129      4.31e-05     00000 
    2    -657.7274144842      3.64e-06     00000 
    3    -657.7274245479      5.95e-07     00000 
    4    -657.7274248868      2.28e-07     00000 
    5    -657.7274249059      7.40e-08     00000 
    6    -657.7274249097      1.87e-08     00000 
    7    -657.7274249099      8.71e-09     00000 Convergence criterion met
write pseudocanon occs and virts to disk
write pseudocanon orbital energies to disk
Timing for Total SCF: 3444.00s (wall), 21254.19s (cpu)
<S^2> of ct_allowed wavefunction after ct-allowed iterations 0.0000000000

================================
        Results of EDA2         
================================
Basic EDA Quantities
--------------------
Fragment Energies (Ha):
1 -271.5784968568
2 -386.1345985402
--------------------
  E_prp (kJ/mol) = 0.0000
  E_sol (kJ/mol) = 0.6016
  E_frz (kJ/mol) = -8.0442
  E_pol (kJ/mol) = -0.2840
  E_vct (kJ/mol) = -1.1206
  E_int (kJ/mol) = -8.8472
--------------------


Initial Wavefunction Decomposition
--------------------
  --------------------
  Orthogonal Fragment Subspace Decomposition:
  --------------------
     E_elec   (ELEC)   (kJ/mol) = -10.0843
     E_pauli  (PAULI)  (kJ/mol) = 13.8139
     E_disp   (DISP)   (kJ/mol) = -11.7738
     --------------------
     Terms summing to E_pauli:
     --------------------
        E_kep_pauli       (kJ/mol) = 18.4128
        E_disp_free_pauli (kJ/mol) = -4.5988
  --------------------
  Classical Frozen Decomposition:
  --------------------
     E_cls_elec  (CLS ELEC)  (kJ/mol) = -3.9289
     E_cls_pauli (CLS PAULI) (kJ/mol) = -4.1153
    [E_mod_pauli (MOD PAULI) (kJ/mol) = 7.6585 (CLS PAULI - DISP from orthogonal decomposition) ]
  --------------------
--------------------

Simplified EDA Summary (kJ/mol)
--------------------
 PREPARATION     0.0000
 SOLVATION       0.6016
 FROZEN          3.7296      (does not include dispersion)
[PAULI           13.8139]     (if this is negligible, then frozen describes electrostatics)
 DISPERSION      -11.7738
 POLARIZATION    -0.2840
 CHARGE TRANSFER -1.1206
 TOTAL           -8.8472     (PRP + SOL + FRZ + DISP + POL + CT)
--------------------

 --------------------------------------------------------------

                    Orbital Energies (a.u.)
 --------------------------------------------------------------

 Alpha MOs
 -- Occupied --
-19.2411 -10.3325 -10.2767 -10.2668 -10.2658 -10.2654 -10.2652 -10.2651
-10.2649 -10.2643 -10.2634 -10.2621 -10.2597 -10.2541 -10.2535 -10.2490
 -1.1829  -0.9967  -0.9960  -0.9166  -0.9053  -0.8796  -0.8719  -0.8466
 -0.8097  -0.7555  -0.7375  -0.7269  -0.6992  -0.6982  -0.6600  -0.6266
 -0.6018  -0.5808  -0.5698  -0.5584  -0.5480  -0.5392  -0.5311  -0.5288
 -0.5226  -0.5206  -0.5124  -0.5094  -0.4921  -0.4814  -0.4784  -0.4721
 -0.4452  -0.4377  -0.4357  -0.4325  -0.4276  -0.4253  -0.3500  -0.3459
 -0.3368  -0.3114
 -- Virtual --
  0.0576   0.0648   0.0665   0.0676   0.0749   0.0761   0.0801   0.0813
  0.0906   0.0962   0.0982   0.1091   0.1107   0.1150   0.1182   0.1219
  0.1303   0.1340   0.1418   0.1471   0.1551   0.1605   0.1638   0.1685
  0.1715   0.1751   0.1834   0.1891   0.1921   0.1929   0.2016   0.2049
  0.2099   0.2137   0.2160   0.2240   0.2287   0.2314   0.2356   0.2400
  0.2419   0.2467   0.2489   0.2508   0.2558   0.2576   0.2628   0.2703
  0.2751   0.2753   0.2771   0.2803   0.2830   0.2899   0.2929   0.2953
  0.2978   0.3028   0.3044   0.3052   0.3063   0.3089   0.3138   0.3170
  0.3189   0.3213   0.3232   0.3316   0.3324   0.3360   0.3411   0.3424
  0.3455   0.3478   0.3504   0.3542   0.3575   0.3608   0.3649   0.3664
  0.3692   0.3708   0.3715   0.3738   0.3780   0.3806   0.3822   0.3841
  0.3877   0.3886   0.3921   0.3969   0.3977   0.4026   0.4047   0.4057
  0.4109   0.4120   0.4167   0.4210   0.4235   0.4250   0.4281   0.4302
  0.4327   0.4342   0.4419   0.4495   0.4505   0.4525   0.4570   0.4590
  0.4593   0.4615   0.4675   0.4679   0.4723   0.4753   0.4804   0.4822
  0.4846   0.4863   0.4899   0.4923   0.4964   0.4985   0.4994   0.5053
  0.5073   0.5077   0.5091   0.5135   0.5167   0.5227   0.5276   0.5296
  0.5337   0.5359   0.5379   0.5428   0.5445   0.5471   0.5487   0.5559
  0.5610   0.5627   0.5647   0.5679   0.5752   0.5777   0.5807   0.5829
  0.5856   0.5917   0.5963   0.6002   0.6066   0.6115   0.6142   0.6197
  0.6248   0.6262   0.6325   0.6342   0.6364   0.6446   0.6448   0.6478
  0.6540   0.6578   0.6673   0.6703   0.6801   0.6811   0.6824   0.6896
  0.6924   0.6955   0.6997   0.7031   0.7060   0.7110   0.7134   0.7166
  0.7225   0.7236   0.7286   0.7311   0.7328   0.7355   0.7391   0.7415
  0.7477   0.7498   0.7535   0.7584   0.7623   0.7634   0.7658   0.7731
  0.7738   0.7748   0.7800   0.7858   0.7880   0.7962   0.7975   0.7985
  0.8077   0.8083   0.8103   0.8135   0.8153   0.8220   0.8228   0.8262
  0.8283   0.8311   0.8325   0.8354   0.8396   0.8430   0.8459   0.8549
  0.8554   0.8596   0.8611   0.8635   0.8711   0.8721   0.8755   0.8773
  0.8811   0.8875   0.8928   0.8992   0.9023   0.9050   0.9087   0.9140
  0.9172   0.9210   0.9267   0.9340   0.9384   0.9426   0.9455   0.9492
  0.9517   0.9686   0.9716   0.9875   0.9932   1.0046   1.0060   1.0120
  1.0144   1.0188   1.0304   1.0331   1.0420   1.0453   1.0553   1.0613
  1.0687   1.0718   1.0733   1.0823   1.0884   1.0912   1.0972   1.1005
  1.1145   1.1173   1.1239   1.1268   1.1315   1.1452   1.1535   1.1555
  1.1638   1.1723   1.1751   1.1894   1.1933   1.1985   1.2050   1.2247
  1.2352   1.2607   1.2660   1.2809   1.2885   1.3074   1.3164   1.3261
  1.3304   1.3444   1.3489   1.3605   1.3672   1.3718   1.3827   1.3935
  1.4010   1.4167   1.4248   1.4337   1.4415   1.4546   1.4649   1.4669
  1.4796   1.4886   1.4999   1.5046   1.5092   1.5199   1.5414   1.5451
  1.5635   1.5787   1.5866   1.5941   1.6008   1.6196   1.6341   1.6438
  1.6454   1.6653   1.6715   1.6744   1.6770   1.6938   1.7038   1.7128
  1.7211   1.7350   1.7510   1.7601   1.7631   1.7971   1.8150   1.8199
  1.8241   1.8261   1.8437   1.8481   1.8576   1.8637   1.8703   1.8728
  1.8953   1.9024   1.9116   1.9165   1.9353   1.9418   1.9446   1.9503
  1.9581   1.9616   1.9731   1.9778   1.9934   1.9999   2.0032   2.0131
  2.0183   2.0271   2.0332   2.0408   2.0516   2.0537   2.0583   2.0637
  2.0726   2.0876   2.0942   2.0988   2.1005   2.1030   2.1120   2.1168
  2.1379   2.1439   2.1520   2.1659   2.1782   2.1930   2.2020   2.2108
  2.2151   2.2251   2.2322   2.2430   2.2522   2.2568   2.2637   2.2731
  2.2847   2.2945   2.2997   2.3219   2.3302   2.3310   2.3381   2.3502
  2.3606   2.3774   2.4059   2.4206   2.4324   2.4340   2.4397   2.4445
  2.4477   2.4590   2.4850   2.5045   2.5241   2.5335   2.5413   2.5629
  2.5668   2.5696   2.5849   2.5991   2.6040   2.6126   2.6158   2.6215
  2.6415   2.6534   2.6574   2.6688   2.6739   2.6935   2.6968   2.7075
  2.7157   2.7230   2.7314   2.7515   2.7572   2.7679   2.7811   2.7886
  2.7902   2.7987   2.8096   2.8131   2.8205   2.8366   2.8414   2.8498
  2.8646   2.8741   2.8854   2.8962   2.9021   2.9084   2.9182   2.9190
  2.9246   2.9399   2.9513   2.9533   2.9618   2.9693   2.9749   2.9799
  2.9886   2.9956   3.0027   3.0063   3.0176   3.0290   3.0336   3.0393
  3.0445   3.0470   3.0631   3.0653   3.0712   3.0842   3.0938   3.1092
  3.1126   3.1295   3.1321   3.1462   3.1523   3.1643   3.1791   3.1868
  3.1990   3.2022   3.2161   3.2198   3.2290   3.2383   3.2458   3.2656
  3.2710   3.2831   3.2956   3.2988   3.3079   3.3157   3.3305   3.3346
  3.3557   3.3621   3.3689   3.3762   3.3793   3.3902   3.4053   3.4240
  3.4339   3.4433   3.4527   3.4548   3.4592   3.4595   3.4684   3.4719
  3.4791   3.4833   3.4879   3.4945   3.5047   3.5102   3.5131   3.5241
  3.5264   3.5330   3.5455   3.5523   3.5582   3.5608   3.5686   3.5736
  3.5776   3.5815   3.5854   3.5955   3.5986   3.6067   3.6112   3.6206
  3.6232   3.6319   3.6397   3.6501   3.6515   3.6665   3.6710   3.6761
  3.6855   3.7026   3.7117   3.7166   3.7236   3.7306   3.7360   3.7476
  3.7545   3.7641   3.7893   3.8092   3.8239   3.8331   3.8418   3.8627
  3.8753   3.8784   3.9141   3.9198   3.9339   3.9664   3.9738   3.9890
  3.9910   4.0003   4.0193   4.0649   4.0709   4.0782   4.0828   4.1035
  4.1380   4.1560   4.1743   4.1795   4.2114   4.2235   4.2418   4.2829
  4.2903   4.3066   4.3086   4.3097   4.3284   4.3293   4.3358   4.3523
  4.3659   4.3693   4.3828   4.3854   4.3925   4.3981   4.4228   4.4284
  4.4316   4.4437   4.4568   4.4605   4.4664   4.4931   4.5040   4.5136
  4.5581   4.5799   4.5919   4.6240   4.6385   4.6392   4.6584   4.7199
  4.7464   4.7666   4.7751   4.7797   4.8028   4.8402   4.8647   4.8731
  4.9168   4.9328   4.9649   4.9655   4.9816   5.0389   5.0530   5.0638
  5.0788   5.0847   5.1467   5.1755   5.1921   5.1967   5.2909   5.3566
  5.3735   5.3816   5.4222   5.4238   5.5011   5.5088   5.5438   5.5503
  5.6129   5.6438   5.7100   5.7492   5.7759   5.8418   5.9226   6.2147
  6.4676   6.5953   6.6297   6.8696   7.0010   7.3130   7.4540  22.6447
 22.6801  22.6920  22.7537  22.9002  22.9437  22.9739  22.9840  23.0552
 23.0751  23.1180  23.1493  23.2260  23.4811  23.5551  44.4282
 --------------------------------------------------------------

          Ground-State Mulliken Net Atomic Charges

     Atom                 Charge (a.u.)
  ----------------------------------------
      1 C                    -1.087027
      2 C                    -0.391668
      3 C                    -0.316740
      4 C                    -0.596634
      5 C                    -0.623468
      6 C                    -0.404395
      7 C                     0.459739
      8 H                     0.519596
      9 H                     0.437184
     10 H                     0.384616
     11 H                     0.413829
     12 H                     0.384985
     13 H                     0.265606
     14 H                     0.294356
     15 H                     0.259550
     16 C                    -0.217989
     17 C                    -1.096325
     18 C                     0.411774
     19 C                    -0.466280
     20 C                    -0.397894
     21 C                    -0.520186
     22 C                    -0.833795
     23 C                     0.498778
     24 O                    -0.539502
     25 H                     0.355955
     26 H                     0.049284
     27 H                     0.292702
     28 H                     0.379542
     29 H                     0.403256
     30 H                     0.376974
     31 H                     0.404941
     32 H                     0.338800
     33 H                     0.290520
     34 H                     0.269916
  ----------------------------------------
  Sum of atomic charges =     0.000000

 -----------------------------------------------------------------
                    Cartesian Multipole Moments
 -----------------------------------------------------------------
    Charge (ESU x 10^10)
                 0.0000
    Dipole Moment (Debye)
         X       0.9754      Y      -0.4586      Z       2.1217
       Tot       2.3798
    Quadrupole Moments (Debye-Ang)
        XX     -93.4048     XY       5.2279     YY     -91.4948
        XZ      -4.9572     YZ      -5.6179     ZZ     -93.8351
    Octopole Moments (Debye-Ang^2)
       XXX      80.1197    XXY     -35.2086    XYY     -50.7063
       YYY     -50.9399    XXZ      25.4020    XYZ      14.4346
       YYZ      -4.9834    XZZ      19.0319    YZZ       7.7379
       ZZZ       0.4785
    Hexadecapole Moments (Debye-Ang^3)
      XXXX   -6056.2969   XXXY      53.1799   XXYY   -1143.3255
      XYYY     120.7681   YYYY    -976.8170   XXXZ    -578.8649
      XXYZ    -134.7448   XYYZ    -167.7198   YYYZ    -196.7484
      XXZZ   -1220.7413   XYZZ     -63.1455   YYZZ    -389.0126
      XZZZ    -533.3743   YZZZ    -247.9096   ZZZZ   -1005.3316
 -----------------------------------------------------------------
Archival summary:
1\1\compute-0-8.local\SP\ProcedureUnspecified\BasisUnspecified\11518\meili\WedSep2901:04:092021WedSep2901:04:092021\0\\#,ProcedureUnspecified,BasisUnspecified,\\0,1\C\C,1,1.36956\H,2,1.08334,1,120.117\C,2,1.38797,1,119.969,3,-176.788,0\H,4,1.08062,2,118.483,1,179.858,0\C,1,1.3949,2,118.765,3,-178.729,0\H,6,1.0818,1,119.639,2,178.49,0\C,6,1.37982,1,121.177,2,-2.27888,0\H,8,1.08027,6,120.086,1,-179.213,0\C,8,1.38986,6,120.733,1,0.33111,0\O,10,1.38304,8,121.284,6,-178.591,0\H,11,0.96322,10,112.354,8,177.065,0\C,1,1.49215,2,120.395,3,1.114,0\H,13,1.08382,1,108.432,2,147.02,0\H,13,1.09188,1,108.77,2,30.7849,0\C,13,1.52038,1,113.998,2,-91.0714,0\H,16,1.09183,13,109.702,1,62.0305,0\H,16,1.09999,13,106.041,1,-179.176,0\H,16,1.1,13,110.729,1,-61.9154,0\H,15,2.68237,13,143.785,1,59.603,0\C,20,1.08263,15,113.528,13,38.3637,0\C,21,1.35075,20,119.765,15,-41.5311,0\H,22,1.08129,21,120.658,20,0.477204,0\C,22,1.38856,21,118.893,20,179.901,0\H,24,1.07925,22,118.952,21,-179.85,0\C,24,1.38481,22,121.271,21,1.51294,0\H,26,1.08125,24,119.197,22,179.297,0\C,26,1.38184,24,120.867,22,-1.67413,0\C,28,1.3949,26,117.573,24,1.98883,0\H,29,1.07999,28,119.782,26,177.879,0\C,28,1.5102,26,121.377,24,-179.37,0\H,31,1.08624,28,108.145,26,12.3646,0\H,31,1.08987,28,108.609,26,129.001,0\H,31,1.1,28,114.708,26,-108.681,0\\\@

 Total job time:  53463.24s(wall), 98215.83s(cpu) 
 Wed Sep 29 01:04:09 2021

        *************************************************************
        *                                                           *
        *  Thank you very much for using Q-Chem.  Have a nice day.  *
        *                                                           *
        *************************************************************


