
Running Job 1 of 1 SSI-099GLN-108GLN-1_SMD_TZVPD.in
qchem SSI-099GLN-108GLN-1_SMD_TZVPD.in_21292.0 /tmp/qchem21292/ 0
/global/common/cori/software/qchem/5.2/exe/qcprog.exe_s SSI-099GLN-108GLN-1_SMD_TZVPD.in_21292.0 /tmp/qchem21292/
                  Welcome to Q-Chem
     A Quantum Leap Into The Future Of Chemistry


 Q-Chem 5.2, Q-Chem, Inc., Pleasanton, CA (2019)

 License issued to: National Energy Research Scientific Computing Center

 Yihan Shao,  Zhengting Gan,  E. Epifanovsky,  A. T. B. Gilbert,  M. Wormit,  
 J. Kussmann,  A. W. Lange,  A. Behn,  Jia Deng,  Xintian Feng,  D. Ghosh,  
 M. Goldey,  P. R. Horn,  L. D. Jacobson,  I. Kaliman,  T. Kus,  A. Landau,  
 Jie Liu,  E. I. Proynov,  R. M. Richard,  R. P. Steele,  E. J. Sundstrom,  
 H. L. Woodcock III,  P. M. Zimmerman,  D. Zuev,  B. Albrecht,  E. Alguire,  
 S. A. Baeppler,  D. Barton,  Z. Benda,  Y. A. Bernard,  E. J. Berquist,  
 K. B. Bravaya,  H. Burton,  D. Casanova,  Chun-Min Chang,  Yunqing Chen,  
 A. Chien,  K. D. Closser,  M. P. Coons,  S. Coriani,  S. Dasgupta,  
 A. L. Dempwolff,  M. Diedenhofen,  Hainam Do,  R. G. Edgar,  Po-Tung Fang,  
 S. Faraji,  S. Fatehi,  Qingguo Feng,  K. D. Fenk,  J. Fosso-Tande,  
 J. Gayvert,  Qinghui Ge,  A. Ghysels,  G. Gidofalvi,  J. Gomes,  
 J. Gonthier,  A. Gunina,  D. Hait,  M. W. D. Hanson-Heine,  
 P. H. P. Harbach,  A. W. Hauser,  M. F. Herbst,  J. E. Herr,  
 E. G. Hohenstein,  Z. C. Holden,  Kerwin Hui,  B. C. Huynh,  T.-C. Jagau,  
 Hyunjun Ji,  B. Kaduk,  K. Khistyaev,  Jaehoon Kim,  P. Klunzinger,  K. Koh,  
 D. Kosenkov,  L. Koulias,  T. Kowalczyk,  C. M. Krauter,  A. Kunitsa,  
 Ka Un Lao,  A. Laurent,  K. V. Lawler,  Joonho Lee,  D. Lefrancois,  
 S. Lehtola,  D. S. Levine,  Yi-Pei Li,  You-Sheng Lin,  Fenglai Liu,  
 E. Livshits,  A. Luenser,  P. Manohar,  E. Mansoor,  S. F. Manzer,  
 Shan-Ping Mao,  Yuezhi Mao,  N. Mardirossian,  A. V. Marenich,  
 T. Markovich,  L. A. Martinez-Martinez,  S. A. Maurer,  N. J. Mayhall,  
 S. C. McKenzie,  J.-M. Mewes,  P. Morgante,  A. F. Morrison,  
 J. W. Mullinax,  K. Nanda,  T. S. Nguyen-Beck,  R. Olivares-Amaya,  
 J. A. Parkhill,  Zheng Pei,  T. M. Perrine,  F. Plasser,  P. Pokhilko,  
 S. Prager,  A. Prociuk,  E. Ramos,  D. R. Rehn,  F. Rob,  M. Scheurer,  
 M. Schneider,  N. Sergueev,  S. M. Sharada,  S. Sharma,  D. W. Small,  
 T. Stauch,  T. Stein,  Yu-Chuan Su,  A. J. W. Thom,  A. Tkatchenko,  
 T. Tsuchimochi,  N. M. Tubman,  L. Vogt,  M. L. Vidal,  O. Vydrov,  
 M. A. Watson,  J. Wenzel,  M. de Wergifosse,  T. A. Wesolowski,  A. White,  
 J. Witte,  A. Yamada,  Jun Yang,  K. Yao,  S. Yeganeh,  S. R. Yost,  
 Zhi-Qiang You,  A. Zech,  Igor Ying Zhang,  Xing Zhang,  Yan Zhao,  
 Ying Zhu,  B. R. Brooks,  G. K. L. Chan,  C. J. Cramer,  M. S. Gordon,  
 W. J. Hehre,  A. Klamt,  M. W. Schmidt,  C. D. Sherrill,  D. G. Truhlar,  
 A. Aspuru-Guzik,  R. Baer,  A. T. Bell,  N. A. Besley,  Jeng-Da Chai,  
 A. E. DePrince, III,  R. A. DiStasio Jr.,  A. Dreuw,  B. D. Dunietz,  
 T. R. Furlani,  Chao-Ping Hsu,  Yousung Jung,  Jing Kong,  D. S. Lambrecht,  
 WanZhen Liang,  C. Ochsenfeld,  V. A. Rassolov,  L. V. Slipchenko,  
 J. E. Subotnik,  T. Van Voorhis,  J. M. Herbert,  A. I. Krylov,  
 P. M. W. Gill,  M. Head-Gordon

 Contributors to earlier versions of Q-Chem not listed above: 
 R. D. Adamson,  B. Austin,  J. Baker,  G. J. O. Beran,  K. Brandhorst,  
 S. T. Brown,  E. F. C. Byrd,  A. K. Chakraborty,  C.-L. Cheng,  
 Siu Hung Chien,  D. M. Chipman,  D. L. Crittenden,  H. Dachsel,  
 R. J. Doerksen,  A. D. Dutoi,  L. Fusti-Molnar,  W. A. Goddard III,  
 A. Golubeva-Zadorozhnaya,  S. R. Gwaltney,  G. Hawkins,  A. Heyden,  
 S. Hirata,  G. Kedziora,  F. J. Keil,  C. Kelley,  Jihan Kim,  R. A. King,  
 R. Z. Khaliullin,  P. P. Korambath,  W. Kurlancheek,  A. M. Lee,  M. S. Lee,  
 S. V. Levchenko,  Ching Yeh Lin,  D. Liotard,  R. C. Lochan,  I. Lotan,  
 P. E. Maslen,  N. Nair,  D. P. O'Neill,  D. Neuhauser,  E. Neuscamman,  
 C. M. Oana,  R. Olson,  B. Peters,  R. Peverati,  P. A. Pieniazek,  
 Y. M. Rhee,  J. Ritchie,  M. A. Rohrdanz,  E. Rosta,  N. J. Russ,  
 H. F. Schaefer III,  N. E. Schultz,  N. Shenvi,  A. C. Simmonett,  A. Sodt,  
 D. Stuck,  K. S. Thanthiriwatte,  V. Vanovschi,  Tao Wang,  A. Warshel,  
 C. F. Williams,  Q. Wu,  X. Xu,  W. Zhang

 Please cite Q-Chem as follows:
 Y. Shao et al., Mol. Phys. 113, 184-215 (2015)
 DOI: 10.1080/00268976.2014.952696

 Q-Chem 5.2.0 for Intel X86 EM64T Linux

 Parts of Q-Chem use Armadillo 8.300.2 (Tropical Shenanigans).
 http://arma.sourceforge.net/

 Q-Chem begins on Sun Sep 26 12:54:43 2021  

Host: cori01
0

     Scratch files written to /tmp/qchem21292//
 May1019 |scratch|qcdevops|jenkins|workspace|build_RNUM -1
Processing $rem in /global/common/cori/software/qchem/5.2/config/preferences:
	 MEM_TOTAL  96000 
NAlpha2: 64
NElect   64
Mult     1
Symmetry turned off for PCM/SM12/SMD calculation

 Q-Chem warning in module libgen/rem_setup.C, line 2803:

 Neither GIA nor STOLL is specified by user. Use STOLL as the default


Checking the input file for inconsistencies... 	...done.

--------------------------------------------------------------
User input:
--------------------------------------------------------------
$comment
SSI-099GLN-108GLN-1.pdb
$end

$molecule
0 1
--
0 1
C    1.879919207062    1.231262982806    2.565831533156
C    0.580919207062    1.360262982806    1.806831533156
O   -0.490080792938    1.360262982806    2.400831533156
N    0.655919207062    1.343262982806    0.484831533156
H   -0.195080792938    1.225262982806   -0.054168466844
H    1.551919207062    1.344262982806    0.025831533156
H    1.951919207062    2.051262982806    3.280831533156
H    2.718919207062    1.310262982806    1.873831533156
H    1.921159207062    0.269652982806    3.098372533156
--
0 1
C    0.383919207062   -1.514737017194   -2.792168466844
C   -0.690080792938   -1.255737017194   -1.754168466844
O   -1.017080792938   -0.110737017194   -1.435168466844
N   -1.269080792938   -2.323737017194   -1.223168466844
H    0.026919207062   -2.272737017194   -3.491168466844
H    1.210919207062   -1.961737017194   -2.264168466844
H   -2.012080792938   -2.180737017194   -0.554168466844
H   -1.026080792938   -3.248737017194   -1.543168466844
H    0.635349207062   -0.613887017194   -3.371181466844
$end

$rem
JOBTYPE			EDA
EDA2			1
method			wB97X-V
BASIS			def2-TZVPD
XC_GRID			000099000590
NL_GRID			1
UNRESTRICTED		FALSE
MAX_SCF_CYCLES		200
SYMMETRY		FALSE
SYM_IGNORE		TRUE
MEM_STATIC		2000
BASIS_LIN_DEP_THRESH 	6
THRESH 			14
SCF_CONVERGENCE 	8
SCF_PRINT_FRGM 		TRUE
SOLVENT_METHOD          SMD
$end

$SMX
SOLVENT			WATER
$END
--------------------------------------------------------------
 ----------------------------------------------------------------
             Standard Nuclear Orientation (Angstroms)
    I     Atom           X                Y                Z
 ----------------------------------------------------------------
    1      C       1.8799192071     1.2312629828     2.5658315332
    2      C       0.5809192071     1.3602629828     1.8068315332
    3      O      -0.4900807929     1.3602629828     2.4008315332
    4      N       0.6559192071     1.3432629828     0.4848315332
    5      H      -0.1950807929     1.2252629828    -0.0541684668
    6      H       1.5519192071     1.3442629828     0.0258315332
    7      H       1.9519192071     2.0512629828     3.2808315332
    8      H       2.7189192071     1.3102629828     1.8738315332
    9      H       1.9211592071     0.2696529828     3.0983725332
   10      C       0.3839192071    -1.5147370172    -2.7921684668
   11      C      -0.6900807929    -1.2557370172    -1.7541684668
   12      O      -1.0170807929    -0.1107370172    -1.4351684668
   13      N      -1.2690807929    -2.3237370172    -1.2231684668
   14      H       0.0269192071    -2.2727370172    -3.4911684668
   15      H       1.2109192071    -1.9617370172    -2.2641684668
   16      H      -2.0120807929    -2.1807370172    -0.5541684668
   17      H      -1.0260807929    -3.2487370172    -1.5431684668
   18      H       0.6353492071    -0.6138870172    -3.3711814668
 ----------------------------------------------------------------
 Nuclear Repulsion Energy =         359.57401862 hartrees
 There are       32 alpha and       32 beta electrons
 Requested basis set is def2-TZVPD
 There are 156 shells and 392 basis functions

 Total QAlloc Memory Limit  96000 MB
 Mega-Array Size      1956 MB
 MEM_STATIC part      2000 MB
 
 Citation of the SMD model:
 Marenich, A.V.; Cramer, C.J.; Truhlar, D.G.
 J. Phys. Chem. B 2009, 113, 6378-6396.
 iSolventCode=           1
 Solvent: water                                                           
 
 vradii
            1           2           3           4           5           6
    1   1.8500000   1.8500000   1.5200000   1.8900000   1.2000000   1.2000000
            7           8           9          10          11          12
    1   1.2000000   1.2000000   1.2000000   1.8500000   1.8500000   1.5200000
           13          14          15          16          17          18
    1   1.8900000   1.2000000   1.2000000   1.2000000   1.2000000   1.2000000
 Changing PCM_VDW_RADII to SMD_RADIUS
 Discretize the solute cavity surface with Lebedev spheres
	Using 110 Lebedev grid points for each H atom
	Using 194 Lebedev grid points for other atoms
	Atomic van der Waals radii will be scaled by 1.20
 Remove points where switching function is < 1.0e-08
 Keep 1428 surface tesserae and discard 1224 interior tesserae
 Molecular Surface Area = 173.415 Angst**2
 A cutoff of  1.0D-14 yielded  10821 shell pairs
 There are     68471 function pairs (     85692 Cartesian)
 Smallest overlap matrix eigenvalue = 8.30E-06

 Scale SEOQF with 1.000000e-01/1.000000e-01/1.000000e-01

 Standard Electronic Orientation quadrupole field applied
 Nucleus-field energy     =    -0.0000000143 hartrees

 -----------------------------------------------------------------------
  General SCF calculation program by
  Eric Jon Sundstrom, Paul Horn, Yuezhi Mao, Dmitri Zuev, Alec White,
  David Stuck, Shaama M.S., Shane Yost, Joonho Lee, David Small,
  Daniel Levine, Susi Lehtola, Hugh Burton, Evgeny Epifanovsky
 -----------------------------------------------------------------------
================================================================
                 ALMO-EDA with the EDA2 driver                  
================================================================
 The second-generation ALMO-EDA (for DFT):                      
 P. R. Horn, Y. Mao and M. Head-Gordon, PCCP, 18, 23067 (2016)  
 Decomposition of the frozen energy:                            
 P. R. Horn, Y. Mao and M. Head-Gordon, JCP, 144, 114107 (2016) 
 FERF model for polarization:                                   
 P. R. Horn and M. Head-Gordon, JCP, 143, 114111 (2015)         
Using eda2 option set 1
Option set summary: Frozen orbital wavefunction, initial wavefunction decomposition, and nDQ polarization.
--------------------------------
Printing EDA Options
--------------------------------
eda_child_super_basis      0
fragmo_guess_mode          0
child_mp                   1
child_mp_orders            232
cls_elec                   1
cls_disp                   0
scfmi_mode                 1
scfmi_occs                 0
scfmi_virts                0
frz_relax                  0
frz_relax_method           0
dc_pen_start               0
dc_pen_conv                0
dc_pen_increment           0
dc_pen_steps               0
dc_pen_thresh_factor       0
dc_pen_pre_newton_thresh   0
frz_ortho_decomp           1
frz_ortho_decomp_conv      6
frgm_method                2
scfmi_freeze_ss            0
separate_rehyb             0
plot_diff_den              0
eda_nocv                   0
eda_vct_relax              1
disp_free_x                0
disp_free_c                0
eda_bsse                   0
eda_pct_a                  0
eda_covp                   0
--------------------------------
Attempting to make child job directory: /tmp/qchem21292//Frg1/
Attempting to make child job directory: /tmp/qchem21292//Frg2/
Creating input file /tmp/qchem21292/Frg1.input
using default PutDataFrgm: nothing
calling putenv with: QCSCRATCH=/tmp/qchem21292/ 
calling putenv with: QCLOCALSCR=/tmp/qchem21292/ 
Spawning Job For Fragment 0
                  Welcome to Q-Chem
     A Quantum Leap Into The Future Of Chemistry


 Q-Chem 5.2, Q-Chem, Inc., Pleasanton, CA (2019)

 License issued to: National Energy Research Scientific Computing Center

 Yihan Shao,  Zhengting Gan,  E. Epifanovsky,  A. T. B. Gilbert,  M. Wormit,  
 J. Kussmann,  A. W. Lange,  A. Behn,  Jia Deng,  Xintian Feng,  D. Ghosh,  
 M. Goldey,  P. R. Horn,  L. D. Jacobson,  I. Kaliman,  T. Kus,  A. Landau,  
 Jie Liu,  E. I. Proynov,  R. M. Richard,  R. P. Steele,  E. J. Sundstrom,  
 H. L. Woodcock III,  P. M. Zimmerman,  D. Zuev,  B. Albrecht,  E. Alguire,  
 S. A. Baeppler,  D. Barton,  Z. Benda,  Y. A. Bernard,  E. J. Berquist,  
 K. B. Bravaya,  H. Burton,  D. Casanova,  Chun-Min Chang,  Yunqing Chen,  
 A. Chien,  K. D. Closser,  M. P. Coons,  S. Coriani,  S. Dasgupta,  
 A. L. Dempwolff,  M. Diedenhofen,  Hainam Do,  R. G. Edgar,  Po-Tung Fang,  
 S. Faraji,  S. Fatehi,  Qingguo Feng,  K. D. Fenk,  J. Fosso-Tande,  
 J. Gayvert,  Qinghui Ge,  A. Ghysels,  G. Gidofalvi,  J. Gomes,  
 J. Gonthier,  A. Gunina,  D. Hait,  M. W. D. Hanson-Heine,  
 P. H. P. Harbach,  A. W. Hauser,  M. F. Herbst,  J. E. Herr,  
 E. G. Hohenstein,  Z. C. Holden,  Kerwin Hui,  B. C. Huynh,  T.-C. Jagau,  
 Hyunjun Ji,  B. Kaduk,  K. Khistyaev,  Jaehoon Kim,  P. Klunzinger,  K. Koh,  
 D. Kosenkov,  L. Koulias,  T. Kowalczyk,  C. M. Krauter,  A. Kunitsa,  
 Ka Un Lao,  A. Laurent,  K. V. Lawler,  Joonho Lee,  D. Lefrancois,  
 S. Lehtola,  D. S. Levine,  Yi-Pei Li,  You-Sheng Lin,  Fenglai Liu,  
 E. Livshits,  A. Luenser,  P. Manohar,  E. Mansoor,  S. F. Manzer,  
 Shan-Ping Mao,  Yuezhi Mao,  N. Mardirossian,  A. V. Marenich,  
 T. Markovich,  L. A. Martinez-Martinez,  S. A. Maurer,  N. J. Mayhall,  
 S. C. McKenzie,  J.-M. Mewes,  P. Morgante,  A. F. Morrison,  
 J. W. Mullinax,  K. Nanda,  T. S. Nguyen-Beck,  R. Olivares-Amaya,  
 J. A. Parkhill,  Zheng Pei,  T. M. Perrine,  F. Plasser,  P. Pokhilko,  
 S. Prager,  A. Prociuk,  E. Ramos,  D. R. Rehn,  F. Rob,  M. Scheurer,  
 M. Schneider,  N. Sergueev,  S. M. Sharada,  S. Sharma,  D. W. Small,  
 T. Stauch,  T. Stein,  Yu-Chuan Su,  A. J. W. Thom,  A. Tkatchenko,  
 T. Tsuchimochi,  N. M. Tubman,  L. Vogt,  M. L. Vidal,  O. Vydrov,  
 M. A. Watson,  J. Wenzel,  M. de Wergifosse,  T. A. Wesolowski,  A. White,  
 J. Witte,  A. Yamada,  Jun Yang,  K. Yao,  S. Yeganeh,  S. R. Yost,  
 Zhi-Qiang You,  A. Zech,  Igor Ying Zhang,  Xing Zhang,  Yan Zhao,  
 Ying Zhu,  B. R. Brooks,  G. K. L. Chan,  C. J. Cramer,  M. S. Gordon,  
 W. J. Hehre,  A. Klamt,  M. W. Schmidt,  C. D. Sherrill,  D. G. Truhlar,  
 A. Aspuru-Guzik,  R. Baer,  A. T. Bell,  N. A. Besley,  Jeng-Da Chai,  
 A. E. DePrince, III,  R. A. DiStasio Jr.,  A. Dreuw,  B. D. Dunietz,  
 T. R. Furlani,  Chao-Ping Hsu,  Yousung Jung,  Jing Kong,  D. S. Lambrecht,  
 WanZhen Liang,  C. Ochsenfeld,  V. A. Rassolov,  L. V. Slipchenko,  
 J. E. Subotnik,  T. Van Voorhis,  J. M. Herbert,  A. I. Krylov,  
 P. M. W. Gill,  M. Head-Gordon

 Contributors to earlier versions of Q-Chem not listed above: 
 R. D. Adamson,  B. Austin,  J. Baker,  G. J. O. Beran,  K. Brandhorst,  
 S. T. Brown,  E. F. C. Byrd,  A. K. Chakraborty,  C.-L. Cheng,  
 Siu Hung Chien,  D. M. Chipman,  D. L. Crittenden,  H. Dachsel,  
 R. J. Doerksen,  A. D. Dutoi,  L. Fusti-Molnar,  W. A. Goddard III,  
 A. Golubeva-Zadorozhnaya,  S. R. Gwaltney,  G. Hawkins,  A. Heyden,  
 S. Hirata,  G. Kedziora,  F. J. Keil,  C. Kelley,  Jihan Kim,  R. A. King,  
 R. Z. Khaliullin,  P. P. Korambath,  W. Kurlancheek,  A. M. Lee,  M. S. Lee,  
 S. V. Levchenko,  Ching Yeh Lin,  D. Liotard,  R. C. Lochan,  I. Lotan,  
 P. E. Maslen,  N. Nair,  D. P. O'Neill,  D. Neuhauser,  E. Neuscamman,  
 C. M. Oana,  R. Olson,  B. Peters,  R. Peverati,  P. A. Pieniazek,  
 Y. M. Rhee,  J. Ritchie,  M. A. Rohrdanz,  E. Rosta,  N. J. Russ,  
 H. F. Schaefer III,  N. E. Schultz,  N. Shenvi,  A. C. Simmonett,  A. Sodt,  
 D. Stuck,  K. S. Thanthiriwatte,  V. Vanovschi,  Tao Wang,  A. Warshel,  
 C. F. Williams,  Q. Wu,  X. Xu,  W. Zhang

 Please cite Q-Chem as follows:
 Y. Shao et al., Mol. Phys. 113, 184-215 (2015)
 DOI: 10.1080/00268976.2014.952696

 Q-Chem 5.2.0 for Intel X86 EM64T Linux

 Parts of Q-Chem use Armadillo 8.300.2 (Tropical Shenanigans).
 http://arma.sourceforge.net/

 Q-Chem begins on Sun Sep 26 12:54:47 2021  

Host: cori01
0

     Scratch files written to /tmp/qchem21292//Frg1//
 May1019 |scratch|qcdevops|jenkins|workspace|build_RNUM -1
Processing $rem in /global/common/cori/software/qchem/5.2/config/preferences:
	 MEM_TOTAL  96000 
NAlpha2: 32
NElect   32
Mult     1
Symmetry turned off for PCM/SM12/SMD calculation

Checking the input file for inconsistencies... 	...done.

--------------------------------------------------------------
User input:
--------------------------------------------------------------
$molecule
0 1
 6	1.8799192071	1.2312629828	2.5658315332
 6	0.5809192071	1.3602629828	1.8068315332
 8	-0.4900807929	1.3602629828	2.4008315332
 7	0.6559192071	1.3432629828	0.4848315332
 1	-0.1950807929	1.2252629828	-0.0541684668
 1	1.5519192071	1.3442629828	0.0258315332
 1	1.9519192071	2.0512629828	3.2808315332
 1	2.7189192071	1.3102629828	1.8738315332
 1	1.9211592071	0.2696529828	3.0983725332
$end
$rem
EDA2		1
METHOD		WB97X-V
BASIS		DEF2-TZVPD
XC_GRID		000099000590
NL_GRID		1
UNRESTRICTED		FALSE
MAX_SCF_CYCLES		200
SYMMETRY		FALSE
SYM_IGNORE		TRUE
BASIS_LIN_DEP_THRESH		6
THRESH		14
SCF_CONVERGENCE		8
SCF_PRINT_FRGM		TRUE
SOLVENT_METHOD		SMD
!required keywords
JOBTYPE		SP
SYM_IGNORE		TRUE
SUBSYSTEM		TRUE
GEN_SCFMAN		TRUE
CHILD_INSTRUCTION		2
SYM_IGNORE		TRUE
SCFMI		0
RI_K 0		
PARI_K 0		
MIN_PARI_K 0		
IARI_K 0		
OCC_RI_K 0		
PURECART		1111
MEM_STATIC		2000
MEM_TOTAL		96000
GUI		0
CHILD_MP		1
CHILD_MP_ORDERS		232
FRZ_RELAX		0
FRZ_RELAX_METHOD		0
EDA_CLS_ELEC		1
EDA_CLS_DISP		0
FRZ_ORTHO_DECOMP		1
EDA2		FALSE
FRGM_METHOD		FALSE
CIS_N_ROOTS  0
LOCAL_CIS    0
CIS_RLX_DNS  1
$end
$smx
SOLVENT			WATER
$end
--------------------------------------------------------------
 ----------------------------------------------------------------
             Standard Nuclear Orientation (Angstroms)
    I     Atom           X                Y                Z
 ----------------------------------------------------------------
    1      C       1.8799192071     1.2312629828     2.5658315332
    2      C       0.5809192071     1.3602629828     1.8068315332
    3      O      -0.4900807929     1.3602629828     2.4008315332
    4      N       0.6559192071     1.3432629828     0.4848315332
    5      H      -0.1950807929     1.2252629828    -0.0541684668
    6      H       1.5519192071     1.3442629828     0.0258315332
    7      H       1.9519192071     2.0512629828     3.2808315332
    8      H       2.7189192071     1.3102629828     1.8738315332
    9      H       1.9211592071     0.2696529828     3.0983725332
 ----------------------------------------------------------------
 Nuclear Repulsion Energy =         122.61282417 hartrees
 There are       16 alpha and       16 beta electrons
 Requested basis set is def2-TZVPD
 There are 78 shells and 196 basis functions

 Total QAlloc Memory Limit  96000 MB
 Mega-Array Size      1956 MB
 MEM_STATIC part      2000 MB
 
 Citation of the SMD model:
 Marenich, A.V.; Cramer, C.J.; Truhlar, D.G.
 J. Phys. Chem. B 2009, 113, 6378-6396.
 iSolventCode=           1
 Solvent: water                                                           
 
 vradii
            1           2           3           4           5           6
    1   1.8500000   1.8500000   1.5200000   1.8900000   1.2000000   1.2000000
            7           8           9
    1   1.2000000   1.2000000   1.2000000
 Changing PCM_VDW_RADII to SMD_RADIUS
 Discretize the solute cavity surface with Lebedev spheres
	Using 110 Lebedev grid points for each H atom
	Using 194 Lebedev grid points for other atoms
	Atomic van der Waals radii will be scaled by 1.20
 Remove points where switching function is < 1.0e-08
 Keep 725 surface tesserae and discard 601 interior tesserae
 Molecular Surface Area = 89.687 Angst**2

                       Distance Matrix (Angstroms)
             C (  1)   C (  2)   O (  3)   N (  4)   H (  5)   H (  6)
   C (  2)  1.510008
   O (  3)  2.379236  1.224695
   N (  4)  2.416874  1.324235  2.232635
   H (  5)  3.342164  2.020822  2.476343  1.014222
   H (  6)  2.563582  2.028561  3.132195  1.006726  1.752875
   H (  7)  1.090325  2.128332  2.686121  3.162040  4.051433  3.354828
   H (  8)  1.090425  2.139634  3.252370  2.487243  3.495112  2.185898
   H (  9)  1.099997  2.157256  2.736800  3.095814  3.915377  3.275917
             H (  7)   H (  8)
   H (  8)  1.765508
   H (  9)  1.791193  1.794099
 
 A cutoff of  1.0D-14 yielded   3053 shell pairs
 There are     19543 function pairs (     24701 Cartesian)
 Smallest overlap matrix eigenvalue = 1.12E-05

 Scale SEOQF with 1.000000e-01/1.000000e-01/1.000000e-01

 Standard Electronic Orientation quadrupole field applied
 Nucleus-field energy     =    -0.0000000083 hartrees
 Guess from superposition of atomic densities
 Warning:  Energy on first SCF cycle will be non-variational
 SAD guess density has 31.604610 electrons

 -----------------------------------------------------------------------
  General SCF calculation program by
  Eric Jon Sundstrom, Paul Horn, Yuezhi Mao, Dmitri Zuev, Alec White,
  David Stuck, Shaama M.S., Shane Yost, Joonho Lee, David Small,
  Daniel Levine, Susi Lehtola, Hugh Burton, Evgeny Epifanovsky
 -----------------------------------------------------------------------
 Exchange:     0.1670 Hartree-Fock + 1.0000 wB97X-V + LR-HF
 Correlation:  1.0000 wB97X-V
 Using Euler-Maclaurin-Lebedev (99,590) quadrature formula
 Nonlocal Correlation:  VV10 with C = 0.0100 and b = 6.00 and scale = 1.00000
 Grid used for NLC:  SG-1 standard quadrature
Energy prior to optimization (guess energy) = -208.704661772724
Begin Timing: Total SCF Calculation
begin iterations for algorithm: DIIS         
the SCF tolerance is set to 1.00e-08
    1    -208.7046617727      1.25e-02     00000 
    2    -208.3482424370      1.52e-02     00000 
    3    -209.2366836495      2.32e-03     00000 
    4    -209.2547018396      7.64e-04     00000 
    5    -209.2577172725      1.98e-04     00000 
    6    -209.2579846981      6.71e-05     00000 
    7    -209.2580255381      2.03e-05     00000 
    8    -209.2580306454      5.88e-06     00000 
    9    -209.2580313987      1.97e-06     00000 
   10    -209.2580314485      3.60e-07     00000 
   11    -209.2580314498      1.47e-07     00000 
   12    -209.2580314500      2.06e-08     00000 
   13    -209.2580314500      4.90e-09     00000 Convergence criterion met
Timing for Total SCF: 355.00s (wall), 703.32s (cpu)
(3)  G-ENP(liq) elect-nuc-pol free energy of system     -209.258031450 a.u.
(4)  G-CDS(liq) cavity-dispersion-solvent structure 
     free energy                                                3.5295 kcal/mol
(6)  G-S(liq) free energy of system                     -209.252406768 a.u.
E_pcm = -0.0300752194
E_cds = 0.0056246823
Multipole orders to be included
        2
        3
computing dipole RHS
computing quadrupole RHS
total number of RHS in solve_reponses: 8
RHS batch sizes
        8
Beginning Block Conjugate Gradient Iterations. Batch Number: 0
computing hessian-vector products by finite difference
              1      5.91e-01     00000 Conjugate Gradient Iteration
computing hessian-vector products by finite difference
              2      2.04e-01     00000 Conjugate Gradient Iteration
computing hessian-vector products by finite difference
              3      5.77e-02     00000 Conjugate Gradient Iteration
computing hessian-vector products by finite difference
              4      1.44e-02     00000 Conjugate Gradient Iteration
computing hessian-vector products by finite difference
              5      1.90e-03     00000 Conjugate Gradient Iteration
computing hessian-vector products by finite difference
              6      4.07e-04     00000 Conjugate Gradient Iteration
computing hessian-vector products by finite difference
              7      5.61e-05     00000 Conjugate Gradient Iteration
computing hessian-vector products by finite difference
              8      6.52e-06     00000 Conjugate Gradient Iteration
computing hessian-vector products by finite difference
              9      9.14e-07     00000 Conjugate Gradient Iteration
computing hessian-vector products by finite difference
             10      9.88e-08     00000 Conjugate Gradient Iteration
computing hessian-vector products by finite difference
             11      9.69e-09     00000 CG Converged
batch 0 complete
Done Calculating Responses
TESTING ORTHOGONALIZATION OF MULTIPOLE BASIS
Multipole virts passed orthogonality test
Virts Per Order
        48
        80
 
 --------------------------------------------------------------
 
                    Orbital Energies (a.u.)
 --------------------------------------------------------------
 
 Alpha MOs
 -- Occupied --
-19.1823 -14.4270 -10.3761 -10.2622  -1.1783  -1.0423  -0.8632  -0.7079
 -0.6515  -0.5921  -0.5660  -0.5207  -0.4982  -0.4770  -0.3841  -0.3751
 -- Virtual --
  0.0649   0.0946   0.0977   0.1035   0.1308   0.1343   0.1397   0.1515
  0.1815   0.1901   0.1952   0.2156   0.2303   0.2497   0.2536   0.2619
  0.2693   0.2814   0.3028   0.3140   0.3357   0.3395   0.3467   0.3556
  0.3617   0.3658   0.3768   0.3818   0.3888   0.4008   0.4171   0.4288
  0.4389   0.4596   0.4681   0.4763   0.4854   0.4947   0.5048   0.5080
  0.5202   0.5307   0.5603   0.5621   0.5848   0.5916   0.6136   0.6332
  0.6377   0.6520   0.6689   0.7050   0.7107   0.7215   0.7365   0.7681
  0.7730   0.7819   0.7981   0.8128   0.8286   0.8364   0.8572   0.8888
  0.9175   0.9595   0.9619   0.9900   1.0191   1.0311   1.0614   1.1044
  1.1252   1.1739   1.2296   1.2440   1.2946   1.3241   1.3297   1.3973
  1.4763   1.4908   1.5302   1.6194   1.6851   1.7282   1.7410   1.8052
  1.8520   1.8700   1.8920   1.9206   1.9394   1.9653   1.9780   2.0444
  2.0604   2.0804   2.1292   2.1764   2.2015   2.2392   2.3094   2.3875
  2.4119   2.4424   2.4686   2.4881   2.5237   2.5737   2.5978   2.6226
  2.6630   2.7052   2.7964   2.8161   2.8659   2.8982   2.9523   2.9731
  3.0608   3.1129   3.1311   3.1696   3.2038   3.2156   3.2648   3.3129
  3.3190   3.3438   3.3920   3.4186   3.4482   3.5047   3.5392   3.5481
  3.6027   3.6667   3.7090   3.8405   3.8583   3.9450   4.0270   4.0442
  4.0772   4.1921   4.3231   4.4327   4.4607   4.6280   4.6427   4.6837
  4.7765   4.8947   4.9090   4.9393   5.1344   5.1789   5.2568   5.3516
  5.3888   5.4015   5.4099   5.5002   5.5352   5.7757   5.9172   6.1499
  6.2598   6.5321   6.6372   6.7420   6.8434   6.9647   7.2195   7.3222
 22.5999  23.6012  32.4126  44.2868
 --------------------------------------------------------------
 
          Ground-State Mulliken Net Atomic Charges

     Atom                 Charge (a.u.)
  ----------------------------------------
      1 C                    -0.603804
      2 C                     0.414142
      3 O                    -0.689966
      4 N                    -0.295077
      5 H                     0.246617
      6 H                     0.247190
      7 H                     0.223211
      8 H                     0.234703
      9 H                     0.222984
  ----------------------------------------
  Sum of atomic charges =     0.000000

 -----------------------------------------------------------------
                    Cartesian Multipole Moments
 -----------------------------------------------------------------
    Charge (ESU x 10^10)
                 0.0000
    Dipole Moment (Debye)
         X       4.4724      Y      -0.3490      Z      -3.8610
       Tot       5.9187
    Quadrupole Moments (Debye-Ang)
        XX     -20.3026     XY       6.0370     YY     -25.9242
        XZ       8.6043     YZ      -5.5026     ZZ     -33.8396
    Octopole Moments (Debye-Ang^2)
       XXX     -43.9277    XXY     -26.7258    XYY      -9.7640
       YYY    -100.9869    XXZ     -42.3635    XYZ      11.2293
       YYZ     -50.8564    XZZ       3.9331    YZZ     -45.7377
       ZZZ    -160.5196
    Hexadecapole Moments (Debye-Ang^3)
      XXXX    -220.7081   XXXY     -53.8837   XXYY     -79.9557
      XYYY     -57.1018   YYYY    -297.2291   XXXZ    -101.0978
      XXYZ     -55.8352   XYYZ     -17.6152   YYYZ    -180.7368
      XXZZ    -138.0036   XYZZ       5.8974   YYZZ    -166.4283
      XZZZ     -52.0046   YZZZ    -212.2422   ZZZZ    -713.9925
 -----------------------------------------------------------------
Archival summary:
1\1\nid00540\SP\ProcedureUnspecified\BasisUnspecified\1125\meili\SunSep2614:35:222021SunSep2614:35:222021\0\\#,ProcedureUnspecified,BasisUnspecified,\\0,1\C\O,1,1.22469\N,1,1.32423,2,122.258\H,3,1.00673,1,120.368,2,179.967,0\H,3,1.01422,1,118.981,2,-6.76842,0\C,1,1.51001,2,120.565,3,-173.436,0\H,6,1.09033,1,108.795,2,-58.6459,0\H,6,1.09042,1,109.678,2,-176.709,0\H,6,1.1,1,110.504,2,61.878,0\\\@

 Total job time:  6034.74s(wall), 11930.92s(cpu) 
 Sun Sep 26 14:35:22 2021

        *************************************************************
        *                                                           *
        *  Thank you very much for using Q-Chem.  Have a nice day.  *
        *                                                           *
        *************************************************************


Done Job For Fragment 0
calling putenv with: QCSCRATCH=/global/cscratch1/sd/meili 
calling putenv with: QCLOCALSCR=/tmp 
calling putenv with: QCTHREADS=32 
Creating input file /tmp/qchem21292/Frg2.input
using default PutDataFrgm: nothing
calling putenv with: QCSCRATCH=/tmp/qchem21292/ 
calling putenv with: QCLOCALSCR=/tmp/qchem21292/ 
Spawning Job For Fragment 1
                  Welcome to Q-Chem
     A Quantum Leap Into The Future Of Chemistry


 Q-Chem 5.2, Q-Chem, Inc., Pleasanton, CA (2019)

 License issued to: National Energy Research Scientific Computing Center

 Yihan Shao,  Zhengting Gan,  E. Epifanovsky,  A. T. B. Gilbert,  M. Wormit,  
 J. Kussmann,  A. W. Lange,  A. Behn,  Jia Deng,  Xintian Feng,  D. Ghosh,  
 M. Goldey,  P. R. Horn,  L. D. Jacobson,  I. Kaliman,  T. Kus,  A. Landau,  
 Jie Liu,  E. I. Proynov,  R. M. Richard,  R. P. Steele,  E. J. Sundstrom,  
 H. L. Woodcock III,  P. M. Zimmerman,  D. Zuev,  B. Albrecht,  E. Alguire,  
 S. A. Baeppler,  D. Barton,  Z. Benda,  Y. A. Bernard,  E. J. Berquist,  
 K. B. Bravaya,  H. Burton,  D. Casanova,  Chun-Min Chang,  Yunqing Chen,  
 A. Chien,  K. D. Closser,  M. P. Coons,  S. Coriani,  S. Dasgupta,  
 A. L. Dempwolff,  M. Diedenhofen,  Hainam Do,  R. G. Edgar,  Po-Tung Fang,  
 S. Faraji,  S. Fatehi,  Qingguo Feng,  K. D. Fenk,  J. Fosso-Tande,  
 J. Gayvert,  Qinghui Ge,  A. Ghysels,  G. Gidofalvi,  J. Gomes,  
 J. Gonthier,  A. Gunina,  D. Hait,  M. W. D. Hanson-Heine,  
 P. H. P. Harbach,  A. W. Hauser,  M. F. Herbst,  J. E. Herr,  
 E. G. Hohenstein,  Z. C. Holden,  Kerwin Hui,  B. C. Huynh,  T.-C. Jagau,  
 Hyunjun Ji,  B. Kaduk,  K. Khistyaev,  Jaehoon Kim,  P. Klunzinger,  K. Koh,  
 D. Kosenkov,  L. Koulias,  T. Kowalczyk,  C. M. Krauter,  A. Kunitsa,  
 Ka Un Lao,  A. Laurent,  K. V. Lawler,  Joonho Lee,  D. Lefrancois,  
 S. Lehtola,  D. S. Levine,  Yi-Pei Li,  You-Sheng Lin,  Fenglai Liu,  
 E. Livshits,  A. Luenser,  P. Manohar,  E. Mansoor,  S. F. Manzer,  
 Shan-Ping Mao,  Yuezhi Mao,  N. Mardirossian,  A. V. Marenich,  
 T. Markovich,  L. A. Martinez-Martinez,  S. A. Maurer,  N. J. Mayhall,  
 S. C. McKenzie,  J.-M. Mewes,  P. Morgante,  A. F. Morrison,  
 J. W. Mullinax,  K. Nanda,  T. S. Nguyen-Beck,  R. Olivares-Amaya,  
 J. A. Parkhill,  Zheng Pei,  T. M. Perrine,  F. Plasser,  P. Pokhilko,  
 S. Prager,  A. Prociuk,  E. Ramos,  D. R. Rehn,  F. Rob,  M. Scheurer,  
 M. Schneider,  N. Sergueev,  S. M. Sharada,  S. Sharma,  D. W. Small,  
 T. Stauch,  T. Stein,  Yu-Chuan Su,  A. J. W. Thom,  A. Tkatchenko,  
 T. Tsuchimochi,  N. M. Tubman,  L. Vogt,  M. L. Vidal,  O. Vydrov,  
 M. A. Watson,  J. Wenzel,  M. de Wergifosse,  T. A. Wesolowski,  A. White,  
 J. Witte,  A. Yamada,  Jun Yang,  K. Yao,  S. Yeganeh,  S. R. Yost,  
 Zhi-Qiang You,  A. Zech,  Igor Ying Zhang,  Xing Zhang,  Yan Zhao,  
 Ying Zhu,  B. R. Brooks,  G. K. L. Chan,  C. J. Cramer,  M. S. Gordon,  
 W. J. Hehre,  A. Klamt,  M. W. Schmidt,  C. D. Sherrill,  D. G. Truhlar,  
 A. Aspuru-Guzik,  R. Baer,  A. T. Bell,  N. A. Besley,  Jeng-Da Chai,  
 A. E. DePrince, III,  R. A. DiStasio Jr.,  A. Dreuw,  B. D. Dunietz,  
 T. R. Furlani,  Chao-Ping Hsu,  Yousung Jung,  Jing Kong,  D. S. Lambrecht,  
 WanZhen Liang,  C. Ochsenfeld,  V. A. Rassolov,  L. V. Slipchenko,  
 J. E. Subotnik,  T. Van Voorhis,  J. M. Herbert,  A. I. Krylov,  
 P. M. W. Gill,  M. Head-Gordon

 Contributors to earlier versions of Q-Chem not listed above: 
 R. D. Adamson,  B. Austin,  J. Baker,  G. J. O. Beran,  K. Brandhorst,  
 S. T. Brown,  E. F. C. Byrd,  A. K. Chakraborty,  C.-L. Cheng,  
 Siu Hung Chien,  D. M. Chipman,  D. L. Crittenden,  H. Dachsel,  
 R. J. Doerksen,  A. D. Dutoi,  L. Fusti-Molnar,  W. A. Goddard III,  
 A. Golubeva-Zadorozhnaya,  S. R. Gwaltney,  G. Hawkins,  A. Heyden,  
 S. Hirata,  G. Kedziora,  F. J. Keil,  C. Kelley,  Jihan Kim,  R. A. King,  
 R. Z. Khaliullin,  P. P. Korambath,  W. Kurlancheek,  A. M. Lee,  M. S. Lee,  
 S. V. Levchenko,  Ching Yeh Lin,  D. Liotard,  R. C. Lochan,  I. Lotan,  
 P. E. Maslen,  N. Nair,  D. P. O'Neill,  D. Neuhauser,  E. Neuscamman,  
 C. M. Oana,  R. Olson,  B. Peters,  R. Peverati,  P. A. Pieniazek,  
 Y. M. Rhee,  J. Ritchie,  M. A. Rohrdanz,  E. Rosta,  N. J. Russ,  
 H. F. Schaefer III,  N. E. Schultz,  N. Shenvi,  A. C. Simmonett,  A. Sodt,  
 D. Stuck,  K. S. Thanthiriwatte,  V. Vanovschi,  Tao Wang,  A. Warshel,  
 C. F. Williams,  Q. Wu,  X. Xu,  W. Zhang

 Please cite Q-Chem as follows:
 Y. Shao et al., Mol. Phys. 113, 184-215 (2015)
 DOI: 10.1080/00268976.2014.952696

 Q-Chem 5.2.0 for Intel X86 EM64T Linux

 Parts of Q-Chem use Armadillo 8.300.2 (Tropical Shenanigans).
 http://arma.sourceforge.net/

 Q-Chem begins on Sun Sep 26 14:35:24 2021  

Host: cori01
0

     Scratch files written to /tmp/qchem21292//Frg2//
 May1019 |scratch|qcdevops|jenkins|workspace|build_RNUM -1
Processing $rem in /global/common/cori/software/qchem/5.2/config/preferences:
	 MEM_TOTAL  96000 
NAlpha2: 32
NElect   32
Mult     1
Symmetry turned off for PCM/SM12/SMD calculation

Checking the input file for inconsistencies... 	...done.

--------------------------------------------------------------
User input:
--------------------------------------------------------------
$molecule
0 1
 6	0.3839192071	-1.5147370172	-2.7921684668
 6	-0.6900807929	-1.2557370172	-1.7541684668
 8	-1.0170807929	-0.1107370172	-1.4351684668
 7	-1.2690807929	-2.3237370172	-1.2231684668
 1	0.0269192071	-2.2727370172	-3.4911684668
 1	1.2109192071	-1.9617370172	-2.2641684668
 1	-2.0120807929	-2.1807370172	-0.5541684668
 1	-1.0260807929	-3.2487370172	-1.5431684668
 1	0.6353492071	-0.6138870172	-3.3711814668
$end
$rem
EDA2		1
METHOD		WB97X-V
BASIS		DEF2-TZVPD
XC_GRID		000099000590
NL_GRID		1
UNRESTRICTED		FALSE
MAX_SCF_CYCLES		200
SYMMETRY		FALSE
SYM_IGNORE		TRUE
BASIS_LIN_DEP_THRESH		6
THRESH		14
SCF_CONVERGENCE		8
SCF_PRINT_FRGM		TRUE
SOLVENT_METHOD		SMD
!required keywords
JOBTYPE		SP
SYM_IGNORE		TRUE
SUBSYSTEM		TRUE
GEN_SCFMAN		TRUE
CHILD_INSTRUCTION		2
SYM_IGNORE		TRUE
SCFMI		0
RI_K 0		
PARI_K 0		
MIN_PARI_K 0		
IARI_K 0		
OCC_RI_K 0		
PURECART		1111
MEM_STATIC		2000
MEM_TOTAL		96000
GUI		0
CHILD_MP		1
CHILD_MP_ORDERS		232
FRZ_RELAX		0
FRZ_RELAX_METHOD		0
EDA_CLS_ELEC		1
EDA_CLS_DISP		0
FRZ_ORTHO_DECOMP		1
EDA2		FALSE
FRGM_METHOD		FALSE
CIS_N_ROOTS  0
LOCAL_CIS    0
CIS_RLX_DNS  1
$end
$smx
SOLVENT			WATER
$end
--------------------------------------------------------------
 ----------------------------------------------------------------
             Standard Nuclear Orientation (Angstroms)
    I     Atom           X                Y                Z
 ----------------------------------------------------------------
    1      C       0.3839192071    -1.5147370172    -2.7921684668
    2      C      -0.6900807929    -1.2557370172    -1.7541684668
    3      O      -1.0170807929    -0.1107370172    -1.4351684668
    4      N      -1.2690807929    -2.3237370172    -1.2231684668
    5      H       0.0269192071    -2.2727370172    -3.4911684668
    6      H       1.2109192071    -1.9617370172    -2.2641684668
    7      H      -2.0120807929    -2.1807370172    -0.5541684668
    8      H      -1.0260807929    -3.2487370172    -1.5431684668
    9      H       0.6353492071    -0.6138870172    -3.3711814668
 ----------------------------------------------------------------
 Nuclear Repulsion Energy =         122.31982738 hartrees
 There are       16 alpha and       16 beta electrons
 Requested basis set is def2-TZVPD
 There are 78 shells and 196 basis functions

 Total QAlloc Memory Limit  96000 MB
 Mega-Array Size      1956 MB
 MEM_STATIC part      2000 MB
 
 Citation of the SMD model:
 Marenich, A.V.; Cramer, C.J.; Truhlar, D.G.
 J. Phys. Chem. B 2009, 113, 6378-6396.
 iSolventCode=           1
 Solvent: water                                                           
 
 vradii
            1           2           3           4           5           6
    1   1.8500000   1.8500000   1.5200000   1.8900000   1.2000000   1.2000000
            7           8           9
    1   1.2000000   1.2000000   1.2000000
 Changing PCM_VDW_RADII to SMD_RADIUS
 Discretize the solute cavity surface with Lebedev spheres
	Using 110 Lebedev grid points for each H atom
	Using 194 Lebedev grid points for other atoms
	Atomic van der Waals radii will be scaled by 1.20
 Remove points where switching function is < 1.0e-08
 Keep 729 surface tesserae and discard 597 interior tesserae
 Molecular Surface Area = 90.104 Angst**2

                       Distance Matrix (Angstroms)
             C (  1)   C (  2)   O (  3)   N (  4)   H (  5)   H (  6)
   C (  2)  1.515916
   O (  3)  2.403220  1.232767
   N (  4)  2.418398  1.325830  2.237368
   H (  5)  1.091153  2.136714  3.160904  2.612669
   H (  6)  1.078203  2.091013  3.012877  2.713876  1.733236
   H (  7)  3.345597  2.010798  2.459896  1.009980  3.576584  3.655105
   H (  8)  2.560245  2.032109  3.139871  1.008501  2.419936  2.679623
   H (  9)  1.100002  2.187114  2.594577  3.341317  1.770979  1.836698
             H (  7)   H (  8)
   H (  8)  1.758107
   H (  9)  4.171267  3.611705
 
 A cutoff of  1.0D-14 yielded   3054 shell pairs
 There are     19544 function pairs (     24702 Cartesian)
 Smallest overlap matrix eigenvalue = 1.00E-05

 Scale SEOQF with 1.000000e-01/1.000000e-01/1.000000e-01

 Standard Electronic Orientation quadrupole field applied
 Nucleus-field energy     =    -0.0000000060 hartrees
 Guess from superposition of atomic densities
 Warning:  Energy on first SCF cycle will be non-variational
 SAD guess density has 31.604610 electrons

 -----------------------------------------------------------------------
  General SCF calculation program by
  Eric Jon Sundstrom, Paul Horn, Yuezhi Mao, Dmitri Zuev, Alec White,
  David Stuck, Shaama M.S., Shane Yost, Joonho Lee, David Small,
  Daniel Levine, Susi Lehtola, Hugh Burton, Evgeny Epifanovsky
 -----------------------------------------------------------------------
 Exchange:     0.1670 Hartree-Fock + 1.0000 wB97X-V + LR-HF
 Correlation:  1.0000 wB97X-V
 Using Euler-Maclaurin-Lebedev (99,590) quadrature formula
 Nonlocal Correlation:  VV10 with C = 0.0100 and b = 6.00 and scale = 1.00000
 Grid used for NLC:  SG-1 standard quadrature
Energy prior to optimization (guess energy) = -208.701384112322
Begin Timing: Total SCF Calculation
begin iterations for algorithm: DIIS         
the SCF tolerance is set to 1.00e-08
    1    -208.7013841123      1.26e-02     00000 
    2    -208.3131341933      1.55e-02     00000 
    3    -209.2353040127      2.38e-03     00000 
    4    -209.2542496736      7.80e-04     00000 
    5    -209.2574025096      2.02e-04     00000 
    6    -209.2576837964      6.76e-05     00000 
    7    -209.2577259233      2.08e-05     00000 
    8    -209.2577312489      6.07e-06     00000 
    9    -209.2577320477      2.06e-06     00000 
   10    -209.2577321005      3.61e-07     00000 
   11    -209.2577321018      1.52e-07     00000 
   12    -209.2577321020      2.02e-08     00000 
   13    -209.2577321020      4.86e-09     00000 Convergence criterion met
Timing for Total SCF: 359.00s (wall), 711.97s (cpu)
(3)  G-ENP(liq) elect-nuc-pol free energy of system     -209.257732102 a.u.
(4)  G-CDS(liq) cavity-dispersion-solvent structure 
     free energy                                                3.5111 kcal/mol
(6)  G-S(liq) free energy of system                     -209.252136760 a.u.
E_pcm = -0.0302750340
E_cds = 0.0055953423
Multipole orders to be included
        2
        3
computing dipole RHS
computing quadrupole RHS
total number of RHS in solve_reponses: 8
RHS batch sizes
        8
Beginning Block Conjugate Gradient Iterations. Batch Number: 0
computing hessian-vector products by finite difference
              1      7.13e-01     00000 Conjugate Gradient Iteration
computing hessian-vector products by finite difference
              2      2.30e-01     00000 Conjugate Gradient Iteration
computing hessian-vector products by finite difference
              3      6.32e-02     00000 Conjugate Gradient Iteration
computing hessian-vector products by finite difference
              4      1.61e-02     00000 Conjugate Gradient Iteration
computing hessian-vector products by finite difference
              5      2.22e-03     00000 Conjugate Gradient Iteration
computing hessian-vector products by finite difference
              6      5.18e-04     00000 Conjugate Gradient Iteration
computing hessian-vector products by finite difference
              7      6.98e-05     00000 Conjugate Gradient Iteration
computing hessian-vector products by finite difference
              8      7.93e-06     00000 Conjugate Gradient Iteration
computing hessian-vector products by finite difference
              9      1.13e-06     00000 Conjugate Gradient Iteration
computing hessian-vector products by finite difference
             10      1.21e-07     00000 Conjugate Gradient Iteration
computing hessian-vector products by finite difference
             11      1.44e-08     00000 Conjugate Gradient Iteration
computing hessian-vector products by finite difference
             12      4.79e-09     00000 CG Converged
batch 0 complete
Done Calculating Responses
TESTING ORTHOGONALIZATION OF MULTIPOLE BASIS
Multipole virts passed orthogonality test
Virts Per Order
        48
        80
 
 --------------------------------------------------------------
 
                    Orbital Energies (a.u.)
 --------------------------------------------------------------
 
 Alpha MOs
 -- Occupied --
-19.1837 -14.4260 -10.3779 -10.2619  -1.1748  -1.0414  -0.8644  -0.7066
 -0.6515  -0.5911  -0.5660  -0.5187  -0.5034  -0.4755  -0.3834  -0.3746
 -- Virtual --
  0.0639   0.0956   0.0976   0.1032   0.1295   0.1336   0.1406   0.1475
  0.1730   0.1920   0.2049   0.2139   0.2321   0.2457   0.2471   0.2590
  0.2626   0.2809   0.3073   0.3142   0.3351   0.3373   0.3461   0.3535
  0.3601   0.3723   0.3826   0.3863   0.3919   0.4041   0.4177   0.4271
  0.4289   0.4561   0.4593   0.4784   0.4866   0.4873   0.4933   0.5020
  0.5271   0.5363   0.5382   0.5745   0.5824   0.5892   0.6288   0.6384
  0.6519   0.6607   0.6636   0.6900   0.6996   0.7177   0.7286   0.7662
  0.7784   0.7852   0.8094   0.8122   0.8172   0.8370   0.8501   0.8794
  0.9265   0.9561   0.9712   0.9931   1.0114   1.0454   1.0558   1.1056
  1.1170   1.1768   1.2245   1.2628   1.2852   1.3135   1.3285   1.3917
  1.4806   1.4835   1.5071   1.6157   1.6842   1.7401   1.7633   1.8077
  1.8444   1.8674   1.8873   1.9211   1.9320   1.9448   2.0019   2.0322
  2.0610   2.0871   2.1481   2.1940   2.2458   2.2817   2.3091   2.3333
  2.3761   2.4171   2.4425   2.4720   2.5310   2.5438   2.6096   2.6684
  2.6941   2.7332   2.7597   2.8228   2.8757   2.9172   2.9490   2.9808
  3.0367   3.1300   3.1448   3.1735   3.2033   3.2168   3.2772   3.2856
  3.3222   3.3259   3.3515   3.4392   3.4608   3.5152   3.5446   3.5661
  3.6121   3.6729   3.7205   3.7595   3.8832   3.9357   4.0368   4.0470
  4.0727   4.1818   4.3179   4.3979   4.5482   4.6059   4.6131   4.6622
  4.7920   4.8926   4.9022   4.9267   5.1498   5.1780   5.2614   5.3508
  5.3806   5.3951   5.4196   5.4837   5.5311   5.7592   5.9064   6.1473
  6.2513   6.5120   6.6283   6.7263   6.8156   6.9686   7.2219   7.3125
 22.6163  23.5739  32.4207  44.2977
 --------------------------------------------------------------
 
          Ground-State Mulliken Net Atomic Charges

     Atom                 Charge (a.u.)
  ----------------------------------------
      1 C                    -0.659375
      2 C                     0.468320
      3 O                    -0.698166
      4 N                    -0.313300
      5 H                     0.250498
      6 H                     0.224716
      7 H                     0.256642
      8 H                     0.234403
      9 H                     0.236261
  ----------------------------------------
  Sum of atomic charges =     0.000000

 -----------------------------------------------------------------
                    Cartesian Multipole Moments
 -----------------------------------------------------------------
    Charge (ESU x 10^10)
                -0.0000
    Dipole Moment (Debye)
         X       0.6036      Y      -5.9567      Z      -0.8884
       Tot       6.0528
    Quadrupole Moments (Debye-Ang)
        XX     -23.5285     XY       5.7016     YY      -9.7909
        XZ      -2.7353     YZ       9.5676     ZZ     -19.8767
    Octopole Moments (Debye-Ang^2)
       XXX      40.1324    XXY      22.9501    XYY      -0.3916
       YYY      54.7731    XXZ      49.3511    XYZ      -4.1997
       YYZ      21.6430    XZZ      19.5747    YZZ      14.4295
       ZZZ     119.3260
    Hexadecapole Moments (Debye-Ang^3)
      XXXX    -146.0984   XXXY     -42.2692   XXYY     -68.8895
      XYYY     -13.4659   YYYY    -255.6219   XXXZ     -51.9027
      XXYZ     -59.7800   XYYZ      -2.0637   YYYZ    -111.3394
      XXZZ    -136.5044   XYZZ     -13.5781   YYZZ    -122.3522
      XZZZ     -54.2286   YZZZ    -143.2663   ZZZZ    -548.2138
 -----------------------------------------------------------------
Archival summary:
1\1\nid00540\SP\ProcedureUnspecified\BasisUnspecified\1125\meili\SunSep2616:17:232021SunSep2616:17:232021\0\\#,ProcedureUnspecified,BasisUnspecified,\\0,1\C\O,1,1.23277\N,1,1.32583,2,121.918\H,3,1.0085,1,120.433,2,176.048,0\H,3,1.00998,1,118.197,2,1.35961,0\C,1,1.51592,2,121.588,3,179.076,0\H,6,1.0782,1,106.197,2,112.701,0\H,6,1.09115,1,108.998,2,-133.427,0\H,6,1.1,1,112.485,2,-13.868,0\\\@

 Total job time:  6119.78s(wall), 12087.57s(cpu) 
 Sun Sep 26 16:17:24 2021

        *************************************************************
        *                                                           *
        *  Thank you very much for using Q-Chem.  Have a nice day.  *
        *                                                           *
        *************************************************************


Done Job For Fragment 1
calling putenv with: QCSCRATCH=/global/cscratch1/sd/meili 
calling putenv with: QCLOCALSCR=/tmp 
calling putenv with: QCTHREADS=32 
Doing General SCFMI
 Exchange:     0.1670 Hartree-Fock + 1.0000 wB97X-V + LR-HF
 Correlation:  1.0000 wB97X-V
 Using Euler-Maclaurin-Lebedev (99,590) quadrature formula
 Nonlocal Correlation:  VV10 with C = 0.0100 and b = 6.00 and scale = 1.00000
 Grid used for NLC:  SG-1 standard quadrature
performing fock build before subrot guess so that all methods have access
Printing subrot_rss_gen Method Specification:
Occupied Subspace Method is 0
Virtual Subspace Method is 0
Energy of the unrelaxed supersystem initial determinant -418.464307178096
performing fock build before subrot guess so that all methods have access
Printing subrot_rss_gen Method Specification:
Occupied Subspace Method is 0
Virtual Subspace Method is 0
Energy of the unrelaxed supersystem initial determinant w/ solvent -418.515245487201
write pseudocanon occs and virts to disk
write pseudocanon orbital energies to disk
Tolerance of ortho_decomp_scf: 1.00e-06
GDM subspace size: 20
Beginning the Orthogonal Decomposition of the Initial Supersystem Wavefunction
    1    -418.4280283498      6.59e-02     ortho_decomp Preconditoned Steepest Descent
    2    -418.4325463244      1.39e-03     ortho_decomp BFGS Step
    3    -418.4325587641      1.21e-04     ortho_decomp BFGS Step
    4    -418.4325587948      4.81e-06     ortho_decomp BFGS Step
    5    -418.4325587949      1.52e-07     ortho_decomp 00000 Convergence criterion met
 Hartree-Fock
 Hartree-Fock
 Hartree-Fock
Doing General SCFMI
 Exchange:     0.1670 Hartree-Fock + 1.0000 wB97X-V + LR-HF
 Correlation:  1.0000 wB97X-V
 Using Euler-Maclaurin-Lebedev (99,590) quadrature formula
 Nonlocal Correlation:  VV10 with C = 0.0100 and b = 6.00 and scale = 1.00000
 Grid used for NLC:  SG-1 standard quadrature
performing fock build at end of subrot_r(subrot) constructor so that all methods have access
<S^2> of initial wavefunction before polarization iterations 0.0000000000
Beginning iterations for the determination of the polarized wavefunction
Energy prior to optimization (guess energy) = -418.515245487201
Begin Timing: Total SCF Calculation
begin iterations for algorithm: DIIS         
the SCF tolerance is set to 1.00e-08
    1    -418.5152454872      9.37e-05     00000 
    2    -418.5155768641      5.17e-05     00000 
    3    -418.5156248355      2.88e-05     00000 
    4    -418.5156436232      8.35e-06     00000 
    5    -418.5156456028      3.25e-06     00000 
    6    -418.5156461472      1.27e-06     00000 
    7    -418.5156462272      4.59e-07     00000 
    8    -418.5156462367      1.12e-07     00000 
    9    -418.5156462372      5.93e-08     00000 
   10    -418.5156462372      2.41e-08     00000 
   11    -418.5156462373      6.91e-09     00000 Convergence criterion met
write pseudocanon occs and virts to disk
write pseudocanon orbital energies to disk
Timing for Total SCF: 1698.00s (wall), 3374.79s (cpu)
<S^2> of polarized wavefunction after polarization iterations 0.0000000000
relaxing scfmi constraint to allow all rotations in the entire AO span
Doing General SCFMI
 Exchange:     0.1670 Hartree-Fock + 1.0000 wB97X-V + LR-HF
 Correlation:  1.0000 wB97X-V
 Using Euler-Maclaurin-Lebedev (99,590) quadrature formula
 Nonlocal Correlation:  VV10 with C = 0.0100 and b = 6.00 and scale = 1.00000
 Grid used for NLC:  SG-1 standard quadrature
performing fock build at end of subrot_r(subrot) constructor so that all methods have access
<S^2> of polarized wavefunction before ct-allowed iterations 0.0000000000
Beginning iterations for the determination of the CT-Allowed wavefunction
Energy prior to optimization (guess energy) = -418.515646237254
Begin Timing: Total SCF Calculation
begin iterations for algorithm: DIIS         
the SCF tolerance is set to 1.00e-08
    1    -418.5156462373      1.25e-04     00000 
    2    -418.5171093958      1.78e-05     00000 
    3    -418.5171642410      5.71e-06     00000 
    4    -418.5171659285      4.34e-06     00000 
    5    -418.5171670212      4.89e-07     00000 
    6    -418.5171670460      2.28e-07     00000 
    7    -418.5171670515      5.81e-08     00000 
    8    -418.5171670520      2.29e-08     00000 
    9    -418.5171670521      6.72e-09     00000 Convergence criterion met
write pseudocanon occs and virts to disk
write pseudocanon orbital energies to disk
Timing for Total SCF: 1382.00s (wall), 2747.54s (cpu)
<S^2> of ct_allowed wavefunction after ct-allowed iterations 0.0000000000

================================
        Results of EDA2         
================================
Basic EDA Quantities
--------------------
Fragment Energies (Ha):
1 -209.2524067677
2 -209.2521367597
--------------------
  E_prp (kJ/mol) = 0.0000
  E_sol (kJ/mol) = 22.0575
  E_frz (kJ/mol) = -23.3512
  E_pol (kJ/mol) = -1.0522
  E_vct (kJ/mol) = -3.9929
  E_int (kJ/mol) = -6.3388
--------------------


Initial Wavefunction Decomposition
--------------------
  --------------------
  Orthogonal Fragment Subspace Decomposition:
  --------------------
     E_elec   (ELEC)   (kJ/mol) = -61.8002
     E_pauli  (PAULI)  (kJ/mol) = 48.8051
     E_disp   (DISP)   (kJ/mol) = -10.3561
     --------------------
     Terms summing to E_pauli:
     --------------------
        E_kep_pauli       (kJ/mol) = 60.0052
        E_disp_free_pauli (kJ/mol) = -11.2001
  --------------------
  Classical Frozen Decomposition:
  --------------------
     E_cls_elec  (CLS ELEC)  (kJ/mol) = -39.3192
     E_cls_pauli (CLS PAULI) (kJ/mol) = 15.9680
    [E_mod_pauli (MOD PAULI) (kJ/mol) = 26.3241 (CLS PAULI - DISP from orthogonal decomposition) ]
  --------------------
--------------------

Simplified EDA Summary (kJ/mol)
--------------------
 PREPARATION     0.0000
 SOLVATION       22.0575
 FROZEN          -12.9950      (does not include dispersion)
[PAULI           48.8051]     (if this is negligible, then frozen describes electrostatics)
 DISPERSION      -10.3561
 POLARIZATION    -1.0522
 CHARGE TRANSFER -3.9929
 TOTAL           -6.3388     (PRP + SOL + FRZ + DISP + POL + CT)
--------------------
 
 --------------------------------------------------------------
 
                    Orbital Energies (a.u.)
 --------------------------------------------------------------
 
 Alpha MOs
 -- Occupied --
-19.1853 -19.1804 -14.4270 -14.4211 -10.3793 -10.3735 -10.2626 -10.2611
 -1.1773  -1.1758  -1.0431  -1.0380  -0.8653  -0.8617  -0.7104  -0.7029
 -0.6535  -0.6484  -0.5946  -0.5884  -0.5677  -0.5635  -0.5241  -0.5154
 -0.5043  -0.4958  -0.4765  -0.4748  -0.3881  -0.3773  -0.3764  -0.3730
 -- Virtual --
  0.0581   0.0779   0.0870   0.0906   0.1019   0.1064   0.1109   0.1208
  0.1268   0.1304   0.1394   0.1423   0.1449   0.1574   0.1621   0.1766
  0.1833   0.1930   0.1946   0.2055   0.2128   0.2208   0.2296   0.2323
  0.2385   0.2401   0.2479   0.2591   0.2668   0.2734   0.2834   0.2851
  0.2890   0.2956   0.3083   0.3138   0.3236   0.3257   0.3320   0.3373
  0.3398   0.3452   0.3478   0.3511   0.3539   0.3590   0.3642   0.3669
  0.3779   0.3838   0.3858   0.3889   0.3950   0.3982   0.4035   0.4083
  0.4130   0.4207   0.4331   0.4347   0.4405   0.4482   0.4556   0.4622
  0.4642   0.4701   0.4753   0.4787   0.4840   0.4918   0.4954   0.5023
  0.5102   0.5124   0.5154   0.5209   0.5276   0.5353   0.5398   0.5447
  0.5460   0.5561   0.5733   0.5805   0.5853   0.5953   0.6029   0.6057
  0.6114   0.6225   0.6298   0.6378   0.6431   0.6488   0.6629   0.6662
  0.6726   0.6902   0.7020   0.7050   0.7137   0.7253   0.7306   0.7408
  0.7466   0.7602   0.7689   0.7742   0.7841   0.7964   0.8026   0.8054
  0.8097   0.8126   0.8167   0.8262   0.8297   0.8499   0.8510   0.8578
  0.8763   0.8821   0.8898   0.8958   0.9135   0.9341   0.9361   0.9475
  0.9626   0.9694   0.9845   0.9939   1.0144   1.0233   1.0381   1.0449
  1.0513   1.0701   1.0807   1.0843   1.1050   1.1096   1.1342   1.1564
  1.1792   1.2005   1.2150   1.2233   1.2519   1.2686   1.2937   1.3122
  1.3152   1.3237   1.3477   1.3540   1.3635   1.3714   1.4104   1.4184
  1.4973   1.5028   1.5183   1.5235   1.5516   1.5672   1.6629   1.6703
  1.6986   1.7279   1.7374   1.7512   1.7635   1.7925   1.8283   1.8652
  1.8729   1.8924   1.9016   1.9094   1.9169   1.9247   1.9422   1.9590
  1.9647   1.9753   1.9853   1.9974   2.0117   2.0362   2.0536   2.0679
  2.0884   2.1011   2.1264   2.1427   2.1615   2.1824   2.1909   2.2221
  2.2299   2.2593   2.2996   2.3064   2.3312   2.3452   2.3654   2.3898
  2.4202   2.4281   2.4591   2.4739   2.4921   2.4976   2.5038   2.5442
  2.5469   2.5579   2.5858   2.5926   2.6079   2.6489   2.6755   2.6840
  2.6955   2.7153   2.7382   2.7506   2.7720   2.8187   2.8311   2.8439
  2.8842   2.8904   2.9125   2.9318   2.9624   2.9821   2.9928   3.0070
  3.0625   3.1263   3.1359   3.1449   3.1571   3.1645   3.1813   3.2133
  3.2164   3.2322   3.2505   3.2583   3.2814   3.2924   3.3166   3.3260
  3.3325   3.3423   3.3597   3.3608   3.4044   3.4097   3.4338   3.4541
  3.4692   3.4834   3.5285   3.5362   3.5546   3.5694   3.5767   3.6117
  3.6146   3.6292   3.6862   3.6909   3.7327   3.7412   3.7730   3.8587
  3.8693   3.8922   3.9516   3.9669   4.0338   4.0467   4.0525   4.0557
  4.0813   4.0916   4.1972   4.2055   4.3396   4.3410   4.4117   4.4498
  4.4885   4.5568   4.6156   4.6231   4.6409   4.6532   4.6829   4.6969
  4.7855   4.8165   4.9032   4.9117   4.9204   4.9358   4.9588   4.9769
  5.1536   5.1684   5.1864   5.2109   5.2663   5.2702   5.3567   5.3630
  5.3847   5.3950   5.4046   5.4206   5.4256   5.4707   5.4970   5.5298
  5.5523   5.5584   5.7616   5.7808   5.9093   5.9312   6.1525   6.1748
  6.2631   6.3018   6.5380   6.5529   6.6531   6.6653   6.7513   6.7586
  6.8318   6.8501   6.9744   7.0290   7.2300   7.2350   7.3253   7.3478
 22.6094  22.6290  23.5872  23.6236  32.4412  32.5068  44.3131  44.3555
 --------------------------------------------------------------
 
          Ground-State Mulliken Net Atomic Charges

     Atom                 Charge (a.u.)
  ----------------------------------------
      1 C                    -0.661553
      2 C                     0.497358
      3 O                    -0.704099
      4 N                    -0.237370
      5 H                     0.197265
      6 H                     0.241417
      7 H                     0.236352
      8 H                     0.240545
      9 H                     0.222075
     10 C                    -0.710035
     11 C                     0.457375
     12 O                    -0.728387
     13 N                    -0.307498
     14 H                     0.290741
     15 H                     0.227790
     16 H                     0.270754
     17 H                     0.232601
     18 H                     0.234669
  ----------------------------------------
  Sum of atomic charges =     0.000000

 -----------------------------------------------------------------
                    Cartesian Multipole Moments
 -----------------------------------------------------------------
    Charge (ESU x 10^10)
                -0.0000
    Dipole Moment (Debye)
         X       4.9715      Y      -6.4497      Z      -4.9751
       Tot       9.5429
    Quadrupole Moments (Debye-Ang)
        XX     -43.9551     XY      11.6853     YY     -35.7844
        XZ       5.7958     YZ       3.9620     ZZ     -53.9645
    Octopole Moments (Debye-Ang^2)
       XXX      -4.3490    XXY      -4.1709    XYY     -10.5307
       YYY     -47.2256    XXZ       6.4678    XYZ       6.8737
       YYZ     -29.8957    XZZ      23.1581    YZZ     -32.0990
       ZZZ     -43.0274
    Hexadecapole Moments (Debye-Ang^3)
      XXXX    -367.6662   XXXY     -96.4671   XXYY    -149.0832
      XYYY     -70.6320   YYYY    -553.1264   XXXZ    -153.6204
      XXYZ    -115.9216   XYYZ     -19.7628   YYYZ    -292.2461
      XXZZ    -275.4613   XYZZ      -7.9490   YYZZ    -289.2202
      XZZZ    -107.1693   YZZZ    -356.3334   ZZZZ   -1265.0535
 -----------------------------------------------------------------
Archival summary:
1\1\nid00540\SP\ProcedureUnspecified\BasisUnspecified\22410\meili\SunSep2617:50:342021SunSep2617:50:342021\0\\#,ProcedureUnspecified,BasisUnspecified,\\0,1\O\C,1,1.23277\N,2,1.32583,1,121.918\H,3,1.0085,2,120.433,1,176.048,0\H,3,1.00998,2,118.197,1,1.35961,0\C,2,1.51592,1,121.588,3,179.076,0\H,6,1.0782,2,106.197,1,112.701,0\H,6,1.09115,2,108.998,1,-133.427,0\H,6,1.1,2,112.485,1,-13.868,0\H,1,2.08991,2,131.331,3,96.5674,0\N,10,1.01422,1,139.075,2,14.6192,0\H,11,1.00673,10,120.304,1,54.0736,0\C,11,1.32423,10,118.981,1,-119.195,0\O,13,1.22469,11,122.258,10,-6.76842,0\C,13,1.51001,11,116.871,10,166.897,0\H,15,1.09033,13,108.795,11,127.575,0\H,15,1.09042,13,109.678,11,9.51223,0\H,15,1.1,13,110.504,11,-111.901,0\\\@

 Total job time:  17752.85s(wall), 11126.58s(cpu) 
 Sun Sep 26 17:50:36 2021

        *************************************************************
        *                                                           *
        *  Thank you very much for using Q-Chem.  Have a nice day.  *
        *                                                           *
        *************************************************************


