
Running Job 1 of 1 SSI-079TYR-146PHE-1_SMD_TZVPD.in
qchem SSI-079TYR-146PHE-1_SMD_TZVPD.in_14558.0 /tmp/qchem14558/ 0
/global/common/cori/software/qchem/5.2/exe/qcprog.exe_s SSI-079TYR-146PHE-1_SMD_TZVPD.in_14558.0 /tmp/qchem14558/
                  Welcome to Q-Chem
     A Quantum Leap Into The Future Of Chemistry


 Q-Chem 5.2, Q-Chem, Inc., Pleasanton, CA (2019)

 License issued to: National Energy Research Scientific Computing Center

 Yihan Shao,  Zhengting Gan,  E. Epifanovsky,  A. T. B. Gilbert,  M. Wormit,  
 J. Kussmann,  A. W. Lange,  A. Behn,  Jia Deng,  Xintian Feng,  D. Ghosh,  
 M. Goldey,  P. R. Horn,  L. D. Jacobson,  I. Kaliman,  T. Kus,  A. Landau,  
 Jie Liu,  E. I. Proynov,  R. M. Richard,  R. P. Steele,  E. J. Sundstrom,  
 H. L. Woodcock III,  P. M. Zimmerman,  D. Zuev,  B. Albrecht,  E. Alguire,  
 S. A. Baeppler,  D. Barton,  Z. Benda,  Y. A. Bernard,  E. J. Berquist,  
 K. B. Bravaya,  H. Burton,  D. Casanova,  Chun-Min Chang,  Yunqing Chen,  
 A. Chien,  K. D. Closser,  M. P. Coons,  S. Coriani,  S. Dasgupta,  
 A. L. Dempwolff,  M. Diedenhofen,  Hainam Do,  R. G. Edgar,  Po-Tung Fang,  
 S. Faraji,  S. Fatehi,  Qingguo Feng,  K. D. Fenk,  J. Fosso-Tande,  
 J. Gayvert,  Qinghui Ge,  A. Ghysels,  G. Gidofalvi,  J. Gomes,  
 J. Gonthier,  A. Gunina,  D. Hait,  M. W. D. Hanson-Heine,  
 P. H. P. Harbach,  A. W. Hauser,  M. F. Herbst,  J. E. Herr,  
 E. G. Hohenstein,  Z. C. Holden,  Kerwin Hui,  B. C. Huynh,  T.-C. Jagau,  
 Hyunjun Ji,  B. Kaduk,  K. Khistyaev,  Jaehoon Kim,  P. Klunzinger,  K. Koh,  
 D. Kosenkov,  L. Koulias,  T. Kowalczyk,  C. M. Krauter,  A. Kunitsa,  
 Ka Un Lao,  A. Laurent,  K. V. Lawler,  Joonho Lee,  D. Lefrancois,  
 S. Lehtola,  D. S. Levine,  Yi-Pei Li,  You-Sheng Lin,  Fenglai Liu,  
 E. Livshits,  A. Luenser,  P. Manohar,  E. Mansoor,  S. F. Manzer,  
 Shan-Ping Mao,  Yuezhi Mao,  N. Mardirossian,  A. V. Marenich,  
 T. Markovich,  L. A. Martinez-Martinez,  S. A. Maurer,  N. J. Mayhall,  
 S. C. McKenzie,  J.-M. Mewes,  P. Morgante,  A. F. Morrison,  
 J. W. Mullinax,  K. Nanda,  T. S. Nguyen-Beck,  R. Olivares-Amaya,  
 J. A. Parkhill,  Zheng Pei,  T. M. Perrine,  F. Plasser,  P. Pokhilko,  
 S. Prager,  A. Prociuk,  E. Ramos,  D. R. Rehn,  F. Rob,  M. Scheurer,  
 M. Schneider,  N. Sergueev,  S. M. Sharada,  S. Sharma,  D. W. Small,  
 T. Stauch,  T. Stein,  Yu-Chuan Su,  A. J. W. Thom,  A. Tkatchenko,  
 T. Tsuchimochi,  N. M. Tubman,  L. Vogt,  M. L. Vidal,  O. Vydrov,  
 M. A. Watson,  J. Wenzel,  M. de Wergifosse,  T. A. Wesolowski,  A. White,  
 J. Witte,  A. Yamada,  Jun Yang,  K. Yao,  S. Yeganeh,  S. R. Yost,  
 Zhi-Qiang You,  A. Zech,  Igor Ying Zhang,  Xing Zhang,  Yan Zhao,  
 Ying Zhu,  B. R. Brooks,  G. K. L. Chan,  C. J. Cramer,  M. S. Gordon,  
 W. J. Hehre,  A. Klamt,  M. W. Schmidt,  C. D. Sherrill,  D. G. Truhlar,  
 A. Aspuru-Guzik,  R. Baer,  A. T. Bell,  N. A. Besley,  Jeng-Da Chai,  
 A. E. DePrince, III,  R. A. DiStasio Jr.,  A. Dreuw,  B. D. Dunietz,  
 T. R. Furlani,  Chao-Ping Hsu,  Yousung Jung,  Jing Kong,  D. S. Lambrecht,  
 WanZhen Liang,  C. Ochsenfeld,  V. A. Rassolov,  L. V. Slipchenko,  
 J. E. Subotnik,  T. Van Voorhis,  J. M. Herbert,  A. I. Krylov,  
 P. M. W. Gill,  M. Head-Gordon

 Contributors to earlier versions of Q-Chem not listed above: 
 R. D. Adamson,  B. Austin,  J. Baker,  G. J. O. Beran,  K. Brandhorst,  
 S. T. Brown,  E. F. C. Byrd,  A. K. Chakraborty,  C.-L. Cheng,  
 Siu Hung Chien,  D. M. Chipman,  D. L. Crittenden,  H. Dachsel,  
 R. J. Doerksen,  A. D. Dutoi,  L. Fusti-Molnar,  W. A. Goddard III,  
 A. Golubeva-Zadorozhnaya,  S. R. Gwaltney,  G. Hawkins,  A. Heyden,  
 S. Hirata,  G. Kedziora,  F. J. Keil,  C. Kelley,  Jihan Kim,  R. A. King,  
 R. Z. Khaliullin,  P. P. Korambath,  W. Kurlancheek,  A. M. Lee,  M. S. Lee,  
 S. V. Levchenko,  Ching Yeh Lin,  D. Liotard,  R. C. Lochan,  I. Lotan,  
 P. E. Maslen,  N. Nair,  D. P. O'Neill,  D. Neuhauser,  E. Neuscamman,  
 C. M. Oana,  R. Olson,  B. Peters,  R. Peverati,  P. A. Pieniazek,  
 Y. M. Rhee,  J. Ritchie,  M. A. Rohrdanz,  E. Rosta,  N. J. Russ,  
 H. F. Schaefer III,  N. E. Schultz,  N. Shenvi,  A. C. Simmonett,  A. Sodt,  
 D. Stuck,  K. S. Thanthiriwatte,  V. Vanovschi,  Tao Wang,  A. Warshel,  
 C. F. Williams,  Q. Wu,  X. Xu,  W. Zhang

 Please cite Q-Chem as follows:
 Y. Shao et al., Mol. Phys. 113, 184-215 (2015)
 DOI: 10.1080/00268976.2014.952696

 Q-Chem 5.2.0 for Intel X86 EM64T Linux

 Parts of Q-Chem use Armadillo 8.300.2 (Tropical Shenanigans).
 http://arma.sourceforge.net/

 Q-Chem begins on Sun Sep 26 11:26:02 2021  

Host: cori01
0

     Scratch files written to /tmp/qchem14558//
 May1019 |scratch|qcdevops|jenkins|workspace|build_RNUM -1
Processing $rem in /global/common/cori/software/qchem/5.2/config/preferences:
	 MEM_TOTAL  96000 
NAlpha2: 108
NElect   108
Mult     1
Symmetry turned off for PCM/SM12/SMD calculation

 Q-Chem warning in module libgen/rem_setup.C, line 2803:

 Neither GIA nor STOLL is specified by user. Use STOLL as the default


Checking the input file for inconsistencies... 	...done.

--------------------------------------------------------------
User input:
--------------------------------------------------------------
$comment
SSI-079TYR-146PHE-1.pdb
$end

$molecule
0 1
--
0 1
C    0.002581089760   -3.852362401062    2.265810945910
C    1.142581089760   -1.965362401062    1.027810945910
C    0.485581089760   -2.424362401062    2.175810945910
C    1.594581089760   -0.645362401062    0.942810945910
C    1.384581089760    0.230637598938    2.011810945910
C    0.282581089760   -1.538362401062    3.238810945910
C    0.728581089760   -0.214362401062    3.160810945910
O    1.829581089760    1.517637598938    1.935810945910
H    1.295581089760   -2.632362401062    0.189810945910
H    2.090581089760   -0.309362401062    0.043810945910
H   -0.430418910240   -4.143362401062    1.314810945910
H   -0.793418910240   -3.915362401062    3.009810945910
H   -0.221418910240   -1.880362401062    4.133810945910
H    2.433581089760    1.625637598938    1.203810945910
H    0.567581089760    0.471637598938    3.980810945910
H    0.786531089760   -4.579442401062    2.524250945910
--
0 1
C   -1.012418910240    2.510637598938   -4.548189054090
C   -1.209418910240    0.315637598938   -0.854189054090
C   -1.000418910240   -0.361362401062   -2.056189054090
C   -1.339418910240    1.703637598938   -0.852189054090
C   -0.922418910240    0.349637598938   -3.254189054090
C   -1.264418910240    2.409637598938   -2.051189054090
C   -1.058418910240    1.742637598938   -3.258189054090
H   -1.272418910240   -0.236362401062    0.074810945910
H   -0.897418910240   -1.437362401062   -2.058189054090
H   -1.503418910240    2.232637598938    0.070810945910
H   -0.726418910240   -0.201362401062   -4.160189054090
H   -1.383418910240    3.481637598938   -2.051189054090
H    0.034581089760    2.601637598938   -4.841189054090
H   -1.412418910240    3.510637598938   -4.380189054090
H   -1.577728910240    2.032357598938   -5.361629054090
$end

$rem
JOBTYPE			EDA
EDA2			1
method			wB97X-V
BASIS			def2-TZVPD
XC_GRID			000099000590
NL_GRID			1
UNRESTRICTED		FALSE
MAX_SCF_CYCLES		200
SYMMETRY		FALSE
SYM_IGNORE		TRUE
MEM_STATIC		2000
BASIS_LIN_DEP_THRESH 	6
THRESH 			14
SCF_CONVERGENCE 	8
SCF_PRINT_FRGM 		TRUE
SOLVENT_METHOD          SMD
$end

$SMX
SOLVENT			WATER
$END
--------------------------------------------------------------
 ----------------------------------------------------------------
             Standard Nuclear Orientation (Angstroms)
    I     Atom           X                Y                Z
 ----------------------------------------------------------------
    1      C       0.0025810898    -3.8523624011     2.2658109459
    2      C       1.1425810898    -1.9653624011     1.0278109459
    3      C       0.4855810898    -2.4243624011     2.1758109459
    4      C       1.5945810898    -0.6453624011     0.9428109459
    5      C       1.3845810898     0.2306375989     2.0118109459
    6      C       0.2825810898    -1.5383624011     3.2388109459
    7      C       0.7285810898    -0.2143624011     3.1608109459
    8      O       1.8295810898     1.5176375989     1.9358109459
    9      H       1.2955810898    -2.6323624011     0.1898109459
   10      H       2.0905810898    -0.3093624011     0.0438109459
   11      H      -0.4304189102    -4.1433624011     1.3148109459
   12      H      -0.7934189102    -3.9153624011     3.0098109459
   13      H      -0.2214189102    -1.8803624011     4.1338109459
   14      H       2.4335810898     1.6256375989     1.2038109459
   15      H       0.5675810898     0.4716375989     3.9808109459
   16      H       0.7865310898    -4.5794424011     2.5242509459
   17      C      -1.0124189102     2.5106375989    -4.5481890541
   18      C      -1.2094189102     0.3156375989    -0.8541890541
   19      C      -1.0004189102    -0.3613624011    -2.0561890541
   20      C      -1.3394189102     1.7036375989    -0.8521890541
   21      C      -0.9224189102     0.3496375989    -3.2541890541
   22      C      -1.2644189102     2.4096375989    -2.0511890541
   23      C      -1.0584189102     1.7426375989    -3.2581890541
   24      H      -1.2724189102    -0.2363624011     0.0748109459
   25      H      -0.8974189102    -1.4373624011    -2.0581890541
   26      H      -1.5034189102     2.2326375989     0.0708109459
   27      H      -0.7264189102    -0.2013624011    -4.1601890541
   28      H      -1.3834189102     3.4816375989    -2.0511890541
   29      H       0.0345810898     2.6016375989    -4.8411890541
   30      H      -1.4124189102     3.5106375989    -4.3801890541
   31      H      -1.5777289102     2.0323575989    -5.3616290541
 ----------------------------------------------------------------
 Nuclear Repulsion Energy =         883.37697016 hartrees
 There are       54 alpha and       54 beta electrons
 Requested basis set is def2-TZVPD
 There are 276 shells and 702 basis functions

 Total QAlloc Memory Limit  96000 MB
 Mega-Array Size      1956 MB
 MEM_STATIC part      2000 MB
 
 Citation of the SMD model:
 Marenich, A.V.; Cramer, C.J.; Truhlar, D.G.
 J. Phys. Chem. B 2009, 113, 6378-6396.
 iSolventCode=           1
 Solvent: water                                                           
 
 vradii
            1           2           3           4           5           6
    1   1.8500000   1.8500000   1.8500000   1.8500000   1.8500000   1.8500000
            7           8           9          10          11          12
    1   1.8500000   1.5200000   1.2000000   1.2000000   1.2000000   1.2000000
           13          14          15          16          17          18
    1   1.2000000   1.2000000   1.2000000   1.2000000   1.8500000   1.8500000
           19          20          21          22          23          24
    1   1.8500000   1.8500000   1.8500000   1.8500000   1.8500000   1.2000000
           25          26          27          28          29          30
    1   1.2000000   1.2000000   1.2000000   1.2000000   1.2000000   1.2000000
           31
    1   1.2000000
 Changing PCM_VDW_RADII to SMD_RADIUS
 Discretize the solute cavity surface with Lebedev spheres
	Using 110 Lebedev grid points for each H atom
	Using 194 Lebedev grid points for other atoms
	Atomic van der Waals radii will be scaled by 1.20
 Remove points where switching function is < 1.0e-08
 Keep 2255 surface tesserae and discard 2415 interior tesserae
 Molecular Surface Area = 271.078 Angst**2
 A cutoff of  1.0D-14 yielded  31929 shell pairs
 There are    207631 function pairs (    262353 Cartesian)
 Smallest overlap matrix eigenvalue = 4.87E-07
 Linear dependence detected in AO basis
 Tighter screening thresholds may be required for diffuse basis sets
 Use S2THRESH > 14 and THRESH = 14 in case of SCF convergence issues
 Number of orthogonalized atomic orbitals = 699
 Maximum deviation from orthogonality = 2.698E-10

 Scale SEOQF with 1.000000e-01/1.000000e-01/1.000000e-02

 Standard Electronic Orientation quadrupole field applied
 Nucleus-field energy     =     0.0000000264 hartrees

 -----------------------------------------------------------------------
  General SCF calculation program by
  Eric Jon Sundstrom, Paul Horn, Yuezhi Mao, Dmitri Zuev, Alec White,
  David Stuck, Shaama M.S., Shane Yost, Joonho Lee, David Small,
  Daniel Levine, Susi Lehtola, Hugh Burton, Evgeny Epifanovsky
 -----------------------------------------------------------------------
================================================================
                 ALMO-EDA with the EDA2 driver                  
================================================================
 The second-generation ALMO-EDA (for DFT):                      
 P. R. Horn, Y. Mao and M. Head-Gordon, PCCP, 18, 23067 (2016)  
 Decomposition of the frozen energy:                            
 P. R. Horn, Y. Mao and M. Head-Gordon, JCP, 144, 114107 (2016) 
 FERF model for polarization:                                   
 P. R. Horn and M. Head-Gordon, JCP, 143, 114111 (2015)         
Using eda2 option set 1
Option set summary: Frozen orbital wavefunction, initial wavefunction decomposition, and nDQ polarization.
--------------------------------
Printing EDA Options
--------------------------------
eda_child_super_basis      0
fragmo_guess_mode          0
child_mp                   1
child_mp_orders            232
cls_elec                   1
cls_disp                   0
scfmi_mode                 1
scfmi_occs                 0
scfmi_virts                0
frz_relax                  0
frz_relax_method           0
dc_pen_start               0
dc_pen_conv                0
dc_pen_increment           0
dc_pen_steps               0
dc_pen_thresh_factor       0
dc_pen_pre_newton_thresh   0
frz_ortho_decomp           1
frz_ortho_decomp_conv      6
frgm_method                2
scfmi_freeze_ss            0
separate_rehyb             0
plot_diff_den              0
eda_nocv                   0
eda_vct_relax              1
disp_free_x                0
disp_free_c                0
eda_bsse                   0
eda_pct_a                  0
eda_covp                   0
--------------------------------
Attempting to make child job directory: /tmp/qchem14558//Frg1/
Attempting to make child job directory: /tmp/qchem14558//Frg2/
Creating input file /tmp/qchem14558/Frg1.input
using default PutDataFrgm: nothing
calling putenv with: QCSCRATCH=/tmp/qchem14558/ 
calling putenv with: QCLOCALSCR=/tmp/qchem14558/ 
Spawning Job For Fragment 0
                  Welcome to Q-Chem
     A Quantum Leap Into The Future Of Chemistry


 Q-Chem 5.2, Q-Chem, Inc., Pleasanton, CA (2019)

 License issued to: National Energy Research Scientific Computing Center

 Yihan Shao,  Zhengting Gan,  E. Epifanovsky,  A. T. B. Gilbert,  M. Wormit,  
 J. Kussmann,  A. W. Lange,  A. Behn,  Jia Deng,  Xintian Feng,  D. Ghosh,  
 M. Goldey,  P. R. Horn,  L. D. Jacobson,  I. Kaliman,  T. Kus,  A. Landau,  
 Jie Liu,  E. I. Proynov,  R. M. Richard,  R. P. Steele,  E. J. Sundstrom,  
 H. L. Woodcock III,  P. M. Zimmerman,  D. Zuev,  B. Albrecht,  E. Alguire,  
 S. A. Baeppler,  D. Barton,  Z. Benda,  Y. A. Bernard,  E. J. Berquist,  
 K. B. Bravaya,  H. Burton,  D. Casanova,  Chun-Min Chang,  Yunqing Chen,  
 A. Chien,  K. D. Closser,  M. P. Coons,  S. Coriani,  S. Dasgupta,  
 A. L. Dempwolff,  M. Diedenhofen,  Hainam Do,  R. G. Edgar,  Po-Tung Fang,  
 S. Faraji,  S. Fatehi,  Qingguo Feng,  K. D. Fenk,  J. Fosso-Tande,  
 J. Gayvert,  Qinghui Ge,  A. Ghysels,  G. Gidofalvi,  J. Gomes,  
 J. Gonthier,  A. Gunina,  D. Hait,  M. W. D. Hanson-Heine,  
 P. H. P. Harbach,  A. W. Hauser,  M. F. Herbst,  J. E. Herr,  
 E. G. Hohenstein,  Z. C. Holden,  Kerwin Hui,  B. C. Huynh,  T.-C. Jagau,  
 Hyunjun Ji,  B. Kaduk,  K. Khistyaev,  Jaehoon Kim,  P. Klunzinger,  K. Koh,  
 D. Kosenkov,  L. Koulias,  T. Kowalczyk,  C. M. Krauter,  A. Kunitsa,  
 Ka Un Lao,  A. Laurent,  K. V. Lawler,  Joonho Lee,  D. Lefrancois,  
 S. Lehtola,  D. S. Levine,  Yi-Pei Li,  You-Sheng Lin,  Fenglai Liu,  
 E. Livshits,  A. Luenser,  P. Manohar,  E. Mansoor,  S. F. Manzer,  
 Shan-Ping Mao,  Yuezhi Mao,  N. Mardirossian,  A. V. Marenich,  
 T. Markovich,  L. A. Martinez-Martinez,  S. A. Maurer,  N. J. Mayhall,  
 S. C. McKenzie,  J.-M. Mewes,  P. Morgante,  A. F. Morrison,  
 J. W. Mullinax,  K. Nanda,  T. S. Nguyen-Beck,  R. Olivares-Amaya,  
 J. A. Parkhill,  Zheng Pei,  T. M. Perrine,  F. Plasser,  P. Pokhilko,  
 S. Prager,  A. Prociuk,  E. Ramos,  D. R. Rehn,  F. Rob,  M. Scheurer,  
 M. Schneider,  N. Sergueev,  S. M. Sharada,  S. Sharma,  D. W. Small,  
 T. Stauch,  T. Stein,  Yu-Chuan Su,  A. J. W. Thom,  A. Tkatchenko,  
 T. Tsuchimochi,  N. M. Tubman,  L. Vogt,  M. L. Vidal,  O. Vydrov,  
 M. A. Watson,  J. Wenzel,  M. de Wergifosse,  T. A. Wesolowski,  A. White,  
 J. Witte,  A. Yamada,  Jun Yang,  K. Yao,  S. Yeganeh,  S. R. Yost,  
 Zhi-Qiang You,  A. Zech,  Igor Ying Zhang,  Xing Zhang,  Yan Zhao,  
 Ying Zhu,  B. R. Brooks,  G. K. L. Chan,  C. J. Cramer,  M. S. Gordon,  
 W. J. Hehre,  A. Klamt,  M. W. Schmidt,  C. D. Sherrill,  D. G. Truhlar,  
 A. Aspuru-Guzik,  R. Baer,  A. T. Bell,  N. A. Besley,  Jeng-Da Chai,  
 A. E. DePrince, III,  R. A. DiStasio Jr.,  A. Dreuw,  B. D. Dunietz,  
 T. R. Furlani,  Chao-Ping Hsu,  Yousung Jung,  Jing Kong,  D. S. Lambrecht,  
 WanZhen Liang,  C. Ochsenfeld,  V. A. Rassolov,  L. V. Slipchenko,  
 J. E. Subotnik,  T. Van Voorhis,  J. M. Herbert,  A. I. Krylov,  
 P. M. W. Gill,  M. Head-Gordon

 Contributors to earlier versions of Q-Chem not listed above: 
 R. D. Adamson,  B. Austin,  J. Baker,  G. J. O. Beran,  K. Brandhorst,  
 S. T. Brown,  E. F. C. Byrd,  A. K. Chakraborty,  C.-L. Cheng,  
 Siu Hung Chien,  D. M. Chipman,  D. L. Crittenden,  H. Dachsel,  
 R. J. Doerksen,  A. D. Dutoi,  L. Fusti-Molnar,  W. A. Goddard III,  
 A. Golubeva-Zadorozhnaya,  S. R. Gwaltney,  G. Hawkins,  A. Heyden,  
 S. Hirata,  G. Kedziora,  F. J. Keil,  C. Kelley,  Jihan Kim,  R. A. King,  
 R. Z. Khaliullin,  P. P. Korambath,  W. Kurlancheek,  A. M. Lee,  M. S. Lee,  
 S. V. Levchenko,  Ching Yeh Lin,  D. Liotard,  R. C. Lochan,  I. Lotan,  
 P. E. Maslen,  N. Nair,  D. P. O'Neill,  D. Neuhauser,  E. Neuscamman,  
 C. M. Oana,  R. Olson,  B. Peters,  R. Peverati,  P. A. Pieniazek,  
 Y. M. Rhee,  J. Ritchie,  M. A. Rohrdanz,  E. Rosta,  N. J. Russ,  
 H. F. Schaefer III,  N. E. Schultz,  N. Shenvi,  A. C. Simmonett,  A. Sodt,  
 D. Stuck,  K. S. Thanthiriwatte,  V. Vanovschi,  Tao Wang,  A. Warshel,  
 C. F. Williams,  Q. Wu,  X. Xu,  W. Zhang

 Please cite Q-Chem as follows:
 Y. Shao et al., Mol. Phys. 113, 184-215 (2015)
 DOI: 10.1080/00268976.2014.952696

 Q-Chem 5.2.0 for Intel X86 EM64T Linux

 Parts of Q-Chem use Armadillo 8.300.2 (Tropical Shenanigans).
 http://arma.sourceforge.net/

 Q-Chem begins on Sun Sep 26 11:26:10 2021  

Host: cori01
0

     Scratch files written to /tmp/qchem14558//Frg1//
 May1019 |scratch|qcdevops|jenkins|workspace|build_RNUM -1
Processing $rem in /global/common/cori/software/qchem/5.2/config/preferences:
	 MEM_TOTAL  96000 
NAlpha2: 58
NElect   58
Mult     1
Symmetry turned off for PCM/SM12/SMD calculation

Checking the input file for inconsistencies... 	...done.

--------------------------------------------------------------
User input:
--------------------------------------------------------------
$molecule
0 1
 6	0.0025810898	-3.8523624011	2.2658109459
 6	1.1425810898	-1.9653624011	1.0278109459
 6	0.4855810898	-2.4243624011	2.1758109459
 6	1.5945810898	-0.6453624011	0.9428109459
 6	1.3845810898	0.2306375989	2.0118109459
 6	0.2825810898	-1.5383624011	3.2388109459
 6	0.7285810898	-0.2143624011	3.1608109459
 8	1.8295810898	1.5176375989	1.9358109459
 1	1.2955810898	-2.6323624011	0.1898109459
 1	2.0905810898	-0.3093624011	0.0438109459
 1	-0.4304189102	-4.1433624011	1.3148109459
 1	-0.7934189102	-3.9153624011	3.0098109459
 1	-0.2214189102	-1.8803624011	4.1338109459
 1	2.4335810898	1.6256375989	1.2038109459
 1	0.5675810898	0.4716375989	3.9808109459
 1	0.7865310898	-4.5794424011	2.5242509459
$end
$rem
EDA2		1
METHOD		WB97X-V
BASIS		DEF2-TZVPD
XC_GRID		000099000590
NL_GRID		1
UNRESTRICTED		FALSE
MAX_SCF_CYCLES		200
SYMMETRY		FALSE
SYM_IGNORE		TRUE
BASIS_LIN_DEP_THRESH		6
THRESH		14
SCF_CONVERGENCE		8
SCF_PRINT_FRGM		TRUE
SOLVENT_METHOD		SMD
!required keywords
JOBTYPE		SP
SYM_IGNORE		TRUE
SUBSYSTEM		TRUE
GEN_SCFMAN		TRUE
CHILD_INSTRUCTION		2
SYM_IGNORE		TRUE
SCFMI		0
RI_K 0		
PARI_K 0		
MIN_PARI_K 0		
IARI_K 0		
OCC_RI_K 0		
PURECART		1111
MEM_STATIC		2000
MEM_TOTAL		96000
GUI		0
CHILD_MP		1
CHILD_MP_ORDERS		232
FRZ_RELAX		0
FRZ_RELAX_METHOD		0
EDA_CLS_ELEC		1
EDA_CLS_DISP		0
FRZ_ORTHO_DECOMP		1
EDA2		FALSE
FRGM_METHOD		FALSE
CIS_N_ROOTS  0
LOCAL_CIS    0
CIS_RLX_DNS  1
$end
$smx
SOLVENT			WATER
$end
--------------------------------------------------------------
 ----------------------------------------------------------------
             Standard Nuclear Orientation (Angstroms)
    I     Atom           X                Y                Z
 ----------------------------------------------------------------
    1      C       0.0025810898    -3.8523624011     2.2658109459
    2      C       1.1425810898    -1.9653624011     1.0278109459
    3      C       0.4855810898    -2.4243624011     2.1758109459
    4      C       1.5945810898    -0.6453624011     0.9428109459
    5      C       1.3845810898     0.2306375989     2.0118109459
    6      C       0.2825810898    -1.5383624011     3.2388109459
    7      C       0.7285810898    -0.2143624011     3.1608109459
    8      O       1.8295810898     1.5176375989     1.9358109459
    9      H       1.2955810898    -2.6323624011     0.1898109459
   10      H       2.0905810898    -0.3093624011     0.0438109459
   11      H      -0.4304189102    -4.1433624011     1.3148109459
   12      H      -0.7934189102    -3.9153624011     3.0098109459
   13      H      -0.2214189102    -1.8803624011     4.1338109459
   14      H       2.4335810898     1.6256375989     1.2038109459
   15      H       0.5675810898     0.4716375989     3.9808109459
   16      H       0.7865310898    -4.5794424011     2.5242509459
 ----------------------------------------------------------------
 Nuclear Repulsion Energy =         342.23314592 hartrees
 There are       29 alpha and       29 beta electrons
 Requested basis set is def2-TZVPD
 There are 145 shells and 371 basis functions

 Total QAlloc Memory Limit  96000 MB
 Mega-Array Size      1956 MB
 MEM_STATIC part      2000 MB
 
 Citation of the SMD model:
 Marenich, A.V.; Cramer, C.J.; Truhlar, D.G.
 J. Phys. Chem. B 2009, 113, 6378-6396.
 iSolventCode=           1
 Solvent: water                                                           
 
 vradii
            1           2           3           4           5           6
    1   1.8500000   1.8500000   1.8500000   1.8500000   1.8500000   1.8500000
            7           8           9          10          11          12
    1   1.8500000   1.5200000   1.2000000   1.2000000   1.2000000   1.2000000
           13          14          15          16
    1   1.2000000   1.2000000   1.2000000   1.2000000
 Changing PCM_VDW_RADII to SMD_RADIUS
 Discretize the solute cavity surface with Lebedev spheres
	Using 110 Lebedev grid points for each H atom
	Using 194 Lebedev grid points for other atoms
	Atomic van der Waals radii will be scaled by 1.20
 Remove points where switching function is < 1.0e-08
 Keep 1171 surface tesserae and discard 1261 interior tesserae
 Molecular Surface Area = 141.640 Angst**2
 A cutoff of  1.0D-14 yielded  10042 shell pairs
 There are     67086 function pairs (     85785 Cartesian)
 Smallest overlap matrix eigenvalue = 5.81E-07
 Linear dependence detected in AO basis
 Tighter screening thresholds may be required for diffuse basis sets
 Use S2THRESH > 14 and THRESH = 14 in case of SCF convergence issues
 Number of orthogonalized atomic orbitals = 370
 Maximum deviation from orthogonality = 2.204E-10

 Scale SEOQF with 1.000000e-01/1.000000e-01/1.000000e-01

 Standard Electronic Orientation quadrupole field applied
 Nucleus-field energy     =    -0.0000000114 hartrees
 Guess from superposition of atomic densities
 Warning:  Energy on first SCF cycle will be non-variational
 SAD guess density has 57.738434 electrons

 -----------------------------------------------------------------------
  General SCF calculation program by
  Eric Jon Sundstrom, Paul Horn, Yuezhi Mao, Dmitri Zuev, Alec White,
  David Stuck, Shaama M.S., Shane Yost, Joonho Lee, David Small,
  Daniel Levine, Susi Lehtola, Hugh Burton, Evgeny Epifanovsky
 -----------------------------------------------------------------------
 Exchange:     0.1670 Hartree-Fock + 1.0000 wB97X-V + LR-HF
 Correlation:  1.0000 wB97X-V
 Using Euler-Maclaurin-Lebedev (99,590) quadrature formula
 Nonlocal Correlation:  VV10 with C = 0.0100 and b = 6.00 and scale = 1.00000
 Grid used for NLC:  SG-1 standard quadrature
Energy prior to optimization (guess energy) = -346.498467209317
Begin Timing: Total SCF Calculation
begin iterations for algorithm: DIIS         
the SCF tolerance is set to 1.00e-08
    1    -346.4984672093      5.16e-03     00000 
    2    -346.4424684594      5.56e-03     00000 
    3    -346.8206698312      5.24e-04     00000 
    4    -346.8254375235      1.73e-04     00000 
    5    -346.8261176653      3.67e-05     00000 
    6    -346.8261663121      1.28e-05     00000 
    7    -346.8261708393      4.80e-06     00000 
    8    -346.8261715210      1.47e-06     00000 
    9    -346.8261716071      4.86e-07     00000 
   10    -346.8261716189      2.48e-07     00000 
   11    -346.8261716223      6.93e-08     00000 
   12    -346.8261716229      3.37e-08     00000 
   13    -346.8261716230      1.35e-08     00000 
   14    -346.8261716230      3.55e-09     00000 Convergence criterion met
Timing for Total SCF: 2226.00s (wall), 4427.42s (cpu)
(3)  G-ENP(liq) elect-nuc-pol free energy of system     -346.826171623 a.u.
(4)  G-CDS(liq) cavity-dispersion-solvent structure 
     free energy                                                3.7933 kcal/mol
(6)  G-S(liq) free energy of system                     -346.820126580 a.u.
E_pcm = -0.0172733045
E_cds = 0.0060450426
Multipole orders to be included
        2
        3
computing dipole RHS
computing quadrupole RHS
total number of RHS in solve_reponses: 8
RHS batch sizes
        8
Beginning Block Conjugate Gradient Iterations. Batch Number: 0
computing hessian-vector products by finite difference
              1      6.64e-01     00000 Conjugate Gradient Iteration
computing hessian-vector products by finite difference
              2      1.94e-01     00000 Conjugate Gradient Iteration
computing hessian-vector products by finite difference
              3      5.11e-02     00000 Conjugate Gradient Iteration
computing hessian-vector products by finite difference
              4      1.63e-02     00000 Conjugate Gradient Iteration
computing hessian-vector products by finite difference
              5      4.55e-03     00000 Conjugate Gradient Iteration
computing hessian-vector products by finite difference
              6      1.84e-03     00000 Conjugate Gradient Iteration
computing hessian-vector products by finite difference
              7      3.97e-04     00000 Conjugate Gradient Iteration
computing hessian-vector products by finite difference
              8      7.47e-05     00000 Conjugate Gradient Iteration
computing hessian-vector products by finite difference
              9      1.41e-05     00000 Conjugate Gradient Iteration
computing hessian-vector products by finite difference
             10      2.15e-06     00000 Conjugate Gradient Iteration
computing hessian-vector products by finite difference
             11      3.12e-07     00000 Conjugate Gradient Iteration
computing hessian-vector products by finite difference
             12      6.58e-08     00000 Conjugate Gradient Iteration
computing hessian-vector products by finite difference
             13      1.54e-08     00000 Conjugate Gradient Iteration
computing hessian-vector products by finite difference
             14      4.49e-09     00000 CG Converged
batch 0 complete
Done Calculating Responses
TESTING ORTHOGONALIZATION OF MULTIPOLE BASIS
Multipole virts passed orthogonality test
Virts Per Order
           87
          145
 
 --------------------------------------------------------------
 
                    Orbital Energies (a.u.)
 --------------------------------------------------------------
 
 Alpha MOs
 -- Occupied --
-19.2395 -10.3322 -10.2731 -10.2705 -10.2699 -10.2678 -10.2676 -10.2525
 -1.1916  -0.9887  -0.8950  -0.8778  -0.8039  -0.7416  -0.7085  -0.6596
 -0.5964  -0.5745  -0.5458  -0.5361  -0.5267  -0.5153  -0.5048  -0.4710
 -0.4496  -0.4398  -0.4336  -0.3487  -0.3101
 -- Virtual --
  0.0622   0.0638   0.0744   0.0806   0.0889   0.0996   0.1141   0.1158
  0.1183   0.1368   0.1516   0.1565   0.1611   0.1770   0.1818   0.1978
  0.2083   0.2100   0.2204   0.2303   0.2400   0.2458   0.2558   0.2594
  0.2675   0.2725   0.2771   0.2811   0.2881   0.2996   0.3009   0.3062
  0.3093   0.3135   0.3173   0.3288   0.3381   0.3472   0.3498   0.3562
  0.3596   0.3621   0.3643   0.3783   0.3807   0.3844   0.3869   0.3961
  0.3986   0.4013   0.4027   0.4108   0.4173   0.4286   0.4292   0.4378
  0.4405   0.4549   0.4589   0.4632   0.4761   0.4766   0.4778   0.4835
  0.4929   0.4984   0.5045   0.5082   0.5143   0.5201   0.5294   0.5366
  0.5466   0.5513   0.5579   0.5632   0.5663   0.5765   0.5871   0.5985
  0.6024   0.6080   0.6201   0.6356   0.6414   0.6593   0.6694   0.6746
  0.6775   0.6833   0.6958   0.6995   0.7015   0.7051   0.7199   0.7329
  0.7386   0.7469   0.7474   0.7576   0.7622   0.7778   0.7844   0.7888
  0.7936   0.7966   0.7995   0.8039   0.8109   0.8176   0.8356   0.8397
  0.8452   0.8522   0.8554   0.8619   0.8713   0.8804   0.8866   0.8960
  0.9041   0.9120   0.9344   0.9516   0.9584   0.9791   0.9910   1.0095
  1.0226   1.0414   1.0454   1.0500   1.0592   1.0713   1.0757   1.0888
  1.1024   1.1231   1.1380   1.1709   1.2014   1.2350   1.2566   1.2972
  1.3054   1.3107   1.3338   1.3543   1.3701   1.3885   1.3950   1.4361
  1.4547   1.4696   1.4764   1.4851   1.5328   1.5638   1.6025   1.6239
  1.6311   1.6395   1.6865   1.6986   1.7083   1.7292   1.7869   1.8070
  1.8224   1.8275   1.8405   1.8602   1.8815   1.8906   1.9249   1.9312
  1.9427   1.9553   1.9771   1.9930   1.9979   2.0321   2.0406   2.0556
  2.0644   2.0751   2.0974   2.1115   2.1198   2.1609   2.1977   2.2075
  2.2287   2.2410   2.2796   2.2864   2.2999   2.3114   2.3490   2.3670
  2.3990   2.4097   2.4419   2.4699   2.4910   2.5010   2.5277   2.5611
  2.5764   2.6078   2.6306   2.6462   2.6567   2.6746   2.6966   2.7402
  2.7576   2.7634   2.7758   2.7975   2.8197   2.8318   2.8634   2.8817
  2.8946   2.9191   2.9375   2.9550   2.9652   2.9678   2.9802   3.0111
  3.0162   3.0440   3.0734   3.0796   3.0998   3.1211   3.1498   3.1735
  3.1898   3.2078   3.2224   3.2277   3.2495   3.2580   3.2858   3.2949
  3.3289   3.3505   3.3830   3.3898   3.3922   3.4185   3.4486   3.4609
  3.4632   3.4765   3.4924   3.5095   3.5218   3.5283   3.5402   3.5474
  3.5530   3.5700   3.5820   3.5937   3.6003   3.6284   3.6488   3.6658
  3.6860   3.7004   3.7418   3.7607   3.7989   3.8195   3.8425   3.8953
  3.9430   3.9566   3.9804   3.9862   4.0405   4.0827   4.1345   4.1578
  4.2456   4.2682   4.2846   4.3107   4.3144   4.3255   4.3372   4.3590
  4.3718   4.3834   4.4248   4.4560   4.4887   4.5303   4.5919   4.6168
  4.7273   4.7348   4.7836   4.8098   4.8698   4.9198   5.0225   5.0550
  5.0874   5.1237   5.1480   5.2931   5.3065   5.4239   5.4483   5.5315
  5.6041   5.6641   5.7181   5.7680   5.9534   6.2140   6.4739   6.5699
  6.6831   6.8795   7.0082   7.2985   7.4547  22.6728  22.6782  22.9264
 22.9787  23.0140  23.1627  23.4817  44.4170
 --------------------------------------------------------------
 
          Ground-State Mulliken Net Atomic Charges

     Atom                 Charge (a.u.)
  ----------------------------------------
      1 C                    -1.085869
      2 C                    -0.591477
      3 C                     0.526644
      4 C                    -0.425955
      5 C                     0.634372
      6 C                    -0.477681
      7 C                    -0.758707
      8 O                    -0.538500
      9 H                     0.398282
     10 H                     0.372983
     11 H                     0.291447
     12 H                     0.299180
     13 H                     0.382711
     14 H                     0.330025
     15 H                     0.398181
     16 H                     0.244365
  ----------------------------------------
  Sum of atomic charges =     0.000000

 -----------------------------------------------------------------
                    Cartesian Multipole Moments
 -----------------------------------------------------------------
    Charge (ESU x 10^10)
                -0.0000
    Dipole Moment (Debye)
         X       0.8284      Y      -1.0901      Z      -1.5551
       Tot       2.0720
    Quadrupole Moments (Debye-Ang)
        XX     -45.4184     XY       2.4110     YY     -44.6819
        XZ      -5.6608     YZ      -3.7730     ZZ     -48.5899
    Octopole Moments (Debye-Ang^2)
       XXX    -120.3075    XXY      68.2324    XYY     -42.8176
       YYY     151.1930    XXZ    -111.8057    XYZ       2.2049
       YYZ    -100.1363    XZZ     -63.1815    YZZ      44.1855
       ZZZ    -287.2830
    Hexadecapole Moments (Debye-Ang^3)
      XXXX    -396.9530   XXXY      61.3189   XXYY    -278.0213
      XYYY      19.6269   YYYY   -1225.7754   XXXZ    -237.3164
      XXYZ     128.2963   XYYZ     -92.0482   YYYZ     323.2076
      XXZZ    -368.8891   XYZZ      14.5179   YYZZ    -463.1836
      XZZZ    -284.9558   YZZZ     327.2734   ZZZZ   -1443.8178
 -----------------------------------------------------------------
Archival summary:
1\1\nid00540\SP\ProcedureUnspecified\BasisUnspecified\178\meili\SunSep2622:12:402021SunSep2622:12:402021\0\\#,ProcedureUnspecified,BasisUnspecified,\\0,1\C\O,1,1.36388\H,2,0.955146,1,110.838\C,1,1.39591,2,120.001,3,166.249,0\H,4,1.08116,1,119.472,2,0.711355,0\C,1,1.39794,2,119.979,3,-13.2682,0\H,6,1.08033,1,120.692,2,-1.21284,0\C,6,1.39783,1,119.78,2,179.685,0\H,8,1.08192,6,119.298,1,179.054,0\C,4,1.39928,1,119.822,2,-179.516,0\H,10,1.08259,4,119.563,1,179.704,0\C,10,1.39863,4,120.715,1,-0.051074,0\C,12,1.51016,10,120.484,4,179.974,0\H,13,1.0847,12,109.215,10,138.705,0\H,13,1.09138,12,109.177,10,22.12,0\H,13,1.10001,12,114.273,10,-99.8987,0\\\@

 Total job time:  38793.16s(wall), 77117.92s(cpu) 
 Sun Sep 26 22:12:43 2021

        *************************************************************
        *                                                           *
        *  Thank you very much for using Q-Chem.  Have a nice day.  *
        *                                                           *
        *************************************************************


Done Job For Fragment 0
calling putenv with: QCSCRATCH=/global/cscratch1/sd/meili 
calling putenv with: QCLOCALSCR=/tmp 
calling putenv with: QCTHREADS=32 
Creating input file /tmp/qchem14558/Frg2.input
using default PutDataFrgm: nothing
calling putenv with: QCSCRATCH=/tmp/qchem14558/ 
calling putenv with: QCLOCALSCR=/tmp/qchem14558/ 
Spawning Job For Fragment 1
                  Welcome to Q-Chem
     A Quantum Leap Into The Future Of Chemistry


 Q-Chem 5.2, Q-Chem, Inc., Pleasanton, CA (2019)

 License issued to: National Energy Research Scientific Computing Center

 Yihan Shao,  Zhengting Gan,  E. Epifanovsky,  A. T. B. Gilbert,  M. Wormit,  
 J. Kussmann,  A. W. Lange,  A. Behn,  Jia Deng,  Xintian Feng,  D. Ghosh,  
 M. Goldey,  P. R. Horn,  L. D. Jacobson,  I. Kaliman,  T. Kus,  A. Landau,  
 Jie Liu,  E. I. Proynov,  R. M. Richard,  R. P. Steele,  E. J. Sundstrom,  
 H. L. Woodcock III,  P. M. Zimmerman,  D. Zuev,  B. Albrecht,  E. Alguire,  
 S. A. Baeppler,  D. Barton,  Z. Benda,  Y. A. Bernard,  E. J. Berquist,  
 K. B. Bravaya,  H. Burton,  D. Casanova,  Chun-Min Chang,  Yunqing Chen,  
 A. Chien,  K. D. Closser,  M. P. Coons,  S. Coriani,  S. Dasgupta,  
 A. L. Dempwolff,  M. Diedenhofen,  Hainam Do,  R. G. Edgar,  Po-Tung Fang,  
 S. Faraji,  S. Fatehi,  Qingguo Feng,  K. D. Fenk,  J. Fosso-Tande,  
 J. Gayvert,  Qinghui Ge,  A. Ghysels,  G. Gidofalvi,  J. Gomes,  
 J. Gonthier,  A. Gunina,  D. Hait,  M. W. D. Hanson-Heine,  
 P. H. P. Harbach,  A. W. Hauser,  M. F. Herbst,  J. E. Herr,  
 E. G. Hohenstein,  Z. C. Holden,  Kerwin Hui,  B. C. Huynh,  T.-C. Jagau,  
 Hyunjun Ji,  B. Kaduk,  K. Khistyaev,  Jaehoon Kim,  P. Klunzinger,  K. Koh,  
 D. Kosenkov,  L. Koulias,  T. Kowalczyk,  C. M. Krauter,  A. Kunitsa,  
 Ka Un Lao,  A. Laurent,  K. V. Lawler,  Joonho Lee,  D. Lefrancois,  
 S. Lehtola,  D. S. Levine,  Yi-Pei Li,  You-Sheng Lin,  Fenglai Liu,  
 E. Livshits,  A. Luenser,  P. Manohar,  E. Mansoor,  S. F. Manzer,  
 Shan-Ping Mao,  Yuezhi Mao,  N. Mardirossian,  A. V. Marenich,  
 T. Markovich,  L. A. Martinez-Martinez,  S. A. Maurer,  N. J. Mayhall,  
 S. C. McKenzie,  J.-M. Mewes,  P. Morgante,  A. F. Morrison,  
 J. W. Mullinax,  K. Nanda,  T. S. Nguyen-Beck,  R. Olivares-Amaya,  
 J. A. Parkhill,  Zheng Pei,  T. M. Perrine,  F. Plasser,  P. Pokhilko,  
 S. Prager,  A. Prociuk,  E. Ramos,  D. R. Rehn,  F. Rob,  M. Scheurer,  
 M. Schneider,  N. Sergueev,  S. M. Sharada,  S. Sharma,  D. W. Small,  
 T. Stauch,  T. Stein,  Yu-Chuan Su,  A. J. W. Thom,  A. Tkatchenko,  
 T. Tsuchimochi,  N. M. Tubman,  L. Vogt,  M. L. Vidal,  O. Vydrov,  
 M. A. Watson,  J. Wenzel,  M. de Wergifosse,  T. A. Wesolowski,  A. White,  
 J. Witte,  A. Yamada,  Jun Yang,  K. Yao,  S. Yeganeh,  S. R. Yost,  
 Zhi-Qiang You,  A. Zech,  Igor Ying Zhang,  Xing Zhang,  Yan Zhao,  
 Ying Zhu,  B. R. Brooks,  G. K. L. Chan,  C. J. Cramer,  M. S. Gordon,  
 W. J. Hehre,  A. Klamt,  M. W. Schmidt,  C. D. Sherrill,  D. G. Truhlar,  
 A. Aspuru-Guzik,  R. Baer,  A. T. Bell,  N. A. Besley,  Jeng-Da Chai,  
 A. E. DePrince, III,  R. A. DiStasio Jr.,  A. Dreuw,  B. D. Dunietz,  
 T. R. Furlani,  Chao-Ping Hsu,  Yousung Jung,  Jing Kong,  D. S. Lambrecht,  
 WanZhen Liang,  C. Ochsenfeld,  V. A. Rassolov,  L. V. Slipchenko,  
 J. E. Subotnik,  T. Van Voorhis,  J. M. Herbert,  A. I. Krylov,  
 P. M. W. Gill,  M. Head-Gordon

 Contributors to earlier versions of Q-Chem not listed above: 
 R. D. Adamson,  B. Austin,  J. Baker,  G. J. O. Beran,  K. Brandhorst,  
 S. T. Brown,  E. F. C. Byrd,  A. K. Chakraborty,  C.-L. Cheng,  
 Siu Hung Chien,  D. M. Chipman,  D. L. Crittenden,  H. Dachsel,  
 R. J. Doerksen,  A. D. Dutoi,  L. Fusti-Molnar,  W. A. Goddard III,  
 A. Golubeva-Zadorozhnaya,  S. R. Gwaltney,  G. Hawkins,  A. Heyden,  
 S. Hirata,  G. Kedziora,  F. J. Keil,  C. Kelley,  Jihan Kim,  R. A. King,  
 R. Z. Khaliullin,  P. P. Korambath,  W. Kurlancheek,  A. M. Lee,  M. S. Lee,  
 S. V. Levchenko,  Ching Yeh Lin,  D. Liotard,  R. C. Lochan,  I. Lotan,  
 P. E. Maslen,  N. Nair,  D. P. O'Neill,  D. Neuhauser,  E. Neuscamman,  
 C. M. Oana,  R. Olson,  B. Peters,  R. Peverati,  P. A. Pieniazek,  
 Y. M. Rhee,  J. Ritchie,  M. A. Rohrdanz,  E. Rosta,  N. J. Russ,  
 H. F. Schaefer III,  N. E. Schultz,  N. Shenvi,  A. C. Simmonett,  A. Sodt,  
 D. Stuck,  K. S. Thanthiriwatte,  V. Vanovschi,  Tao Wang,  A. Warshel,  
 C. F. Williams,  Q. Wu,  X. Xu,  W. Zhang

 Please cite Q-Chem as follows:
 Y. Shao et al., Mol. Phys. 113, 184-215 (2015)
 DOI: 10.1080/00268976.2014.952696

 Q-Chem 5.2.0 for Intel X86 EM64T Linux

 Parts of Q-Chem use Armadillo 8.300.2 (Tropical Shenanigans).
 http://arma.sourceforge.net/

 Q-Chem begins on Sun Sep 26 22:12:48 2021  

Host: cori01
0

     Scratch files written to /tmp/qchem14558//Frg2//
 May1019 |scratch|qcdevops|jenkins|workspace|build_RNUM -1
Processing $rem in /global/common/cori/software/qchem/5.2/config/preferences:
	 MEM_TOTAL  96000 
NAlpha2: 50
NElect   50
Mult     1
Symmetry turned off for PCM/SM12/SMD calculation

Checking the input file for inconsistencies... 	...done.

--------------------------------------------------------------
User input:
--------------------------------------------------------------
$molecule
0 1
 6	-1.0124189102	2.5106375989	-4.5481890541
 6	-1.2094189102	0.3156375989	-0.8541890541
 6	-1.0004189102	-0.3613624011	-2.0561890541
 6	-1.3394189102	1.7036375989	-0.8521890541
 6	-0.9224189102	0.3496375989	-3.2541890541
 6	-1.2644189102	2.4096375989	-2.0511890541
 6	-1.0584189102	1.7426375989	-3.2581890541
 1	-1.2724189102	-0.2363624011	0.0748109459
 1	-0.8974189102	-1.4373624011	-2.0581890541
 1	-1.5034189102	2.2326375989	0.0708109459
 1	-0.7264189102	-0.2013624011	-4.1601890541
 1	-1.3834189102	3.4816375989	-2.0511890541
 1	0.0345810898	2.6016375989	-4.8411890541
 1	-1.4124189102	3.5106375989	-4.3801890541
 1	-1.5777289102	2.0323575989	-5.3616290541
$end
$rem
EDA2		1
METHOD		WB97X-V
BASIS		DEF2-TZVPD
XC_GRID		000099000590
NL_GRID		1
UNRESTRICTED		FALSE
MAX_SCF_CYCLES		200
SYMMETRY		FALSE
SYM_IGNORE		TRUE
BASIS_LIN_DEP_THRESH		6
THRESH		14
SCF_CONVERGENCE		8
SCF_PRINT_FRGM		TRUE
SOLVENT_METHOD		SMD
!required keywords
JOBTYPE		SP
SYM_IGNORE		TRUE
SUBSYSTEM		TRUE
GEN_SCFMAN		TRUE
CHILD_INSTRUCTION		2
SYM_IGNORE		TRUE
SCFMI		0
RI_K 0		
PARI_K 0		
MIN_PARI_K 0		
IARI_K 0		
OCC_RI_K 0		
PURECART		1111
MEM_STATIC		2000
MEM_TOTAL		96000
GUI		0
CHILD_MP		1
CHILD_MP_ORDERS		232
FRZ_RELAX		0
FRZ_RELAX_METHOD		0
EDA_CLS_ELEC		1
EDA_CLS_DISP		0
FRZ_ORTHO_DECOMP		1
EDA2		FALSE
FRGM_METHOD		FALSE
CIS_N_ROOTS  0
LOCAL_CIS    0
CIS_RLX_DNS  1
$end
$smx
SOLVENT			WATER
$end
--------------------------------------------------------------
 ----------------------------------------------------------------
             Standard Nuclear Orientation (Angstroms)
    I     Atom           X                Y                Z
 ----------------------------------------------------------------
    1      C      -1.0124189102     2.5106375989    -4.5481890541
    2      C      -1.2094189102     0.3156375989    -0.8541890541
    3      C      -1.0004189102    -0.3613624011    -2.0561890541
    4      C      -1.3394189102     1.7036375989    -0.8521890541
    5      C      -0.9224189102     0.3496375989    -3.2541890541
    6      C      -1.2644189102     2.4096375989    -2.0511890541
    7      C      -1.0584189102     1.7426375989    -3.2581890541
    8      H      -1.2724189102    -0.2363624011     0.0748109459
    9      H      -0.8974189102    -1.4373624011    -2.0581890541
   10      H      -1.5034189102     2.2326375989     0.0708109459
   11      H      -0.7264189102    -0.2013624011    -4.1601890541
   12      H      -1.3834189102     3.4816375989    -2.0511890541
   13      H       0.0345810898     2.6016375989    -4.8411890541
   14      H      -1.4124189102     3.5106375989    -4.3801890541
   15      H      -1.5777289102     2.0323575989    -5.3616290541
 ----------------------------------------------------------------
 Nuclear Repulsion Energy =         269.61120252 hartrees
 There are       25 alpha and       25 beta electrons
 Requested basis set is def2-TZVPD
 There are 131 shells and 331 basis functions

 Total QAlloc Memory Limit  96000 MB
 Mega-Array Size      1956 MB
 MEM_STATIC part      2000 MB
 
 Citation of the SMD model:
 Marenich, A.V.; Cramer, C.J.; Truhlar, D.G.
 J. Phys. Chem. B 2009, 113, 6378-6396.
 iSolventCode=           1
 Solvent: water                                                           
 
 vradii
            1           2           3           4           5           6
    1   1.8500000   1.8500000   1.8500000   1.8500000   1.8500000   1.8500000
            7           8           9          10          11          12
    1   1.8500000   1.2000000   1.2000000   1.2000000   1.2000000   1.2000000
           13          14          15
    1   1.2000000   1.2000000   1.2000000
 Changing PCM_VDW_RADII to SMD_RADIUS
 Discretize the solute cavity surface with Lebedev spheres
	Using 110 Lebedev grid points for each H atom
	Using 194 Lebedev grid points for other atoms
	Atomic van der Waals radii will be scaled by 1.20
 Remove points where switching function is < 1.0e-08
 Keep 1084 surface tesserae and discard 1154 interior tesserae
 Molecular Surface Area = 132.357 Angst**2

                       Distance Matrix (Angstroms)
             C (  1)   C (  2)   C (  3)   C (  4)   C (  5)   C (  6)
   C (  2)  4.301450
   C (  3)  3.802446  1.395283
   C (  4)  3.797182  1.394076  2.414283
   C (  5)  2.520408  2.417338  1.395281  2.788693
   C (  6)  2.511715  2.412606  2.783552  1.393435  2.409932
   C (  7)  1.502012  2.799705  2.423837  2.422668  1.399629  1.394336
   H (  8)  5.383840  1.082457  2.151922  2.151143  3.398255  3.394298
   H (  9)  4.669050  2.149411  1.080920  3.393476  2.150444  3.864472
   H ( 10)  4.653335  2.148709  3.392046  1.076413  3.865084  2.142740
   H ( 11)  2.754502  3.380860  2.127790  3.866220  1.078357  3.399213
   H ( 12)  2.704716  3.389195  3.862041  2.144952  3.386614  1.078585
   H ( 13)  1.091027  4.761250  4.196048  4.313514  2.916491  3.083564
   H ( 14)  1.090057  4.762553  4.534656  3.964513  3.391150  2.580377
   H ( 15)  1.100005  4.837333  4.121786  4.527681  2.775298  3.346568
             C (  7)   H (  8)   H (  9)   H ( 10)   H ( 11)   H ( 12)
   H (  8)  3.882155
   H (  9)  3.402693  2.476432
   H ( 10)  3.394166  2.479786  4.285881
   H ( 11)  2.168632  4.270195  2.444451  4.942615
   H ( 12)  2.141634  4.284358  4.942955  2.465215  4.294650
   H ( 13)  2.106756  5.824908  4.992718  5.160363  2.983235  3.251034
   H ( 14)  2.123682  5.822940  5.489956  4.631735  3.781262  2.329361
   H ( 15)  2.185882  5.898744  4.838853  5.436639  2.675386  3.619003
             H ( 13)   H ( 14)
   H ( 14)  1.769918
   H ( 15)  1.787311  1.782095
 
 A cutoff of  1.0D-14 yielded   8360 shell pairs
 There are     54496 function pairs (     69450 Cartesian)
 Smallest overlap matrix eigenvalue = 5.73E-07
 Linear dependence detected in AO basis
 Tighter screening thresholds may be required for diffuse basis sets
 Use S2THRESH > 14 and THRESH = 14 in case of SCF convergence issues
 Number of orthogonalized atomic orbitals = 330
 Maximum deviation from orthogonality = 2.074E-10

 Scale SEOQF with 1.000000e-01/1.000000e-01/1.000000e-02

 Standard Electronic Orientation quadrupole field applied
 Nucleus-field energy     =     0.0000000089 hartrees
 Guess from superposition of atomic densities
 Warning:  Energy on first SCF cycle will be non-variational
 SAD guess density has 49.913408 electrons

 -----------------------------------------------------------------------
  General SCF calculation program by
  Eric Jon Sundstrom, Paul Horn, Yuezhi Mao, Dmitri Zuev, Alec White,
  David Stuck, Shaama M.S., Shane Yost, Joonho Lee, David Small,
  Daniel Levine, Susi Lehtola, Hugh Burton, Evgeny Epifanovsky
 -----------------------------------------------------------------------
 Exchange:     0.1670 Hartree-Fock + 1.0000 wB97X-V + LR-HF
 Correlation:  1.0000 wB97X-V
 Using Euler-Maclaurin-Lebedev (99,590) quadrature formula
 Nonlocal Correlation:  VV10 with C = 0.0100 and b = 6.00 and scale = 1.00000
 Grid used for NLC:  SG-1 standard quadrature
Energy prior to optimization (guess energy) = -271.520200245026
Begin Timing: Total SCF Calculation
begin iterations for algorithm: DIIS         
the SCF tolerance is set to 1.00e-08
    1    -271.5202002450      1.95e-03     00000 
    2    -271.5612201430      1.27e-03     00000 
    3    -271.5848182054      1.55e-04     00000 
    4    -271.5855215511      4.57e-05     00000 
    5    -271.5855722587      2.06e-05     00000 
    6    -271.5855794531      5.21e-06     00000 
    7    -271.5855801503      9.93e-07     00000 
    8    -271.5855801749      3.97e-07     00000 
    9    -271.5855801785      1.05e-07     00000 
   10    -271.5855801789      3.19e-08     00000 
   11    -271.5855801790      1.68e-08     00000 
   12    -271.5855801790      6.12e-09     00000 Convergence criterion met
Timing for Total SCF: 1377.00s (wall), 2735.54s (cpu)
(3)  G-ENP(liq) elect-nuc-pol free energy of system     -271.585580179 a.u.
(4)  G-CDS(liq) cavity-dispersion-solvent structure 
     free energy                                                3.1926 kcal/mol
(6)  G-S(liq) free energy of system                     -271.580492370 a.u.
E_pcm = -0.0076079489
E_cds = 0.0050878089
Multipole orders to be included
        2
        3
computing dipole RHS
computing quadrupole RHS
total number of RHS in solve_reponses: 8
RHS batch sizes
        8
Beginning Block Conjugate Gradient Iterations. Batch Number: 0
computing hessian-vector products by finite difference
              1      6.31e-01     00000 Conjugate Gradient Iteration
computing hessian-vector products by finite difference
              2      1.97e-01     00000 Conjugate Gradient Iteration
computing hessian-vector products by finite difference
              3      4.71e-02     00000 Conjugate Gradient Iteration
computing hessian-vector products by finite difference
              4      1.18e-02     00000 Conjugate Gradient Iteration
computing hessian-vector products by finite difference
              5      2.06e-03     00000 Conjugate Gradient Iteration
computing hessian-vector products by finite difference
              6      6.36e-04     00000 Conjugate Gradient Iteration
computing hessian-vector products by finite difference
              7      1.82e-04     00000 Conjugate Gradient Iteration
computing hessian-vector products by finite difference
              8      2.78e-05     00000 Conjugate Gradient Iteration
computing hessian-vector products by finite difference
              9      3.67e-06     00000 Conjugate Gradient Iteration
computing hessian-vector products by finite difference
             10      6.97e-07     00000 Conjugate Gradient Iteration
computing hessian-vector products by finite difference
             11      1.28e-07     00000 Conjugate Gradient Iteration
computing hessian-vector products by finite difference
             12      1.79e-08     00000 Conjugate Gradient Iteration
computing hessian-vector products by finite difference
             13      4.36e-09     00000 CG Converged
batch 0 complete
Done Calculating Responses
TESTING ORTHOGONALIZATION OF MULTIPOLE BASIS
Multipole virts passed orthogonality test
Virts Per Order
           75
          125
 
 --------------------------------------------------------------
 
                    Orbital Energies (a.u.)
 --------------------------------------------------------------
 
 Alpha MOs
 -- Occupied --
-10.2782 -10.2685 -10.2680 -10.2656 -10.2648 -10.2641 -10.2536  -0.9920
 -0.9015  -0.8743  -0.8066  -0.7245  -0.7003  -0.6231  -0.5681  -0.5611
 -0.5296  -0.5243  -0.5073  -0.4807  -0.4688  -0.4359  -0.4342  -0.3462
 -0.3333
 -- Virtual --
  0.0662   0.0684   0.0723   0.0843   0.0898   0.1096   0.1156   0.1180
  0.1411   0.1601   0.1710   0.1757   0.1908   0.1954   0.1996   0.2062
  0.2280   0.2325   0.2405   0.2447   0.2519   0.2631   0.2661   0.2763
  0.2860   0.2867   0.2890   0.2966   0.2988   0.3063   0.3069   0.3181
  0.3243   0.3298   0.3350   0.3423   0.3549   0.3570   0.3724   0.3766
  0.3810   0.3875   0.3897   0.3934   0.3969   0.4046   0.4069   0.4124
  0.4184   0.4309   0.4346   0.4405   0.4474   0.4521   0.4567   0.4614
  0.4704   0.4762   0.4825   0.4873   0.4965   0.5008   0.5159   0.5179
  0.5216   0.5302   0.5382   0.5395   0.5488   0.5547   0.5594   0.5695
  0.5825   0.5908   0.5945   0.6008   0.6054   0.6259   0.6434   0.6486
  0.6707   0.6799   0.6835   0.6892   0.6974   0.7062   0.7245   0.7291
  0.7316   0.7333   0.7493   0.7634   0.7683   0.7690   0.7827   0.7899
  0.7935   0.7976   0.8022   0.8077   0.8155   0.8269   0.8286   0.8366
  0.8413   0.8432   0.8526   0.8643   0.8656   0.8743   0.8860   0.8966
  0.9205   0.9265   0.9388   0.9516   0.9552   1.0060   1.0283   1.0424
  1.0519   1.0661   1.0702   1.0763   1.0937   1.0952   1.1074   1.1451
  1.1643   1.1823   1.2533   1.2833   1.2964   1.3298   1.3513   1.3563
  1.3836   1.4420   1.4560   1.4632   1.4717   1.4751   1.5293   1.5397
  1.6034   1.6098   1.6239   1.6291   1.6500   1.6782   1.7397   1.7837
  1.7898   1.7943   1.8079   1.8210   1.8348   1.8610   1.8928   1.9207
  1.9241   1.9280   1.9507   1.9780   1.9911   1.9989   2.0215   2.0299
  2.0386   2.0517   2.0724   2.0941   2.1116   2.1300   2.1767   2.1899
  2.2064   2.2324   2.2591   2.2669   2.2946   2.3167   2.3962   2.4030
  2.4079   2.4233   2.4696   2.5204   2.5388   2.5567   2.5694   2.6030
  2.6331   2.6478   2.6598   2.6829   2.7037   2.7103   2.7662   2.7704
  2.7835   2.8127   2.8298   2.8489   2.8623   2.8983   2.9103   2.9217
  2.9312   2.9407   2.9723   2.9877   2.9918   3.0211   3.0258   3.0578
  3.0701   3.0886   3.1035   3.1619   3.1732   3.1922   3.2039   3.2214
  3.2361   3.2555   3.2874   3.2961   3.3499   3.3587   3.3707   3.3790
  3.4154   3.4353   3.4429   3.4608   3.4645   3.4808   3.4968   3.5000
  3.5139   3.5356   3.5425   3.5493   3.5581   3.5673   3.5777   3.6075
  3.6224   3.6403   3.6584   3.6937   3.7115   3.7539   3.7725   3.8257
  3.8449   3.9015   3.9130   3.9372   3.9610   3.9935   4.0341   4.0635
  4.1298   4.2073   4.2720   4.2762   4.2884   4.3093   4.3295   4.3408
  4.3526   4.3698   4.3856   4.4119   4.4294   4.4481   4.4842   4.5395
  4.6042   4.6333   4.7551   4.7845   4.8240   4.8630   4.9129   4.9500
  5.0287   5.0434   5.1631   5.2801   5.3678   5.3846   5.4930   5.5333
  5.6778   5.8531  22.5850  22.6803  22.8875  22.8991  23.0088  23.0702
 23.4152
 --------------------------------------------------------------
 
          Ground-State Mulliken Net Atomic Charges

     Atom                 Charge (a.u.)
  ----------------------------------------
      1 C                    -1.095239
      2 C                    -0.545442
      3 C                    -0.527821
      4 C                    -0.579853
      5 C                    -0.388998
      6 C                    -0.439919
      7 C                     0.818778
      8 H                     0.398786
      9 H                     0.371516
     10 H                     0.379828
     11 H                     0.405426
     12 H                     0.373297
     13 H                     0.237305
     14 H                     0.302044
     15 H                     0.290292
  ----------------------------------------
  Sum of atomic charges =     0.000000

 -----------------------------------------------------------------
                    Cartesian Multipole Moments
 -----------------------------------------------------------------
    Charge (ESU x 10^10)
                 0.0000
    Dipole Moment (Debye)
         X       0.0654      Y       0.2812      Z      -0.4969
       Tot       0.5747
    Quadrupole Moments (Debye-Ang)
        XX     -46.4303     XY      -1.1731     YY     -36.8213
        XZ      -0.7076     YZ      -1.4045     ZZ     -35.1225
    Octopole Moments (Debye-Ang^2)
       XXX     155.9812    XXY     -54.8384    XYY      38.6393
       YYY    -144.7510    XXZ     113.0633    XYZ       2.1443
       YYZ      91.8257    XZZ      43.1941    YZZ     -44.2022
       ZZZ     273.7549
    Hexadecapole Moments (Debye-Ang^3)
      XXXX    -418.6953   XXXY     199.8839   XXYY    -193.5474
      XYYY     157.4148   YYYY    -732.7774   XXXZ    -356.8010
      XXYZ     157.2438   XYYZ     -93.4329   YYYZ     432.2570
      XXZZ    -423.2107   XYZZ      50.8377   YYZZ    -440.8634
      XZZZ    -296.2427   YZZZ     428.0386   ZZZZ   -1894.8965
 -----------------------------------------------------------------
Archival summary:
1\1\nid00540\SP\ProcedureUnspecified\BasisUnspecified\78\meili\MonSep2705:46:082021MonSep2705:46:082021\0\\#,ProcedureUnspecified,BasisUnspecified,\\0,1\C\C,1,1.39434\H,2,1.07858,1,119.455\C,2,1.39344,1,120.693,3,178.947,0\H,4,1.07641,2,119.804,1,-179.716,0\C,4,1.39408,2,119.881,1,-0.0801809,0\H,6,1.08246,4,120.071,2,-179.676,0\C,6,1.39528,4,119.887,2,0.203735,0\H,8,1.08092,6,119.925,4,179.869,0\C,8,1.39528,6,120.053,4,-0.0355258,0\H,10,1.07836,8,118.11,6,177.937,0\C,1,1.50201,2,120.224,3,-0.426551,0\H,12,1.09006,1,108.994,2,-14.6907,0\H,12,1.09103,1,107.619,2,102.767,0\H,12,1.10001,1,113.394,2,-136.195,0\\\@

 Total job time:  27202.75s(wall), 54027.95s(cpu) 
 Mon Sep 27 05:46:11 2021

        *************************************************************
        *                                                           *
        *  Thank you very much for using Q-Chem.  Have a nice day.  *
        *                                                           *
        *************************************************************


Done Job For Fragment 1
calling putenv with: QCSCRATCH=/global/cscratch1/sd/meili 
calling putenv with: QCLOCALSCR=/tmp 
calling putenv with: QCTHREADS=32 
Doing General SCFMI
 Exchange:     0.1670 Hartree-Fock + 1.0000 wB97X-V + LR-HF
 Correlation:  1.0000 wB97X-V
 Using Euler-Maclaurin-Lebedev (99,590) quadrature formula
 Nonlocal Correlation:  VV10 with C = 0.0100 and b = 6.00 and scale = 1.00000
 Grid used for NLC:  SG-1 standard quadrature
performing fock build before subrot guess so that all methods have access
Printing subrot_rss_gen Method Specification:
Occupied Subspace Method is 0
Virtual Subspace Method is 0
Energy of the unrelaxed supersystem initial determinant -618.390823097618
performing fock build before subrot guess so that all methods have access
Printing subrot_rss_gen Method Specification:
Occupied Subspace Method is 0
Virtual Subspace Method is 0
Energy of the unrelaxed supersystem initial determinant w/ solvent -618.414099957664
write pseudocanon occs and virts to disk
write pseudocanon orbital energies to disk
Tolerance of ortho_decomp_scf: 1.00e-06
GDM subspace size: 20
Beginning the Orthogonal Decomposition of the Initial Supersystem Wavefunction
    1    -618.3752135827      1.51e-02     ortho_decomp Preconditoned Steepest Descent
    2    -618.3763822022      3.78e-04     ortho_decomp BFGS Step
    3    -618.3763859052      2.93e-05     ortho_decomp BFGS Step
    4    -618.3763859127      1.23e-06     ortho_decomp BFGS Step
    5    -618.3763859127      4.15e-08     ortho_decomp 00000 Convergence criterion met
 Hartree-Fock
 Hartree-Fock
 Hartree-Fock
Doing General SCFMI
 Exchange:     0.1670 Hartree-Fock + 1.0000 wB97X-V + LR-HF
 Correlation:  1.0000 wB97X-V
 Using Euler-Maclaurin-Lebedev (99,590) quadrature formula
 Nonlocal Correlation:  VV10 with C = 0.0100 and b = 6.00 and scale = 1.00000
 Grid used for NLC:  SG-1 standard quadrature
performing fock build at end of subrot_r(subrot) constructor so that all methods have access
<S^2> of initial wavefunction before polarization iterations 0.0000000000
Beginning iterations for the determination of the polarized wavefunction
Energy prior to optimization (guess energy) = -618.414099957664
Begin Timing: Total SCF Calculation
begin iterations for algorithm: DIIS         
the SCF tolerance is set to 1.00e-08
    1    -618.4140999577      3.05e-05     00000 
    2    -618.4142049357      1.51e-05     00000 
    3    -618.4142209544      6.77e-06     00000 
    4    -618.4142256384      1.94e-06     00000 
    5    -618.4142261133      9.45e-07     00000 
    6    -618.4142262252      3.09e-07     00000 
    7    -618.4142262341      1.34e-07     00000 
    8    -618.4142262356      4.42e-08     00000 
    9    -618.4142262357      1.52e-08     00000 
   10    -618.4142262358      5.46e-09     00000 Convergence criterion met
write pseudocanon occs and virts to disk
write pseudocanon orbital energies to disk
Timing for Total SCF: 9540.00s (wall), 19002.86s (cpu)
<S^2> of polarized wavefunction after polarization iterations 0.0000000000
relaxing scfmi constraint to allow all rotations in the entire AO span
Doing General SCFMI
 Exchange:     0.1670 Hartree-Fock + 1.0000 wB97X-V + LR-HF
 Correlation:  1.0000 wB97X-V
 Using Euler-Maclaurin-Lebedev (99,590) quadrature formula
 Nonlocal Correlation:  VV10 with C = 0.0100 and b = 6.00 and scale = 1.00000
 Grid used for NLC:  SG-1 standard quadrature
performing fock build at end of subrot_r(subrot) constructor so that all methods have access
<S^2> of polarized wavefunction before ct-allowed iterations 0.0000000000
Beginning iterations for the determination of the CT-Allowed wavefunction
Energy prior to optimization (guess energy) = -618.414226235774
Begin Timing: Total SCF Calculation
begin iterations for algorithm: DIIS         
the SCF tolerance is set to 1.00e-08
    1    -618.4142262358      4.53e-05     00000 
    2    -618.4147213561      4.50e-06     00000 
    3    -618.4147403695      8.97e-07     00000 
    4    -618.4147413745      2.24e-07     00000 
    5    -618.4147413980      1.23e-07     00000 
    6    -618.4147414035      1.93e-08     00000 
    7    -618.4147414037      8.83e-09     00000 Convergence criterion met
write pseudocanon occs and virts to disk
write pseudocanon orbital energies to disk
Timing for Total SCF: 6467.00s (wall), 12881.55s (cpu)
<S^2> of ct_allowed wavefunction after ct-allowed iterations 0.0000000000

================================
        Results of EDA2         
================================
Basic EDA Quantities
--------------------
Fragment Energies (Ha):
1 -346.8201265804
2 -271.5804923701
--------------------
  E_prp (kJ/mol) = -0.0000
  E_sol (kJ/mol) = 2.5431
  E_frz (kJ/mol) = -10.3775
  E_pol (kJ/mol) = -0.3315
  E_vct (kJ/mol) = -1.3526
  E_int (kJ/mol) = -9.5186
--------------------


Initial Wavefunction Decomposition
--------------------
  --------------------
  Orthogonal Fragment Subspace Decomposition:
  --------------------
     E_elec   (ELEC)   (kJ/mol) = -16.6364
     E_pauli  (PAULI)  (kJ/mol) = 21.1724
     E_disp   (DISP)   (kJ/mol) = -14.9136
     --------------------
     Terms summing to E_pauli:
     --------------------
        E_kep_pauli       (kJ/mol) = 27.5277
        E_disp_free_pauli (kJ/mol) = -6.3553
  --------------------
  Classical Frozen Decomposition:
  --------------------
     E_cls_elec  (CLS ELEC)  (kJ/mol) = -7.2737
     E_cls_pauli (CLS PAULI) (kJ/mol) = -3.1039
    [E_mod_pauli (MOD PAULI) (kJ/mol) = 11.8097 (CLS PAULI - DISP from orthogonal decomposition) ]
  --------------------
--------------------

Simplified EDA Summary (kJ/mol)
--------------------
 PREPARATION     -0.0000
 SOLVATION       2.5431
 FROZEN          4.5360      (does not include dispersion)
[PAULI           21.1724]     (if this is negligible, then frozen describes electrostatics)
 DISPERSION      -14.9136
 POLARIZATION    -0.3315
 CHARGE TRANSFER -1.3526
 TOTAL           -9.5186     (PRP + SOL + FRZ + DISP + POL + CT)
--------------------
 
 --------------------------------------------------------------
 
                    Orbital Energies (a.u.)
 --------------------------------------------------------------
 
 Alpha MOs
 -- Occupied --
-19.2396 -10.3317 -10.2779 -10.2732 -10.2704 -10.2694 -10.2682 -10.2679
-10.2677 -10.2671 -10.2652 -10.2648 -10.2640 -10.2535 -10.2526  -1.1916
 -0.9919  -0.9885  -0.9013  -0.8949  -0.8776  -0.8741  -0.8064  -0.8038
 -0.7414  -0.7243  -0.7084  -0.7001  -0.6595  -0.6231  -0.5962  -0.5745
 -0.5679  -0.5610  -0.5457  -0.5366  -0.5296  -0.5266  -0.5241  -0.5153
 -0.5071  -0.5044  -0.4806  -0.4710  -0.4685  -0.4494  -0.4410  -0.4358
 -0.4340  -0.4317  -0.3504  -0.3457  -0.3312  -0.3096
 -- Virtual --
  0.0580   0.0612   0.0649   0.0709   0.0728   0.0743   0.0789   0.0866
  0.0945   0.0955   0.1050   0.1068   0.1103   0.1197   0.1228   0.1293
  0.1360   0.1390   0.1489   0.1517   0.1583   0.1603   0.1659   0.1735
  0.1785   0.1820   0.1898   0.1926   0.1999   0.2072   0.2108   0.2132
  0.2210   0.2226   0.2306   0.2315   0.2335   0.2360   0.2414   0.2446
  0.2491   0.2542   0.2573   0.2632   0.2639   0.2693   0.2752   0.2781
  0.2805   0.2828   0.2871   0.2891   0.2915   0.2998   0.3012   0.3056
  0.3073   0.3094   0.3107   0.3132   0.3178   0.3234   0.3263   0.3310
  0.3321   0.3365   0.3413   0.3442   0.3462   0.3489   0.3503   0.3557
  0.3574   0.3603   0.3635   0.3648   0.3694   0.3741   0.3777   0.3822
  0.3836   0.3851   0.3866   0.3893   0.3915   0.3959   0.4010   0.4033
  0.4075   0.4087   0.4123   0.4156   0.4178   0.4219   0.4248   0.4294
  0.4309   0.4320   0.4369   0.4372   0.4402   0.4467   0.4494   0.4505
  0.4516   0.4602   0.4638   0.4643   0.4718   0.4758   0.4770   0.4789
  0.4846   0.4863   0.4896   0.4907   0.4922   0.4977   0.5018   0.5039
  0.5058   0.5099   0.5106   0.5157   0.5162   0.5252   0.5281   0.5316
  0.5352   0.5395   0.5405   0.5480   0.5495   0.5559   0.5575   0.5593
  0.5611   0.5724   0.5740   0.5759   0.5794   0.5816   0.5881   0.5927
  0.5965   0.5985   0.6010   0.6107   0.6133   0.6196   0.6254   0.6314
  0.6351   0.6399   0.6417   0.6456   0.6504   0.6540   0.6623   0.6651
  0.6691   0.6754   0.6793   0.6839   0.6884   0.6939   0.6995   0.7039
  0.7079   0.7138   0.7181   0.7198   0.7250   0.7346   0.7372   0.7397
  0.7403   0.7447   0.7492   0.7522   0.7560   0.7604   0.7638   0.7650
  0.7734   0.7752   0.7775   0.7813   0.7840   0.7851   0.7888   0.7970
  0.7975   0.8009   0.8017   0.8087   0.8111   0.8129   0.8175   0.8236
  0.8271   0.8302   0.8322   0.8384   0.8426   0.8427   0.8450   0.8503
  0.8532   0.8591   0.8617   0.8632   0.8676   0.8720   0.8758   0.8787
  0.8809   0.8869   0.8925   0.8966   0.8990   0.9058   0.9087   0.9114
  0.9173   0.9206   0.9294   0.9347   0.9414   0.9433   0.9498   0.9523
  0.9576   0.9729   0.9770   0.9821   0.9921   0.9943   1.0041   1.0076
  1.0180   1.0226   1.0350   1.0442   1.0495   1.0541   1.0593   1.0657
  1.0677   1.0824   1.0888   1.0958   1.1005   1.1027   1.1073   1.1221
  1.1286   1.1351   1.1425   1.1507   1.1655   1.1710   1.1809   1.1897
  1.1915   1.2070   1.2179   1.2287   1.2468   1.2609   1.2745   1.2924
  1.3074   1.3235   1.3358   1.3450   1.3541   1.3673   1.3680   1.3710
  1.3868   1.3905   1.3988   1.4088   1.4319   1.4414   1.4472   1.4599
  1.4727   1.4754   1.4834   1.4906   1.4929   1.5000   1.5154   1.5298
  1.5388   1.5477   1.5527   1.5695   1.5794   1.6187   1.6248   1.6323
  1.6407   1.6522   1.6541   1.6568   1.6721   1.6861   1.7019   1.7125
  1.7435   1.7508   1.7768   1.7788   1.7987   1.8033   1.8073   1.8085
  1.8169   1.8317   1.8408   1.8539   1.8604   1.8722   1.8804   1.9099
  1.9184   1.9195   1.9333   1.9436   1.9466   1.9541   1.9589   1.9699
  1.9712   1.9772   1.9814   1.9984   1.9999   2.0088   2.0177   2.0257
  2.0428   2.0505   2.0573   2.0601   2.0705   2.0763   2.0890   2.0919
  2.1027   2.1048   2.1078   2.1195   2.1231   2.1448   2.1458   2.1677
  2.1735   2.1936   2.2001   2.2123   2.2227   2.2331   2.2399   2.2411
  2.2513   2.2731   2.2861   2.2870   2.2980   2.3064   2.3176   2.3276
  2.3327   2.3523   2.3629   2.3756   2.3917   2.4114   2.4131   2.4247
  2.4339   2.4488   2.4532   2.4647   2.4897   2.4912   2.5123   2.5287
  2.5331   2.5516   2.5624   2.5732   2.5873   2.5890   2.6112   2.6148
  2.6301   2.6417   2.6454   2.6603   2.6617   2.6715   2.6939   2.6977
  2.7094   2.7165   2.7294   2.7475   2.7555   2.7644   2.7749   2.7855
  2.7940   2.7997   2.8042   2.8137   2.8213   2.8369   2.8387   2.8485
  2.8631   2.8738   2.8770   2.9106   2.9118   2.9309   2.9341   2.9377
  2.9461   2.9508   2.9604   2.9633   2.9793   2.9859   2.9896   2.9991
  3.0089   3.0124   3.0141   3.0321   3.0363   3.0477   3.0645   3.0771
  3.0812   3.0824   3.0914   3.0940   3.1019   3.1149   3.1184   3.1415
  3.1649   3.1786   3.1834   3.2019   3.2088   3.2190   3.2257   3.2319
  3.2435   3.2575   3.2697   3.2710   3.2759   3.2868   3.3096   3.3114
  3.3177   3.3198   3.3402   3.3577   3.3610   3.3709   3.3757   3.3911
  3.3937   3.4050   3.4230   3.4330   3.4379   3.4489   3.4553   3.4573
  3.4657   3.4745   3.4779   3.4864   3.4909   3.4959   3.5093   3.5123
  3.5176   3.5195   3.5284   3.5360   3.5468   3.5519   3.5536   3.5577
  3.5644   3.5672   3.5736   3.5778   3.5828   3.5889   3.5945   3.5982
  3.6114   3.6156   3.6216   3.6306   3.6450   3.6540   3.6557   3.6758
  3.6771   3.6808   3.6965   3.7145   3.7269   3.7292   3.7452   3.7571
  3.7777   3.7877   3.8129   3.8342   3.8401   3.8518   3.8554   3.9028
  3.9084   3.9210   3.9432   3.9538   3.9647   3.9756   3.9880   4.0007
  4.0091   4.0540   4.0570   4.0837   4.1063   4.1428   4.1475   4.1725
  4.2348   4.2564   4.2770   4.2851   4.2903   4.2968   4.3013   4.3167
  4.3194   4.3277   4.3381   4.3424   4.3448   4.3514   4.3652   4.3699
  4.3747   4.3788   4.3900   4.4058   4.4313   4.4363   4.4496   4.4632
  4.4672   4.4935   4.4951   4.5373   4.5651   4.6059   4.6146   4.6293
  4.6409   4.7338   4.7453   4.7574   4.7890   4.7959   4.8198   4.8268
  4.8705   4.8778   4.9211   4.9385   4.9704   5.0310   5.0542   5.0591
  5.0620   5.1003   5.1369   5.1564   5.1782   5.2962   5.2995   5.3117
  5.3792   5.3866   5.4298   5.4534   5.4965   5.5266   5.5454   5.6114
  5.6682   5.6953   5.7264   5.7760   5.8339   5.9593   6.2198   6.4764
  6.5797   6.7048   6.8929   7.0265   7.3096   7.4623  22.6221  22.6872
 22.6907  22.7339  22.9161  22.9399  22.9708  23.0042  23.0291  23.0511
 23.0892  23.1847  23.4332  23.4873  44.4802
 --------------------------------------------------------------
 
          Ground-State Mulliken Net Atomic Charges

     Atom                 Charge (a.u.)
  ----------------------------------------
      1 C                    -1.237556
      2 C                    -0.563172
      3 C                     0.638147
      4 C                    -0.372057
      5 C                     0.696182
      6 C                    -0.543179
      7 C                    -0.876714
      8 O                    -0.562991
      9 H                     0.422960
     10 H                     0.378670
     11 H                     0.290085
     12 H                     0.312706
     13 H                     0.406423
     14 H                     0.341532
     15 H                     0.408899
     16 H                     0.272392
     17 C                    -1.173117
     18 C                    -0.518465
     19 C                    -0.439443
     20 C                    -0.537899
     21 C                    -0.454605
     22 C                    -0.362671
     23 C                     0.556519
     24 H                     0.437908
     25 H                     0.386280
     26 H                     0.414969
     27 H                     0.430309
     28 H                     0.402375
     29 H                     0.242071
     30 H                     0.301794
     31 H                     0.301649
  ----------------------------------------
  Sum of atomic charges =     0.000000

 -----------------------------------------------------------------
                    Cartesian Multipole Moments
 -----------------------------------------------------------------
    Charge (ESU x 10^10)
                 0.0000
    Dipole Moment (Debye)
         X       0.9081      Y      -0.8262      Z      -2.0388
       Tot       2.3799
    Quadrupole Moments (Debye-Ang)
        XX     -92.0435     XY       1.2793     YY     -81.6794
        XZ      -6.4101     YZ      -5.1131     ZZ     -83.9362
    Octopole Moments (Debye-Ang^2)
       XXX      35.6670    XXY      13.4877    XYY      -4.2031
       YYY       6.3246    XXZ       1.1980    XYZ       4.3465
       YYZ      -8.1907    XZZ     -19.8688    YZZ      -0.2042
       ZZZ     -13.1167
    Hexadecapole Moments (Debye-Ang^3)
      XXXX    -817.8038   XXXY     261.7045   XXYY    -472.2084
      XYYY     177.2965   YYYY   -1959.9451   XXXZ    -594.8013
      XXYZ     285.8002   XYYZ    -185.7071   YYYZ     755.8462
      XXZZ    -792.8779   XYZZ      65.5622   YYZZ    -905.0440
      XZZZ    -581.6572   YZZZ     756.5587   ZZZZ   -3342.1234
 -----------------------------------------------------------------
Archival summary:
1\1\nid00540\SP\ProcedureUnspecified\BasisUnspecified\11416\meili\MonSep2714:45:072021MonSep2714:45:072021\0\\#,ProcedureUnspecified,BasisUnspecified,\\0,1\O\H,1,0.955146\C,1,1.36388,2,110.838\C,3,1.39591,1,120.001,2,166.249,0\H,4,1.08116,3,119.472,1,0.711355,0\C,3,1.39794,1,119.979,2,-13.2682,0\H,6,1.08033,3,120.692,1,-1.21284,0\C,6,1.39783,3,119.78,1,179.685,0\H,8,1.08192,6,119.298,3,179.054,0\C,4,1.39928,3,119.822,1,-179.516,0\H,10,1.08259,4,119.563,3,179.704,0\C,10,1.39863,4,120.715,3,-0.051074,0\C,12,1.51016,10,120.484,4,179.974,0\H,13,1.0847,12,109.215,10,138.705,0\H,13,1.09138,12,109.177,10,22.12,0\H,13,1.10001,12,114.273,10,-99.8987,0\H,6,3.02331,3,89.5599,1,-101.291,0\C,17,1.08246,6,105.082,3,111.093,0\C,18,1.39408,17,120.071,6,-96.3442,0\H,19,1.07641,18,120.314,17,-0.0417954,0\C,19,1.39344,18,119.881,17,-179.676,0\H,21,1.07858,19,119.843,18,178.863,0\C,21,1.39434,19,120.693,18,-0.0801809,0\C,18,1.39528,17,120.042,6,83.7761,0\H,24,1.08092,18,119.925,17,-0.251152,0\C,24,1.39528,18,120.053,17,179.844,0\H,26,1.07836,24,118.11,18,177.937,0\C,23,1.50201,21,120.224,19,178.52,0\H,28,1.09006,23,108.994,21,-14.6907,0\H,28,1.09103,23,107.619,21,102.767,0\H,28,1.10001,23,113.394,21,-136.195,0\\\@

 Total job time:  98347.03s(wall), 64469.75s(cpu) 
 Mon Sep 27 14:45:09 2021

        *************************************************************
        *                                                           *
        *  Thank you very much for using Q-Chem.  Have a nice day.  *
        *                                                           *
        *************************************************************


