                  Welcome to Q-Chem
     A Quantum Leap Into The Future Of Chemistry


 Q-Chem 5.2 (devel), Q-Chem, Inc., Pleasanton, CA (2019)

 Yihan Shao,  Zhengting Gan,  E. Epifanovsky,  A. T. B. Gilbert,  M. Wormit,  
 J. Kussmann,  A. W. Lange,  A. Behn,  Jia Deng,  Xintian Feng,  D. Ghosh,  
 M. Goldey,  P. R. Horn,  L. D. Jacobson,  I. Kaliman,  T. Kus,  A. Landau,  
 Jie Liu,  E. I. Proynov,  R. M. Richard,  R. P. Steele,  E. J. Sundstrom,  
 H. L. Woodcock III,  P. M. Zimmerman,  D. Zuev,  B. Albrecht,  E. Alguire,  
 S. A. Baeppler,  D. Barton,  Z. Benda,  Y. A. Bernard,  E. J. Berquist,  
 K. B. Bravaya,  H. Burton,  D. Casanova,  Chun-Min Chang,  Yunqing Chen,  
 A. Chien,  K. D. Closser,  M. P. Coons,  S. Coriani,  S. Dasgupta,  
 A. L. Dempwolff,  M. Diedenhofen,  Hainam Do,  R. G. Edgar,  Po-Tung Fang,  
 S. Faraji,  S. Fatehi,  Qingguo Feng,  K. D. Fenk,  J. Fosso-Tande,  
 J. Gayvert,  Qinghui Ge,  A. Ghysels,  G. Gidofalvi,  J. Gomes,  
 J. Gonthier,  A. Gunina,  D. Hait,  M. W. D. Hanson-Heine,  
 P. H. P. Harbach,  A. W. Hauser,  M. F. Herbst,  J. E. Herr,  
 E. G. Hohenstein,  Z. C. Holden,  Kerwin Hui,  B. C. Huynh,  T.-C. Jagau,  
 Hyunjun Ji,  B. Kaduk,  K. Khistyaev,  Jaehoon Kim,  P. Klunzinger,  K. Koh,  
 D. Kosenkov,  L. Koulias,  T. Kowalczyk,  C. M. Krauter,  A. Kunitsa,  
 Ka Un Lao,  A. Laurent,  K. V. Lawler,  Joonho Lee,  D. Lefrancois,  
 S. Lehtola,  D. S. Levine,  Yi-Pei Li,  You-Sheng Lin,  Fenglai Liu,  
 E. Livshits,  A. Luenser,  P. Manohar,  E. Mansoor,  S. F. Manzer,  
 Shan-Ping Mao,  Yuezhi Mao,  N. Mardirossian,  A. V. Marenich,  
 T. Markovich,  L. A. Martinez-Martinez,  S. A. Maurer,  N. J. Mayhall,  
 S. C. McKenzie,  J.-M. Mewes,  P. Morgante,  A. F. Morrison,  
 J. W. Mullinax,  K. Nanda,  T. S. Nguyen-Beck,  R. Olivares-Amaya,  
 J. A. Parkhill,  Zheng Pei,  T. M. Perrine,  F. Plasser,  P. Pokhilko,  
 S. Prager,  A. Prociuk,  E. Ramos,  D. R. Rehn,  F. Rob,  M. Scheurer,  
 M. Schneider,  N. Sergueev,  S. M. Sharada,  S. Sharma,  D. W. Small,  
 T. Stauch,  T. Stein,  Yu-Chuan Su,  A. J. W. Thom,  A. Tkatchenko,  
 T. Tsuchimochi,  N. M. Tubman,  L. Vogt,  M. L. Vidal,  O. Vydrov,  
 M. A. Watson,  J. Wenzel,  M. de Wergifosse,  T. A. Wesolowski,  A. White,  
 J. Witte,  A. Yamada,  Jun Yang,  K. Yao,  S. Yeganeh,  S. R. Yost,  
 Zhi-Qiang You,  A. Zech,  Igor Ying Zhang,  Xing Zhang,  Yan Zhao,  
 Ying Zhu,  B. R. Brooks,  G. K. L. Chan,  C. J. Cramer,  M. S. Gordon,  
 W. J. Hehre,  A. Klamt,  M. W. Schmidt,  C. D. Sherrill,  D. G. Truhlar,  
 A. Aspuru-Guzik,  R. Baer,  A. T. Bell,  N. A. Besley,  Jeng-Da Chai,  
 A. E. DePrince, III,  R. A. DiStasio Jr.,  A. Dreuw,  B. D. Dunietz,  
 T. R. Furlani,  Chao-Ping Hsu,  Yousung Jung,  Jing Kong,  D. S. Lambrecht,  
 WanZhen Liang,  C. Ochsenfeld,  V. A. Rassolov,  L. V. Slipchenko,  
 J. E. Subotnik,  T. Van Voorhis,  J. M. Herbert,  A. I. Krylov,  
 P. M. W. Gill,  M. Head-Gordon

 Contributors to earlier versions of Q-Chem not listed above: 
 R. D. Adamson,  B. Austin,  J. Baker,  G. J. O. Beran,  K. Brandhorst,  
 S. T. Brown,  E. F. C. Byrd,  A. K. Chakraborty,  C.-L. Cheng,  
 Siu Hung Chien,  D. M. Chipman,  D. L. Crittenden,  H. Dachsel,  
 R. J. Doerksen,  A. D. Dutoi,  L. Fusti-Molnar,  W. A. Goddard III,  
 A. Golubeva-Zadorozhnaya,  S. R. Gwaltney,  G. Hawkins,  A. Heyden,  
 S. Hirata,  G. Kedziora,  F. J. Keil,  C. Kelley,  Jihan Kim,  R. A. King,  
 R. Z. Khaliullin,  P. P. Korambath,  W. Kurlancheek,  A. M. Lee,  M. S. Lee,  
 S. V. Levchenko,  Ching Yeh Lin,  D. Liotard,  R. C. Lochan,  I. Lotan,  
 P. E. Maslen,  N. Nair,  D. P. O'Neill,  D. Neuhauser,  E. Neuscamman,  
 C. M. Oana,  R. Olson,  B. Peters,  R. Peverati,  P. A. Pieniazek,  
 Y. M. Rhee,  J. Ritchie,  M. A. Rohrdanz,  E. Rosta,  N. J. Russ,  
 H. F. Schaefer III,  N. E. Schultz,  N. Shenvi,  A. C. Simmonett,  A. Sodt,  
 D. Stuck,  K. S. Thanthiriwatte,  V. Vanovschi,  Tao Wang,  A. Warshel,  
 C. F. Williams,  Q. Wu,  X. Xu,  W. Zhang

 Please cite Q-Chem as follows:
 Y. Shao et al., Mol. Phys. 113, 184-215 (2015)
 DOI: 10.1080/00268976.2014.952696

 Q-Chem 5.2.1 for Intel X86 EM64T Linux

 Parts of Q-Chem use Armadillo 8.300.2 (Tropical Shenanigans).
 http://arma.sourceforge.net/

 Q-Chem begins on Fri Oct  1 11:13:46 2021  

compute-0-5.local
Host: 0

     Scratch files written to /home/meili/scratch/qchem25362//
NAlpha2: 110
NElect   110
Mult     1
Symmetry turned off for PCM/SM12/SMD calculation

 Q-Chem warning in module libgen/rem_setup.C, line 2813:

 Neither GIA nor STOLL is specified by user. Use STOLL as the default


Checking the input file for inconsistencies... 	...done.

--------------------------------------------------------------
User input:
--------------------------------------------------------------
$comment
SSI-085HIE-094TYR-1.pdb
$end

$molecule
0 1
--
0 1
C    1.077647148906   -1.522901301985    1.634894983982
C    0.836647148906   -2.930901301985    2.183894983982
C    0.054647148906   -0.480901301985    2.006894983982
C    0.219647148906    0.649098698015    2.747894983982
C   -1.822352851094    0.653098698015    1.999894983982
N   -1.241352851094   -0.459901301985    1.554894983982
N   -0.967352851094    1.334098698015    2.745894983982
H    2.034647148906   -1.165901301985    2.015894983982
H    1.148647148906   -1.568901301985    0.547894983982
H    0.568647148906   -2.851901301985    3.238894983982
H    1.140647148906    0.953098698015    3.226894983982
H   -2.839352851094    0.954098698015    1.782894983982
H   -1.146352851094    2.216098698015    3.188894983982
H    1.760423148906   -3.520129301985    2.086694983982
H    0.017621148906   -3.421882301985    1.637874983982
--
0 1
C    2.676647148906    1.307098698015   -0.590105016018
C    1.418647148906    0.798098698015   -1.258105016018
C    1.441647148906   -0.211901301985   -2.227105016018
C    0.190647148906    1.335098698015   -0.890105016018
C    0.285647148906   -0.633901301985   -2.857105016018
C   -0.974352851094    0.917098698015   -1.524105016018
C   -0.925352851094   -0.044901301985   -2.520105016018
O   -2.098352851094   -0.403901301985   -3.125105016018
H    3.145647148906    0.481098698015   -0.055105016018
H    2.393647148906    2.052098698015    0.154894983982
H    2.375647148906   -0.687901301985   -2.481105016018
H    0.132647148906    2.070098698015   -0.101105016018
H    0.326647148906   -1.416901301985   -3.598105016018
H   -1.929352851094    1.308098698015   -1.216105016018
H   -1.889352851094   -0.927901301985   -3.920105016018
H    3.410652148906    1.764868698015   -1.269575016018
$end

$rem
JOBTYPE			EDA
EDA2			1
method			wB97X-V
BASIS			def2-TZVPD
XC_GRID			000099000590
NL_GRID			1
UNRESTRICTED		FALSE
MAX_SCF_CYCLES		200
SYMMETRY		FALSE
SYM_IGNORE		TRUE
MEM_STATIC		2000
BASIS_LIN_DEP_THRESH 	6
THRESH 			14
SCF_CONVERGENCE 	8
SCF_PRINT_FRGM 		TRUE
SOLVENT_METHOD          SMD
$end

$SMX
SOLVENT			WATER
$END
--------------------------------------------------------------
 ----------------------------------------------------------------
             Standard Nuclear Orientation (Angstroms)
    I     Atom           X                Y                Z
 ----------------------------------------------------------------
    1      C       1.0776471489    -1.5229013020     1.6348949840
    2      C       0.8366471489    -2.9309013020     2.1838949840
    3      C       0.0546471489    -0.4809013020     2.0068949840
    4      C       0.2196471489     0.6490986980     2.7478949840
    5      C      -1.8223528511     0.6530986980     1.9998949840
    6      N      -1.2413528511    -0.4599013020     1.5548949840
    7      N      -0.9673528511     1.3340986980     2.7458949840
    8      H       2.0346471489    -1.1659013020     2.0158949840
    9      H       1.1486471489    -1.5689013020     0.5478949840
   10      H       0.5686471489    -2.8519013020     3.2388949840
   11      H       1.1406471489     0.9530986980     3.2268949840
   12      H      -2.8393528511     0.9540986980     1.7828949840
   13      H      -1.1463528511     2.2160986980     3.1888949840
   14      H       1.7604231489    -3.5201293020     2.0866949840
   15      H       0.0176211489    -3.4218823020     1.6378749840
   16      C       2.6766471489     1.3070986980    -0.5901050160
   17      C       1.4186471489     0.7980986980    -1.2581050160
   18      C       1.4416471489    -0.2119013020    -2.2271050160
   19      C       0.1906471489     1.3350986980    -0.8901050160
   20      C       0.2856471489    -0.6339013020    -2.8571050160
   21      C      -0.9743528511     0.9170986980    -1.5241050160
   22      C      -0.9253528511    -0.0449013020    -2.5201050160
   23      O      -2.0983528511    -0.4039013020    -3.1251050160
   24      H       3.1456471489     0.4810986980    -0.0551050160
   25      H       2.3936471489     2.0520986980     0.1548949840
   26      H       2.3756471489    -0.6879013020    -2.4811050160
   27      H       0.1326471489     2.0700986980    -0.1011050160
   28      H       0.3266471489    -1.4169013020    -3.5981050160
   29      H      -1.9293528511     1.3080986980    -1.2161050160
   30      H      -1.8893528511    -0.9279013020    -3.9201050160
   31      H       3.4106521489     1.7648686980    -1.2695750160
 ----------------------------------------------------------------
 Nuclear Repulsion Energy =         970.08459283 hartrees
 There are       55 alpha and       55 beta electrons
 Requested basis set is def2-TZVPD
 There are 276 shells and 702 basis functions

 Total QAlloc Memory Limit   2000 MB
 Mega-Array Size      1956 MB
 MEM_STATIC part      2000 MB

 Citation of the SMD model:
 Marenich, A.V.; Cramer, C.J.; Truhlar, D.G.
 J. Phys. Chem. B 2009, 113, 6378-6396.
 iSolventCode=           1
 Solvent: water                                                           

 vradii
            1           2           3           4           5           6
    1   1.8500000   1.8500000   1.8500000   1.8500000   1.8500000   1.8900000
            7           8           9          10          11          12
    1   1.8900000   1.2000000   1.2000000   1.2000000   1.2000000   1.2000000
           13          14          15          16          17          18
    1   1.2000000   1.2000000   1.2000000   1.8500000   1.8500000   1.8500000
           19          20          21          22          23          24
    1   1.8500000   1.8500000   1.8500000   1.8500000   1.5200000   1.2000000
           25          26          27          28          29          30
    1   1.2000000   1.2000000   1.2000000   1.2000000   1.2000000   1.2000000
           31
    1   1.2000000
 Changing PCM_VDW_RADII to SMD_RADIUS
 Discretize the solute cavity surface with Lebedev spheres
	Using 110 Lebedev grid points for each H atom
	Using 194 Lebedev grid points for other atoms
	Atomic van der Waals radii will be scaled by 1.20
 Remove points where switching function is < 1.0e-08
 Keep 2248 surface tesserae and discard 2422 interior tesserae
 Molecular Surface Area = 267.734 Angst**2
 A cutoff of  1.0D-14 yielded  33668 shell pairs
 There are    220216 function pairs (    279079 Cartesian)
 Smallest overlap matrix eigenvalue = 4.03E-07
 Linear dependence detected in AO basis
 Tighter screening thresholds may be required for diffuse basis sets
 Use S2THRESH > 14 and THRESH = 14 in case of SCF convergence issues
 Number of orthogonalized atomic orbitals = 701
 Maximum deviation from orthogonality = 3.724E-10

 Scale SEOQF with 1.000000e-01/1.000000e-01/1.000000e-01

 Standard Electronic Orientation quadrupole field applied
 Nucleus-field energy     =    -0.0000000345 hartrees

 -----------------------------------------------------------------------
  General SCF calculation program by
  Eric Jon Sundstrom, Paul Horn, Yuezhi Mao, Dmitri Zuev, Alec White,
  David Stuck, Shaama M.S., Shane Yost, Joonho Lee, David Small,
  Daniel Levine, Susi Lehtola, Hugh Burton, Evgeny Epifanovsky,
  Bang C. Huynh
 -----------------------------------------------------------------------
================================================================
                 ALMO-EDA with the EDA2 driver                  
================================================================
 The second-generation ALMO-EDA (for DFT):                      
 P. R. Horn, Y. Mao and M. Head-Gordon, PCCP, 18, 23067 (2016)  
 Decomposition of the frozen energy:                            
 P. R. Horn, Y. Mao and M. Head-Gordon, JCP, 144, 114107 (2016) 
 FERF model for polarization:                                   
 P. R. Horn and M. Head-Gordon, JCP, 143, 114111 (2015)         
Using eda2 option set 1
Option set summary: Frozen orbital wavefunction, initial wavefunction decomposition, and nDQ polarization.
--------------------------------
Printing EDA Options
--------------------------------
eda_child_super_basis      0
fragmo_guess_mode          0
child_mp                   1
child_mp_orders            232
cls_elec                   1
cls_disp                   0
scfmi_mode                 1
scfmi_occs                 0
scfmi_virts                0
frz_relax                  0
frz_relax_method           0
dc_pen_start               0
dc_pen_conv                0
dc_pen_increment           0
dc_pen_steps               0
dc_pen_thresh_factor       0
dc_pen_pre_newton_thresh   0
frz_ortho_decomp           1
frz_ortho_decomp_conv      6
frgm_method                2
scfmi_freeze_ss            0
separate_rehyb             0
plot_diff_den              0
eda_nocv                   0
eda_vct_relax              1
disp_free_x                0
disp_free_c                0
eda_bsse                   0
eda_pct_a                  0
eda_covp                   0
--------------------------------
Attempting to make child job directory: /home/meili/scratch/qchem25362//Frg1/
Attempting to make child job directory: /home/meili/scratch/qchem25362//Frg2/
Creating input file /home/meili/scratch/qchem25362/Frg1.input
using default PutDataFrgm: nothing
calling putenv with: QCSCRATCH=/home/meili/scratch/qchem25362/ 
Spawning Job For Fragment 0
                  Welcome to Q-Chem
     A Quantum Leap Into The Future Of Chemistry


 Q-Chem 5.2 (devel), Q-Chem, Inc., Pleasanton, CA (2019)

 Yihan Shao,  Zhengting Gan,  E. Epifanovsky,  A. T. B. Gilbert,  M. Wormit,  
 J. Kussmann,  A. W. Lange,  A. Behn,  Jia Deng,  Xintian Feng,  D. Ghosh,  
 M. Goldey,  P. R. Horn,  L. D. Jacobson,  I. Kaliman,  T. Kus,  A. Landau,  
 Jie Liu,  E. I. Proynov,  R. M. Richard,  R. P. Steele,  E. J. Sundstrom,  
 H. L. Woodcock III,  P. M. Zimmerman,  D. Zuev,  B. Albrecht,  E. Alguire,  
 S. A. Baeppler,  D. Barton,  Z. Benda,  Y. A. Bernard,  E. J. Berquist,  
 K. B. Bravaya,  H. Burton,  D. Casanova,  Chun-Min Chang,  Yunqing Chen,  
 A. Chien,  K. D. Closser,  M. P. Coons,  S. Coriani,  S. Dasgupta,  
 A. L. Dempwolff,  M. Diedenhofen,  Hainam Do,  R. G. Edgar,  Po-Tung Fang,  
 S. Faraji,  S. Fatehi,  Qingguo Feng,  K. D. Fenk,  J. Fosso-Tande,  
 J. Gayvert,  Qinghui Ge,  A. Ghysels,  G. Gidofalvi,  J. Gomes,  
 J. Gonthier,  A. Gunina,  D. Hait,  M. W. D. Hanson-Heine,  
 P. H. P. Harbach,  A. W. Hauser,  M. F. Herbst,  J. E. Herr,  
 E. G. Hohenstein,  Z. C. Holden,  Kerwin Hui,  B. C. Huynh,  T.-C. Jagau,  
 Hyunjun Ji,  B. Kaduk,  K. Khistyaev,  Jaehoon Kim,  P. Klunzinger,  K. Koh,  
 D. Kosenkov,  L. Koulias,  T. Kowalczyk,  C. M. Krauter,  A. Kunitsa,  
 Ka Un Lao,  A. Laurent,  K. V. Lawler,  Joonho Lee,  D. Lefrancois,  
 S. Lehtola,  D. S. Levine,  Yi-Pei Li,  You-Sheng Lin,  Fenglai Liu,  
 E. Livshits,  A. Luenser,  P. Manohar,  E. Mansoor,  S. F. Manzer,  
 Shan-Ping Mao,  Yuezhi Mao,  N. Mardirossian,  A. V. Marenich,  
 T. Markovich,  L. A. Martinez-Martinez,  S. A. Maurer,  N. J. Mayhall,  
 S. C. McKenzie,  J.-M. Mewes,  P. Morgante,  A. F. Morrison,  
 J. W. Mullinax,  K. Nanda,  T. S. Nguyen-Beck,  R. Olivares-Amaya,  
 J. A. Parkhill,  Zheng Pei,  T. M. Perrine,  F. Plasser,  P. Pokhilko,  
 S. Prager,  A. Prociuk,  E. Ramos,  D. R. Rehn,  F. Rob,  M. Scheurer,  
 M. Schneider,  N. Sergueev,  S. M. Sharada,  S. Sharma,  D. W. Small,  
 T. Stauch,  T. Stein,  Yu-Chuan Su,  A. J. W. Thom,  A. Tkatchenko,  
 T. Tsuchimochi,  N. M. Tubman,  L. Vogt,  M. L. Vidal,  O. Vydrov,  
 M. A. Watson,  J. Wenzel,  M. de Wergifosse,  T. A. Wesolowski,  A. White,  
 J. Witte,  A. Yamada,  Jun Yang,  K. Yao,  S. Yeganeh,  S. R. Yost,  
 Zhi-Qiang You,  A. Zech,  Igor Ying Zhang,  Xing Zhang,  Yan Zhao,  
 Ying Zhu,  B. R. Brooks,  G. K. L. Chan,  C. J. Cramer,  M. S. Gordon,  
 W. J. Hehre,  A. Klamt,  M. W. Schmidt,  C. D. Sherrill,  D. G. Truhlar,  
 A. Aspuru-Guzik,  R. Baer,  A. T. Bell,  N. A. Besley,  Jeng-Da Chai,  
 A. E. DePrince, III,  R. A. DiStasio Jr.,  A. Dreuw,  B. D. Dunietz,  
 T. R. Furlani,  Chao-Ping Hsu,  Yousung Jung,  Jing Kong,  D. S. Lambrecht,  
 WanZhen Liang,  C. Ochsenfeld,  V. A. Rassolov,  L. V. Slipchenko,  
 J. E. Subotnik,  T. Van Voorhis,  J. M. Herbert,  A. I. Krylov,  
 P. M. W. Gill,  M. Head-Gordon

 Contributors to earlier versions of Q-Chem not listed above: 
 R. D. Adamson,  B. Austin,  J. Baker,  G. J. O. Beran,  K. Brandhorst,  
 S. T. Brown,  E. F. C. Byrd,  A. K. Chakraborty,  C.-L. Cheng,  
 Siu Hung Chien,  D. M. Chipman,  D. L. Crittenden,  H. Dachsel,  
 R. J. Doerksen,  A. D. Dutoi,  L. Fusti-Molnar,  W. A. Goddard III,  
 A. Golubeva-Zadorozhnaya,  S. R. Gwaltney,  G. Hawkins,  A. Heyden,  
 S. Hirata,  G. Kedziora,  F. J. Keil,  C. Kelley,  Jihan Kim,  R. A. King,  
 R. Z. Khaliullin,  P. P. Korambath,  W. Kurlancheek,  A. M. Lee,  M. S. Lee,  
 S. V. Levchenko,  Ching Yeh Lin,  D. Liotard,  R. C. Lochan,  I. Lotan,  
 P. E. Maslen,  N. Nair,  D. P. O'Neill,  D. Neuhauser,  E. Neuscamman,  
 C. M. Oana,  R. Olson,  B. Peters,  R. Peverati,  P. A. Pieniazek,  
 Y. M. Rhee,  J. Ritchie,  M. A. Rohrdanz,  E. Rosta,  N. J. Russ,  
 H. F. Schaefer III,  N. E. Schultz,  N. Shenvi,  A. C. Simmonett,  A. Sodt,  
 D. Stuck,  K. S. Thanthiriwatte,  V. Vanovschi,  Tao Wang,  A. Warshel,  
 C. F. Williams,  Q. Wu,  X. Xu,  W. Zhang

 Please cite Q-Chem as follows:
 Y. Shao et al., Mol. Phys. 113, 184-215 (2015)
 DOI: 10.1080/00268976.2014.952696

 Q-Chem 5.2.1 for Intel X86 EM64T Linux

 Parts of Q-Chem use Armadillo 8.300.2 (Tropical Shenanigans).
 http://arma.sourceforge.net/

 Q-Chem begins on Fri Oct  1 11:14:19 2021  

compute-0-5.local
Host: 0

     Scratch files written to /home/meili/scratch/qchem25362//Frg1//
NAlpha2: 52
NElect   52
Mult     1
Symmetry turned off for PCM/SM12/SMD calculation

Checking the input file for inconsistencies... 	...done.

--------------------------------------------------------------
User input:
--------------------------------------------------------------
$molecule
0 1
 6	1.0776471489	-1.5229013020	1.6348949840
 6	0.8366471489	-2.9309013020	2.1838949840
 6	0.0546471489	-0.4809013020	2.0068949840
 6	0.2196471489	0.6490986980	2.7478949840
 6	-1.8223528511	0.6530986980	1.9998949840
 7	-1.2413528511	-0.4599013020	1.5548949840
 7	-0.9673528511	1.3340986980	2.7458949840
 1	2.0346471489	-1.1659013020	2.0158949840
 1	1.1486471489	-1.5689013020	0.5478949840
 1	0.5686471489	-2.8519013020	3.2388949840
 1	1.1406471489	0.9530986980	3.2268949840
 1	-2.8393528511	0.9540986980	1.7828949840
 1	-1.1463528511	2.2160986980	3.1888949840
 1	1.7604231489	-3.5201293020	2.0866949840
 1	0.0176211489	-3.4218823020	1.6378749840
$end
$rem
EDA2		1
METHOD		WB97X-V
BASIS		DEF2-TZVPD
XC_GRID		000099000590
NL_GRID		1
UNRESTRICTED		FALSE
MAX_SCF_CYCLES		200
SYMMETRY		FALSE
SYM_IGNORE		TRUE
BASIS_LIN_DEP_THRESH		6
THRESH		14
SCF_CONVERGENCE		8
SCF_PRINT_FRGM		TRUE
SOLVENT_METHOD		SMD
!required keywords
JOBTYPE		SP
SYM_IGNORE		TRUE
SUBSYSTEM		TRUE
GEN_SCFMAN		TRUE
CHILD_INSTRUCTION		2
SYM_IGNORE		TRUE
SCFMI		0
RI_K 0		
PARI_K 0		
MIN_PARI_K 0		
IARI_K 0		
OCC_RI_K 0		
PURECART		1111
MEM_STATIC		2000
MEM_TOTAL		2000
GUI		0
CHILD_MP		1
CHILD_MP_ORDERS		232
FRZ_RELAX		0
FRZ_RELAX_METHOD		0
EDA_CLS_ELEC		1
EDA_CLS_DISP		0
FRZ_ORTHO_DECOMP		1
EDA2		FALSE
FRGM_METHOD		FALSE
CIS_N_ROOTS  0
LOCAL_CIS    0
CIS_RLX_DNS  1
$end
$smx
SOLVENT			WATER
$end
--------------------------------------------------------------
 ----------------------------------------------------------------
             Standard Nuclear Orientation (Angstroms)
    I     Atom           X                Y                Z
 ----------------------------------------------------------------
    1      C       1.0776471489    -1.5229013020     1.6348949840
    2      C       0.8366471489    -2.9309013020     2.1838949840
    3      C       0.0546471489    -0.4809013020     2.0068949840
    4      C       0.2196471489     0.6490986980     2.7478949840
    5      C      -1.8223528511     0.6530986980     1.9998949840
    6      N      -1.2413528511    -0.4599013020     1.5548949840
    7      N      -0.9673528511     1.3340986980     2.7458949840
    8      H       2.0346471489    -1.1659013020     2.0158949840
    9      H       1.1486471489    -1.5689013020     0.5478949840
   10      H       0.5686471489    -2.8519013020     3.2388949840
   11      H       1.1406471489     0.9530986980     3.2268949840
   12      H      -2.8393528511     0.9540986980     1.7828949840
   13      H      -1.1463528511     2.2160986980     3.1888949840
   14      H       1.7604231489    -3.5201293020     2.0866949840
   15      H       0.0176211489    -3.4218823020     1.6378749840
 ----------------------------------------------------------------
 Nuclear Repulsion Energy =         290.37017685 hartrees
 There are       26 alpha and       26 beta electrons
 Requested basis set is def2-TZVPD
 There are 131 shells and 331 basis functions

 Total QAlloc Memory Limit   2000 MB
 Mega-Array Size      1956 MB
 MEM_STATIC part      2000 MB

 Citation of the SMD model:
 Marenich, A.V.; Cramer, C.J.; Truhlar, D.G.
 J. Phys. Chem. B 2009, 113, 6378-6396.
 iSolventCode=           1
 Solvent: water                                                           

 vradii
            1           2           3           4           5           6
    1   1.8500000   1.8500000   1.8500000   1.8500000   1.8500000   1.8900000
            7           8           9          10          11          12
    1   1.8900000   1.2000000   1.2000000   1.2000000   1.2000000   1.2000000
           13          14          15
    1   1.2000000   1.2000000   1.2000000
 Changing PCM_VDW_RADII to SMD_RADIUS
 Discretize the solute cavity surface with Lebedev spheres
	Using 110 Lebedev grid points for each H atom
	Using 194 Lebedev grid points for other atoms
	Atomic van der Waals radii will be scaled by 1.20
 Remove points where switching function is < 1.0e-08
 Keep 1082 surface tesserae and discard 1156 interior tesserae
 Molecular Surface Area = 136.529 Angst**2

                       Distance Matrix (Angstroms)
             C (  1)   C (  2)   C (  3)   C (  4)   C (  5)   N (  6)
   C (  2)  1.530342
   C (  3)  1.506877  2.577858
   C (  4)  2.586990  3.676300  1.361325
   C (  5)  3.643927  4.466452  2.192974  2.174692
   N (  6)  2.552279  3.289311  1.372720  2.188070  1.332049
   N (  7)  3.684942  4.664814  2.210165  1.370474  1.323368  2.170713
   H (  8)  1.090165  2.139779  2.095163  2.669134  4.264442  3.382770
   H (  9)  1.090287  2.151484  2.123502  3.259228  3.984022  2.820644
   H ( 10)  2.144327  1.091371  2.720967  3.552447  4.420071  3.440003
   H ( 11)  2.944318  4.033078  2.173511  1.081711  3.221009  3.235132
   H ( 12)  4.636844  5.363488  3.237999  3.222069  1.082580  2.145923
   H ( 13)  4.619655  5.606596  3.180147  2.125071  2.076937  3.136871
   H ( 14)  2.158524  1.100000  3.486108  4.493733  5.500877  4.319545
   H ( 15)  2.174809  1.100002  2.964273  4.224434  4.485759  3.219508
             N (  7)   H (  8)   H (  9)   H ( 10)   H ( 11)   H ( 12)
   H (  8)  3.974280
   H (  9)  4.211421  1.761371
   H ( 10)  4.486083  2.547053  3.037099
   H ( 11)  2.195492  2.599215  3.679346  3.847772
   H ( 12)  2.139194  5.320203  4.878001  5.312253  4.233856
   H ( 13)  1.003102  4.788801  5.154428  5.350547  2.612849  2.536874
   H ( 14)  5.607035  2.371202  2.559192  1.787295  4.657676  6.424091
   H ( 15)  4.981690  3.049712  2.429159  1.786553  4.788176  5.228053
             H ( 13)   H ( 14)
   H ( 14)  6.524454
   H ( 15)  5.962158  1.802346

 A cutoff of  1.0D-14 yielded   8266 shell pairs
 There are     53764 function pairs (     68463 Cartesian)
 Smallest overlap matrix eigenvalue = 1.52E-06

 Scale SEOQF with 1.000000e-01/1.000000e-01/1.000000e-01

 Standard Electronic Orientation quadrupole field applied
 Nucleus-field energy     =    -0.0000000155 hartrees
 Guess from superposition of atomic densities
 Warning:  Energy on first SCF cycle will be non-variational
 SAD guess density has 52.000000 electrons

 -----------------------------------------------------------------------
  General SCF calculation program by
  Eric Jon Sundstrom, Paul Horn, Yuezhi Mao, Dmitri Zuev, Alec White,
  David Stuck, Shaama M.S., Shane Yost, Joonho Lee, David Small,
  Daniel Levine, Susi Lehtola, Hugh Burton, Evgeny Epifanovsky,
  Bang C. Huynh
 -----------------------------------------------------------------------
 Exchange:     0.1670 Hartree-Fock + 1.0000 wB97X-V + LR-HF
 Correlation:  1.0000 wB97X-V
 Using Euler-Maclaurin-Lebedev (99,590) quadrature formula
 Nonlocal Correlation:  VV10 with C = 0.0100 and b = 6.00 and scale = 1.00000
 Grid used for NLC:  SG-1 standard quadrature
Energy prior to optimization (guess energy) = -304.787422498969
Begin Timing: Total SCF Calculation
begin iterations for algorithm: DIIS         
the SCF tolerance is set to 1.00e-08
    1    -304.7874224990      2.37e-03     00000 
    2    -304.8080709813      2.46e-03     00000 
    3    -304.8852132702      4.04e-04     00000 
    4    -304.8882357301      1.56e-04     00000 
    5    -304.8889516551      6.56e-05     00000 
    6    -304.8890510690      2.30e-05     00000 
    7    -304.8890613801      9.77e-06     00000 
    8    -304.8890634513      2.04e-06     00000 
    9    -304.8890636624      8.36e-07     00000 
   10    -304.8890636817      3.24e-07     00000 
   11    -304.8890636846      7.65e-08     00000 
   12    -304.8890636847      3.39e-08     00000 
   13    -304.8890636848      9.49e-09     00000 Convergence criterion met
Timing for Total SCF: 496.00s (wall), 3563.75s (cpu)
(3)  G-ENP(liq) elect-nuc-pol free energy of system     -304.889063685 a.u.
(4)  G-CDS(liq) cavity-dispersion-solvent structure 
     free energy                                                2.3442 kcal/mol
(6)  G-S(liq) free energy of system                     -304.885328010 a.u.
E_pcm = -0.0231110681
E_cds = 0.0037356752
Multipole orders to be included
        2
        3
computing dipole RHS
computing quadrupole RHS
total number of RHS in solve_reponses: 8
RHS batch sizes
        8
Beginning Block Conjugate Gradient Iterations. Batch Number: 0
computing hessian-vector products by finite difference
              1      6.02e-01     00000 Conjugate Gradient Iteration
computing hessian-vector products by finite difference
              2      1.79e-01     00000 Conjugate Gradient Iteration
computing hessian-vector products by finite difference
              3      4.81e-02     00000 Conjugate Gradient Iteration
computing hessian-vector products by finite difference
              4      1.43e-02     00000 Conjugate Gradient Iteration
computing hessian-vector products by finite difference
              5      2.73e-03     00000 Conjugate Gradient Iteration
computing hessian-vector products by finite difference
              6      5.93e-04     00000 Conjugate Gradient Iteration
computing hessian-vector products by finite difference
              7      1.24e-04     00000 Conjugate Gradient Iteration
computing hessian-vector products by finite difference
              8      1.95e-05     00000 Conjugate Gradient Iteration
computing hessian-vector products by finite difference
              9      3.01e-06     00000 Conjugate Gradient Iteration
computing hessian-vector products by finite difference
             10      4.43e-07     00000 Conjugate Gradient Iteration
computing hessian-vector products by finite difference
             11      7.52e-08     00000 Conjugate Gradient Iteration
computing hessian-vector products by finite difference
             12      1.32e-08     00000 Conjugate Gradient Iteration
computing hessian-vector products by finite difference
             13      3.36e-09     00000 CG Converged
batch 0 complete
Done Calculating Responses
TESTING ORTHOGONALIZATION OF MULTIPOLE BASIS
Multipole virts passed orthogonality test
Virts Per Order
           78
          130

 --------------------------------------------------------------

                    Orbital Energies (a.u.)
 --------------------------------------------------------------

 Alpha MOs
 -- Occupied --
-14.4593 -14.3861 -10.3167 -10.2823 -10.2798 -10.2622 -10.2503  -1.1548
 -0.9976  -0.9098  -0.8564  -0.7558  -0.7267  -0.6818  -0.6569  -0.5673
 -0.5611  -0.5390  -0.5312  -0.5155  -0.4750  -0.4491  -0.4397  -0.3783
 -0.3748  -0.3202
 -- Virtual --
  0.0682   0.0855   0.0931   0.0981   0.1095   0.1186   0.1291   0.1372
  0.1474   0.1656   0.1697   0.1730   0.1881   0.1899   0.1992   0.2134
  0.2167   0.2292   0.2423   0.2489   0.2539   0.2614   0.2687   0.2807
  0.2852   0.2902   0.2999   0.3050   0.3090   0.3137   0.3190   0.3219
  0.3345   0.3377   0.3422   0.3487   0.3569   0.3608   0.3665   0.3693
  0.3776   0.3827   0.3932   0.3997   0.4084   0.4104   0.4167   0.4200
  0.4271   0.4347   0.4374   0.4448   0.4549   0.4574   0.4725   0.4759
  0.4874   0.4899   0.4927   0.5037   0.5070   0.5158   0.5290   0.5359
  0.5470   0.5536   0.5654   0.5703   0.5729   0.5823   0.5908   0.5959
  0.6083   0.6124   0.6195   0.6233   0.6359   0.6457   0.6533   0.6632
  0.6793   0.6865   0.7051   0.7062   0.7148   0.7314   0.7367   0.7491
  0.7567   0.7659   0.7711   0.7849   0.7918   0.7955   0.7990   0.8063
  0.8101   0.8166   0.8276   0.8340   0.8389   0.8430   0.8554   0.8653
  0.8880   0.8926   0.9014   0.9127   0.9407   0.9655   0.9868   1.0015
  1.0070   1.0305   1.0384   1.0547   1.0797   1.0969   1.0997   1.1213
  1.1344   1.1518   1.1707   1.1833   1.2013   1.2148   1.2334   1.2451
  1.2559   1.2917   1.3334   1.3599   1.3813   1.4034   1.4242   1.4358
  1.4579   1.4689   1.5010   1.5380   1.5696   1.5919   1.6244   1.6793
  1.6828   1.7168   1.7216   1.7628   1.8243   1.8552   1.8689   1.8765
  1.8810   1.8948   1.9188   1.9229   1.9457   1.9514   1.9778   1.9892
  1.9987   2.0003   2.0091   2.0194   2.0271   2.0339   2.0476   2.1025
  2.1253   2.1809   2.2053   2.2270   2.2667   2.2828   2.3105   2.3274
  2.3619   2.3864   2.3979   2.4381   2.4687   2.4948   2.5103   2.5290
  2.5463   2.5916   2.5987   2.6159   2.6242   2.6490   2.6776   2.7022
  2.7123   2.7455   2.7684   2.7826   2.7981   2.8195   2.8315   2.8636
  2.9110   2.9184   2.9503   2.9737   3.0042   3.0256   3.0452   3.0615
  3.0825   3.0927   3.1042   3.1276   3.1431   3.1581   3.2033   3.2245
  3.2621   3.2770   3.2870   3.3028   3.3131   3.3265   3.3379   3.3492
  3.3806   3.4015   3.4047   3.4169   3.4464   3.4715   3.4969   3.5082
  3.5202   3.5489   3.5863   3.6023   3.6222   3.6415   3.6523   3.6648
  3.6724   3.6968   3.7683   3.7732   3.7885   3.8080   3.8289   3.8705
  3.9034   3.9406   3.9965   4.0161   4.0526   4.1096   4.1229   4.1477
  4.1860   4.2548   4.3110   4.3359   4.4605   4.5016   4.5237   4.5380
  4.5855   4.6323   4.6568   4.6800   4.7902   4.8176   4.8669   4.8772
  4.8905   4.9522   4.9847   5.0090   5.0541   5.0635   5.0761   5.1372
  5.1716   5.2287   5.2445   5.3083   5.3880   5.4557   5.5166   5.5558
  5.5972   5.6185   5.6725   5.7262   5.7584   5.8167   5.8894   6.0601
  6.2654   6.3161  22.6318  22.7688  22.9251  23.1537  23.4148  32.6659
 32.8220
 --------------------------------------------------------------

          Ground-State Mulliken Net Atomic Charges

     Atom                 Charge (a.u.)
  ----------------------------------------
      1 C                    -0.118012
      2 C                    -0.948439
      3 C                     0.342747
      4 C                    -0.570242
      5 C                    -0.304332
      6 N                    -0.541417
      7 N                     0.096986
      8 H                     0.200121
      9 H                     0.221263
     10 H                     0.295583
     11 H                     0.323837
     12 H                     0.338348
     13 H                     0.182594
     14 H                     0.232636
     15 H                     0.248328
  ----------------------------------------
  Sum of atomic charges =     0.000000

 -----------------------------------------------------------------
                    Cartesian Multipole Moments
 -----------------------------------------------------------------
    Charge (ESU x 10^10)
                -0.0000
    Dipole Moment (Debye)
         X       0.9379      Y       4.2365      Z       2.6096
       Tot       5.0634
    Quadrupole Moments (Debye-Ang)
        XX     -38.9325     XY      -8.3777     YY     -37.2157
        XZ      -0.3855     YZ      12.0935     ZZ     -32.9201
    Octopole Moments (Debye-Ang^2)
       XXX      16.9329    XXY      34.9106    XYY       3.8613
       YYY      84.1743    XXZ     -78.3175    XYZ     -17.3112
       YYZ     -70.9711    XZZ       5.3734    YZZ      59.0497
       ZZZ    -242.0483
    Hexadecapole Moments (Debye-Ang^3)
      XXXX    -328.6781   XXXY      87.9553   XXYY    -158.5477
      XYYY      96.6153   YYYY    -654.2838   XXXZ      37.2312
      XXYZ      61.3351   XYYZ      -3.1195   YYYZ     164.5412
      XXZZ    -243.3110   XYZZ       0.5333   YYZZ    -257.6663
      XZZZ      40.8783   YZZZ     216.4687   ZZZZ   -1188.1755
 -----------------------------------------------------------------
Archival summary:
1\1\compute-0-5.local\SP\ProcedureUnspecified\BasisUnspecified\258\meili\FriOct113:55:402021FriOct113:55:402021\0\\#,ProcedureUnspecified,BasisUnspecified,\\0,1\N\C,1,1.33205\H,2,1.08258,1,125.107\N,2,1.32337,1,109.663,3,-179.956,0\H,4,1.0031,2,125.883,1,178.869,0\C,4,1.37047,2,107.65,1,1.73489,0\H,6,1.08171,4,126.7,2,177.215,0\C,6,1.36133,4,108.006,2,-1.28701,0\C,8,1.50688,6,128.762,4,175.973,0\H,9,1.09016,8,106.453,6,-4.22582,0\H,9,1.09029,8,108.633,6,-120.029,0\C,9,1.53034,8,116.151,6,116.434,0\H,12,1.09137,9,108.594,8,-45.5358,0\H,12,1.1,9,109.201,8,-164.634,0\H,12,1.1,9,110.478,8,74.2341,0\\\@

 Total job time:  9680.93s(wall), 69454.75s(cpu) 
 Fri Oct  1 13:55:40 2021

        *************************************************************
        *                                                           *
        *  Thank you very much for using Q-Chem.  Have a nice day.  *
        *                                                           *
        *************************************************************


Done Job For Fragment 0
calling putenv with: QCSCRATCH=/home/meili/scratch 
calling putenv with: QCTHREADS=8 
Creating input file /home/meili/scratch/qchem25362/Frg2.input
using default PutDataFrgm: nothing
calling putenv with: QCSCRATCH=/home/meili/scratch/qchem25362/ 
Spawning Job For Fragment 1
                  Welcome to Q-Chem
     A Quantum Leap Into The Future Of Chemistry


 Q-Chem 5.2 (devel), Q-Chem, Inc., Pleasanton, CA (2019)

 Yihan Shao,  Zhengting Gan,  E. Epifanovsky,  A. T. B. Gilbert,  M. Wormit,  
 J. Kussmann,  A. W. Lange,  A. Behn,  Jia Deng,  Xintian Feng,  D. Ghosh,  
 M. Goldey,  P. R. Horn,  L. D. Jacobson,  I. Kaliman,  T. Kus,  A. Landau,  
 Jie Liu,  E. I. Proynov,  R. M. Richard,  R. P. Steele,  E. J. Sundstrom,  
 H. L. Woodcock III,  P. M. Zimmerman,  D. Zuev,  B. Albrecht,  E. Alguire,  
 S. A. Baeppler,  D. Barton,  Z. Benda,  Y. A. Bernard,  E. J. Berquist,  
 K. B. Bravaya,  H. Burton,  D. Casanova,  Chun-Min Chang,  Yunqing Chen,  
 A. Chien,  K. D. Closser,  M. P. Coons,  S. Coriani,  S. Dasgupta,  
 A. L. Dempwolff,  M. Diedenhofen,  Hainam Do,  R. G. Edgar,  Po-Tung Fang,  
 S. Faraji,  S. Fatehi,  Qingguo Feng,  K. D. Fenk,  J. Fosso-Tande,  
 J. Gayvert,  Qinghui Ge,  A. Ghysels,  G. Gidofalvi,  J. Gomes,  
 J. Gonthier,  A. Gunina,  D. Hait,  M. W. D. Hanson-Heine,  
 P. H. P. Harbach,  A. W. Hauser,  M. F. Herbst,  J. E. Herr,  
 E. G. Hohenstein,  Z. C. Holden,  Kerwin Hui,  B. C. Huynh,  T.-C. Jagau,  
 Hyunjun Ji,  B. Kaduk,  K. Khistyaev,  Jaehoon Kim,  P. Klunzinger,  K. Koh,  
 D. Kosenkov,  L. Koulias,  T. Kowalczyk,  C. M. Krauter,  A. Kunitsa,  
 Ka Un Lao,  A. Laurent,  K. V. Lawler,  Joonho Lee,  D. Lefrancois,  
 S. Lehtola,  D. S. Levine,  Yi-Pei Li,  You-Sheng Lin,  Fenglai Liu,  
 E. Livshits,  A. Luenser,  P. Manohar,  E. Mansoor,  S. F. Manzer,  
 Shan-Ping Mao,  Yuezhi Mao,  N. Mardirossian,  A. V. Marenich,  
 T. Markovich,  L. A. Martinez-Martinez,  S. A. Maurer,  N. J. Mayhall,  
 S. C. McKenzie,  J.-M. Mewes,  P. Morgante,  A. F. Morrison,  
 J. W. Mullinax,  K. Nanda,  T. S. Nguyen-Beck,  R. Olivares-Amaya,  
 J. A. Parkhill,  Zheng Pei,  T. M. Perrine,  F. Plasser,  P. Pokhilko,  
 S. Prager,  A. Prociuk,  E. Ramos,  D. R. Rehn,  F. Rob,  M. Scheurer,  
 M. Schneider,  N. Sergueev,  S. M. Sharada,  S. Sharma,  D. W. Small,  
 T. Stauch,  T. Stein,  Yu-Chuan Su,  A. J. W. Thom,  A. Tkatchenko,  
 T. Tsuchimochi,  N. M. Tubman,  L. Vogt,  M. L. Vidal,  O. Vydrov,  
 M. A. Watson,  J. Wenzel,  M. de Wergifosse,  T. A. Wesolowski,  A. White,  
 J. Witte,  A. Yamada,  Jun Yang,  K. Yao,  S. Yeganeh,  S. R. Yost,  
 Zhi-Qiang You,  A. Zech,  Igor Ying Zhang,  Xing Zhang,  Yan Zhao,  
 Ying Zhu,  B. R. Brooks,  G. K. L. Chan,  C. J. Cramer,  M. S. Gordon,  
 W. J. Hehre,  A. Klamt,  M. W. Schmidt,  C. D. Sherrill,  D. G. Truhlar,  
 A. Aspuru-Guzik,  R. Baer,  A. T. Bell,  N. A. Besley,  Jeng-Da Chai,  
 A. E. DePrince, III,  R. A. DiStasio Jr.,  A. Dreuw,  B. D. Dunietz,  
 T. R. Furlani,  Chao-Ping Hsu,  Yousung Jung,  Jing Kong,  D. S. Lambrecht,  
 WanZhen Liang,  C. Ochsenfeld,  V. A. Rassolov,  L. V. Slipchenko,  
 J. E. Subotnik,  T. Van Voorhis,  J. M. Herbert,  A. I. Krylov,  
 P. M. W. Gill,  M. Head-Gordon

 Contributors to earlier versions of Q-Chem not listed above: 
 R. D. Adamson,  B. Austin,  J. Baker,  G. J. O. Beran,  K. Brandhorst,  
 S. T. Brown,  E. F. C. Byrd,  A. K. Chakraborty,  C.-L. Cheng,  
 Siu Hung Chien,  D. M. Chipman,  D. L. Crittenden,  H. Dachsel,  
 R. J. Doerksen,  A. D. Dutoi,  L. Fusti-Molnar,  W. A. Goddard III,  
 A. Golubeva-Zadorozhnaya,  S. R. Gwaltney,  G. Hawkins,  A. Heyden,  
 S. Hirata,  G. Kedziora,  F. J. Keil,  C. Kelley,  Jihan Kim,  R. A. King,  
 R. Z. Khaliullin,  P. P. Korambath,  W. Kurlancheek,  A. M. Lee,  M. S. Lee,  
 S. V. Levchenko,  Ching Yeh Lin,  D. Liotard,  R. C. Lochan,  I. Lotan,  
 P. E. Maslen,  N. Nair,  D. P. O'Neill,  D. Neuhauser,  E. Neuscamman,  
 C. M. Oana,  R. Olson,  B. Peters,  R. Peverati,  P. A. Pieniazek,  
 Y. M. Rhee,  J. Ritchie,  M. A. Rohrdanz,  E. Rosta,  N. J. Russ,  
 H. F. Schaefer III,  N. E. Schultz,  N. Shenvi,  A. C. Simmonett,  A. Sodt,  
 D. Stuck,  K. S. Thanthiriwatte,  V. Vanovschi,  Tao Wang,  A. Warshel,  
 C. F. Williams,  Q. Wu,  X. Xu,  W. Zhang

 Please cite Q-Chem as follows:
 Y. Shao et al., Mol. Phys. 113, 184-215 (2015)
 DOI: 10.1080/00268976.2014.952696

 Q-Chem 5.2.1 for Intel X86 EM64T Linux

 Parts of Q-Chem use Armadillo 8.300.2 (Tropical Shenanigans).
 http://arma.sourceforge.net/

 Q-Chem begins on Fri Oct  1 13:55:40 2021  

compute-0-5.local
Host: 0

     Scratch files written to /home/meili/scratch/qchem25362//Frg2//
NAlpha2: 58
NElect   58
Mult     1
Symmetry turned off for PCM/SM12/SMD calculation

Checking the input file for inconsistencies... 	...done.

--------------------------------------------------------------
User input:
--------------------------------------------------------------
$molecule
0 1
 6	2.6766471489	1.3070986980	-0.5901050160
 6	1.4186471489	0.7980986980	-1.2581050160
 6	1.4416471489	-0.2119013020	-2.2271050160
 6	0.1906471489	1.3350986980	-0.8901050160
 6	0.2856471489	-0.6339013020	-2.8571050160
 6	-0.9743528511	0.9170986980	-1.5241050160
 6	-0.9253528511	-0.0449013020	-2.5201050160
 8	-2.0983528511	-0.4039013020	-3.1251050160
 1	3.1456471489	0.4810986980	-0.0551050160
 1	2.3936471489	2.0520986980	0.1548949840
 1	2.3756471489	-0.6879013020	-2.4811050160
 1	0.1326471489	2.0700986980	-0.1011050160
 1	0.3266471489	-1.4169013020	-3.5981050160
 1	-1.9293528511	1.3080986980	-1.2161050160
 1	-1.8893528511	-0.9279013020	-3.9201050160
 1	3.4106521489	1.7648686980	-1.2695750160
$end
$rem
EDA2		1
METHOD		WB97X-V
BASIS		DEF2-TZVPD
XC_GRID		000099000590
NL_GRID		1
UNRESTRICTED		FALSE
MAX_SCF_CYCLES		200
SYMMETRY		FALSE
SYM_IGNORE		TRUE
BASIS_LIN_DEP_THRESH		6
THRESH		14
SCF_CONVERGENCE		8
SCF_PRINT_FRGM		TRUE
SOLVENT_METHOD		SMD
!required keywords
JOBTYPE		SP
SYM_IGNORE		TRUE
SUBSYSTEM		TRUE
GEN_SCFMAN		TRUE
CHILD_INSTRUCTION		2
SYM_IGNORE		TRUE
SCFMI		0
RI_K 0		
PARI_K 0		
MIN_PARI_K 0		
IARI_K 0		
OCC_RI_K 0		
PURECART		1111
MEM_STATIC		2000
MEM_TOTAL		2000
GUI		0
CHILD_MP		1
CHILD_MP_ORDERS		232
FRZ_RELAX		0
FRZ_RELAX_METHOD		0
EDA_CLS_ELEC		1
EDA_CLS_DISP		0
FRZ_ORTHO_DECOMP		1
EDA2		FALSE
FRGM_METHOD		FALSE
CIS_N_ROOTS  0
LOCAL_CIS    0
CIS_RLX_DNS  1
$end
$smx
SOLVENT			WATER
$end
--------------------------------------------------------------
 ----------------------------------------------------------------
             Standard Nuclear Orientation (Angstroms)
    I     Atom           X                Y                Z
 ----------------------------------------------------------------
    1      C       2.6766471489     1.3070986980    -0.5901050160
    2      C       1.4186471489     0.7980986980    -1.2581050160
    3      C       1.4416471489    -0.2119013020    -2.2271050160
    4      C       0.1906471489     1.3350986980    -0.8901050160
    5      C       0.2856471489    -0.6339013020    -2.8571050160
    6      C      -0.9743528511     0.9170986980    -1.5241050160
    7      C      -0.9253528511    -0.0449013020    -2.5201050160
    8      O      -2.0983528511    -0.4039013020    -3.1251050160
    9      H       3.1456471489     0.4810986980    -0.0551050160
   10      H       2.3936471489     2.0520986980     0.1548949840
   11      H       2.3756471489    -0.6879013020    -2.4811050160
   12      H       0.1326471489     2.0700986980    -0.1011050160
   13      H       0.3266471489    -1.4169013020    -3.5981050160
   14      H      -1.9293528511     1.3080986980    -1.2161050160
   15      H      -1.8893528511    -0.9279013020    -3.9201050160
   16      H       3.4106521489     1.7648686980    -1.2695750160
 ----------------------------------------------------------------
 Nuclear Repulsion Energy =         343.43127143 hartrees
 There are       29 alpha and       29 beta electrons
 Requested basis set is def2-TZVPD
 There are 145 shells and 371 basis functions

 Total QAlloc Memory Limit   2000 MB
 Mega-Array Size      1956 MB
 MEM_STATIC part      2000 MB

 Citation of the SMD model:
 Marenich, A.V.; Cramer, C.J.; Truhlar, D.G.
 J. Phys. Chem. B 2009, 113, 6378-6396.
 iSolventCode=           1
 Solvent: water                                                           

 vradii
            1           2           3           4           5           6
    1   1.8500000   1.8500000   1.8500000   1.8500000   1.8500000   1.8500000
            7           8           9          10          11          12
    1   1.8500000   1.5200000   1.2000000   1.2000000   1.2000000   1.2000000
           13          14          15          16
    1   1.2000000   1.2000000   1.2000000   1.2000000
 Changing PCM_VDW_RADII to SMD_RADIUS
 Discretize the solute cavity surface with Lebedev spheres
	Using 110 Lebedev grid points for each H atom
	Using 194 Lebedev grid points for other atoms
	Atomic van der Waals radii will be scaled by 1.20
 Remove points where switching function is < 1.0e-08
 Keep 1177 surface tesserae and discard 1255 interior tesserae
 Molecular Surface Area = 141.502 Angst**2
 A cutoff of  1.0D-14 yielded  10047 shell pairs
 There are     67091 function pairs (     85790 Cartesian)
 Smallest overlap matrix eigenvalue = 5.41E-07
 Linear dependence detected in AO basis
 Tighter screening thresholds may be required for diffuse basis sets
 Use S2THRESH > 14 and THRESH = 14 in case of SCF convergence issues
 Number of orthogonalized atomic orbitals = 370
 Maximum deviation from orthogonality = 2.828E-10

 Scale SEOQF with 1.000000e-01/1.000000e-01/1.000000e-01

 Standard Electronic Orientation quadrupole field applied
 Nucleus-field energy     =    -0.0000000190 hartrees
 Guess from superposition of atomic densities
 Warning:  Energy on first SCF cycle will be non-variational
 SAD guess density has 58.000000 electrons

 -----------------------------------------------------------------------
  General SCF calculation program by
  Eric Jon Sundstrom, Paul Horn, Yuezhi Mao, Dmitri Zuev, Alec White,
  David Stuck, Shaama M.S., Shane Yost, Joonho Lee, David Small,
  Daniel Levine, Susi Lehtola, Hugh Burton, Evgeny Epifanovsky,
  Bang C. Huynh
 -----------------------------------------------------------------------
 Exchange:     0.1670 Hartree-Fock + 1.0000 wB97X-V + LR-HF
 Correlation:  1.0000 wB97X-V
 Using Euler-Maclaurin-Lebedev (99,590) quadrature formula
 Nonlocal Correlation:  VV10 with C = 0.0100 and b = 6.00 and scale = 1.00000
 Grid used for NLC:  SG-1 standard quadrature
Energy prior to optimization (guess energy) = -346.731239481605
Begin Timing: Total SCF Calculation
begin iterations for algorithm: DIIS         
the SCF tolerance is set to 1.00e-08
    1    -346.7312394816      2.20e-03     00000 
    2    -346.7824405076      1.75e-03     00000 
    3    -346.8232932779      3.16e-04     00000 
    4    -346.8251665464      1.33e-04     00000 
    5    -346.8255889745      4.03e-05     00000 
    6    -346.8256244682      1.26e-05     00000 
    7    -346.8256282400      5.65e-06     00000 
    8    -346.8256290276      1.27e-06     00000 
    9    -346.8256291127      5.32e-07     00000 
   10    -346.8256291277      2.67e-07     00000 
   11    -346.8256291317      7.20e-08     00000 
   12    -346.8256291322      2.86e-08     00000 
   13    -346.8256291322      1.04e-08     00000 
   14    -346.8256291322      3.17e-09     00000 Convergence criterion met
Timing for Total SCF: 736.00s (wall), 5354.27s (cpu)
(3)  G-ENP(liq) elect-nuc-pol free energy of system     -346.825629132 a.u.
(4)  G-CDS(liq) cavity-dispersion-solvent structure 
     free energy                                                3.7353 kcal/mol
(6)  G-S(liq) free energy of system                     -346.819676545 a.u.
E_pcm = -0.0172238255
E_cds = 0.0059525871
Multipole orders to be included
        2
        3
computing dipole RHS
computing quadrupole RHS
total number of RHS in solve_reponses: 8
RHS batch sizes
        8
Beginning Block Conjugate Gradient Iterations. Batch Number: 0
computing hessian-vector products by finite difference
              1      6.69e-01     00000 Conjugate Gradient Iteration
computing hessian-vector products by finite difference
              2      1.99e-01     00000 Conjugate Gradient Iteration
computing hessian-vector products by finite difference
              3      5.05e-02     00000 Conjugate Gradient Iteration
computing hessian-vector products by finite difference
              4      1.44e-02     00000 Conjugate Gradient Iteration
computing hessian-vector products by finite difference
              5      3.54e-03     00000 Conjugate Gradient Iteration
computing hessian-vector products by finite difference
              6      1.33e-03     00000 Conjugate Gradient Iteration
computing hessian-vector products by finite difference
              7      3.18e-04     00000 Conjugate Gradient Iteration
computing hessian-vector products by finite difference
              8      6.03e-05     00000 Conjugate Gradient Iteration
computing hessian-vector products by finite difference
              9      1.01e-05     00000 Conjugate Gradient Iteration
computing hessian-vector products by finite difference
             10      1.49e-06     00000 Conjugate Gradient Iteration
computing hessian-vector products by finite difference
             11      2.46e-07     00000 Conjugate Gradient Iteration
computing hessian-vector products by finite difference
             12      4.50e-08     00000 Conjugate Gradient Iteration
computing hessian-vector products by finite difference
             13      1.02e-08     00000 Conjugate Gradient Iteration
computing hessian-vector products by finite difference
             14      3.93e-09     00000 CG Converged
batch 0 complete
Done Calculating Responses
TESTING ORTHOGONALIZATION OF MULTIPOLE BASIS
Multipole virts passed orthogonality test
Virts Per Order
           87
          145

 --------------------------------------------------------------

                    Orbital Energies (a.u.)
 --------------------------------------------------------------

 Alpha MOs
 -- Occupied --
-19.2409 -10.3283 -10.2718 -10.2678 -10.2668 -10.2656 -10.2627 -10.2532
 -1.1879  -0.9922  -0.8953  -0.8806  -0.8032  -0.7425  -0.7065  -0.6572
 -0.5978  -0.5726  -0.5458  -0.5371  -0.5277  -0.5155  -0.5048  -0.4712
 -0.4522  -0.4386  -0.4338  -0.3503  -0.3104
 -- Virtual --
  0.0634   0.0651   0.0744   0.0823   0.0888   0.0998   0.1141   0.1156
  0.1183   0.1367   0.1511   0.1568   0.1611   0.1773   0.1854   0.1979
  0.2059   0.2087   0.2196   0.2349   0.2353   0.2454   0.2536   0.2607
  0.2676   0.2757   0.2765   0.2800   0.2895   0.2982   0.3011   0.3074
  0.3111   0.3146   0.3193   0.3313   0.3379   0.3455   0.3512   0.3579
  0.3593   0.3641   0.3697   0.3749   0.3821   0.3845   0.3878   0.3977
  0.3985   0.4006   0.4050   0.4111   0.4163   0.4231   0.4339   0.4391
  0.4429   0.4573   0.4642   0.4688   0.4796   0.4814   0.4827   0.4894
  0.4971   0.5011   0.5034   0.5130   0.5150   0.5212   0.5289   0.5387
  0.5465   0.5514   0.5585   0.5609   0.5635   0.5707   0.5834   0.5956
  0.6035   0.6124   0.6204   0.6217   0.6517   0.6554   0.6650   0.6751
  0.6859   0.6930   0.6950   0.7036   0.7094   0.7161   0.7223   0.7328
  0.7344   0.7461   0.7494   0.7595   0.7646   0.7697   0.7867   0.7891
  0.7921   0.7981   0.8025   0.8044   0.8112   0.8270   0.8316   0.8335
  0.8447   0.8561   0.8630   0.8639   0.8727   0.8792   0.8863   0.8950
  0.9103   0.9140   0.9442   0.9472   0.9649   0.9815   1.0025   1.0188
  1.0264   1.0451   1.0504   1.0531   1.0604   1.0653   1.0788   1.0803
  1.1027   1.1264   1.1403   1.1621   1.2055   1.2328   1.2633   1.3077
  1.3133   1.3225   1.3333   1.3587   1.3792   1.3841   1.4083   1.4457
  1.4540   1.4679   1.4806   1.4945   1.5399   1.5716   1.6130   1.6311
  1.6441   1.6588   1.6725   1.6866   1.7155   1.7427   1.7494   1.8005
  1.8262   1.8358   1.8446   1.8555   1.8655   1.8941   1.9225   1.9240
  1.9471   1.9635   1.9836   1.9872   1.9940   2.0293   2.0498   2.0550
  2.0674   2.0797   2.0957   2.1152   2.1253   2.1702   2.2068   2.2116
  2.2202   2.2545   2.2768   2.2863   2.3008   2.3199   2.3490   2.3684
  2.4087   2.4117   2.4410   2.4695   2.4870   2.5095   2.5341   2.5583
  2.5869   2.6220   2.6417   2.6432   2.6528   2.6728   2.6956   2.7355
  2.7665   2.7740   2.7922   2.8026   2.8198   2.8420   2.8671   2.8836
  2.8898   2.9204   2.9349   2.9543   2.9709   2.9850   2.9902   3.0139
  3.0276   3.0372   3.0625   3.0803   3.1079   3.1349   3.1542   3.1721
  3.1818   3.2038   3.2156   3.2308   3.2457   3.2713   3.2958   3.3001
  3.3127   3.3711   3.3830   3.3940   3.4006   3.4145   3.4430   3.4510
  3.4615   3.4816   3.4931   3.5111   3.5256   3.5371   3.5477   3.5539
  3.5619   3.5806   3.5903   3.6004   3.6190   3.6405   3.6508   3.6951
  3.7033   3.7119   3.7551   3.7584   3.8027   3.8209   3.8660   3.9200
  3.9452   3.9603   3.9837   3.9895   4.0539   4.0833   4.1313   4.1629
  4.2602   4.2756   4.3053   4.3138   4.3277   4.3542   4.3599   4.3792
  4.4004   4.4042   4.4357   4.4871   4.4989   4.5525   4.5860   4.6226
  4.7491   4.7767   4.7911   4.8250   4.8406   4.9320   5.0279   5.0775
  5.0907   5.1440   5.1593   5.3116   5.3343   5.4343   5.4517   5.5413
  5.5954   5.6815   5.7172   5.7818   5.9500   6.1872   6.4558   6.5519
  6.6749   6.8771   7.0018   7.2965   7.4451  22.6760  22.6868  22.9520
 23.0125  23.0621  23.1914  23.5243  44.4142
 --------------------------------------------------------------

          Ground-State Mulliken Net Atomic Charges

     Atom                 Charge (a.u.)
  ----------------------------------------
      1 C                    -1.051467
      2 C                     0.469787
      3 C                    -0.563354
      4 C                    -0.494407
      5 C                    -0.436159
      6 C                    -0.706521
      7 C                     0.644751
      8 O                    -0.552427
      9 H                     0.253353
     10 H                     0.288562
     11 H                     0.411202
     12 H                     0.360025
     13 H                     0.368885
     14 H                     0.398816
     15 H                     0.342370
     16 H                     0.266584
  ----------------------------------------
  Sum of atomic charges =     0.000000

 -----------------------------------------------------------------
                    Cartesian Multipole Moments
 -----------------------------------------------------------------
    Charge (ESU x 10^10)
                -0.0000
    Dipole Moment (Debye)
         X       1.6342      Y      -0.8508      Z      -0.9870
       Tot       2.0901
    Quadrupole Moments (Debye-Ang)
        XX     -48.2865     XY       0.4452     YY     -45.7061
        XZ      -1.7376     YZ       8.9155     ZZ     -38.4224
    Octopole Moments (Debye-Ang^2)
       XXX     -26.8282    XXY     -18.9509    XYY     -16.9397
       YYY     -59.6736    XXZ      90.7782    XYZ      -4.8902
       YYZ      84.1249    XZZ     -21.9672    YZZ     -56.2483
       ZZZ     208.6096
    Hexadecapole Moments (Debye-Ang^3)
      XXXX    -799.3989   XXXY     -92.9648   XXYY    -171.1050
      XYYY     -87.6578   YYYY    -300.3152   XXXZ     -95.7741
      XXYZ      10.8914   XYYZ      -8.1353   YYYZ      19.1140
      XXZZ    -344.6256   XYZZ      -1.0271   YYZZ    -237.5109
      XZZZ      23.1572   YZZZ     146.3497   ZZZZ   -1020.6853
 -----------------------------------------------------------------
Archival summary:
1\1\compute-0-5.local\SP\ProcedureUnspecified\BasisUnspecified\178\meili\FriOct117:25:122021FriOct117:25:122021\0\\#,ProcedureUnspecified,BasisUnspecified,\\0,1\C\O,1,1.36778\H,2,0.974824,1,108.539\C,1,1.38559,2,118.025,3,167.667,0\H,4,1.07693,1,119.276,2,3.60883,0\C,1,1.38817,2,121.964,3,-13.717,0\H,6,1.07882,1,120.521,2,-1.50953,0\C,6,1.3825,1,119.295,2,178.852,0\H,8,1.07863,6,118.818,1,178.838,0\C,4,1.39065,1,120.449,2,-178.982,0\H,10,1.07987,4,119.518,1,-178.68,0\C,10,1.38988,4,120.22,1,0.514013,0\C,12,1.51257,10,119.201,4,177.7,0\H,13,1.09017,12,108.637,10,117.896,0\H,13,1.09093,12,108.4,10,1.85322,0\H,13,1.1,12,114.975,10,-119.224,0\\\@

 Total job time:  12571.94s(wall), 91052.93s(cpu) 
 Fri Oct  1 17:25:12 2021

        *************************************************************
        *                                                           *
        *  Thank you very much for using Q-Chem.  Have a nice day.  *
        *                                                           *
        *************************************************************


Done Job For Fragment 1
calling putenv with: QCSCRATCH=/home/meili/scratch 
calling putenv with: QCTHREADS=8 
Doing General SCFMI
 Exchange:     0.1670 Hartree-Fock + 1.0000 wB97X-V + LR-HF
 Correlation:  1.0000 wB97X-V
 Using Euler-Maclaurin-Lebedev (99,590) quadrature formula
 Nonlocal Correlation:  VV10 with C = 0.0100 and b = 6.00 and scale = 1.00000
 Grid used for NLC:  SG-1 standard quadrature
performing fock build before subrot guess so that all methods have access
Printing subrot_rss_gen Method Specification:
Occupied Subspace Method is 0
Virtual Subspace Method is 0
Energy of the unrelaxed supersystem initial determinant -651.675401144906
performing fock build before subrot guess so that all methods have access
Printing subrot_rss_gen Method Specification:
Occupied Subspace Method is 0
Virtual Subspace Method is 0
Energy of the unrelaxed supersystem initial determinant w/ solvent -651.718153415126
write pseudocanon occs and virts to disk
write pseudocanon orbital energies to disk
Tolerance of ortho_decomp_scf: 1.00e-06
GDM subspace size: 20
Beginning the Orthogonal Decomposition of the Initial Supersystem Wavefunction
    1    -651.6467230133      2.57e-02     ortho_decomp Preconditoned Steepest Descent
    2    -651.6498898154      6.39e-04     ortho_decomp BFGS Step
    3    -651.6499004056      5.23e-05     ortho_decomp BFGS Step
    4    -651.6499004272      2.13e-06     ortho_decomp BFGS Step
    5    -651.6499004272      7.10e-08     ortho_decomp 00000 Convergence criterion met
 Hartree-Fock
 Hartree-Fock
 Hartree-Fock
Doing General SCFMI
 Exchange:     0.1670 Hartree-Fock + 1.0000 wB97X-V + LR-HF
 Correlation:  1.0000 wB97X-V
 Using Euler-Maclaurin-Lebedev (99,590) quadrature formula
 Nonlocal Correlation:  VV10 with C = 0.0100 and b = 6.00 and scale = 1.00000
 Grid used for NLC:  SG-1 standard quadrature
performing fock build at end of subrot_r(subrot) constructor so that all methods have access
<S^2> of initial wavefunction before polarization iterations 0.0000000000
Beginning iterations for the determination of the polarized wavefunction
Energy prior to optimization (guess energy) = -651.718153415125
Begin Timing: Total SCF Calculation
begin iterations for algorithm: DIIS         
the SCF tolerance is set to 1.00e-08
    1    -651.7181534151      5.62e-05     00000 
    2    -651.7184698379      3.51e-05     00000 
    3    -651.7185421958      1.30e-05     00000 
    4    -651.7185574583      6.00e-06     00000 
    5    -651.7185605426      2.58e-06     00000 
    6    -651.7185613028      1.31e-06     00000 
    7    -651.7185614404      6.30e-07     00000 
    8    -651.7185614658      3.14e-07     00000 
    9    -651.7185614708      1.53e-07     00000 
   10    -651.7185614719      9.33e-08     00000 
   11    -651.7185614724      3.74e-08     00000 
   12    -651.7185614725      1.87e-08     00000 
   13    -651.7185614726      7.04e-09     00000 Convergence criterion met
write pseudocanon occs and virts to disk
write pseudocanon orbital energies to disk
Timing for Total SCF: 3501.00s (wall), 25770.05s (cpu)
<S^2> of polarized wavefunction after polarization iterations 0.0000000000
relaxing scfmi constraint to allow all rotations in the entire AO span
Doing General SCFMI
 Exchange:     0.1670 Hartree-Fock + 1.0000 wB97X-V + LR-HF
 Correlation:  1.0000 wB97X-V
 Using Euler-Maclaurin-Lebedev (99,590) quadrature formula
 Nonlocal Correlation:  VV10 with C = 0.0100 and b = 6.00 and scale = 1.00000
 Grid used for NLC:  SG-1 standard quadrature
performing fock build at end of subrot_r(subrot) constructor so that all methods have access
<S^2> of polarized wavefunction before ct-allowed iterations 0.0000000000
Beginning iterations for the determination of the CT-Allowed wavefunction
Energy prior to optimization (guess energy) = -651.718561472563
Begin Timing: Total SCF Calculation
begin iterations for algorithm: DIIS         
the SCF tolerance is set to 1.00e-08
    1    -651.7185614726      6.67e-05     00000 
    2    -651.7195725554      6.43e-06     00000 
    3    -651.7196085551      1.31e-06     00000 
    4    -651.7196104194      6.88e-07     00000 
    5    -651.7196105450      1.94e-07     00000 
    6    -651.7196105635      7.72e-08     00000 
    7    -651.7196105652      1.77e-08     00000 
    8    -651.7196105654      8.13e-09     00000 Convergence criterion met
write pseudocanon occs and virts to disk
write pseudocanon orbital energies to disk
Timing for Total SCF: 1992.00s (wall), 14596.59s (cpu)
<S^2> of ct_allowed wavefunction after ct-allowed iterations 0.0000000000

================================
        Results of EDA2         
================================
Basic EDA Quantities
--------------------
Fragment Energies (Ha):
1 -304.8853280096
2 -346.8196765451
--------------------
  E_prp (kJ/mol) = 0.0000
  E_sol (kJ/mol) = -9.0747
  E_frz (kJ/mol) = -2.7390
  E_pol (kJ/mol) = -1.0714
  E_vct (kJ/mol) = -2.7544
  E_int (kJ/mol) = -15.6395
--------------------


Initial Wavefunction Decomposition
--------------------
  --------------------
  Orthogonal Fragment Subspace Decomposition:
  --------------------
     E_elec   (ELEC)   (kJ/mol) = -21.4920
     E_pauli  (PAULI)  (kJ/mol) = 49.1879
     E_disp   (DISP)   (kJ/mol) = -30.4349
     --------------------
     Terms summing to E_pauli:
     --------------------
        E_kep_pauli       (kJ/mol) = 64.2139
        E_disp_free_pauli (kJ/mol) = -15.0260
  --------------------
  Classical Frozen Decomposition:
  --------------------
     E_cls_elec  (CLS ELEC)  (kJ/mol) = 1.2105
     E_cls_pauli (CLS PAULI) (kJ/mol) = -3.9495
    [E_mod_pauli (MOD PAULI) (kJ/mol) = 26.4854 (CLS PAULI - DISP from orthogonal decomposition) ]
  --------------------
--------------------

Simplified EDA Summary (kJ/mol)
--------------------
 PREPARATION     0.0000
 SOLVATION       -9.0747
 FROZEN          27.6959      (does not include dispersion)
[PAULI           49.1879]     (if this is negligible, then frozen describes electrostatics)
 DISPERSION      -30.4349
 POLARIZATION    -1.0714
 CHARGE TRANSFER -2.7544
 TOTAL           -15.6395     (PRP + SOL + FRZ + DISP + POL + CT)
--------------------

 --------------------------------------------------------------

                    Orbital Energies (a.u.)
 --------------------------------------------------------------

 Alpha MOs
 -- Occupied --
-19.2402 -14.4587 -14.3841 -10.3268 -10.3155 -10.2815 -10.2787 -10.2701
-10.2665 -10.2648 -10.2644 -10.2615 -10.2606 -10.2530 -10.2501  -1.1871
 -1.1536  -0.9964  -0.9904  -0.9092  -0.8941  -0.8789  -0.8557  -0.8023
 -0.7553  -0.7413  -0.7257  -0.7053  -0.6808  -0.6567  -0.6559  -0.5968
 -0.5718  -0.5678  -0.5612  -0.5448  -0.5391  -0.5347  -0.5306  -0.5253
 -0.5152  -0.5146  -0.5040  -0.4741  -0.4703  -0.4516  -0.4483  -0.4416
 -0.4347  -0.4325  -0.3788  -0.3737  -0.3441  -0.3200  -0.3080
 -- Virtual --
  0.0609   0.0651   0.0703   0.0758   0.0774   0.0878   0.0935   0.0976
  0.1031   0.1061   0.1093   0.1139   0.1198   0.1254   0.1263   0.1325
  0.1388   0.1450   0.1530   0.1599   0.1633   0.1663   0.1725   0.1768
  0.1832   0.1846   0.1947   0.2015   0.2061   0.2082   0.2147   0.2229
  0.2238   0.2272   0.2306   0.2375   0.2405   0.2482   0.2527   0.2552
  0.2571   0.2626   0.2639   0.2701   0.2790   0.2817   0.2843   0.2864
  0.2890   0.2975   0.2998   0.3020   0.3052   0.3074   0.3115   0.3159
  0.3189   0.3215   0.3247   0.3280   0.3304   0.3323   0.3350   0.3396
  0.3407   0.3430   0.3467   0.3511   0.3581   0.3596   0.3623   0.3683
  0.3704   0.3709   0.3744   0.3764   0.3788   0.3793   0.3817   0.3863
  0.3895   0.3932   0.3979   0.4032   0.4079   0.4114   0.4140   0.4154
  0.4175   0.4207   0.4230   0.4281   0.4308   0.4332   0.4379   0.4395
  0.4439   0.4485   0.4518   0.4527   0.4582   0.4610   0.4650   0.4695
  0.4732   0.4774   0.4827   0.4846   0.4906   0.4942   0.4986   0.5000
  0.5055   0.5075   0.5102   0.5144   0.5179   0.5215   0.5245   0.5276
  0.5321   0.5375   0.5382   0.5412   0.5431   0.5498   0.5523   0.5577
  0.5624   0.5655   0.5703   0.5740   0.5777   0.5836   0.5857   0.5900
  0.5943   0.6046   0.6064   0.6068   0.6128   0.6157   0.6166   0.6244
  0.6261   0.6295   0.6343   0.6381   0.6477   0.6509   0.6537   0.6613
  0.6625   0.6670   0.6746   0.6769   0.6841   0.6844   0.6897   0.6931
  0.6982   0.7058   0.7093   0.7103   0.7140   0.7210   0.7240   0.7295
  0.7301   0.7344   0.7385   0.7441   0.7452   0.7541   0.7600   0.7616
  0.7638   0.7673   0.7709   0.7746   0.7768   0.7841   0.7859   0.7889
  0.7922   0.7961   0.7992   0.8026   0.8080   0.8112   0.8128   0.8162
  0.8219   0.8246   0.8253   0.8309   0.8365   0.8410   0.8451   0.8500
  0.8551   0.8597   0.8634   0.8694   0.8710   0.8775   0.8801   0.8821
  0.8849   0.8907   0.8982   0.9002   0.9064   0.9123   0.9153   0.9187
  0.9280   0.9340   0.9418   0.9452   0.9483   0.9546   0.9616   0.9623
  0.9737   0.9794   0.9901   0.9936   1.0066   1.0103   1.0138   1.0253
  1.0292   1.0352   1.0421   1.0561   1.0588   1.0643   1.0727   1.0798
  1.0829   1.0913   1.1004   1.1045   1.1112   1.1148   1.1331   1.1349
  1.1403   1.1443   1.1578   1.1642   1.1707   1.1801   1.1836   1.1993
  1.2009   1.2141   1.2283   1.2326   1.2431   1.2495   1.2617   1.2651
  1.2834   1.2927   1.3031   1.3054   1.3167   1.3226   1.3361   1.3400
  1.3535   1.3659   1.3798   1.3933   1.3989   1.4125   1.4206   1.4256
  1.4361   1.4398   1.4465   1.4670   1.4771   1.4802   1.4936   1.5021
  1.5112   1.5182   1.5288   1.5505   1.5532   1.5602   1.5698   1.5941
  1.5966   1.6036   1.6399   1.6458   1.6513   1.6604   1.6770   1.6895
  1.6934   1.7270   1.7315   1.7473   1.7494   1.7721   1.7779   1.7846
  1.8088   1.8186   1.8388   1.8501   1.8648   1.8798   1.8850   1.8926
  1.9009   1.9094   1.9225   1.9305   1.9405   1.9418   1.9579   1.9635
  1.9735   1.9786   1.9841   1.9927   1.9962   1.9993   2.0049   2.0125
  2.0252   2.0298   2.0426   2.0472   2.0554   2.0640   2.0725   2.0778
  2.0827   2.0952   2.1021   2.1095   2.1133   2.1323   2.1415   2.1452
  2.1561   2.1625   2.1845   2.1911   2.2142   2.2218   2.2273   2.2400
  2.2550   2.2577   2.2779   2.2855   2.2959   2.3099   2.3205   2.3263
  2.3363   2.3433   2.3600   2.3694   2.3759   2.3916   2.3992   2.4098
  2.4200   2.4352   2.4437   2.4514   2.4700   2.4729   2.5010   2.5102
  2.5328   2.5352   2.5531   2.5650   2.5728   2.5856   2.5944   2.5946
  2.6041   2.6198   2.6344   2.6568   2.6645   2.6710   2.6751   2.6839
  2.6925   2.7082   2.7195   2.7301   2.7430   2.7513   2.7636   2.7770
  2.7857   2.7911   2.7976   2.8024   2.8132   2.8242   2.8366   2.8449
  2.8524   2.8644   2.8749   2.8872   2.8953   2.9010   2.9107   2.9148
  2.9332   2.9559   2.9705   2.9779   2.9866   2.9926   2.9948   3.0011
  3.0061   3.0095   3.0308   3.0463   3.0483   3.0608   3.0739   3.0782
  3.0893   3.1133   3.1164   3.1225   3.1312   3.1331   3.1429   3.1522
  3.1655   3.1785   3.1898   3.1940   3.2028   3.2112   3.2250   3.2388
  3.2559   3.2725   3.2775   3.2926   3.2995   3.3086   3.3215   3.3256
  3.3308   3.3370   3.3464   3.3544   3.3575   3.3786   3.3816   3.3941
  3.4032   3.4139   3.4226   3.4249   3.4332   3.4445   3.4517   3.4544
  3.4648   3.4713   3.4840   3.4908   3.5016   3.5081   3.5175   3.5190
  3.5327   3.5421   3.5469   3.5537   3.5580   3.5693   3.5787   3.5805
  3.5955   3.5989   3.6096   3.6132   3.6216   3.6370   3.6475   3.6523
  3.6625   3.6717   3.6747   3.6869   3.6970   3.7003   3.7106   3.7238
  3.7263   3.7350   3.7458   3.7674   3.7786   3.7934   3.8090   3.8177
  3.8316   3.8394   3.8418   3.8511   3.8631   3.9000   3.9013   3.9392
  3.9452   3.9754   3.9760   3.9930   4.0135   4.0225   4.0288   4.0564
  4.0712   4.0898   4.1138   4.1429   4.1524   4.1593   4.1751   4.1849
  4.2165   4.2739   4.2817   4.2993   4.3233   4.3383   4.3458   4.3574
  4.3666   4.3764   4.3849   4.4018   4.4104   4.4325   4.4685   4.4845
  4.4981   4.5164   4.5354   4.5487   4.5682   4.5705   4.6122   4.6413
  4.6560   4.6628   4.6756   4.7054   4.7725   4.7900   4.8053   4.8148
  4.8386   4.8449   4.8609   4.8976   4.9086   4.9155   4.9648   4.9732
  5.0184   5.0440   5.0452   5.0805   5.0908   5.1008   5.1052   5.1076
  5.1625   5.1769   5.1815   5.1947   5.2655   5.2983   5.3248   5.3434
  5.3623   5.4170   5.4431   5.4601   5.4910   5.5396   5.5575   5.5748
  5.6030   5.6153   5.6440   5.6873   5.6990   5.7355   5.7592   5.7930
  5.8079   5.8733   5.9308   5.9551   6.0974   6.1921   6.2760   6.3294
  6.4607   6.5639   6.6904   6.8856   7.0112   7.3065   7.4546  22.6789
 22.7270  22.7971  22.8782  22.9946  23.0241  23.0671  23.1095  23.1949
 23.2285  23.4663  23.5430  32.7441  32.9408  44.4603
 --------------------------------------------------------------

          Ground-State Mulliken Net Atomic Charges

     Atom                 Charge (a.u.)
  ----------------------------------------
      1 C                     0.172374
      2 C                    -1.213931
      3 C                     0.613655
      4 C                    -0.856650
      5 C                    -0.389139
      6 N                    -0.416603
      7 N                     0.156117
      8 H                     0.292136
      9 H                    -0.052664
     10 H                     0.312357
     11 H                     0.328637
     12 H                     0.295713
     13 H                     0.203949
     14 H                     0.266791
     15 H                     0.288987
     16 C                    -1.156214
     17 C                     0.593230
     18 C                    -0.488695
     19 C                    -0.266754
     20 C                    -0.606727
     21 C                    -0.723742
     22 C                     0.602810
     23 O                    -0.562504
     24 H                     0.215335
     25 H                     0.307601
     26 H                     0.416886
     27 H                     0.228330
     28 H                     0.372078
     29 H                     0.407292
     30 H                     0.351583
     31 H                     0.307763
  ----------------------------------------
  Sum of atomic charges =     0.000000

 -----------------------------------------------------------------
                    Cartesian Multipole Moments
 -----------------------------------------------------------------
    Charge (ESU x 10^10)
                -0.0000
    Dipole Moment (Debye)
         X       2.4793      Y       3.3807      Z       1.7183
       Tot       4.5309
    Quadrupole Moments (Debye-Ang)
        XX     -87.6169     XY      -7.9765     YY     -83.4240
        XZ      -2.0582     YZ      21.0853     ZZ     -72.3851
    Octopole Moments (Debye-Ang^2)
       XXX     -10.1541    XXY      15.9047    XYY     -13.1433
       YYY      24.1872    XXZ      12.5392    XYZ     -22.2160
       YYZ      13.2291    XZZ     -16.4184    YZZ       2.7557
       ZZZ     -32.9053
    Hexadecapole Moments (Debye-Ang^3)
      XXXX   -1132.2999   XXXY      -5.2479   XXYY    -330.9603
      XYYY       9.0055   YYYY    -958.5924   XXXZ     -58.0996
      XXYZ      72.3667   XYYZ     -11.2083   YYYZ     184.3892
      XXZZ    -591.1611   XYZZ      -0.4768   YYZZ    -497.8544
      XZZZ      64.7068   YZZZ     363.0039   ZZZZ   -2222.1839
 -----------------------------------------------------------------
Archival summary:
1\1\compute-0-5.local\SP\ProcedureUnspecified\BasisUnspecified\121216\meili\FriOct120:11:342021FriOct120:11:342021\0\\#,ProcedureUnspecified,BasisUnspecified,\\0,1\N\C,1,1.33205\H,2,1.08258,1,125.107\N,2,1.32337,1,109.663,3,-179.956,0\H,4,1.0031,2,125.883,1,178.869,0\C,4,1.37047,2,107.65,1,1.73489,0\H,6,1.08171,4,126.7,2,177.215,0\C,6,1.36133,4,108.006,2,-1.28701,0\C,8,1.50688,6,128.762,4,175.973,0\H,9,1.09016,8,106.453,6,-4.22582,0\H,9,1.09029,8,108.633,6,-120.029,0\C,9,1.53034,8,116.151,6,116.434,0\H,12,1.09137,9,108.594,8,-45.5358,0\H,12,1.1,9,109.201,8,-164.634,0\H,12,1.1,9,110.478,8,74.2341,0\H,10,2.86984,9,105.996,8,-87.8906,0\C,16,1.09017,10,128.494,9,51.0886,0\H,17,1.09093,16,107.091,10,59.0945,0\H,17,1.1,16,109.353,10,176.002,0\C,17,1.51257,16,108.637,10,-57.7901,0\C,20,1.38988,17,119.201,16,117.896,0\H,21,1.07987,20,120.257,17,-3.112,0\C,21,1.39065,20,120.22,17,177.7,0\H,23,1.07693,21,120.223,20,177.899,0\C,23,1.38559,21,120.449,20,0.514013,0\O,25,1.36778,23,118.025,21,-178.982,0\H,26,0.974824,25,108.539,23,167.667,0\C,25,1.38817,23,119.996,21,2.37407,0\H,28,1.07882,25,120.521,23,177.08,0\C,28,1.3825,25,119.295,23,-2.55875,0\H,30,1.07863,28,118.818,25,178.838,0\\\@

 Total job time:  32268.17s(wall), 75236.37s(cpu) 
 Fri Oct  1 20:11:34 2021

        *************************************************************
        *                                                           *
        *  Thank you very much for using Q-Chem.  Have a nice day.  *
        *                                                           *
        *************************************************************


