
Running Job 1 of 1 SSI-109ARG-115GLU-1_PCM_TZVPD.in
qchem SSI-109ARG-115GLU-1_PCM_TZVPD.in_62437.0 /tmp/qchem62437/ 0
/global/common/cori/software/qchem/5.2/exe/qcprog.exe_s SSI-109ARG-115GLU-1_PCM_TZVPD.in_62437.0 /tmp/qchem62437/
                  Welcome to Q-Chem
     A Quantum Leap Into The Future Of Chemistry


 Q-Chem 5.2, Q-Chem, Inc., Pleasanton, CA (2019)

 License issued to: National Energy Research Scientific Computing Center

 Yihan Shao,  Zhengting Gan,  E. Epifanovsky,  A. T. B. Gilbert,  M. Wormit,  
 J. Kussmann,  A. W. Lange,  A. Behn,  Jia Deng,  Xintian Feng,  D. Ghosh,  
 M. Goldey,  P. R. Horn,  L. D. Jacobson,  I. Kaliman,  T. Kus,  A. Landau,  
 Jie Liu,  E. I. Proynov,  R. M. Richard,  R. P. Steele,  E. J. Sundstrom,  
 H. L. Woodcock III,  P. M. Zimmerman,  D. Zuev,  B. Albrecht,  E. Alguire,  
 S. A. Baeppler,  D. Barton,  Z. Benda,  Y. A. Bernard,  E. J. Berquist,  
 K. B. Bravaya,  H. Burton,  D. Casanova,  Chun-Min Chang,  Yunqing Chen,  
 A. Chien,  K. D. Closser,  M. P. Coons,  S. Coriani,  S. Dasgupta,  
 A. L. Dempwolff,  M. Diedenhofen,  Hainam Do,  R. G. Edgar,  Po-Tung Fang,  
 S. Faraji,  S. Fatehi,  Qingguo Feng,  K. D. Fenk,  J. Fosso-Tande,  
 J. Gayvert,  Qinghui Ge,  A. Ghysels,  G. Gidofalvi,  J. Gomes,  
 J. Gonthier,  A. Gunina,  D. Hait,  M. W. D. Hanson-Heine,  
 P. H. P. Harbach,  A. W. Hauser,  M. F. Herbst,  J. E. Herr,  
 E. G. Hohenstein,  Z. C. Holden,  Kerwin Hui,  B. C. Huynh,  T.-C. Jagau,  
 Hyunjun Ji,  B. Kaduk,  K. Khistyaev,  Jaehoon Kim,  P. Klunzinger,  K. Koh,  
 D. Kosenkov,  L. Koulias,  T. Kowalczyk,  C. M. Krauter,  A. Kunitsa,  
 Ka Un Lao,  A. Laurent,  K. V. Lawler,  Joonho Lee,  D. Lefrancois,  
 S. Lehtola,  D. S. Levine,  Yi-Pei Li,  You-Sheng Lin,  Fenglai Liu,  
 E. Livshits,  A. Luenser,  P. Manohar,  E. Mansoor,  S. F. Manzer,  
 Shan-Ping Mao,  Yuezhi Mao,  N. Mardirossian,  A. V. Marenich,  
 T. Markovich,  L. A. Martinez-Martinez,  S. A. Maurer,  N. J. Mayhall,  
 S. C. McKenzie,  J.-M. Mewes,  P. Morgante,  A. F. Morrison,  
 J. W. Mullinax,  K. Nanda,  T. S. Nguyen-Beck,  R. Olivares-Amaya,  
 J. A. Parkhill,  Zheng Pei,  T. M. Perrine,  F. Plasser,  P. Pokhilko,  
 S. Prager,  A. Prociuk,  E. Ramos,  D. R. Rehn,  F. Rob,  M. Scheurer,  
 M. Schneider,  N. Sergueev,  S. M. Sharada,  S. Sharma,  D. W. Small,  
 T. Stauch,  T. Stein,  Yu-Chuan Su,  A. J. W. Thom,  A. Tkatchenko,  
 T. Tsuchimochi,  N. M. Tubman,  L. Vogt,  M. L. Vidal,  O. Vydrov,  
 M. A. Watson,  J. Wenzel,  M. de Wergifosse,  T. A. Wesolowski,  A. White,  
 J. Witte,  A. Yamada,  Jun Yang,  K. Yao,  S. Yeganeh,  S. R. Yost,  
 Zhi-Qiang You,  A. Zech,  Igor Ying Zhang,  Xing Zhang,  Yan Zhao,  
 Ying Zhu,  B. R. Brooks,  G. K. L. Chan,  C. J. Cramer,  M. S. Gordon,  
 W. J. Hehre,  A. Klamt,  M. W. Schmidt,  C. D. Sherrill,  D. G. Truhlar,  
 A. Aspuru-Guzik,  R. Baer,  A. T. Bell,  N. A. Besley,  Jeng-Da Chai,  
 A. E. DePrince, III,  R. A. DiStasio Jr.,  A. Dreuw,  B. D. Dunietz,  
 T. R. Furlani,  Chao-Ping Hsu,  Yousung Jung,  Jing Kong,  D. S. Lambrecht,  
 WanZhen Liang,  C. Ochsenfeld,  V. A. Rassolov,  L. V. Slipchenko,  
 J. E. Subotnik,  T. Van Voorhis,  J. M. Herbert,  A. I. Krylov,  
 P. M. W. Gill,  M. Head-Gordon

 Contributors to earlier versions of Q-Chem not listed above: 
 R. D. Adamson,  B. Austin,  J. Baker,  G. J. O. Beran,  K. Brandhorst,  
 S. T. Brown,  E. F. C. Byrd,  A. K. Chakraborty,  C.-L. Cheng,  
 Siu Hung Chien,  D. M. Chipman,  D. L. Crittenden,  H. Dachsel,  
 R. J. Doerksen,  A. D. Dutoi,  L. Fusti-Molnar,  W. A. Goddard III,  
 A. Golubeva-Zadorozhnaya,  S. R. Gwaltney,  G. Hawkins,  A. Heyden,  
 S. Hirata,  G. Kedziora,  F. J. Keil,  C. Kelley,  Jihan Kim,  R. A. King,  
 R. Z. Khaliullin,  P. P. Korambath,  W. Kurlancheek,  A. M. Lee,  M. S. Lee,  
 S. V. Levchenko,  Ching Yeh Lin,  D. Liotard,  R. C. Lochan,  I. Lotan,  
 P. E. Maslen,  N. Nair,  D. P. O'Neill,  D. Neuhauser,  E. Neuscamman,  
 C. M. Oana,  R. Olson,  B. Peters,  R. Peverati,  P. A. Pieniazek,  
 Y. M. Rhee,  J. Ritchie,  M. A. Rohrdanz,  E. Rosta,  N. J. Russ,  
 H. F. Schaefer III,  N. E. Schultz,  N. Shenvi,  A. C. Simmonett,  A. Sodt,  
 D. Stuck,  K. S. Thanthiriwatte,  V. Vanovschi,  Tao Wang,  A. Warshel,  
 C. F. Williams,  Q. Wu,  X. Xu,  W. Zhang

 Please cite Q-Chem as follows:
 Y. Shao et al., Mol. Phys. 113, 184-215 (2015)
 DOI: 10.1080/00268976.2014.952696

 Q-Chem 5.2.0 for Intel X86 EM64T Linux

 Parts of Q-Chem use Armadillo 8.300.2 (Tropical Shenanigans).
 http://arma.sourceforge.net/

 Q-Chem begins on Sun Sep 26 13:29:49 2021  

Host: cori01
0

     Scratch files written to /tmp/qchem62437//
 May1019 |scratch|qcdevops|jenkins|workspace|build_RNUM -1
Processing $rem in /global/common/cori/software/qchem/5.2/config/preferences:
	 MEM_TOTAL  96000 
NAlpha2: 80
NElect   80
Mult     1
Symmetry turned off for PCM/SM12/SMD calculation

 Q-Chem warning in module libgen/rem_setup.C, line 2803:

 Neither GIA nor STOLL is specified by user. Use STOLL as the default


Checking the input file for inconsistencies... 	...done.

--------------------------------------------------------------
User input:
--------------------------------------------------------------
$comment
SSI-109ARG-115GLU-1.pdb
$end

$molecule
0 1
--
1 1
C    1.746235710440   -0.665823430651    0.930478519207
C    1.003235710440   -1.251823430651    2.133478519207
C    0.914235710440    1.619176569349    0.432478519207
N    0.945235710440    0.319176569349    0.193478519207
N    1.646235710440    2.139176569349    1.400478519207
N    0.146235710440    2.404176569349   -0.292521480793
H    2.698235710440   -0.240823430651    1.253478519207
H    1.984235710440   -1.486823430651    0.252478519207
H    1.652235710440   -1.978823430651    2.622478519207
H    0.107235710440   -1.768823430651    1.789478519207
H    0.297235710440   -0.057823430651   -0.499521480793
H    2.339235710440    1.580176569349    1.864478519207
H    1.632235710440    3.135176569349    1.563478519207
H   -0.468764289560    1.956176569349   -0.966521480793
H    0.125235710440    3.400176569349   -0.154521480793
H    0.717835710440   -0.474383430651    2.857450519207
--
-1 1
C   -2.804764289560   -1.935823430651   -1.142521480793
C   -1.519764289560   -1.114823430651   -1.208521480793
O   -0.442764289560   -1.697823430651   -0.960521480793
O   -1.568764289560    0.104176569349   -1.493521480793
H   -2.965764289560   -2.220823430651   -0.101521480793
H   -2.686764289560   -2.847823430651   -1.729521480793
H   -3.678384289560   -1.387553430651   -1.524866480793
$end

$rem
JOBTYPE			EDA
EDA2			1
method			wB97X-V
BASIS			def2-TZVPD
XC_GRID			000099000590
NL_GRID			1
UNRESTRICTED		FALSE
MAX_SCF_CYCLES		200
SYMMETRY		FALSE
SYM_IGNORE		TRUE
MEM_STATIC		2000
BASIS_LIN_DEP_THRESH 	6
THRESH 			14
SCF_CONVERGENCE 	8
SCF_PRINT_FRGM 		TRUE
SOLVENT_METHOD          PCM
$end

$PCM
THEORY                  CPCM
METHOD                  SWIG
SOLVER                  INVERSION
RADII                   UFF
HPOINTS                 302
HEAVYPOINTS             302
PRINTLEVEL              0
$END

$SOLVENT
DIELECTRIC              78.390000 ! water
$END
--------------------------------------------------------------
 ----------------------------------------------------------------
             Standard Nuclear Orientation (Angstroms)
    I     Atom           X                Y                Z
 ----------------------------------------------------------------
    1      C       1.7462357104    -0.6658234307     0.9304785192
    2      C       1.0032357104    -1.2518234307     2.1334785192
    3      C       0.9142357104     1.6191765693     0.4324785192
    4      N       0.9452357104     0.3191765693     0.1934785192
    5      N       1.6462357104     2.1391765693     1.4004785192
    6      N       0.1462357104     2.4041765693    -0.2925214808
    7      H       2.6982357104    -0.2408234307     1.2534785192
    8      H       1.9842357104    -1.4868234307     0.2524785192
    9      H       1.6522357104    -1.9788234307     2.6224785192
   10      H       0.1072357104    -1.7688234307     1.7894785192
   11      H       0.2972357104    -0.0578234307    -0.4995214808
   12      H       2.3392357104     1.5801765693     1.8644785192
   13      H       1.6322357104     3.1351765693     1.5634785192
   14      H      -0.4687642896     1.9561765693    -0.9665214808
   15      H       0.1252357104     3.4001765693    -0.1545214808
   16      H       0.7178357104    -0.4743834307     2.8574505192
   17      C      -2.8047642896    -1.9358234307    -1.1425214808
   18      C      -1.5197642896    -1.1148234307    -1.2085214808
   19      O      -0.4427642896    -1.6978234307    -0.9605214808
   20      O      -1.5687642896     0.1041765693    -1.4935214808
   21      H      -2.9657642896    -2.2208234307    -0.1015214808
   22      H      -2.6867642896    -2.8478234307    -1.7295214808
   23      H      -3.6783842896    -1.3875534307    -1.5248664808
 ----------------------------------------------------------------
 Nuclear Repulsion Energy =         567.20343664 hartrees
 There are       40 alpha and       40 beta electrons
 Requested basis set is def2-TZVPD
 There are 197 shells and 493 basis functions

 Total QAlloc Memory Limit  96000 MB
 Mega-Array Size      1956 MB
 MEM_STATIC part      2000 MB
 Discretize the solute cavity surface with Lebedev spheres
	Using 302 Lebedev grid points for each H atom
	Using 302 Lebedev grid points for other atoms
	Atomic van der Waals radii will be scaled by 1.20
 Remove points where switching function is < 1.0e-08
 Keep 2478 surface tesserae and discard 4468 interior tesserae
 Molecular Surface Area = 246.723 Angst**2
 A cutoff of  1.0D-14 yielded  17619 shell pairs
 There are    111755 function pairs (    140296 Cartesian)
 Smallest overlap matrix eigenvalue = 7.01E-06

 Scale SEOQF with 1.000000e-01/1.000000e-01/1.000000e-01

 Standard Electronic Orientation quadrupole field applied
 Nucleus-field energy     =     0.0000000084 hartrees

 -----------------------------------------------------------------------
  General SCF calculation program by
  Eric Jon Sundstrom, Paul Horn, Yuezhi Mao, Dmitri Zuev, Alec White,
  David Stuck, Shaama M.S., Shane Yost, Joonho Lee, David Small,
  Daniel Levine, Susi Lehtola, Hugh Burton, Evgeny Epifanovsky
 -----------------------------------------------------------------------
================================================================
                 ALMO-EDA with the EDA2 driver                  
================================================================
 The second-generation ALMO-EDA (for DFT):                      
 P. R. Horn, Y. Mao and M. Head-Gordon, PCCP, 18, 23067 (2016)  
 Decomposition of the frozen energy:                            
 P. R. Horn, Y. Mao and M. Head-Gordon, JCP, 144, 114107 (2016) 
 FERF model for polarization:                                   
 P. R. Horn and M. Head-Gordon, JCP, 143, 114111 (2015)         
Using eda2 option set 1
Option set summary: Frozen orbital wavefunction, initial wavefunction decomposition, and nDQ polarization.
--------------------------------
Printing EDA Options
--------------------------------
eda_child_super_basis      0
fragmo_guess_mode          0
child_mp                   1
child_mp_orders            232
cls_elec                   1
cls_disp                   0
scfmi_mode                 1
scfmi_occs                 0
scfmi_virts                0
frz_relax                  0
frz_relax_method           0
dc_pen_start               0
dc_pen_conv                0
dc_pen_increment           0
dc_pen_steps               0
dc_pen_thresh_factor       0
dc_pen_pre_newton_thresh   0
frz_ortho_decomp           1
frz_ortho_decomp_conv      6
frgm_method                2
scfmi_freeze_ss            0
separate_rehyb             0
plot_diff_den              0
eda_nocv                   0
eda_vct_relax              1
disp_free_x                0
disp_free_c                0
eda_bsse                   0
eda_pct_a                  0
eda_covp                   0
--------------------------------
Attempting to make child job directory: /tmp/qchem62437//Frg1/
Attempting to make child job directory: /tmp/qchem62437//Frg2/
Creating input file /tmp/qchem62437/Frg1.input
using default PutDataFrgm: nothing
calling putenv with: QCSCRATCH=/tmp/qchem62437/ 
calling putenv with: QCLOCALSCR=/tmp/qchem62437/ 
Spawning Job For Fragment 0
                  Welcome to Q-Chem
     A Quantum Leap Into The Future Of Chemistry


 Q-Chem 5.2, Q-Chem, Inc., Pleasanton, CA (2019)

 License issued to: National Energy Research Scientific Computing Center

 Yihan Shao,  Zhengting Gan,  E. Epifanovsky,  A. T. B. Gilbert,  M. Wormit,  
 J. Kussmann,  A. W. Lange,  A. Behn,  Jia Deng,  Xintian Feng,  D. Ghosh,  
 M. Goldey,  P. R. Horn,  L. D. Jacobson,  I. Kaliman,  T. Kus,  A. Landau,  
 Jie Liu,  E. I. Proynov,  R. M. Richard,  R. P. Steele,  E. J. Sundstrom,  
 H. L. Woodcock III,  P. M. Zimmerman,  D. Zuev,  B. Albrecht,  E. Alguire,  
 S. A. Baeppler,  D. Barton,  Z. Benda,  Y. A. Bernard,  E. J. Berquist,  
 K. B. Bravaya,  H. Burton,  D. Casanova,  Chun-Min Chang,  Yunqing Chen,  
 A. Chien,  K. D. Closser,  M. P. Coons,  S. Coriani,  S. Dasgupta,  
 A. L. Dempwolff,  M. Diedenhofen,  Hainam Do,  R. G. Edgar,  Po-Tung Fang,  
 S. Faraji,  S. Fatehi,  Qingguo Feng,  K. D. Fenk,  J. Fosso-Tande,  
 J. Gayvert,  Qinghui Ge,  A. Ghysels,  G. Gidofalvi,  J. Gomes,  
 J. Gonthier,  A. Gunina,  D. Hait,  M. W. D. Hanson-Heine,  
 P. H. P. Harbach,  A. W. Hauser,  M. F. Herbst,  J. E. Herr,  
 E. G. Hohenstein,  Z. C. Holden,  Kerwin Hui,  B. C. Huynh,  T.-C. Jagau,  
 Hyunjun Ji,  B. Kaduk,  K. Khistyaev,  Jaehoon Kim,  P. Klunzinger,  K. Koh,  
 D. Kosenkov,  L. Koulias,  T. Kowalczyk,  C. M. Krauter,  A. Kunitsa,  
 Ka Un Lao,  A. Laurent,  K. V. Lawler,  Joonho Lee,  D. Lefrancois,  
 S. Lehtola,  D. S. Levine,  Yi-Pei Li,  You-Sheng Lin,  Fenglai Liu,  
 E. Livshits,  A. Luenser,  P. Manohar,  E. Mansoor,  S. F. Manzer,  
 Shan-Ping Mao,  Yuezhi Mao,  N. Mardirossian,  A. V. Marenich,  
 T. Markovich,  L. A. Martinez-Martinez,  S. A. Maurer,  N. J. Mayhall,  
 S. C. McKenzie,  J.-M. Mewes,  P. Morgante,  A. F. Morrison,  
 J. W. Mullinax,  K. Nanda,  T. S. Nguyen-Beck,  R. Olivares-Amaya,  
 J. A. Parkhill,  Zheng Pei,  T. M. Perrine,  F. Plasser,  P. Pokhilko,  
 S. Prager,  A. Prociuk,  E. Ramos,  D. R. Rehn,  F. Rob,  M. Scheurer,  
 M. Schneider,  N. Sergueev,  S. M. Sharada,  S. Sharma,  D. W. Small,  
 T. Stauch,  T. Stein,  Yu-Chuan Su,  A. J. W. Thom,  A. Tkatchenko,  
 T. Tsuchimochi,  N. M. Tubman,  L. Vogt,  M. L. Vidal,  O. Vydrov,  
 M. A. Watson,  J. Wenzel,  M. de Wergifosse,  T. A. Wesolowski,  A. White,  
 J. Witte,  A. Yamada,  Jun Yang,  K. Yao,  S. Yeganeh,  S. R. Yost,  
 Zhi-Qiang You,  A. Zech,  Igor Ying Zhang,  Xing Zhang,  Yan Zhao,  
 Ying Zhu,  B. R. Brooks,  G. K. L. Chan,  C. J. Cramer,  M. S. Gordon,  
 W. J. Hehre,  A. Klamt,  M. W. Schmidt,  C. D. Sherrill,  D. G. Truhlar,  
 A. Aspuru-Guzik,  R. Baer,  A. T. Bell,  N. A. Besley,  Jeng-Da Chai,  
 A. E. DePrince, III,  R. A. DiStasio Jr.,  A. Dreuw,  B. D. Dunietz,  
 T. R. Furlani,  Chao-Ping Hsu,  Yousung Jung,  Jing Kong,  D. S. Lambrecht,  
 WanZhen Liang,  C. Ochsenfeld,  V. A. Rassolov,  L. V. Slipchenko,  
 J. E. Subotnik,  T. Van Voorhis,  J. M. Herbert,  A. I. Krylov,  
 P. M. W. Gill,  M. Head-Gordon

 Contributors to earlier versions of Q-Chem not listed above: 
 R. D. Adamson,  B. Austin,  J. Baker,  G. J. O. Beran,  K. Brandhorst,  
 S. T. Brown,  E. F. C. Byrd,  A. K. Chakraborty,  C.-L. Cheng,  
 Siu Hung Chien,  D. M. Chipman,  D. L. Crittenden,  H. Dachsel,  
 R. J. Doerksen,  A. D. Dutoi,  L. Fusti-Molnar,  W. A. Goddard III,  
 A. Golubeva-Zadorozhnaya,  S. R. Gwaltney,  G. Hawkins,  A. Heyden,  
 S. Hirata,  G. Kedziora,  F. J. Keil,  C. Kelley,  Jihan Kim,  R. A. King,  
 R. Z. Khaliullin,  P. P. Korambath,  W. Kurlancheek,  A. M. Lee,  M. S. Lee,  
 S. V. Levchenko,  Ching Yeh Lin,  D. Liotard,  R. C. Lochan,  I. Lotan,  
 P. E. Maslen,  N. Nair,  D. P. O'Neill,  D. Neuhauser,  E. Neuscamman,  
 C. M. Oana,  R. Olson,  B. Peters,  R. Peverati,  P. A. Pieniazek,  
 Y. M. Rhee,  J. Ritchie,  M. A. Rohrdanz,  E. Rosta,  N. J. Russ,  
 H. F. Schaefer III,  N. E. Schultz,  N. Shenvi,  A. C. Simmonett,  A. Sodt,  
 D. Stuck,  K. S. Thanthiriwatte,  V. Vanovschi,  Tao Wang,  A. Warshel,  
 C. F. Williams,  Q. Wu,  X. Xu,  W. Zhang

 Please cite Q-Chem as follows:
 Y. Shao et al., Mol. Phys. 113, 184-215 (2015)
 DOI: 10.1080/00268976.2014.952696

 Q-Chem 5.2.0 for Intel X86 EM64T Linux

 Parts of Q-Chem use Armadillo 8.300.2 (Tropical Shenanigans).
 http://arma.sourceforge.net/

 Q-Chem begins on Sun Sep 26 13:29:52 2021  

Host: cori01
0

     Scratch files written to /tmp/qchem62437//Frg1//
 May1019 |scratch|qcdevops|jenkins|workspace|build_RNUM -1
Processing $rem in /global/common/cori/software/qchem/5.2/config/preferences:
	 MEM_TOTAL  96000 
NAlpha2: 48
NElect   48
Mult     1
Symmetry turned off for PCM/SM12/SMD calculation

Checking the input file for inconsistencies... 	...done.

--------------------------------------------------------------
User input:
--------------------------------------------------------------
$molecule
1 1
 6	1.7462357104	-0.6658234307	0.9304785192
 6	1.0032357104	-1.2518234307	2.1334785192
 6	0.9142357104	1.6191765693	0.4324785192
 7	0.9452357104	0.3191765693	0.1934785192
 7	1.6462357104	2.1391765693	1.4004785192
 7	0.1462357104	2.4041765693	-0.2925214808
 1	2.6982357104	-0.2408234307	1.2534785192
 1	1.9842357104	-1.4868234307	0.2524785192
 1	1.6522357104	-1.9788234307	2.6224785192
 1	0.1072357104	-1.7688234307	1.7894785192
 1	0.2972357104	-0.0578234307	-0.4995214808
 1	2.3392357104	1.5801765693	1.8644785192
 1	1.6322357104	3.1351765693	1.5634785192
 1	-0.4687642896	1.9561765693	-0.9665214808
 1	0.1252357104	3.4001765693	-0.1545214808
 1	0.7178357104	-0.4743834307	2.8574505192
$end
$rem
EDA2		1
METHOD		WB97X-V
BASIS		DEF2-TZVPD
XC_GRID		000099000590
NL_GRID		1
UNRESTRICTED		FALSE
MAX_SCF_CYCLES		200
SYMMETRY		FALSE
SYM_IGNORE		TRUE
BASIS_LIN_DEP_THRESH		6
THRESH		14
SCF_CONVERGENCE		8
SCF_PRINT_FRGM		TRUE
SOLVENT_METHOD		PCM
!required keywords
JOBTYPE		SP
SYM_IGNORE		TRUE
SUBSYSTEM		TRUE
GEN_SCFMAN		TRUE
CHILD_INSTRUCTION		2
SYM_IGNORE		TRUE
SCFMI		0
RI_K 0		
PARI_K 0		
MIN_PARI_K 0		
IARI_K 0		
OCC_RI_K 0		
PURECART		1111
MEM_STATIC		2000
MEM_TOTAL		96000
GUI		0
CHILD_MP		1
CHILD_MP_ORDERS		232
FRZ_RELAX		0
FRZ_RELAX_METHOD		0
EDA_CLS_ELEC		1
EDA_CLS_DISP		0
FRZ_ORTHO_DECOMP		1
EDA2		FALSE
FRGM_METHOD		FALSE
CIS_N_ROOTS  0
LOCAL_CIS    0
CIS_RLX_DNS  1
$end
$pcm
THEORY                  CPCM
METHOD                  SWIG
SOLVER                  INVERSION
RADII                   UFF
HPOINTS                 302
HEAVYPOINTS             302
PRINTLEVEL              0
$end
$solvent
DIELECTRIC              78.390000 ! water
$end
--------------------------------------------------------------
 ----------------------------------------------------------------
             Standard Nuclear Orientation (Angstroms)
    I     Atom           X                Y                Z
 ----------------------------------------------------------------
    1      C       1.7462357104    -0.6658234307     0.9304785192
    2      C       1.0032357104    -1.2518234307     2.1334785192
    3      C       0.9142357104     1.6191765693     0.4324785192
    4      N       0.9452357104     0.3191765693     0.1934785192
    5      N       1.6462357104     2.1391765693     1.4004785192
    6      N       0.1462357104     2.4041765693    -0.2925214808
    7      H       2.6982357104    -0.2408234307     1.2534785192
    8      H       1.9842357104    -1.4868234307     0.2524785192
    9      H       1.6522357104    -1.9788234307     2.6224785192
   10      H       0.1072357104    -1.7688234307     1.7894785192
   11      H       0.2972357104    -0.0578234307    -0.4995214808
   12      H       2.3392357104     1.5801765693     1.8644785192
   13      H       1.6322357104     3.1351765693     1.5634785192
   14      H      -0.4687642896     1.9561765693    -0.9665214808
   15      H       0.1252357104     3.4001765693    -0.1545214808
   16      H       0.7178357104    -0.4743834307     2.8574505192
 ----------------------------------------------------------------
 Nuclear Repulsion Energy =         259.23685941 hartrees
 There are       24 alpha and       24 beta electrons
 Requested basis set is def2-TZVPD
 There are 128 shells and 312 basis functions

 Total QAlloc Memory Limit  96000 MB
 Mega-Array Size      1956 MB
 MEM_STATIC part      2000 MB
 Discretize the solute cavity surface with Lebedev spheres
	Using 302 Lebedev grid points for each H atom
	Using 302 Lebedev grid points for other atoms
	Atomic van der Waals radii will be scaled by 1.20
 Remove points where switching function is < 1.0e-08
 Keep 1836 surface tesserae and discard 2996 interior tesserae
 Molecular Surface Area = 176.252 Angst**2
 A cutoff of  1.0D-14 yielded   7962 shell pairs
 There are     48080 function pairs (     59980 Cartesian)
 Smallest overlap matrix eigenvalue = 1.06E-05

 Scale SEOQF with 1.000000e-01/1.000000e-01/1.000000e-01

 Standard Electronic Orientation quadrupole field applied
 Nucleus-field energy     =     0.0000000046 hartrees
 Guess from superposition of atomic densities
 Warning:  Energy on first SCF cycle will be non-variational
 SAD guess density has 48.375862 electrons

 -----------------------------------------------------------------------
  General SCF calculation program by
  Eric Jon Sundstrom, Paul Horn, Yuezhi Mao, Dmitri Zuev, Alec White,
  David Stuck, Shaama M.S., Shane Yost, Joonho Lee, David Small,
  Daniel Levine, Susi Lehtola, Hugh Burton, Evgeny Epifanovsky
 -----------------------------------------------------------------------
 Exchange:     0.1670 Hartree-Fock + 1.0000 wB97X-V + LR-HF
 Correlation:  1.0000 wB97X-V
 Using Euler-Maclaurin-Lebedev (99,590) quadrature formula
 Nonlocal Correlation:  VV10 with C = 0.0100 and b = 6.00 and scale = 1.00000
 Grid used for NLC:  SG-1 standard quadrature
Energy prior to optimization (guess energy) = -284.033437288477
Begin Timing: Total SCF Calculation
begin iterations for algorithm: DIIS         
the SCF tolerance is set to 1.00e-08
    1    -284.0334372885      6.62e-03     00000 
    2    -284.2537841725      5.19e-03     00000 
    3    -284.4987429781      2.78e-04     00000 
    4    -284.4995529890      1.63e-04     00000 
    5    -284.4998295276      3.47e-05     00000 
    6    -284.4998441611      1.31e-05     00000 
    7    -284.4998465146      2.57e-06     00000 
    8    -284.4998466833      7.54e-07     00000 
    9    -284.4998467019      3.40e-07     00000 
   10    -284.4998467045      1.13e-07     00000 
   11    -284.4998467048      3.61e-08     00000 
   12    -284.4998467049      1.40e-08     00000 
   13    -284.4998467049      2.16e-09     00000 Convergence criterion met
Timing for Total SCF: 1357.00s (wall), 2692.44s (cpu)

************** Final PCM Free Energy Summary **************
 G_electrostatic  =      -0.08026357 hartree =     -50.36615025 kcal/mol
 G_cavitation     =       0.00000000 hartree =       0.00000000 kcal/mol
 G_dispersion     =       0.00000000 hartree =       0.00000000 kcal/mol
 G_repulsion      =       0.00000000 hartree =       0.00000000 kcal/mol
 --------------------------------------------------
 Non-electrostatic Free Energy =       0.00000000 hartree =       0.00000000 kcal/mol
 Total                         =      -0.08026357 hartree =     -50.36615025 kcal/mol
 --------------------------------------------------
 SCF Energy (H0 + V/2)                       =    -284.49984670 
 Solute Internal Energy (H0)                 =    -284.41958314 
 Total Free Energy (H0 + V/2 + non-elec)     =    -284.49984670 hartree
                                             = -178526.34830535 kcal/mol
***********************************************************

E_pcm = -0.0802635698
Multipole orders to be included
        2
        3
computing dipole RHS
computing quadrupole RHS
total number of RHS in solve_reponses: 8
RHS batch sizes
        8
Beginning Block Conjugate Gradient Iterations. Batch Number: 0
computing hessian-vector products by finite difference
              1      4.42e-01     00000 Conjugate Gradient Iteration
computing hessian-vector products by finite difference
              2      1.65e-01     00000 Conjugate Gradient Iteration
computing hessian-vector products by finite difference
              3      5.05e-02     00000 Conjugate Gradient Iteration
computing hessian-vector products by finite difference
              4      1.36e-02     00000 Conjugate Gradient Iteration
computing hessian-vector products by finite difference
              5      2.24e-03     00000 Conjugate Gradient Iteration
computing hessian-vector products by finite difference
              6      4.18e-04     00000 Conjugate Gradient Iteration
computing hessian-vector products by finite difference
              7      6.64e-05     00000 Conjugate Gradient Iteration
computing hessian-vector products by finite difference
              8      1.06e-05     00000 Conjugate Gradient Iteration
computing hessian-vector products by finite difference
              9      1.73e-06     00000 Conjugate Gradient Iteration
computing hessian-vector products by finite difference
             10      2.82e-07     00000 Conjugate Gradient Iteration
computing hessian-vector products by finite difference
             11      4.13e-08     00000 Conjugate Gradient Iteration
computing hessian-vector products by finite difference
             12      6.10e-09     00000 CG Converged
batch 0 complete
Done Calculating Responses
TESTING ORTHOGONALIZATION OF MULTIPOLE BASIS
Multipole virts passed orthogonality test
Virts Per Order
           72
          120
 
 --------------------------------------------------------------
 
                    Orbital Energies (a.u.)
 --------------------------------------------------------------
 
 Alpha MOs
 -- Occupied --
-14.4811 -14.4753 -14.4751 -10.4490 -10.3360 -10.2746  -1.2019  -1.0840
 -1.0718  -0.9183  -0.8148  -0.7751  -0.7521  -0.7140  -0.6479  -0.6419
 -0.6186  -0.6002  -0.5717  -0.5262  -0.4989  -0.4777  -0.4258  -0.3995
 -- Virtual --
  0.0490   0.0705   0.0799   0.0840   0.0947   0.1116   0.1150   0.1195
  0.1516   0.1550   0.1634   0.1675   0.1809   0.1884   0.1910   0.2013
  0.2092   0.2108   0.2214   0.2226   0.2470   0.2508   0.2543   0.2613
  0.2642   0.2730   0.2768   0.2898   0.2956   0.3000   0.3101   0.3121
  0.3227   0.3331   0.3375   0.3462   0.3488   0.3536   0.3544   0.3654
  0.3674   0.3726   0.3784   0.3907   0.3994   0.4039   0.4103   0.4172
  0.4252   0.4401   0.4427   0.4506   0.4585   0.4619   0.4707   0.4780
  0.4884   0.4902   0.4980   0.5004   0.5053   0.5124   0.5184   0.5249
  0.5262   0.5367   0.5484   0.5537   0.5610   0.5735   0.5770   0.5809
  0.5926   0.6027   0.6126   0.6319   0.6393   0.6506   0.6589   0.6607
  0.6695   0.6899   0.6992   0.7204   0.7281   0.7371   0.7483   0.7619
  0.7653   0.7724   0.7778   0.7878   0.7997   0.8148   0.8257   0.8297
  0.8333   0.8428   0.8739   0.8777   0.8883   0.9078   0.9248   0.9354
  0.9476   0.9659   0.9912   0.9951   1.0183   1.0348   1.0546   1.0630
  1.0839   1.0881   1.1112   1.1228   1.1367   1.1463   1.1567   1.2018
  1.2159   1.2644   1.2824   1.2859   1.3132   1.3451   1.3599   1.3974
  1.4194   1.4205   1.4566   1.4878   1.4919   1.5223   1.5491   1.5895
  1.6412   1.6662   1.6873   1.7372   1.7622   1.7768   1.8298   1.8487
  1.8891   1.8916   1.9027   1.9112   1.9151   1.9347   1.9458   1.9702
  1.9820   1.9912   1.9976   2.0253   2.0432   2.0682   2.1239   2.1350
  2.1556   2.1692   2.2067   2.2355   2.2562   2.2671   2.2770   2.3086
  2.3531   2.3759   2.3949   2.4282   2.4709   2.4965   2.5016   2.5320
  2.5455   2.5865   2.6022   2.6289   2.6355   2.6476   2.6544   2.6694
  2.7027   2.7207   2.7452   2.7975   2.8162   2.8334   2.8609   2.8773
  2.8859   2.9057   2.9237   2.9482   2.9630   3.0397   3.0784   3.1073
  3.1302   3.1398   3.1642   3.1736   3.2076   3.2240   3.2533   3.2730
  3.2845   3.3068   3.3371   3.3604   3.3799   3.3942   3.4249   3.4343
  3.4615   3.4808   3.4968   3.5280   3.5767   3.5854   3.6060   3.6193
  3.6716   3.6935   3.7272   3.8249   3.8513   3.9022   3.9403   3.9748
  4.0251   4.0456   4.0600   4.0901   4.1522   4.1687   4.2496   4.3036
  4.3089   4.3706   4.3996   4.4342   4.5145   4.5346   4.5983   4.6088
  4.6445   4.7743   4.8291   4.8505   4.8623   4.9187   4.9715   4.9927
  5.0195   5.0587   5.1045   5.1187   5.1295   5.1578   5.2291   5.2330
  5.2757   5.3378   5.3552   5.3849   5.4446   5.4693   5.4897   5.5074
  5.5756   5.6507   5.6851   5.7732   5.7970   5.9044   6.1250   6.1921
  6.3655   6.4707  22.6031  22.7879  23.6576  32.3237  32.4748  32.8960
 --------------------------------------------------------------
 
          Ground-State Mulliken Net Atomic Charges

     Atom                 Charge (a.u.)
  ----------------------------------------
      1 C                    -0.567696
      2 C                    -0.661407
      3 C                     0.546676
      4 N                    -0.064766
      5 N                    -0.221837
      6 N                    -0.263240
      7 H                     0.316445
      8 H                     0.217068
      9 H                     0.253697
     10 H                     0.223074
     11 H                     0.247055
     12 H                     0.157493
     13 H                     0.198702
     14 H                     0.208074
     15 H                     0.196887
     16 H                     0.213774
  ----------------------------------------
  Sum of atomic charges =     1.000000

 -----------------------------------------------------------------
                    Cartesian Multipole Moments
 -----------------------------------------------------------------
    Charge (ESU x 10^10)
                 4.8032
    Dipole Moment (Debye)
         X       4.5469      Y       6.8429      Z       2.3013
       Tot       8.5320
    Quadrupole Moments (Debye-Ang)
        XX     -26.4107     XY       4.5701     YY      -9.7856
        XZ      10.0799     YZ       3.7839     ZZ     -29.4105
    Octopole Moments (Debye-Ang^2)
       XXX     -95.9409    XXY     -15.1484    XYY     -17.8323
       YYY       8.8568    XXZ     -11.9388    XYZ      14.3908
       YYZ     -14.3489    XZZ     -25.6539    YZZ     -14.9769
       ZZZ     -85.8040
    Hexadecapole Moments (Debye-Ang^3)
      XXXX    -328.6486   XXXY     -29.4408   XXYY    -130.1215
      XYYY       8.4921   YYYY    -321.0684   XXXZ     -86.3966
      XXYZ      30.0742   XYYZ       0.9982   YYYZ      68.4117
      XXZZ     -91.0340   XYZZ       1.1473   YYZZ    -132.8436
      XZZZ    -104.7201   YZZZ      30.3833   ZZZZ    -363.8762
 -----------------------------------------------------------------
Archival summary:
1\1\nid00538\SP\ProcedureUnspecified\BasisUnspecified\3310(1+,1)\meili\SunSep2620:22:542021SunSep2620:22:542021\0\\#,ProcedureUnspecified,BasisUnspecified,\\1,1\N\H,1,1.02092\C,1,1.32215,2,118.093\N,3,1.31593,1,120.042,2,-5.70998,0\H,4,1.00573,3,121.827,1,-177.905,0\H,4,1.01647,3,117.098,1,5.50739,0\N,3,1.32032,1,120.449,2,174.005,0\H,7,1.004,3,120.147,1,9.79841,0\H,7,1.00935,3,119.957,1,178.671,0\C,1,1.46799,2,116.062,3,174.382,0\H,10,1.09104,1,108.177,2,35.0987,0\H,10,1.09145,1,111.299,2,151.959,0\C,10,1.53057,1,112.744,2,-84.0531,0\H,13,1.09016,10,109.423,1,61.3328,0\H,13,1.09034,10,108.592,1,179.398,0\H,13,1.1,10,111.879,1,-59.8808,0\\\@

 Total job time:  24783.02s(wall), 48929.29s(cpu) 
 Sun Sep 26 20:22:55 2021

        *************************************************************
        *                                                           *
        *  Thank you very much for using Q-Chem.  Have a nice day.  *
        *                                                           *
        *************************************************************


Done Job For Fragment 0
calling putenv with: QCSCRATCH=/global/cscratch1/sd/meili 
calling putenv with: QCLOCALSCR=/tmp 
calling putenv with: QCTHREADS=32 
Creating input file /tmp/qchem62437/Frg2.input
using default PutDataFrgm: nothing
calling putenv with: QCSCRATCH=/tmp/qchem62437/ 
calling putenv with: QCLOCALSCR=/tmp/qchem62437/ 
Spawning Job For Fragment 1
                  Welcome to Q-Chem
     A Quantum Leap Into The Future Of Chemistry


 Q-Chem 5.2, Q-Chem, Inc., Pleasanton, CA (2019)

 License issued to: National Energy Research Scientific Computing Center

 Yihan Shao,  Zhengting Gan,  E. Epifanovsky,  A. T. B. Gilbert,  M. Wormit,  
 J. Kussmann,  A. W. Lange,  A. Behn,  Jia Deng,  Xintian Feng,  D. Ghosh,  
 M. Goldey,  P. R. Horn,  L. D. Jacobson,  I. Kaliman,  T. Kus,  A. Landau,  
 Jie Liu,  E. I. Proynov,  R. M. Richard,  R. P. Steele,  E. J. Sundstrom,  
 H. L. Woodcock III,  P. M. Zimmerman,  D. Zuev,  B. Albrecht,  E. Alguire,  
 S. A. Baeppler,  D. Barton,  Z. Benda,  Y. A. Bernard,  E. J. Berquist,  
 K. B. Bravaya,  H. Burton,  D. Casanova,  Chun-Min Chang,  Yunqing Chen,  
 A. Chien,  K. D. Closser,  M. P. Coons,  S. Coriani,  S. Dasgupta,  
 A. L. Dempwolff,  M. Diedenhofen,  Hainam Do,  R. G. Edgar,  Po-Tung Fang,  
 S. Faraji,  S. Fatehi,  Qingguo Feng,  K. D. Fenk,  J. Fosso-Tande,  
 J. Gayvert,  Qinghui Ge,  A. Ghysels,  G. Gidofalvi,  J. Gomes,  
 J. Gonthier,  A. Gunina,  D. Hait,  M. W. D. Hanson-Heine,  
 P. H. P. Harbach,  A. W. Hauser,  M. F. Herbst,  J. E. Herr,  
 E. G. Hohenstein,  Z. C. Holden,  Kerwin Hui,  B. C. Huynh,  T.-C. Jagau,  
 Hyunjun Ji,  B. Kaduk,  K. Khistyaev,  Jaehoon Kim,  P. Klunzinger,  K. Koh,  
 D. Kosenkov,  L. Koulias,  T. Kowalczyk,  C. M. Krauter,  A. Kunitsa,  
 Ka Un Lao,  A. Laurent,  K. V. Lawler,  Joonho Lee,  D. Lefrancois,  
 S. Lehtola,  D. S. Levine,  Yi-Pei Li,  You-Sheng Lin,  Fenglai Liu,  
 E. Livshits,  A. Luenser,  P. Manohar,  E. Mansoor,  S. F. Manzer,  
 Shan-Ping Mao,  Yuezhi Mao,  N. Mardirossian,  A. V. Marenich,  
 T. Markovich,  L. A. Martinez-Martinez,  S. A. Maurer,  N. J. Mayhall,  
 S. C. McKenzie,  J.-M. Mewes,  P. Morgante,  A. F. Morrison,  
 J. W. Mullinax,  K. Nanda,  T. S. Nguyen-Beck,  R. Olivares-Amaya,  
 J. A. Parkhill,  Zheng Pei,  T. M. Perrine,  F. Plasser,  P. Pokhilko,  
 S. Prager,  A. Prociuk,  E. Ramos,  D. R. Rehn,  F. Rob,  M. Scheurer,  
 M. Schneider,  N. Sergueev,  S. M. Sharada,  S. Sharma,  D. W. Small,  
 T. Stauch,  T. Stein,  Yu-Chuan Su,  A. J. W. Thom,  A. Tkatchenko,  
 T. Tsuchimochi,  N. M. Tubman,  L. Vogt,  M. L. Vidal,  O. Vydrov,  
 M. A. Watson,  J. Wenzel,  M. de Wergifosse,  T. A. Wesolowski,  A. White,  
 J. Witte,  A. Yamada,  Jun Yang,  K. Yao,  S. Yeganeh,  S. R. Yost,  
 Zhi-Qiang You,  A. Zech,  Igor Ying Zhang,  Xing Zhang,  Yan Zhao,  
 Ying Zhu,  B. R. Brooks,  G. K. L. Chan,  C. J. Cramer,  M. S. Gordon,  
 W. J. Hehre,  A. Klamt,  M. W. Schmidt,  C. D. Sherrill,  D. G. Truhlar,  
 A. Aspuru-Guzik,  R. Baer,  A. T. Bell,  N. A. Besley,  Jeng-Da Chai,  
 A. E. DePrince, III,  R. A. DiStasio Jr.,  A. Dreuw,  B. D. Dunietz,  
 T. R. Furlani,  Chao-Ping Hsu,  Yousung Jung,  Jing Kong,  D. S. Lambrecht,  
 WanZhen Liang,  C. Ochsenfeld,  V. A. Rassolov,  L. V. Slipchenko,  
 J. E. Subotnik,  T. Van Voorhis,  J. M. Herbert,  A. I. Krylov,  
 P. M. W. Gill,  M. Head-Gordon

 Contributors to earlier versions of Q-Chem not listed above: 
 R. D. Adamson,  B. Austin,  J. Baker,  G. J. O. Beran,  K. Brandhorst,  
 S. T. Brown,  E. F. C. Byrd,  A. K. Chakraborty,  C.-L. Cheng,  
 Siu Hung Chien,  D. M. Chipman,  D. L. Crittenden,  H. Dachsel,  
 R. J. Doerksen,  A. D. Dutoi,  L. Fusti-Molnar,  W. A. Goddard III,  
 A. Golubeva-Zadorozhnaya,  S. R. Gwaltney,  G. Hawkins,  A. Heyden,  
 S. Hirata,  G. Kedziora,  F. J. Keil,  C. Kelley,  Jihan Kim,  R. A. King,  
 R. Z. Khaliullin,  P. P. Korambath,  W. Kurlancheek,  A. M. Lee,  M. S. Lee,  
 S. V. Levchenko,  Ching Yeh Lin,  D. Liotard,  R. C. Lochan,  I. Lotan,  
 P. E. Maslen,  N. Nair,  D. P. O'Neill,  D. Neuhauser,  E. Neuscamman,  
 C. M. Oana,  R. Olson,  B. Peters,  R. Peverati,  P. A. Pieniazek,  
 Y. M. Rhee,  J. Ritchie,  M. A. Rohrdanz,  E. Rosta,  N. J. Russ,  
 H. F. Schaefer III,  N. E. Schultz,  N. Shenvi,  A. C. Simmonett,  A. Sodt,  
 D. Stuck,  K. S. Thanthiriwatte,  V. Vanovschi,  Tao Wang,  A. Warshel,  
 C. F. Williams,  Q. Wu,  X. Xu,  W. Zhang

 Please cite Q-Chem as follows:
 Y. Shao et al., Mol. Phys. 113, 184-215 (2015)
 DOI: 10.1080/00268976.2014.952696

 Q-Chem 5.2.0 for Intel X86 EM64T Linux

 Parts of Q-Chem use Armadillo 8.300.2 (Tropical Shenanigans).
 http://arma.sourceforge.net/

 Q-Chem begins on Sun Sep 26 20:22:56 2021  

Host: cori01
0

     Scratch files written to /tmp/qchem62437//Frg2//
 May1019 |scratch|qcdevops|jenkins|workspace|build_RNUM -1
Processing $rem in /global/common/cori/software/qchem/5.2/config/preferences:
	 MEM_TOTAL  96000 
NAlpha2: 32
NElect   32
Mult     1
Symmetry turned off for PCM/SM12/SMD calculation

Checking the input file for inconsistencies... 	...done.

--------------------------------------------------------------
User input:
--------------------------------------------------------------
$molecule
-1 1
 6	-2.8047642896	-1.9358234307	-1.1425214808
 6	-1.5197642896	-1.1148234307	-1.2085214808
 8	-0.4427642896	-1.6978234307	-0.9605214808
 8	-1.5687642896	0.1041765693	-1.4935214808
 1	-2.9657642896	-2.2208234307	-0.1015214808
 1	-2.6867642896	-2.8478234307	-1.7295214808
 1	-3.6783842896	-1.3875534307	-1.5248664808
$end
$rem
EDA2		1
METHOD		WB97X-V
BASIS		DEF2-TZVPD
XC_GRID		000099000590
NL_GRID		1
UNRESTRICTED		FALSE
MAX_SCF_CYCLES		200
SYMMETRY		FALSE
SYM_IGNORE		TRUE
BASIS_LIN_DEP_THRESH		6
THRESH		14
SCF_CONVERGENCE		8
SCF_PRINT_FRGM		TRUE
SOLVENT_METHOD		PCM
!required keywords
JOBTYPE		SP
SYM_IGNORE		TRUE
SUBSYSTEM		TRUE
GEN_SCFMAN		TRUE
CHILD_INSTRUCTION		2
SYM_IGNORE		TRUE
SCFMI		0
RI_K 0		
PARI_K 0		
MIN_PARI_K 0		
IARI_K 0		
OCC_RI_K 0		
PURECART		1111
MEM_STATIC		2000
MEM_TOTAL		96000
GUI		0
CHILD_MP		1
CHILD_MP_ORDERS		232
FRZ_RELAX		0
FRZ_RELAX_METHOD		0
EDA_CLS_ELEC		1
EDA_CLS_DISP		0
FRZ_ORTHO_DECOMP		1
EDA2		FALSE
FRGM_METHOD		FALSE
CIS_N_ROOTS  0
LOCAL_CIS    0
CIS_RLX_DNS  1
$end
$pcm
THEORY                  CPCM
METHOD                  SWIG
SOLVER                  INVERSION
RADII                   UFF
HPOINTS                 302
HEAVYPOINTS             302
PRINTLEVEL              0
$end
$solvent
DIELECTRIC              78.390000 ! water
$end
--------------------------------------------------------------
 ----------------------------------------------------------------
             Standard Nuclear Orientation (Angstroms)
    I     Atom           X                Y                Z
 ----------------------------------------------------------------
    1      C      -2.8047642896    -1.9358234307    -1.1425214808
    2      C      -1.5197642896    -1.1148234307    -1.2085214808
    3      O      -0.4427642896    -1.6978234307    -0.9605214808
    4      O      -1.5687642896     0.1041765693    -1.4935214808
    5      H      -2.9657642896    -2.2208234307    -0.1015214808
    6      H      -2.6867642896    -2.8478234307    -1.7295214808
    7      H      -3.6783842896    -1.3875534307    -1.5248664808
 ----------------------------------------------------------------
 Nuclear Repulsion Energy =         112.56647206 hartrees
 There are       16 alpha and       16 beta electrons
 Requested basis set is def2-TZVPD
 There are 69 shells and 181 basis functions

 Total QAlloc Memory Limit  96000 MB
 Mega-Array Size      1956 MB
 MEM_STATIC part      2000 MB
 Discretize the solute cavity surface with Lebedev spheres
	Using 302 Lebedev grid points for each H atom
	Using 302 Lebedev grid points for other atoms
	Atomic van der Waals radii will be scaled by 1.20
 Remove points where switching function is < 1.0e-08
 Keep 1011 surface tesserae and discard 1103 interior tesserae
 Molecular Surface Area = 120.110 Angst**2

                       Distance Matrix (Angstroms)
             C (  1)   C (  2)   O (  3)   O (  4)   H (  5)   H (  6)
   C (  2)  1.526310
   O (  3)  2.380927  1.249529
   O (  4)  2.410912  1.252832  2.190701
   H (  5)  1.091250  2.130634  2.716052  3.048754
   H (  6)  1.090980  2.153281  2.636171  3.165426  1.766735
   H (  7)  1.100000  2.198658  3.299089  2.583938  1.796685  1.776959

 
 A cutoff of  1.0D-14 yielded   2391 shell pairs
 There are     16695 function pairs (     21491 Cartesian)
 Smallest overlap matrix eigenvalue = 1.66E-05

 Scale SEOQF with 1.000000e-01/1.000000e-01/1.000000e-01

 Standard Electronic Orientation quadrupole field applied
 Nucleus-field energy     =     0.0000000038 hartrees
 Guess from superposition of atomic densities
 Warning:  Energy on first SCF cycle will be non-variational
 SAD guess density has 30.625312 electrons

 -----------------------------------------------------------------------
  General SCF calculation program by
  Eric Jon Sundstrom, Paul Horn, Yuezhi Mao, Dmitri Zuev, Alec White,
  David Stuck, Shaama M.S., Shane Yost, Joonho Lee, David Small,
  Daniel Levine, Susi Lehtola, Hugh Burton, Evgeny Epifanovsky
 -----------------------------------------------------------------------
 Exchange:     0.1670 Hartree-Fock + 1.0000 wB97X-V + LR-HF
 Correlation:  1.0000 wB97X-V
 Using Euler-Maclaurin-Lebedev (99,590) quadrature formula
 Nonlocal Correlation:  VV10 with C = 0.0100 and b = 6.00 and scale = 1.00000
 Grid used for NLC:  SG-1 standard quadrature
Energy prior to optimization (guess energy) = -227.760775063753
Begin Timing: Total SCF Calculation
begin iterations for algorithm: DIIS         
the SCF tolerance is set to 1.00e-08
    1    -227.7607750638      1.66e-02     00000 
    2    -225.5704980010      2.55e-02     00000 
    3    -228.5763740800      4.15e-03     00000 
    4    -228.6355291967      1.44e-03     00000 
    5    -228.6419259517      3.54e-04     00000 
    6    -228.6422397175      2.54e-04     00000 
    7    -228.6424224140      4.64e-05     00000 
    8    -228.6424329113      1.41e-05     00000 
    9    -228.6424342602      2.92e-06     00000 
   10    -228.6424343660      3.97e-07     00000 
   11    -228.6424343689      1.32e-07     00000 
   12    -228.6424343691      3.47e-08     00000 
   13    -228.6424343692      1.26e-08     00000 
   14    -228.6424343692      3.11e-09     00000 Convergence criterion met
Timing for Total SCF: 290.00s (wall), 556.92s (cpu)

************** Final PCM Free Energy Summary **************
 G_electrostatic  =      -0.10202283 hartree =     -64.02029453 kcal/mol
 G_cavitation     =       0.00000000 hartree =       0.00000000 kcal/mol
 G_dispersion     =       0.00000000 hartree =       0.00000000 kcal/mol
 G_repulsion      =       0.00000000 hartree =       0.00000000 kcal/mol
 --------------------------------------------------
 Non-electrostatic Free Energy =       0.00000000 hartree =       0.00000000 kcal/mol
 Total                         =      -0.10202283 hartree =     -64.02029453 kcal/mol
 --------------------------------------------------
 SCF Energy (H0 + V/2)                       =    -228.64243437 
 Solute Internal Energy (H0)                 =    -228.54041154 
 Total Free Energy (H0 + V/2 + non-elec)     =    -228.64243437 hartree
                                             = -143475.29303914 kcal/mol
***********************************************************

E_pcm = -0.1020228339
Multipole orders to be included
        2
        3
computing dipole RHS
computing quadrupole RHS
total number of RHS in solve_reponses: 8
RHS batch sizes
        8
Beginning Block Conjugate Gradient Iterations. Batch Number: 0
computing hessian-vector products by finite difference
              1      6.82e-01     00000 Conjugate Gradient Iteration
computing hessian-vector products by finite difference
              2      2.48e-01     00000 Conjugate Gradient Iteration
computing hessian-vector products by finite difference
              3      6.61e-02     00000 Conjugate Gradient Iteration
computing hessian-vector products by finite difference
              4      1.75e-02     00000 Conjugate Gradient Iteration
computing hessian-vector products by finite difference
              5      3.01e-03     00000 Conjugate Gradient Iteration
computing hessian-vector products by finite difference
              6      6.99e-04     00000 Conjugate Gradient Iteration
computing hessian-vector products by finite difference
              7      1.13e-04     00000 Conjugate Gradient Iteration
computing hessian-vector products by finite difference
              8      1.36e-05     00000 Conjugate Gradient Iteration
computing hessian-vector products by finite difference
              9      2.15e-06     00000 Conjugate Gradient Iteration
computing hessian-vector products by finite difference
             10      2.53e-07     00000 Conjugate Gradient Iteration
computing hessian-vector products by finite difference
             11      3.41e-08     00000 Conjugate Gradient Iteration
computing hessian-vector products by finite difference
             12      6.83e-09     00000 CG Converged
batch 0 complete
Done Calculating Responses
TESTING ORTHOGONALIZATION OF MULTIPOLE BASIS
Multipole virts passed orthogonality test
Virts Per Order
        48
        80
 
 --------------------------------------------------------------
 
                    Orbital Energies (a.u.)
 --------------------------------------------------------------
 
 Alpha MOs
 -- Occupied --
-19.1218 -19.1205 -10.3250 -10.2408  -1.1322  -1.0301  -0.8289  -0.5918
 -0.5298  -0.5167  -0.5158  -0.4629  -0.4436  -0.3283  -0.3265  -0.3075
 -- Virtual --
  0.0633   0.0952   0.0958   0.1054   0.1302   0.1404   0.1429   0.1452
  0.1698   0.1906   0.1983   0.2241   0.2293   0.2360   0.2645   0.2674
  0.2990   0.3133   0.3343   0.3474   0.3533   0.3618   0.3720   0.3838
  0.3921   0.4018   0.4252   0.4259   0.4325   0.4613   0.4749   0.4776
  0.4903   0.4969   0.5045   0.5220   0.5600   0.5790   0.5993   0.6154
  0.6226   0.6414   0.6443   0.6637   0.6754   0.6792   0.6951   0.7125
  0.7222   0.7409   0.7761   0.7996   0.8118   0.8194   0.8463   0.8599
  0.8692   0.9811   0.9871   0.9971   1.0034   1.0526   1.0593   1.1307
  1.1729   1.2081   1.2605   1.2870   1.2973   1.3134   1.3480   1.3573
  1.4560   1.5720   1.6083   1.7353   1.8263   1.8657   1.8721   1.9259
  1.9303   1.9588   1.9654   1.9732   2.0205   2.1186   2.1308   2.1733
  2.2200   2.2249   2.3267   2.3456   2.4193   2.4389   2.4907   2.5121
  2.5814   2.5934   2.6064   2.6674   2.7980   2.8141   2.8792   2.9357
  2.9471   3.0088   3.0390   3.1893   3.2088   3.2503   3.2876   3.3179
  3.3447   3.3504   3.4016   3.4188   3.4338   3.5414   3.5728   3.5875
  3.6131   3.6590   3.7076   3.7398   3.7780   3.8829   3.9508   4.0474
  4.0811   4.1924   4.3660   4.5510   4.6167   4.6675   4.8082   4.8368
  4.9918   5.3347   5.3602   5.3705   5.3762   5.4979   5.7135   5.7829
  5.8237   6.0324   6.2341   6.3483   6.3586   6.6191   6.6312   6.7289
  6.7455   6.7618   6.9555   6.9827   7.0419   7.2543   7.3460   7.3941
  7.4165  22.5883  23.7390  44.2231  44.3489
 --------------------------------------------------------------
 
          Ground-State Mulliken Net Atomic Charges

     Atom                 Charge (a.u.)
  ----------------------------------------
      1 C                    -0.394137
      2 C                     0.291135
      3 O                    -0.677703
      4 O                    -0.676417
      5 H                     0.135491
      6 H                     0.158333
      7 H                     0.163298
  ----------------------------------------
  Sum of atomic charges =    -1.000000

 -----------------------------------------------------------------
                    Cartesian Multipole Moments
 -----------------------------------------------------------------
    Charge (ESU x 10^10)
                -4.8032
    Dipole Moment (Debye)
         X       3.4336      Y       2.9163      Z       5.9634
       Tot       7.4737
    Quadrupole Moments (Debye-Ang)
        XX     -30.8132     XY       2.5322     YY     -34.3969
        XZ      -5.5991     YZ      -1.5109     ZZ     -33.4900
    Octopole Moments (Debye-Ang^2)
       XXX     139.2931    XXY      25.8855    XYY      43.9140
       YYY     111.8979    XXZ      39.6193    XYZ      -4.0902
       YYZ      37.3253    XZZ      51.0837    YZZ      30.1414
       ZZZ     103.5873
    Hexadecapole Moments (Debye-Ang^3)
      XXXX    -621.7991   XXXY    -166.1506   XXYY    -162.4471
      XYYY    -173.8660   YYYY    -409.8049   XXXZ    -173.2205
      XXYZ     -26.6232   XYYZ     -51.2894   YYYZ    -113.0231
      XXZZ    -155.6470   XYZZ     -47.0328   YYZZ    -108.0291
      XZZZ    -171.7170   YZZZ     -95.9241   ZZZZ    -280.1010
 -----------------------------------------------------------------
Archival summary:
1\1\nid00538\SP\ProcedureUnspecified\BasisUnspecified\223(1-,1)\meili\SunSep2621:45:122021SunSep2621:45:122021\0\\#,ProcedureUnspecified,BasisUnspecified,\\-1,1\C\O,1,1.24953\O,1,1.25283,2,122.197\C,1,1.52631,2,117.782,3,-179.433,0\H,4,1.09098,1,109.593,2,-50.2688,0\H,4,1.09125,1,107.815,2,67.1839,0\H,4,1.1,1,112.675,2,-171.046,0\\\@

 Total job time:  4936.79s(wall), 9320.61s(cpu) 
 Sun Sep 26 21:45:13 2021

        *************************************************************
        *                                                           *
        *  Thank you very much for using Q-Chem.  Have a nice day.  *
        *                                                           *
        *************************************************************


Done Job For Fragment 1
calling putenv with: QCSCRATCH=/global/cscratch1/sd/meili 
calling putenv with: QCLOCALSCR=/tmp 
calling putenv with: QCTHREADS=32 
Doing General SCFMI
 Exchange:     0.1670 Hartree-Fock + 1.0000 wB97X-V + LR-HF
 Correlation:  1.0000 wB97X-V
 Using Euler-Maclaurin-Lebedev (99,590) quadrature formula
 Nonlocal Correlation:  VV10 with C = 0.0100 and b = 6.00 and scale = 1.00000
 Grid used for NLC:  SG-1 standard quadrature
performing fock build before subrot guess so that all methods have access
Printing subrot_rss_gen Method Specification:
Occupied Subspace Method is 0
Virtual Subspace Method is 0
Energy of the unrelaxed supersystem initial determinant -513.113161723665
performing fock build before subrot guess so that all methods have access
Printing subrot_rss_gen Method Specification:
Occupied Subspace Method is 0
Virtual Subspace Method is 0
Energy of the unrelaxed supersystem initial determinant w/ solvent -513.155174896857
write pseudocanon occs and virts to disk
write pseudocanon orbital energies to disk
Tolerance of ortho_decomp_scf: 1.00e-06
GDM subspace size: 20
Beginning the Orthogonal Decomposition of the Initial Supersystem Wavefunction
    1    -512.8473989063      9.79e-02     ortho_decomp Preconditoned Steepest Descent
    2    -512.8698734722      3.20e-03     ortho_decomp BFGS Step
    3    -512.8699863252      2.45e-04     ortho_decomp BFGS Step
    4    -512.8699864858      1.10e-05     ortho_decomp BFGS Step
    5    -512.8699864864      4.78e-07     ortho_decomp 00000 Convergence criterion met
 Hartree-Fock
 Hartree-Fock
 Hartree-Fock
Doing General SCFMI
 Exchange:     0.1670 Hartree-Fock + 1.0000 wB97X-V + LR-HF
 Correlation:  1.0000 wB97X-V
 Using Euler-Maclaurin-Lebedev (99,590) quadrature formula
 Nonlocal Correlation:  VV10 with C = 0.0100 and b = 6.00 and scale = 1.00000
 Grid used for NLC:  SG-1 standard quadrature
performing fock build at end of subrot_r(subrot) constructor so that all methods have access
<S^2> of initial wavefunction before polarization iterations 0.0000000000
Beginning iterations for the determination of the polarized wavefunction
Energy prior to optimization (guess energy) = -513.155174896857
Begin Timing: Total SCF Calculation
begin iterations for algorithm: DIIS         
the SCF tolerance is set to 1.00e-08
    1    -513.1551748969      3.22e-04     00000 
    2    -513.1616612548      1.44e-04     00000 
    3    -513.1623573917      9.28e-05     00000 
    4    -513.1626565489      2.67e-05     00000 
    5    -513.1626981840      1.36e-05     00000 
    6    -513.1627088772      6.74e-06     00000 
    7    -513.1627128422      2.62e-06     00000 
    8    -513.1627135843      1.17e-06     00000 
    9    -513.1627137145      4.87e-07     00000 
   10    -513.1627137241      1.74e-07     00000 
   11    -513.1627137261      7.16e-08     00000 
   12    -513.1627137264      4.12e-08     00000 
   13    -513.1627137264      1.78e-08     00000 
   14    -513.1627137264      8.05e-09     00000 Convergence criterion met
write pseudocanon occs and virts to disk
write pseudocanon orbital energies to disk
Timing for Total SCF: 4898.00s (wall), 9736.02s (cpu)
<S^2> of polarized wavefunction after polarization iterations 0.0000000000
relaxing scfmi constraint to allow all rotations in the entire AO span
Doing General SCFMI
 Exchange:     0.1670 Hartree-Fock + 1.0000 wB97X-V + LR-HF
 Correlation:  1.0000 wB97X-V
 Using Euler-Maclaurin-Lebedev (99,590) quadrature formula
 Nonlocal Correlation:  VV10 with C = 0.0100 and b = 6.00 and scale = 1.00000
 Grid used for NLC:  SG-1 standard quadrature
performing fock build at end of subrot_r(subrot) constructor so that all methods have access
<S^2> of polarized wavefunction before ct-allowed iterations 0.0000000000
Beginning iterations for the determination of the CT-Allowed wavefunction
Energy prior to optimization (guess energy) = -513.162713726433
Begin Timing: Total SCF Calculation
begin iterations for algorithm: DIIS         
the SCF tolerance is set to 1.00e-08
    1    -513.1627137264      2.27e-04     00000 
    2    -513.1707399117      3.86e-05     00000 
    3    -513.1710978916      1.91e-05     00000 
    4    -513.1711311478      8.18e-06     00000 
    5    -513.1711393344      2.06e-06     00000 
    6    -513.1711398727      7.82e-07     00000 
    7    -513.1711399671      3.99e-07     00000 
    8    -513.1711399874      7.50e-08     00000 
    9    -513.1711399888      3.36e-08     00000 
   10    -513.1711399891      1.22e-08     00000 
   11    -513.1711399891      4.19e-09     00000 Convergence criterion met
write pseudocanon occs and virts to disk
write pseudocanon orbital energies to disk
Timing for Total SCF: 3776.00s (wall), 7485.72s (cpu)
<S^2> of ct_allowed wavefunction after ct-allowed iterations 0.0000000000

================================
        Results of EDA2         
================================
Basic EDA Quantities
--------------------
Fragment Energies (Ha):
1 -284.4998467049
2 -228.6424343692
--------------------
  E_prp (kJ/mol) = 0.0000
  E_sol (kJ/mol) = 368.2917
  E_frz (kJ/mol) = -402.1449
  E_pol (kJ/mol) = -19.7934
  E_vct (kJ/mol) = -22.1234
  E_int (kJ/mol) = -75.7700
--------------------


Initial Wavefunction Decomposition
--------------------
  --------------------
  Orthogonal Fragment Subspace Decomposition:
  --------------------
     E_elec   (ELEC)   (kJ/mol) = -562.5839
     E_pauli  (PAULI)  (kJ/mol) = 193.5199
     E_disp   (DISP)   (kJ/mol) = -33.0809
     --------------------
     Terms summing to E_pauli:
     --------------------
        E_kep_pauli       (kJ/mol) = 236.3193
        E_disp_free_pauli (kJ/mol) = -42.7994
  --------------------
  Classical Frozen Decomposition:
  --------------------
     E_cls_elec  (CLS ELEC)  (kJ/mol) = -495.6886
     E_cls_pauli (CLS PAULI) (kJ/mol) = 93.5438
    [E_mod_pauli (MOD PAULI) (kJ/mol) = 126.6246 (CLS PAULI - DISP from orthogonal decomposition) ]
  --------------------
--------------------

Simplified EDA Summary (kJ/mol)
--------------------
 PREPARATION     0.0000
 SOLVATION       368.2917
 FROZEN          -369.0640      (does not include dispersion)
[PAULI           193.5199]     (if this is negligible, then frozen describes electrostatics)
 DISPERSION      -33.0809
 POLARIZATION    -19.7934
 CHARGE TRANSFER -22.1234
 TOTAL           -75.7700     (PRP + SOL + FRZ + DISP + POL + CT)
--------------------
 
 --------------------------------------------------------------
 
                    Orbital Energies (a.u.)
 --------------------------------------------------------------
 
 Alpha MOs
 -- Occupied --
-19.1445 -19.1405 -14.4584 -14.4505 -14.4410 -10.4240 -10.3446 -10.3163
-10.2619 -10.2490  -1.1782  -1.1576  -1.0577  -1.0526  -1.0507  -0.8989
 -0.8398  -0.7940  -0.7546  -0.7282  -0.6939  -0.6328  -0.6225  -0.6037
 -0.5939  -0.5781  -0.5568  -0.5425  -0.5334  -0.5305  -0.5084  -0.4853
 -0.4772  -0.4645  -0.4553  -0.4086  -0.3727  -0.3509  -0.3457  -0.3329
 -- Virtual --
  0.0542   0.0712   0.0756   0.0794   0.0968   0.1025   0.1073   0.1100
  0.1154   0.1275   0.1363   0.1385   0.1412   0.1509   0.1558   0.1643
  0.1681   0.1771   0.1909   0.1946   0.1961   0.2016   0.2077   0.2114
  0.2151   0.2266   0.2307   0.2337   0.2385   0.2484   0.2494   0.2514
  0.2619   0.2642   0.2661   0.2756   0.2802   0.2887   0.2951   0.3011
  0.3052   0.3101   0.3123   0.3172   0.3248   0.3300   0.3338   0.3353
  0.3381   0.3430   0.3522   0.3566   0.3574   0.3600   0.3620   0.3693
  0.3717   0.3773   0.3832   0.3882   0.3910   0.3942   0.3992   0.4005
  0.4101   0.4124   0.4221   0.4245   0.4274   0.4390   0.4458   0.4508
  0.4558   0.4589   0.4621   0.4630   0.4718   0.4731   0.4764   0.4882
  0.4939   0.4970   0.5003   0.5038   0.5101   0.5175   0.5196   0.5212
  0.5282   0.5327   0.5380   0.5396   0.5465   0.5538   0.5612   0.5641
  0.5698   0.5772   0.5782   0.5817   0.5856   0.5965   0.6021   0.6057
  0.6137   0.6247   0.6286   0.6344   0.6359   0.6482   0.6594   0.6606
  0.6648   0.6762   0.6799   0.6864   0.6944   0.7046   0.7075   0.7124
  0.7146   0.7212   0.7300   0.7356   0.7441   0.7541   0.7619   0.7643
  0.7708   0.7744   0.7797   0.7835   0.7918   0.8000   0.8042   0.8091
  0.8138   0.8164   0.8186   0.8270   0.8311   0.8443   0.8486   0.8553
  0.8766   0.8784   0.8839   0.8924   0.9033   0.9092   0.9171   0.9256
  0.9348   0.9378   0.9433   0.9633   0.9770   0.9829   0.9945   1.0038
  1.0145   1.0195   1.0389   1.0485   1.0556   1.0586   1.0664   1.0726
  1.0949   1.1005   1.1166   1.1209   1.1281   1.1424   1.1517   1.1666
  1.1771   1.1845   1.1934   1.1983   1.2195   1.2381   1.2501   1.2526
  1.2754   1.2917   1.2998   1.3138   1.3180   1.3392   1.3459   1.3587
  1.3706   1.3794   1.3936   1.4172   1.4308   1.4381   1.4500   1.4622
  1.4779   1.4899   1.5069   1.5255   1.5537   1.5910   1.5999   1.6169
  1.6384   1.6503   1.6890   1.7052   1.7229   1.7463   1.7506   1.7973
  1.8049   1.8395   1.8727   1.8904   1.9018   1.9141   1.9165   1.9258
  1.9349   1.9467   1.9504   1.9536   1.9681   1.9751   1.9885   1.9956
  1.9996   2.0115   2.0242   2.0306   2.0472   2.0573   2.0754   2.0807
  2.0986   2.1194   2.1313   2.1433   2.1785   2.1962   2.2030   2.2165
  2.2299   2.2528   2.2601   2.2823   2.2892   2.3107   2.3121   2.3261
  2.3518   2.3786   2.3910   2.4033   2.4154   2.4469   2.4723   2.4804
  2.4950   2.5083   2.5108   2.5367   2.5474   2.5682   2.5776   2.5881
  2.5994   2.6174   2.6295   2.6421   2.6454   2.6644   2.6712   2.6827
  2.6908   2.7144   2.7211   2.7374   2.7648   2.7712   2.7980   2.8294
  2.8605   2.8747   2.8817   2.8875   2.8969   2.9076   2.9341   2.9394
  2.9574   2.9736   2.9807   3.0022   3.0142   3.0436   3.0614   3.1029
  3.1244   3.1375   3.1631   3.1751   3.1807   3.2165   3.2271   3.2426
  3.2521   3.2612   3.2756   3.2954   3.3127   3.3242   3.3307   3.3453
  3.3533   3.3748   3.3902   3.4017   3.4154   3.4219   3.4316   3.4448
  3.4541   3.4613   3.4704   3.4882   3.5009   3.5151   3.5323   3.5494
  3.5762   3.5981   3.6033   3.6260   3.6309   3.6480   3.6583   3.6801
  3.6822   3.7063   3.7204   3.7309   3.7601   3.7784   3.8015   3.8320
  3.8633   3.8985   3.9053   3.9360   3.9711   3.9826   4.0099   4.0626
  4.0738   4.0857   4.1008   4.1072   4.1302   4.1963   4.2166   4.2355
  4.2957   4.3416   4.3553   4.3923   4.4215   4.4330   4.4679   4.5605
  4.5653   4.5793   4.6313   4.6418   4.6427   4.6765   4.6990   4.8089
  4.8601   4.8667   4.8929   4.8935   4.8995   4.9744   5.0087   5.0228
  5.0444   5.0795   5.1154   5.1540   5.1574   5.1760   5.2168   5.2692
  5.2741   5.3159   5.3481   5.3580   5.3720   5.3830   5.3999   5.4221
  5.4440   5.4763   5.4989   5.5190   5.5560   5.5722   5.6363   5.6927
  5.7145   5.7548   5.7831   5.8076   5.8393   5.8493   5.9631   6.0346
  6.1808   6.2341   6.2589   6.3497   6.3938   6.4260   6.5115   6.6465
  6.7000   6.7669   6.7875   6.8555   6.9853   7.0268   7.0621   7.2718
  7.3599   7.4323   7.4679  22.6085  22.6631  22.8830  23.7324  23.7632
 32.3881  32.5676  33.0321  44.3339  44.4271
 --------------------------------------------------------------
 
          Ground-State Mulliken Net Atomic Charges

     Atom                 Charge (a.u.)
  ----------------------------------------
      1 C                    -0.473575
      2 C                    -0.694256
      3 C                     0.520259
      4 N                     0.113206
      5 N                    -0.223008
      6 N                    -0.192518
      7 H                     0.362290
      8 H                     0.178992
      9 H                     0.258126
     10 H                     0.168895
     11 H                     0.101659
     12 H                     0.152290
     13 H                     0.194211
     14 H                     0.184105
     15 H                     0.185048
     16 H                     0.201348
     17 C                    -0.672187
     18 C                     0.525421
     19 O                    -0.725014
     20 O                    -0.723635
     21 H                     0.154894
     22 H                     0.203410
     23 H                     0.200040
  ----------------------------------------
  Sum of atomic charges =     0.000000

 -----------------------------------------------------------------
                    Cartesian Multipole Moments
 -----------------------------------------------------------------
    Charge (ESU x 10^10)
                -0.0000
    Dipole Moment (Debye)
         X       6.6653      Y       8.4362      Z       7.1368
       Tot      12.9046
    Quadrupole Moments (Debye-Ang)
        XX     -57.2249     XY       7.2407     YY     -45.4170
        XZ       4.1134     YZ       2.6000     ZZ     -63.6733
    Octopole Moments (Debye-Ang^2)
       XXX      31.2563    XXY       6.8178    XYY      20.2517
       YYY     108.1369    XXZ      22.0852    XYZ       9.1064
       YYZ      18.5507    XZZ      20.7076    YZZ      13.7853
       ZZZ       9.9595
    Hexadecapole Moments (Debye-Ang^3)
      XXXX    -941.9607   XXXY    -188.1438   XXYY    -291.6887
      XYYY    -163.8239   YYYY    -747.6379   XXXZ    -257.9467
      XXYZ       5.6725   XYYZ     -51.5803   YYYZ     -41.4759
      XXZZ    -246.5909   XYZZ     -44.4877   YYZZ    -244.6235
      XZZZ    -278.3479   YZZZ     -61.3230   ZZZZ    -652.0778
 -----------------------------------------------------------------
Archival summary:
1\1\nid00538\SP\ProcedureUnspecified\BasisUnspecified\23513\meili\MonSep2701:41:472021MonSep2701:41:472021\0\\#,ProcedureUnspecified,BasisUnspecified,\\0,1\N\H,1,1.02092\C,1,1.32215,2,118.093\N,3,1.31593,1,120.042,2,-5.70998,0\H,4,1.00573,3,121.827,1,-177.905,0\H,4,1.01647,3,117.098,1,5.50739,0\N,3,1.32032,1,120.449,2,174.005,0\H,7,1.004,3,120.147,1,9.79841,0\H,7,1.00935,3,119.957,1,178.671,0\C,1,1.46799,2,116.062,3,174.382,0\H,10,1.09104,1,108.177,2,35.0987,0\H,10,1.09145,1,111.299,2,151.959,0\C,10,1.53057,1,112.744,2,-84.0531,0\H,13,1.09016,10,109.423,1,61.3328,0\H,13,1.09034,10,108.592,1,179.398,0\H,13,1.1,10,111.879,1,-59.8808,0\O,2,1.85734,1,138.368,3,-160.293,0\C,17,1.24953,2,88.8936,1,142.074,0\O,18,1.25283,17,122.197,2,23.3439,0\C,18,1.52631,17,117.782,2,-156.089,0\H,20,1.09098,18,109.593,17,-50.2688,0\H,20,1.09125,18,107.815,17,67.1839,0\H,20,1.1,18,112.675,17,-171.046,0\\\@

 Total job time:  43918.89s(wall), 28215.07s(cpu) 
 Mon Sep 27 01:41:47 2021

        *************************************************************
        *                                                           *
        *  Thank you very much for using Q-Chem.  Have a nice day.  *
        *                                                           *
        *************************************************************


