
Running Job 1 of 1 SSI-046ARG-273GLU-1_SMD_TZVPD.in
qchem SSI-046ARG-273GLU-1_SMD_TZVPD.in_50578.0 /tmp/qchem50578/ 0
/global/common/cori/software/qchem/5.2/exe/qcprog.exe_s SSI-046ARG-273GLU-1_SMD_TZVPD.in_50578.0 /tmp/qchem50578/
                  Welcome to Q-Chem
     A Quantum Leap Into The Future Of Chemistry


 Q-Chem 5.2, Q-Chem, Inc., Pleasanton, CA (2019)

 License issued to: National Energy Research Scientific Computing Center

 Yihan Shao,  Zhengting Gan,  E. Epifanovsky,  A. T. B. Gilbert,  M. Wormit,  
 J. Kussmann,  A. W. Lange,  A. Behn,  Jia Deng,  Xintian Feng,  D. Ghosh,  
 M. Goldey,  P. R. Horn,  L. D. Jacobson,  I. Kaliman,  T. Kus,  A. Landau,  
 Jie Liu,  E. I. Proynov,  R. M. Richard,  R. P. Steele,  E. J. Sundstrom,  
 H. L. Woodcock III,  P. M. Zimmerman,  D. Zuev,  B. Albrecht,  E. Alguire,  
 S. A. Baeppler,  D. Barton,  Z. Benda,  Y. A. Bernard,  E. J. Berquist,  
 K. B. Bravaya,  H. Burton,  D. Casanova,  Chun-Min Chang,  Yunqing Chen,  
 A. Chien,  K. D. Closser,  M. P. Coons,  S. Coriani,  S. Dasgupta,  
 A. L. Dempwolff,  M. Diedenhofen,  Hainam Do,  R. G. Edgar,  Po-Tung Fang,  
 S. Faraji,  S. Fatehi,  Qingguo Feng,  K. D. Fenk,  J. Fosso-Tande,  
 J. Gayvert,  Qinghui Ge,  A. Ghysels,  G. Gidofalvi,  J. Gomes,  
 J. Gonthier,  A. Gunina,  D. Hait,  M. W. D. Hanson-Heine,  
 P. H. P. Harbach,  A. W. Hauser,  M. F. Herbst,  J. E. Herr,  
 E. G. Hohenstein,  Z. C. Holden,  Kerwin Hui,  B. C. Huynh,  T.-C. Jagau,  
 Hyunjun Ji,  B. Kaduk,  K. Khistyaev,  Jaehoon Kim,  P. Klunzinger,  K. Koh,  
 D. Kosenkov,  L. Koulias,  T. Kowalczyk,  C. M. Krauter,  A. Kunitsa,  
 Ka Un Lao,  A. Laurent,  K. V. Lawler,  Joonho Lee,  D. Lefrancois,  
 S. Lehtola,  D. S. Levine,  Yi-Pei Li,  You-Sheng Lin,  Fenglai Liu,  
 E. Livshits,  A. Luenser,  P. Manohar,  E. Mansoor,  S. F. Manzer,  
 Shan-Ping Mao,  Yuezhi Mao,  N. Mardirossian,  A. V. Marenich,  
 T. Markovich,  L. A. Martinez-Martinez,  S. A. Maurer,  N. J. Mayhall,  
 S. C. McKenzie,  J.-M. Mewes,  P. Morgante,  A. F. Morrison,  
 J. W. Mullinax,  K. Nanda,  T. S. Nguyen-Beck,  R. Olivares-Amaya,  
 J. A. Parkhill,  Zheng Pei,  T. M. Perrine,  F. Plasser,  P. Pokhilko,  
 S. Prager,  A. Prociuk,  E. Ramos,  D. R. Rehn,  F. Rob,  M. Scheurer,  
 M. Schneider,  N. Sergueev,  S. M. Sharada,  S. Sharma,  D. W. Small,  
 T. Stauch,  T. Stein,  Yu-Chuan Su,  A. J. W. Thom,  A. Tkatchenko,  
 T. Tsuchimochi,  N. M. Tubman,  L. Vogt,  M. L. Vidal,  O. Vydrov,  
 M. A. Watson,  J. Wenzel,  M. de Wergifosse,  T. A. Wesolowski,  A. White,  
 J. Witte,  A. Yamada,  Jun Yang,  K. Yao,  S. Yeganeh,  S. R. Yost,  
 Zhi-Qiang You,  A. Zech,  Igor Ying Zhang,  Xing Zhang,  Yan Zhao,  
 Ying Zhu,  B. R. Brooks,  G. K. L. Chan,  C. J. Cramer,  M. S. Gordon,  
 W. J. Hehre,  A. Klamt,  M. W. Schmidt,  C. D. Sherrill,  D. G. Truhlar,  
 A. Aspuru-Guzik,  R. Baer,  A. T. Bell,  N. A. Besley,  Jeng-Da Chai,  
 A. E. DePrince, III,  R. A. DiStasio Jr.,  A. Dreuw,  B. D. Dunietz,  
 T. R. Furlani,  Chao-Ping Hsu,  Yousung Jung,  Jing Kong,  D. S. Lambrecht,  
 WanZhen Liang,  C. Ochsenfeld,  V. A. Rassolov,  L. V. Slipchenko,  
 J. E. Subotnik,  T. Van Voorhis,  J. M. Herbert,  A. I. Krylov,  
 P. M. W. Gill,  M. Head-Gordon

 Contributors to earlier versions of Q-Chem not listed above: 
 R. D. Adamson,  B. Austin,  J. Baker,  G. J. O. Beran,  K. Brandhorst,  
 S. T. Brown,  E. F. C. Byrd,  A. K. Chakraborty,  C.-L. Cheng,  
 Siu Hung Chien,  D. M. Chipman,  D. L. Crittenden,  H. Dachsel,  
 R. J. Doerksen,  A. D. Dutoi,  L. Fusti-Molnar,  W. A. Goddard III,  
 A. Golubeva-Zadorozhnaya,  S. R. Gwaltney,  G. Hawkins,  A. Heyden,  
 S. Hirata,  G. Kedziora,  F. J. Keil,  C. Kelley,  Jihan Kim,  R. A. King,  
 R. Z. Khaliullin,  P. P. Korambath,  W. Kurlancheek,  A. M. Lee,  M. S. Lee,  
 S. V. Levchenko,  Ching Yeh Lin,  D. Liotard,  R. C. Lochan,  I. Lotan,  
 P. E. Maslen,  N. Nair,  D. P. O'Neill,  D. Neuhauser,  E. Neuscamman,  
 C. M. Oana,  R. Olson,  B. Peters,  R. Peverati,  P. A. Pieniazek,  
 Y. M. Rhee,  J. Ritchie,  M. A. Rohrdanz,  E. Rosta,  N. J. Russ,  
 H. F. Schaefer III,  N. E. Schultz,  N. Shenvi,  A. C. Simmonett,  A. Sodt,  
 D. Stuck,  K. S. Thanthiriwatte,  V. Vanovschi,  Tao Wang,  A. Warshel,  
 C. F. Williams,  Q. Wu,  X. Xu,  W. Zhang

 Please cite Q-Chem as follows:
 Y. Shao et al., Mol. Phys. 113, 184-215 (2015)
 DOI: 10.1080/00268976.2014.952696

 Q-Chem 5.2.0 for Intel X86 EM64T Linux

 Parts of Q-Chem use Armadillo 8.300.2 (Tropical Shenanigans).
 http://arma.sourceforge.net/

 Q-Chem begins on Sun Sep 26 07:54:24 2021  

Host: cori01
0

     Scratch files written to /tmp/qchem50578//
 May1019 |scratch|qcdevops|jenkins|workspace|build_RNUM -1
Processing $rem in /global/common/cori/software/qchem/5.2/config/preferences:
	 MEM_TOTAL  96000 
NAlpha2: 72
NElect   72
Mult     1
Symmetry turned off for PCM/SM12/SMD calculation

 Q-Chem warning in module libgen/rem_setup.C, line 2803:

 Neither GIA nor STOLL is specified by user. Use STOLL as the default


Checking the input file for inconsistencies... 	...done.

--------------------------------------------------------------
User input:
--------------------------------------------------------------
$comment
SSI-046ARG-273GLU-1.pdb
$end

$molecule
0 1
--
1 1
C   -3.088684096063   -1.304691988763   -1.943861513549
C   -1.169684096063   -1.014691988763   -0.434861513549
N   -0.791684096063    0.055308011237   -1.111861513549
N   -2.250684096063   -1.689691988763   -0.813861513549
N   -0.493684096063   -1.376691988763    0.644138486451
H   -1.320684096063    0.362308011237   -1.917861513549
H    0.045315903937    0.560308011237   -0.824861513549
H   -2.492684096063   -2.530691988763   -0.308861513549
H   -0.797684096063   -2.162691988763    1.204138486451
H    0.327315903937   -0.846691988763    0.927138486451
H   -3.685684096063   -2.161691988763   -2.242861513549
H   -2.438684096063   -1.019691988763   -2.773861513549
H   -3.747304096063   -0.463081988763   -1.683261513549
--
-1 1
C    2.944315903937    2.307308011237    1.323138486451
C    1.893315903937    1.264308011237    0.905138486451
O    1.784315903937    1.017308011237   -0.302861513549
O    1.157315903937    0.715308011237    1.751138486451
H    2.707315903937    3.262308011237    0.845138486451
H    3.927315903937    1.978308011237    0.977138486451
H    3.023585903937    2.450268011237    2.410928486451
$end

$rem
JOBTYPE			EDA
EDA2			1
method			wB97X-V
BASIS			def2-TZVPD
XC_GRID			000099000590
NL_GRID			1
UNRESTRICTED		FALSE
MAX_SCF_CYCLES		200
SYMMETRY		FALSE
SYM_IGNORE		TRUE
MEM_STATIC		2000
BASIS_LIN_DEP_THRESH 	6
THRESH 			14
SCF_CONVERGENCE 	8
SCF_PRINT_FRGM 		TRUE
SOLVENT_METHOD          SMD
$end

$SMX
SOLVENT			WATER
$END
--------------------------------------------------------------
 ----------------------------------------------------------------
             Standard Nuclear Orientation (Angstroms)
    I     Atom           X                Y                Z
 ----------------------------------------------------------------
    1      C      -3.0886840961    -1.3046919888    -1.9438615135
    2      C      -1.1696840961    -1.0146919888    -0.4348615135
    3      N      -0.7916840961     0.0553080112    -1.1118615135
    4      N      -2.2506840961    -1.6896919888    -0.8138615135
    5      N      -0.4936840961    -1.3766919888     0.6441384865
    6      H      -1.3206840961     0.3623080112    -1.9178615135
    7      H       0.0453159039     0.5603080112    -0.8248615135
    8      H      -2.4926840961    -2.5306919888    -0.3088615135
    9      H      -0.7976840961    -2.1626919888     1.2041384865
   10      H       0.3273159039    -0.8466919888     0.9271384865
   11      H      -3.6856840961    -2.1616919888    -2.2428615135
   12      H      -2.4386840961    -1.0196919888    -2.7738615135
   13      H      -3.7473040961    -0.4630819888    -1.6832615135
   14      C       2.9443159039     2.3073080112     1.3231384865
   15      C       1.8933159039     1.2643080112     0.9051384865
   16      O       1.7843159039     1.0173080112    -0.3028615135
   17      O       1.1573159039     0.7153080112     1.7511384865
   18      H       2.7073159039     3.2623080112     0.8451384865
   19      H       3.9273159039     1.9783080112     0.9771384865
   20      H       3.0235859039     2.4502680112     2.4109284865
 ----------------------------------------------------------------
 Nuclear Repulsion Energy =         459.81508647 hartrees
 There are       36 alpha and       36 beta electrons
 Requested basis set is def2-TZVPD
 There are 174 shells and 438 basis functions

 Total QAlloc Memory Limit  96000 MB
 Mega-Array Size      1956 MB
 MEM_STATIC part      2000 MB
 
 Citation of the SMD model:
 Marenich, A.V.; Cramer, C.J.; Truhlar, D.G.
 J. Phys. Chem. B 2009, 113, 6378-6396.
 iSolventCode=           1
 Solvent: water                                                           
 
 vradii
            1           2           3           4           5           6
    1   1.8500000   1.8500000   1.8900000   1.8900000   1.8900000   1.2000000
            7           8           9          10          11          12
    1   1.2000000   1.2000000   1.2000000   1.2000000   1.2000000   1.2000000
           13          14          15          16          17          18
    1   1.2000000   1.8500000   1.8500000   1.5200000   1.5200000   1.2000000
           19          20
    1   1.2000000   1.2000000
 Changing PCM_VDW_RADII to SMD_RADIUS
 Discretize the solute cavity surface with Lebedev spheres
	Using 110 Lebedev grid points for each H atom
	Using 194 Lebedev grid points for other atoms
	Atomic van der Waals radii will be scaled by 1.20
 Remove points where switching function is < 1.0e-08
 Keep 1483 surface tesserae and discard 1473 interior tesserae
 Molecular Surface Area = 178.333 Angst**2
 A cutoff of  1.0D-14 yielded  13428 shell pairs
 There are     86054 function pairs (    108204 Cartesian)
 Smallest overlap matrix eigenvalue = 8.71E-06

 Scale SEOQF with 1.000000e-01/1.000000e-01/1.000000e-01

 Standard Electronic Orientation quadrupole field applied
 Nucleus-field energy     =     0.0000000087 hartrees

 -----------------------------------------------------------------------
  General SCF calculation program by
  Eric Jon Sundstrom, Paul Horn, Yuezhi Mao, Dmitri Zuev, Alec White,
  David Stuck, Shaama M.S., Shane Yost, Joonho Lee, David Small,
  Daniel Levine, Susi Lehtola, Hugh Burton, Evgeny Epifanovsky
 -----------------------------------------------------------------------
================================================================
                 ALMO-EDA with the EDA2 driver                  
================================================================
 The second-generation ALMO-EDA (for DFT):                      
 P. R. Horn, Y. Mao and M. Head-Gordon, PCCP, 18, 23067 (2016)  
 Decomposition of the frozen energy:                            
 P. R. Horn, Y. Mao and M. Head-Gordon, JCP, 144, 114107 (2016) 
 FERF model for polarization:                                   
 P. R. Horn and M. Head-Gordon, JCP, 143, 114111 (2015)         
Using eda2 option set 1
Option set summary: Frozen orbital wavefunction, initial wavefunction decomposition, and nDQ polarization.
--------------------------------
Printing EDA Options
--------------------------------
eda_child_super_basis      0
fragmo_guess_mode          0
child_mp                   1
child_mp_orders            232
cls_elec                   1
cls_disp                   0
scfmi_mode                 1
scfmi_occs                 0
scfmi_virts                0
frz_relax                  0
frz_relax_method           0
dc_pen_start               0
dc_pen_conv                0
dc_pen_increment           0
dc_pen_steps               0
dc_pen_thresh_factor       0
dc_pen_pre_newton_thresh   0
frz_ortho_decomp           1
frz_ortho_decomp_conv      6
frgm_method                2
scfmi_freeze_ss            0
separate_rehyb             0
plot_diff_den              0
eda_nocv                   0
eda_vct_relax              1
disp_free_x                0
disp_free_c                0
eda_bsse                   0
eda_pct_a                  0
eda_covp                   0
--------------------------------
Attempting to make child job directory: /tmp/qchem50578//Frg1/
Attempting to make child job directory: /tmp/qchem50578//Frg2/
Creating input file /tmp/qchem50578/Frg1.input
using default PutDataFrgm: nothing
calling putenv with: QCSCRATCH=/tmp/qchem50578/ 
calling putenv with: QCLOCALSCR=/tmp/qchem50578/ 
Spawning Job For Fragment 0
                  Welcome to Q-Chem
     A Quantum Leap Into The Future Of Chemistry


 Q-Chem 5.2, Q-Chem, Inc., Pleasanton, CA (2019)

 License issued to: National Energy Research Scientific Computing Center

 Yihan Shao,  Zhengting Gan,  E. Epifanovsky,  A. T. B. Gilbert,  M. Wormit,  
 J. Kussmann,  A. W. Lange,  A. Behn,  Jia Deng,  Xintian Feng,  D. Ghosh,  
 M. Goldey,  P. R. Horn,  L. D. Jacobson,  I. Kaliman,  T. Kus,  A. Landau,  
 Jie Liu,  E. I. Proynov,  R. M. Richard,  R. P. Steele,  E. J. Sundstrom,  
 H. L. Woodcock III,  P. M. Zimmerman,  D. Zuev,  B. Albrecht,  E. Alguire,  
 S. A. Baeppler,  D. Barton,  Z. Benda,  Y. A. Bernard,  E. J. Berquist,  
 K. B. Bravaya,  H. Burton,  D. Casanova,  Chun-Min Chang,  Yunqing Chen,  
 A. Chien,  K. D. Closser,  M. P. Coons,  S. Coriani,  S. Dasgupta,  
 A. L. Dempwolff,  M. Diedenhofen,  Hainam Do,  R. G. Edgar,  Po-Tung Fang,  
 S. Faraji,  S. Fatehi,  Qingguo Feng,  K. D. Fenk,  J. Fosso-Tande,  
 J. Gayvert,  Qinghui Ge,  A. Ghysels,  G. Gidofalvi,  J. Gomes,  
 J. Gonthier,  A. Gunina,  D. Hait,  M. W. D. Hanson-Heine,  
 P. H. P. Harbach,  A. W. Hauser,  M. F. Herbst,  J. E. Herr,  
 E. G. Hohenstein,  Z. C. Holden,  Kerwin Hui,  B. C. Huynh,  T.-C. Jagau,  
 Hyunjun Ji,  B. Kaduk,  K. Khistyaev,  Jaehoon Kim,  P. Klunzinger,  K. Koh,  
 D. Kosenkov,  L. Koulias,  T. Kowalczyk,  C. M. Krauter,  A. Kunitsa,  
 Ka Un Lao,  A. Laurent,  K. V. Lawler,  Joonho Lee,  D. Lefrancois,  
 S. Lehtola,  D. S. Levine,  Yi-Pei Li,  You-Sheng Lin,  Fenglai Liu,  
 E. Livshits,  A. Luenser,  P. Manohar,  E. Mansoor,  S. F. Manzer,  
 Shan-Ping Mao,  Yuezhi Mao,  N. Mardirossian,  A. V. Marenich,  
 T. Markovich,  L. A. Martinez-Martinez,  S. A. Maurer,  N. J. Mayhall,  
 S. C. McKenzie,  J.-M. Mewes,  P. Morgante,  A. F. Morrison,  
 J. W. Mullinax,  K. Nanda,  T. S. Nguyen-Beck,  R. Olivares-Amaya,  
 J. A. Parkhill,  Zheng Pei,  T. M. Perrine,  F. Plasser,  P. Pokhilko,  
 S. Prager,  A. Prociuk,  E. Ramos,  D. R. Rehn,  F. Rob,  M. Scheurer,  
 M. Schneider,  N. Sergueev,  S. M. Sharada,  S. Sharma,  D. W. Small,  
 T. Stauch,  T. Stein,  Yu-Chuan Su,  A. J. W. Thom,  A. Tkatchenko,  
 T. Tsuchimochi,  N. M. Tubman,  L. Vogt,  M. L. Vidal,  O. Vydrov,  
 M. A. Watson,  J. Wenzel,  M. de Wergifosse,  T. A. Wesolowski,  A. White,  
 J. Witte,  A. Yamada,  Jun Yang,  K. Yao,  S. Yeganeh,  S. R. Yost,  
 Zhi-Qiang You,  A. Zech,  Igor Ying Zhang,  Xing Zhang,  Yan Zhao,  
 Ying Zhu,  B. R. Brooks,  G. K. L. Chan,  C. J. Cramer,  M. S. Gordon,  
 W. J. Hehre,  A. Klamt,  M. W. Schmidt,  C. D. Sherrill,  D. G. Truhlar,  
 A. Aspuru-Guzik,  R. Baer,  A. T. Bell,  N. A. Besley,  Jeng-Da Chai,  
 A. E. DePrince, III,  R. A. DiStasio Jr.,  A. Dreuw,  B. D. Dunietz,  
 T. R. Furlani,  Chao-Ping Hsu,  Yousung Jung,  Jing Kong,  D. S. Lambrecht,  
 WanZhen Liang,  C. Ochsenfeld,  V. A. Rassolov,  L. V. Slipchenko,  
 J. E. Subotnik,  T. Van Voorhis,  J. M. Herbert,  A. I. Krylov,  
 P. M. W. Gill,  M. Head-Gordon

 Contributors to earlier versions of Q-Chem not listed above: 
 R. D. Adamson,  B. Austin,  J. Baker,  G. J. O. Beran,  K. Brandhorst,  
 S. T. Brown,  E. F. C. Byrd,  A. K. Chakraborty,  C.-L. Cheng,  
 Siu Hung Chien,  D. M. Chipman,  D. L. Crittenden,  H. Dachsel,  
 R. J. Doerksen,  A. D. Dutoi,  L. Fusti-Molnar,  W. A. Goddard III,  
 A. Golubeva-Zadorozhnaya,  S. R. Gwaltney,  G. Hawkins,  A. Heyden,  
 S. Hirata,  G. Kedziora,  F. J. Keil,  C. Kelley,  Jihan Kim,  R. A. King,  
 R. Z. Khaliullin,  P. P. Korambath,  W. Kurlancheek,  A. M. Lee,  M. S. Lee,  
 S. V. Levchenko,  Ching Yeh Lin,  D. Liotard,  R. C. Lochan,  I. Lotan,  
 P. E. Maslen,  N. Nair,  D. P. O'Neill,  D. Neuhauser,  E. Neuscamman,  
 C. M. Oana,  R. Olson,  B. Peters,  R. Peverati,  P. A. Pieniazek,  
 Y. M. Rhee,  J. Ritchie,  M. A. Rohrdanz,  E. Rosta,  N. J. Russ,  
 H. F. Schaefer III,  N. E. Schultz,  N. Shenvi,  A. C. Simmonett,  A. Sodt,  
 D. Stuck,  K. S. Thanthiriwatte,  V. Vanovschi,  Tao Wang,  A. Warshel,  
 C. F. Williams,  Q. Wu,  X. Xu,  W. Zhang

 Please cite Q-Chem as follows:
 Y. Shao et al., Mol. Phys. 113, 184-215 (2015)
 DOI: 10.1080/00268976.2014.952696

 Q-Chem 5.2.0 for Intel X86 EM64T Linux

 Parts of Q-Chem use Armadillo 8.300.2 (Tropical Shenanigans).
 http://arma.sourceforge.net/

 Q-Chem begins on Sun Sep 26 07:54:30 2021  

Host: cori01
0

     Scratch files written to /tmp/qchem50578//Frg1//
 May1019 |scratch|qcdevops|jenkins|workspace|build_RNUM -1
Processing $rem in /global/common/cori/software/qchem/5.2/config/preferences:
	 MEM_TOTAL  96000 
NAlpha2: 40
NElect   40
Mult     1
Symmetry turned off for PCM/SM12/SMD calculation

Checking the input file for inconsistencies... 	...done.

--------------------------------------------------------------
User input:
--------------------------------------------------------------
$molecule
1 1
 6	-3.0886840961	-1.3046919888	-1.9438615135
 6	-1.1696840961	-1.0146919888	-0.4348615135
 7	-0.7916840961	0.0553080112	-1.1118615135
 7	-2.2506840961	-1.6896919888	-0.8138615135
 7	-0.4936840961	-1.3766919888	0.6441384865
 1	-1.3206840961	0.3623080112	-1.9178615135
 1	0.0453159039	0.5603080112	-0.8248615135
 1	-2.4926840961	-2.5306919888	-0.3088615135
 1	-0.7976840961	-2.1626919888	1.2041384865
 1	0.3273159039	-0.8466919888	0.9271384865
 1	-3.6856840961	-2.1616919888	-2.2428615135
 1	-2.4386840961	-1.0196919888	-2.7738615135
 1	-3.7473040961	-0.4630819888	-1.6832615135
$end
$rem
EDA2		1
METHOD		WB97X-V
BASIS		DEF2-TZVPD
XC_GRID		000099000590
NL_GRID		1
UNRESTRICTED		FALSE
MAX_SCF_CYCLES		200
SYMMETRY		FALSE
SYM_IGNORE		TRUE
BASIS_LIN_DEP_THRESH		6
THRESH		14
SCF_CONVERGENCE		8
SCF_PRINT_FRGM		TRUE
SOLVENT_METHOD		SMD
!required keywords
JOBTYPE		SP
SYM_IGNORE		TRUE
SUBSYSTEM		TRUE
GEN_SCFMAN		TRUE
CHILD_INSTRUCTION		2
SYM_IGNORE		TRUE
SCFMI		0
RI_K 0		
PARI_K 0		
MIN_PARI_K 0		
IARI_K 0		
OCC_RI_K 0		
PURECART		1111
MEM_STATIC		2000
MEM_TOTAL		96000
GUI		0
CHILD_MP		1
CHILD_MP_ORDERS		232
FRZ_RELAX		0
FRZ_RELAX_METHOD		0
EDA_CLS_ELEC		1
EDA_CLS_DISP		0
FRZ_ORTHO_DECOMP		1
EDA2		FALSE
FRGM_METHOD		FALSE
CIS_N_ROOTS  0
LOCAL_CIS    0
CIS_RLX_DNS  1
$end
$smx
SOLVENT			WATER
$end
--------------------------------------------------------------
 ----------------------------------------------------------------
             Standard Nuclear Orientation (Angstroms)
    I     Atom           X                Y                Z
 ----------------------------------------------------------------
    1      C      -3.0886840961    -1.3046919888    -1.9438615135
    2      C      -1.1696840961    -1.0146919888    -0.4348615135
    3      N      -0.7916840961     0.0553080112    -1.1118615135
    4      N      -2.2506840961    -1.6896919888    -0.8138615135
    5      N      -0.4936840961    -1.3766919888     0.6441384865
    6      H      -1.3206840961     0.3623080112    -1.9178615135
    7      H       0.0453159039     0.5603080112    -0.8248615135
    8      H      -2.4926840961    -2.5306919888    -0.3088615135
    9      H      -0.7976840961    -2.1626919888     1.2041384865
   10      H       0.3273159039    -0.8466919888     0.9271384865
   11      H      -3.6856840961    -2.1616919888    -2.2428615135
   12      H      -2.4386840961    -1.0196919888    -2.7738615135
   13      H      -3.7473040961    -0.4630819888    -1.6832615135
 ----------------------------------------------------------------
 Nuclear Repulsion Energy =         194.31784843 hartrees
 There are       20 alpha and       20 beta electrons
 Requested basis set is def2-TZVPD
 There are 105 shells and 257 basis functions

 Total QAlloc Memory Limit  96000 MB
 Mega-Array Size      1956 MB
 MEM_STATIC part      2000 MB
 
 Citation of the SMD model:
 Marenich, A.V.; Cramer, C.J.; Truhlar, D.G.
 J. Phys. Chem. B 2009, 113, 6378-6396.
 iSolventCode=           1
 Solvent: water                                                           
 
 vradii
            1           2           3           4           5           6
    1   1.8500000   1.8500000   1.8900000   1.8900000   1.8900000   1.2000000
            7           8           9          10          11          12
    1   1.2000000   1.2000000   1.2000000   1.2000000   1.2000000   1.2000000
           13
    1   1.2000000
 Changing PCM_VDW_RADII to SMD_RADIUS
 Discretize the solute cavity surface with Lebedev spheres
	Using 110 Lebedev grid points for each H atom
	Using 194 Lebedev grid points for other atoms
	Atomic van der Waals radii will be scaled by 1.20
 Remove points where switching function is < 1.0e-08
 Keep 905 surface tesserae and discard 945 interior tesserae
 Molecular Surface Area = 113.518 Angst**2

                       Distance Matrix (Angstroms)
             C (  1)   C (  2)   N (  3)   N (  4)   N (  5)   H (  6)
   C (  2)  2.458402
   N (  3)  2.796075  1.321406
   N (  4)  1.458550  1.329597  2.294016
   N (  5)  3.665645  1.323730  2.285380  2.304513
   H (  6)  2.430101  2.029340  1.011793  2.508868  3.204980
   H (  7)  3.814753  2.027055  1.018805  3.214691  2.490070  1.760627
   H (  8)  2.128736  2.016051  3.197750  1.010381  2.497184  3.511683
   H (  9)  3.986822  2.035340  3.206777  2.531257  1.011836  4.049202
   H ( 10)  4.485695  2.030832  2.494651  3.223013  1.017364  3.503086
   H ( 11)  1.086397  3.303745  3.817000  2.079435  4.374912  3.474108
   H ( 12)  1.092074  2.661073  2.574971  2.079866  3.948822  1.972963
   H ( 13)  1.100000  2.916659  3.054655  2.121391  4.103354  2.573867
             H (  7)   H (  8)   H (  9)   H ( 10)   H ( 11)   H ( 12)
   H (  8)  4.032615
   H (  9)  3.498888  2.301655
   H ( 10)  2.264658  3.509409  1.753343
   H ( 11)  4.831187  2.302122  4.496927  5.280369
   H ( 12)  3.530617  2.891758  4.452394  4.623644  1.772324
   H ( 13)  4.020963  2.781736  4.463856  4.854263  1.789476  1.792124

 
 A cutoff of  1.0D-14 yielded   5441 shell pairs
 There are     33169 function pairs (     41505 Cartesian)
 Smallest overlap matrix eigenvalue = 1.66E-05

 Scale SEOQF with 1.000000e-01/1.000000e-01/1.000000e-01

 Standard Electronic Orientation quadrupole field applied
 Nucleus-field energy     =     0.0000000035 hartrees
 Guess from superposition of atomic densities
 Warning:  Energy on first SCF cycle will be non-variational
 SAD guess density has 40.388232 electrons

 -----------------------------------------------------------------------
  General SCF calculation program by
  Eric Jon Sundstrom, Paul Horn, Yuezhi Mao, Dmitri Zuev, Alec White,
  David Stuck, Shaama M.S., Shane Yost, Joonho Lee, David Small,
  Daniel Levine, Susi Lehtola, Hugh Burton, Evgeny Epifanovsky
 -----------------------------------------------------------------------
 Exchange:     0.1670 Hartree-Fock + 1.0000 wB97X-V + LR-HF
 Correlation:  1.0000 wB97X-V
 Using Euler-Maclaurin-Lebedev (99,590) quadrature formula
 Nonlocal Correlation:  VV10 with C = 0.0100 and b = 6.00 and scale = 1.00000
 Grid used for NLC:  SG-1 standard quadrature
Energy prior to optimization (guess energy) = -244.725645977662
Begin Timing: Total SCF Calculation
begin iterations for algorithm: DIIS         
the SCF tolerance is set to 1.00e-08
    1    -244.7256459777      7.93e-03     00000 
    2    -244.9631993293      6.26e-03     00000 
    3    -245.2058528020      3.31e-04     00000 
    4    -245.2067912765      1.72e-04     00000 
    5    -245.2070219539      4.52e-05     00000 
    6    -245.2070394203      1.93e-05     00000 
    7    -245.2070424476      3.24e-06     00000 
    8    -245.2070426221      9.24e-07     00000 
    9    -245.2070426347      3.80e-07     00000 
   10    -245.2070426372      9.99e-08     00000 
   11    -245.2070426374      4.93e-08     00000 
   12    -245.2070426374      1.51e-08     00000 
   13    -245.2070426375      2.09e-09     00000 Convergence criterion met
Timing for Total SCF: 699.00s (wall), 1388.95s (cpu)
(3)  G-ENP(liq) elect-nuc-pol free energy of system     -245.207042637 a.u.
(4)  G-CDS(liq) cavity-dispersion-solvent structure 
     free energy                                                2.7223 kcal/mol
(6)  G-S(liq) free energy of system                     -245.202704357 a.u.
E_pcm = -0.1082981201
E_cds = 0.0043382800
Multipole orders to be included
        2
        3
computing dipole RHS
computing quadrupole RHS
total number of RHS in solve_reponses: 8
RHS batch sizes
        8
Beginning Block Conjugate Gradient Iterations. Batch Number: 0
computing hessian-vector products by finite difference
              1      4.66e-01     00000 Conjugate Gradient Iteration
computing hessian-vector products by finite difference
              2      1.62e-01     00000 Conjugate Gradient Iteration
computing hessian-vector products by finite difference
              3      4.62e-02     00000 Conjugate Gradient Iteration
computing hessian-vector products by finite difference
              4      1.27e-02     00000 Conjugate Gradient Iteration
computing hessian-vector products by finite difference
              5      1.78e-03     00000 Conjugate Gradient Iteration
computing hessian-vector products by finite difference
              6      3.02e-04     00000 Conjugate Gradient Iteration
computing hessian-vector products by finite difference
              7      4.11e-05     00000 Conjugate Gradient Iteration
computing hessian-vector products by finite difference
              8      5.52e-06     00000 Conjugate Gradient Iteration
computing hessian-vector products by finite difference
              9      1.30e-06     00000 Conjugate Gradient Iteration
computing hessian-vector products by finite difference
             10      2.63e-07     00000 Conjugate Gradient Iteration
computing hessian-vector products by finite difference
             11      3.81e-08     00000 Conjugate Gradient Iteration
computing hessian-vector products by finite difference
             12      5.30e-09     00000 CG Converged
batch 0 complete
Done Calculating Responses
TESTING ORTHOGONALIZATION OF MULTIPOLE BASIS
Multipole virts passed orthogonality test
Virts Per Order
           60
          100
 
 --------------------------------------------------------------
 
                    Orbital Energies (a.u.)
 --------------------------------------------------------------
 
 Alpha MOs
 -- Occupied --
-14.4540 -14.4493 -14.4466 -10.4229 -10.3043  -1.1713  -1.0549  -1.0400
 -0.8522  -0.7637  -0.7236  -0.6843  -0.6142  -0.6111  -0.5960  -0.5686
 -0.5252  -0.5087  -0.3988  -0.3756
 -- Virtual --
  0.0588   0.0847   0.0979   0.1029   0.1235   0.1253   0.1369   0.1502
  0.1728   0.1793   0.1917   0.2012   0.2022   0.2113   0.2216   0.2405
  0.2421   0.2451   0.2507   0.2731   0.2803   0.2866   0.2943   0.3045
  0.3137   0.3187   0.3233   0.3295   0.3389   0.3438   0.3530   0.3597
  0.3672   0.3768   0.3792   0.3997   0.4076   0.4113   0.4143   0.4326
  0.4428   0.4478   0.4602   0.4632   0.4703   0.4773   0.4901   0.5008
  0.5013   0.5088   0.5201   0.5231   0.5299   0.5377   0.5486   0.5529
  0.5605   0.5715   0.5811   0.5870   0.6137   0.6271   0.6402   0.6570
  0.6591   0.6776   0.6822   0.7042   0.7222   0.7302   0.7526   0.7641
  0.7934   0.8006   0.8156   0.8349   0.8381   0.8481   0.8581   0.8692
  0.8829   0.8936   0.9042   0.9230   0.9378   0.9801   0.9887   1.0035
  1.0391   1.0663   1.0793   1.0960   1.1143   1.1198   1.1327   1.1476
  1.1527   1.1724   1.2265   1.2529   1.2677   1.3382   1.3700   1.4196
  1.4276   1.4521   1.4748   1.4943   1.5609   1.5649   1.6575   1.6679
  1.6756   1.7074   1.7552   1.8022   1.8413   1.8562   1.8741   1.8921
  1.9082   1.9251   1.9324   1.9814   1.9962   2.0159   2.0357   2.0697
  2.1166   2.1266   2.1784   2.1986   2.2115   2.2504   2.2661   2.3175
  2.3302   2.3474   2.3893   2.4189   2.4350   2.4856   2.4912   2.5294
  2.5605   2.5842   2.6245   2.6287   2.6528   2.6702   2.7074   2.7446
  2.7944   2.8181   2.8493   2.8919   2.9024   2.9202   2.9483   2.9680
  3.0617   3.1337   3.1479   3.1534   3.1748   3.2131   3.2299   3.2560
  3.2664   3.3041   3.3158   3.3252   3.3597   3.4043   3.4332   3.4366
  3.4694   3.5052   3.5324   3.5845   3.6160   3.6387   3.6891   3.7475
  3.8130   3.8804   3.9552   3.9688   4.0945   4.1552   4.1666   4.2544
  4.2923   4.3068   4.3383   4.3513   4.3663   4.4930   4.5855   4.6149
  4.6910   4.8453   4.8636   4.8728   4.9395   4.9993   5.0183   5.0584
  5.1231   5.1235   5.1440   5.1780   5.1935   5.2170   5.2754   5.3672
  5.3875   5.4118   5.4287   5.4449   5.4991   5.5069   5.5760   5.6488
  5.6978   5.7848   5.8108   5.8905   6.1564   6.1675   6.3812   6.4605
 22.6810  23.6291  32.3365  32.4544  32.8156
 --------------------------------------------------------------
 
          Ground-State Mulliken Net Atomic Charges

     Atom                 Charge (a.u.)
  ----------------------------------------
      1 C                    -0.810359
      2 C                     0.437302
      3 N                    -0.290786
      4 N                    -0.098582
      5 N                    -0.315281
      6 H                     0.201430
      7 H                     0.246599
      8 H                     0.286009
      9 H                     0.248341
     10 H                     0.252077
     11 H                     0.281028
     12 H                     0.299400
     13 H                     0.262823
  ----------------------------------------
  Sum of atomic charges =     1.000000

 -----------------------------------------------------------------
                    Cartesian Multipole Moments
 -----------------------------------------------------------------
    Charge (ESU x 10^10)
                 4.8032
    Dipole Moment (Debye)
         X      -6.0511      Y      -4.9428      Z      -2.3830
       Tot       8.1685
    Quadrupole Moments (Debye-Ang)
        XX     -12.6915     XY      12.2475     YY     -16.4858
        XZ       9.2685     YZ      -2.5124     ZZ     -19.9738
    Octopole Moments (Debye-Ang^2)
       XXX      96.5475    XXY       0.1224    XYY      17.8386
       YYY      63.0009    XXZ      -1.8888    XYZ      -6.8945
       YYZ      26.6002    XZZ      29.1060    YZZ      24.9121
       ZZZ      56.4028
    Hexadecapole Moments (Debye-Ang^3)
      XXXX    -553.7985   XXXY     -90.6334   XXYY     -89.6923
      XYYY    -101.3842   YYYY    -233.0613   XXXZ    -102.8114
      XXYZ      10.9300   XYYZ     -48.2226   YYYZ     -73.1634
      XXZZ    -116.2731   XYZZ     -41.1885   YYZZ     -84.0624
      XZZZ    -142.6262   YZZZ     -63.2760   ZZZZ    -264.3608
 -----------------------------------------------------------------
Archival summary:
1\1\nid00571\SP\ProcedureUnspecified\BasisUnspecified\328(1+,1)\meili\SunSep2611:23:582021SunSep2611:23:582021\0\\#,ProcedureUnspecified,BasisUnspecified,\\1,1\C\N,1,1.32141\H,2,1.01179,1,120.282\H,2,1.0188,1,119.476,3,-179.026,0\N,1,1.32373,2,119.536,3,-177.693,0\H,5,1.01184,1,120.673,2,176.629,0\H,5,1.01736,1,119.761,2,-1.89802,0\N,1,1.3296,2,119.843,3,-0.0733478,0\H,8,1.01038,1,118.348,2,176.956,0\C,8,1.45855,1,123.639,2,-1.26873,0\H,10,1.0864,8,108.707,1,161.551,0\H,10,1.09207,8,108.406,1,43.3262,0\H,10,1.1,8,111.249,1,-77.3509,0\\\@

 Total job time:  12570.24s(wall), 24868.45s(cpu) 
 Sun Sep 26 11:24:00 2021

        *************************************************************
        *                                                           *
        *  Thank you very much for using Q-Chem.  Have a nice day.  *
        *                                                           *
        *************************************************************


Done Job For Fragment 0
calling putenv with: QCSCRATCH=/global/cscratch1/sd/meili 
calling putenv with: QCLOCALSCR=/tmp 
calling putenv with: QCTHREADS=32 
Creating input file /tmp/qchem50578/Frg2.input
using default PutDataFrgm: nothing
calling putenv with: QCSCRATCH=/tmp/qchem50578/ 
calling putenv with: QCLOCALSCR=/tmp/qchem50578/ 
Spawning Job For Fragment 1
                  Welcome to Q-Chem
     A Quantum Leap Into The Future Of Chemistry


 Q-Chem 5.2, Q-Chem, Inc., Pleasanton, CA (2019)

 License issued to: National Energy Research Scientific Computing Center

 Yihan Shao,  Zhengting Gan,  E. Epifanovsky,  A. T. B. Gilbert,  M. Wormit,  
 J. Kussmann,  A. W. Lange,  A. Behn,  Jia Deng,  Xintian Feng,  D. Ghosh,  
 M. Goldey,  P. R. Horn,  L. D. Jacobson,  I. Kaliman,  T. Kus,  A. Landau,  
 Jie Liu,  E. I. Proynov,  R. M. Richard,  R. P. Steele,  E. J. Sundstrom,  
 H. L. Woodcock III,  P. M. Zimmerman,  D. Zuev,  B. Albrecht,  E. Alguire,  
 S. A. Baeppler,  D. Barton,  Z. Benda,  Y. A. Bernard,  E. J. Berquist,  
 K. B. Bravaya,  H. Burton,  D. Casanova,  Chun-Min Chang,  Yunqing Chen,  
 A. Chien,  K. D. Closser,  M. P. Coons,  S. Coriani,  S. Dasgupta,  
 A. L. Dempwolff,  M. Diedenhofen,  Hainam Do,  R. G. Edgar,  Po-Tung Fang,  
 S. Faraji,  S. Fatehi,  Qingguo Feng,  K. D. Fenk,  J. Fosso-Tande,  
 J. Gayvert,  Qinghui Ge,  A. Ghysels,  G. Gidofalvi,  J. Gomes,  
 J. Gonthier,  A. Gunina,  D. Hait,  M. W. D. Hanson-Heine,  
 P. H. P. Harbach,  A. W. Hauser,  M. F. Herbst,  J. E. Herr,  
 E. G. Hohenstein,  Z. C. Holden,  Kerwin Hui,  B. C. Huynh,  T.-C. Jagau,  
 Hyunjun Ji,  B. Kaduk,  K. Khistyaev,  Jaehoon Kim,  P. Klunzinger,  K. Koh,  
 D. Kosenkov,  L. Koulias,  T. Kowalczyk,  C. M. Krauter,  A. Kunitsa,  
 Ka Un Lao,  A. Laurent,  K. V. Lawler,  Joonho Lee,  D. Lefrancois,  
 S. Lehtola,  D. S. Levine,  Yi-Pei Li,  You-Sheng Lin,  Fenglai Liu,  
 E. Livshits,  A. Luenser,  P. Manohar,  E. Mansoor,  S. F. Manzer,  
 Shan-Ping Mao,  Yuezhi Mao,  N. Mardirossian,  A. V. Marenich,  
 T. Markovich,  L. A. Martinez-Martinez,  S. A. Maurer,  N. J. Mayhall,  
 S. C. McKenzie,  J.-M. Mewes,  P. Morgante,  A. F. Morrison,  
 J. W. Mullinax,  K. Nanda,  T. S. Nguyen-Beck,  R. Olivares-Amaya,  
 J. A. Parkhill,  Zheng Pei,  T. M. Perrine,  F. Plasser,  P. Pokhilko,  
 S. Prager,  A. Prociuk,  E. Ramos,  D. R. Rehn,  F. Rob,  M. Scheurer,  
 M. Schneider,  N. Sergueev,  S. M. Sharada,  S. Sharma,  D. W. Small,  
 T. Stauch,  T. Stein,  Yu-Chuan Su,  A. J. W. Thom,  A. Tkatchenko,  
 T. Tsuchimochi,  N. M. Tubman,  L. Vogt,  M. L. Vidal,  O. Vydrov,  
 M. A. Watson,  J. Wenzel,  M. de Wergifosse,  T. A. Wesolowski,  A. White,  
 J. Witte,  A. Yamada,  Jun Yang,  K. Yao,  S. Yeganeh,  S. R. Yost,  
 Zhi-Qiang You,  A. Zech,  Igor Ying Zhang,  Xing Zhang,  Yan Zhao,  
 Ying Zhu,  B. R. Brooks,  G. K. L. Chan,  C. J. Cramer,  M. S. Gordon,  
 W. J. Hehre,  A. Klamt,  M. W. Schmidt,  C. D. Sherrill,  D. G. Truhlar,  
 A. Aspuru-Guzik,  R. Baer,  A. T. Bell,  N. A. Besley,  Jeng-Da Chai,  
 A. E. DePrince, III,  R. A. DiStasio Jr.,  A. Dreuw,  B. D. Dunietz,  
 T. R. Furlani,  Chao-Ping Hsu,  Yousung Jung,  Jing Kong,  D. S. Lambrecht,  
 WanZhen Liang,  C. Ochsenfeld,  V. A. Rassolov,  L. V. Slipchenko,  
 J. E. Subotnik,  T. Van Voorhis,  J. M. Herbert,  A. I. Krylov,  
 P. M. W. Gill,  M. Head-Gordon

 Contributors to earlier versions of Q-Chem not listed above: 
 R. D. Adamson,  B. Austin,  J. Baker,  G. J. O. Beran,  K. Brandhorst,  
 S. T. Brown,  E. F. C. Byrd,  A. K. Chakraborty,  C.-L. Cheng,  
 Siu Hung Chien,  D. M. Chipman,  D. L. Crittenden,  H. Dachsel,  
 R. J. Doerksen,  A. D. Dutoi,  L. Fusti-Molnar,  W. A. Goddard III,  
 A. Golubeva-Zadorozhnaya,  S. R. Gwaltney,  G. Hawkins,  A. Heyden,  
 S. Hirata,  G. Kedziora,  F. J. Keil,  C. Kelley,  Jihan Kim,  R. A. King,  
 R. Z. Khaliullin,  P. P. Korambath,  W. Kurlancheek,  A. M. Lee,  M. S. Lee,  
 S. V. Levchenko,  Ching Yeh Lin,  D. Liotard,  R. C. Lochan,  I. Lotan,  
 P. E. Maslen,  N. Nair,  D. P. O'Neill,  D. Neuhauser,  E. Neuscamman,  
 C. M. Oana,  R. Olson,  B. Peters,  R. Peverati,  P. A. Pieniazek,  
 Y. M. Rhee,  J. Ritchie,  M. A. Rohrdanz,  E. Rosta,  N. J. Russ,  
 H. F. Schaefer III,  N. E. Schultz,  N. Shenvi,  A. C. Simmonett,  A. Sodt,  
 D. Stuck,  K. S. Thanthiriwatte,  V. Vanovschi,  Tao Wang,  A. Warshel,  
 C. F. Williams,  Q. Wu,  X. Xu,  W. Zhang

 Please cite Q-Chem as follows:
 Y. Shao et al., Mol. Phys. 113, 184-215 (2015)
 DOI: 10.1080/00268976.2014.952696

 Q-Chem 5.2.0 for Intel X86 EM64T Linux

 Parts of Q-Chem use Armadillo 8.300.2 (Tropical Shenanigans).
 http://arma.sourceforge.net/

 Q-Chem begins on Sun Sep 26 11:24:03 2021  

Host: cori01
0

     Scratch files written to /tmp/qchem50578//Frg2//
 May1019 |scratch|qcdevops|jenkins|workspace|build_RNUM -1
Processing $rem in /global/common/cori/software/qchem/5.2/config/preferences:
	 MEM_TOTAL  96000 
NAlpha2: 32
NElect   32
Mult     1
Symmetry turned off for PCM/SM12/SMD calculation

Checking the input file for inconsistencies... 	...done.

--------------------------------------------------------------
User input:
--------------------------------------------------------------
$molecule
-1 1
 6	2.9443159039	2.3073080112	1.3231384865
 6	1.8933159039	1.2643080112	0.9051384865
 8	1.7843159039	1.0173080112	-0.3028615135
 8	1.1573159039	0.7153080112	1.7511384865
 1	2.7073159039	3.2623080112	0.8451384865
 1	3.9273159039	1.9783080112	0.9771384865
 1	3.0235859039	2.4502680112	2.4109284865
$end
$rem
EDA2		1
METHOD		WB97X-V
BASIS		DEF2-TZVPD
XC_GRID		000099000590
NL_GRID		1
UNRESTRICTED		FALSE
MAX_SCF_CYCLES		200
SYMMETRY		FALSE
SYM_IGNORE		TRUE
BASIS_LIN_DEP_THRESH		6
THRESH		14
SCF_CONVERGENCE		8
SCF_PRINT_FRGM		TRUE
SOLVENT_METHOD		SMD
!required keywords
JOBTYPE		SP
SYM_IGNORE		TRUE
SUBSYSTEM		TRUE
GEN_SCFMAN		TRUE
CHILD_INSTRUCTION		2
SYM_IGNORE		TRUE
SCFMI		0
RI_K 0		
PARI_K 0		
MIN_PARI_K 0		
IARI_K 0		
OCC_RI_K 0		
PURECART		1111
MEM_STATIC		2000
MEM_TOTAL		96000
GUI		0
CHILD_MP		1
CHILD_MP_ORDERS		232
FRZ_RELAX		0
FRZ_RELAX_METHOD		0
EDA_CLS_ELEC		1
EDA_CLS_DISP		0
FRZ_ORTHO_DECOMP		1
EDA2		FALSE
FRGM_METHOD		FALSE
CIS_N_ROOTS  0
LOCAL_CIS    0
CIS_RLX_DNS  1
$end
$smx
SOLVENT			WATER
$end
--------------------------------------------------------------
 ----------------------------------------------------------------
             Standard Nuclear Orientation (Angstroms)
    I     Atom           X                Y                Z
 ----------------------------------------------------------------
    1      C       2.9443159039     2.3073080112     1.3231384865
    2      C       1.8933159039     1.2643080112     0.9051384865
    3      O       1.7843159039     1.0173080112    -0.3028615135
    4      O       1.1573159039     0.7153080112     1.7511384865
    5      H       2.7073159039     3.2623080112     0.8451384865
    6      H       3.9273159039     1.9783080112     0.9771384865
    7      H       3.0235859039     2.4502680112     2.4109284865
 ----------------------------------------------------------------
 Nuclear Repulsion Energy =         112.70498028 hartrees
 There are       16 alpha and       16 beta electrons
 Requested basis set is def2-TZVPD
 There are 69 shells and 181 basis functions

 Total QAlloc Memory Limit  96000 MB
 Mega-Array Size      1956 MB
 MEM_STATIC part      2000 MB
 
 Citation of the SMD model:
 Marenich, A.V.; Cramer, C.J.; Truhlar, D.G.
 J. Phys. Chem. B 2009, 113, 6378-6396.
 iSolventCode=           1
 Solvent: water                                                           
 
 vradii
            1           2           3           4           5           6
    1   1.8500000   1.8500000   1.5200000   1.5200000   1.2000000   1.2000000
            7
    1   1.2000000
 Changing PCM_VDW_RADII to SMD_RADIUS
 Discretize the solute cavity surface with Lebedev spheres
	Using 110 Lebedev grid points for each H atom
	Using 194 Lebedev grid points for other atoms
	Atomic van der Waals radii will be scaled by 1.20
 Remove points where switching function is < 1.0e-08
 Keep 651 surface tesserae and discard 455 interior tesserae
 Molecular Surface Area = 79.869 Angst**2

                       Distance Matrix (Angstroms)
             C (  1)   C (  2)   O (  3)   O (  4)   H (  5)   H (  6)
   C (  2)  1.538562
   O (  3)  2.377725  1.237802
   O (  4)  2.431258  1.248524  2.168698
   H (  5)  1.093928  2.158286  2.685118  3.116175
   H (  6)  1.092816  2.156881  2.674765  3.141201  1.776086
   H (  7)  1.100004  2.225178  3.309656  2.632180  1.791964  1.759326

 
 A cutoff of  1.0D-14 yielded   2390 shell pairs
 There are     16694 function pairs (     21490 Cartesian)
 Smallest overlap matrix eigenvalue = 1.74E-05

 Scale SEOQF with 1.000000e-01/1.000000e-01/1.000000e-01

 Standard Electronic Orientation quadrupole field applied
 Nucleus-field energy     =     0.0000000052 hartrees
 Guess from superposition of atomic densities
 Warning:  Energy on first SCF cycle will be non-variational
 SAD guess density has 30.625312 electrons

 -----------------------------------------------------------------------
  General SCF calculation program by
  Eric Jon Sundstrom, Paul Horn, Yuezhi Mao, Dmitri Zuev, Alec White,
  David Stuck, Shaama M.S., Shane Yost, Joonho Lee, David Small,
  Daniel Levine, Susi Lehtola, Hugh Burton, Evgeny Epifanovsky
 -----------------------------------------------------------------------
 Exchange:     0.1670 Hartree-Fock + 1.0000 wB97X-V + LR-HF
 Correlation:  1.0000 wB97X-V
 Using Euler-Maclaurin-Lebedev (99,590) quadrature formula
 Nonlocal Correlation:  VV10 with C = 0.0100 and b = 6.00 and scale = 1.00000
 Grid used for NLC:  SG-1 standard quadrature
Energy prior to optimization (guess energy) = -227.763263033961
Begin Timing: Total SCF Calculation
begin iterations for algorithm: DIIS         
the SCF tolerance is set to 1.00e-08
    1    -227.7632630340      1.66e-02     00000 
    2    -225.6288548260      2.50e-02     00000 
    3    -228.6041055243      4.10e-03     00000 
    4    -228.6570736566      1.49e-03     00000 
    5    -228.6635468668      4.24e-04     00000 
    6    -228.6640144733      2.40e-04     00000 
    7    -228.6641783415      4.61e-05     00000 
    8    -228.6641878215      1.38e-05     00000 
    9    -228.6641890440      4.14e-06     00000 
   10    -228.6641891721      1.17e-06     00000 
   11    -228.6641891844      2.43e-07     00000 
   12    -228.6641891848      5.40e-08     00000 
   13    -228.6641891849      1.41e-08     00000 
   14    -228.6641891849      3.60e-09     00000 Convergence criterion met
Timing for Total SCF: 267.00s (wall), 520.46s (cpu)
(3)  G-ENP(liq) elect-nuc-pol free energy of system     -228.664189185 a.u.
(4)  G-CDS(liq) cavity-dispersion-solvent structure 
     free energy                                                3.9633 kcal/mol
(6)  G-S(liq) free energy of system                     -228.657873260 a.u.
E_pcm = -0.1314190422
E_cds = 0.0063159244
Multipole orders to be included
        2
        3
computing dipole RHS
computing quadrupole RHS
total number of RHS in solve_reponses: 8
RHS batch sizes
        8
Beginning Block Conjugate Gradient Iterations. Batch Number: 0
computing hessian-vector products by finite difference
              1      7.49e-01     00000 Conjugate Gradient Iteration
computing hessian-vector products by finite difference
              2      2.37e-01     00000 Conjugate Gradient Iteration
computing hessian-vector products by finite difference
              3      6.55e-02     00000 Conjugate Gradient Iteration
computing hessian-vector products by finite difference
              4      1.74e-02     00000 Conjugate Gradient Iteration
computing hessian-vector products by finite difference
              5      2.55e-03     00000 Conjugate Gradient Iteration
computing hessian-vector products by finite difference
              6      6.68e-04     00000 Conjugate Gradient Iteration
computing hessian-vector products by finite difference
              7      9.62e-05     00000 Conjugate Gradient Iteration
computing hessian-vector products by finite difference
              8      1.18e-05     00000 Conjugate Gradient Iteration
computing hessian-vector products by finite difference
              9      1.76e-06     00000 Conjugate Gradient Iteration
computing hessian-vector products by finite difference
             10      1.72e-07     00000 Conjugate Gradient Iteration
computing hessian-vector products by finite difference
             11      2.18e-08     00000 Conjugate Gradient Iteration
computing hessian-vector products by finite difference
             12      4.35e-09     00000 CG Converged
batch 0 complete
Done Calculating Responses
TESTING ORTHOGONALIZATION OF MULTIPOLE BASIS
Multipole virts passed orthogonality test
Virts Per Order
        48
        80
 
 --------------------------------------------------------------
 
                    Orbital Energies (a.u.)
 --------------------------------------------------------------
 
 Alpha MOs
 -- Occupied --
-19.1517 -19.1508 -10.3530 -10.2488  -1.1703  -1.0659  -0.8378  -0.6169
 -0.5487  -0.5474  -0.5397  -0.4810  -0.4654  -0.3649  -0.3586  -0.3429
 -- Virtual --
  0.0671   0.0997   0.1005   0.1079   0.1349   0.1451   0.1458   0.1497
  0.1586   0.1906   0.2018   0.2296   0.2308   0.2371   0.2608   0.2639
  0.2981   0.3160   0.3329   0.3466   0.3509   0.3614   0.3686   0.3852
  0.3903   0.3922   0.4154   0.4243   0.4264   0.4551   0.4676   0.4716
  0.4826   0.4878   0.5056   0.5100   0.5485   0.5640   0.5866   0.6009
  0.6116   0.6216   0.6260   0.6529   0.6548   0.6648   0.6774   0.6988
  0.7070   0.7274   0.7648   0.7897   0.8099   0.8106   0.8376   0.8459
  0.8621   0.9559   0.9658   0.9776   0.9871   1.0362   1.0388   1.1101
  1.1573   1.1727   1.2409   1.2660   1.2802   1.3014   1.3271   1.3325
  1.4407   1.5564   1.5892   1.7352   1.8053   1.8421   1.8573   1.9000
  1.9031   1.9374   1.9470   1.9586   2.0115   2.0926   2.1142   2.1448
  2.1928   2.2021   2.2941   2.3142   2.3887   2.4204   2.4637   2.4946
  2.5650   2.5807   2.6075   2.6559   2.7676   2.8082   2.8713   2.9274
  2.9447   2.9690   3.0075   3.1706   3.1818   3.2233   3.2665   3.3080
  3.3171   3.3357   3.3751   3.3995   3.4170   3.5263   3.5347   3.5522
  3.5929   3.6258   3.6935   3.7354   3.7569   3.8790   3.9125   4.0178
  4.0558   4.1684   4.3528   4.5185   4.5996   4.6470   4.7606   4.8067
  4.9739   5.2978   5.3220   5.3355   5.3403   5.4623   5.6832   5.7716
  5.8062   6.0267   6.2061   6.3321   6.3434   6.5970   6.6016   6.7071
  6.7118   6.7296   6.9335   6.9529   7.0082   7.2321   7.3096   7.3756
  7.3902  22.5703  23.7523  44.1946  44.3226
 --------------------------------------------------------------
 
          Ground-State Mulliken Net Atomic Charges

     Atom                 Charge (a.u.)
  ----------------------------------------
      1 C                    -0.597284
      2 C                     0.503499
      3 O                    -0.764903
      4 O                    -0.774306
      5 H                     0.204965
      6 H                     0.206426
      7 H                     0.221603
  ----------------------------------------
  Sum of atomic charges =    -1.000000

 -----------------------------------------------------------------
                    Cartesian Multipole Moments
 -----------------------------------------------------------------
    Charge (ESU x 10^10)
                -4.8032
    Dipole Moment (Debye)
         X      -5.4309      Y      -2.6159      Z      -2.9053
       Tot       6.6917
    Quadrupole Moments (Debye-Ang)
        XX     -30.8842     XY      -2.3993     YY     -25.6255
        XZ       0.0911     YZ       0.1096     ZZ     -36.5168
    Octopole Moments (Debye-Ang^2)
       XXX    -154.5074    XXY     -36.0898    XYY     -49.3971
       YYY    -100.8778    XXZ     -16.6817    XYZ       4.6337
       YYZ     -21.1094    XZZ     -61.7689    YZZ     -41.7826
       ZZZ     -92.8182
    Hexadecapole Moments (Debye-Ang^3)
      XXXX    -703.1104   XXXY    -242.4148   XXYY    -181.8120
      XYYY    -237.6227   YYYY    -374.8623   XXXZ    -120.4518
      XXYZ     -20.7983   XYYZ     -38.9880   YYYZ    -101.3746
      XXZZ    -173.5552   XYZZ     -86.0553   YYZZ    -113.6950
      XZZZ    -164.5188   YZZZ    -118.2054   ZZZZ    -307.0313
 -----------------------------------------------------------------
Archival summary:
1\1\nid00571\SP\ProcedureUnspecified\BasisUnspecified\223(1-,1)\meili\SunSep2612:37:172021SunSep2612:37:172021\0\\#,ProcedureUnspecified,BasisUnspecified,\\-1,1\C\O,1,1.2378\O,1,1.24852,2,121.442\C,1,1.53856,2,117.424,3,-178.221,0\H,4,1.09282,1,108.926,2,-58.4572,0\H,4,1.09393,1,108.972,2,59.8944,0\H,4,1.1,1,113.954,2,-177.456,0\\\@

 Total job time:  4396.24s(wall), 8632.75s(cpu) 
 Sun Sep 26 12:37:19 2021

        *************************************************************
        *                                                           *
        *  Thank you very much for using Q-Chem.  Have a nice day.  *
        *                                                           *
        *************************************************************


Done Job For Fragment 1
calling putenv with: QCSCRATCH=/global/cscratch1/sd/meili 
calling putenv with: QCLOCALSCR=/tmp 
calling putenv with: QCTHREADS=32 
Doing General SCFMI
 Exchange:     0.1670 Hartree-Fock + 1.0000 wB97X-V + LR-HF
 Correlation:  1.0000 wB97X-V
 Using Euler-Maclaurin-Lebedev (99,590) quadrature formula
 Nonlocal Correlation:  VV10 with C = 0.0100 and b = 6.00 and scale = 1.00000
 Grid used for NLC:  SG-1 standard quadrature
performing fock build before subrot guess so that all methods have access
Printing subrot_rss_gen Method Specification:
Occupied Subspace Method is 0
Virtual Subspace Method is 0
Energy of the unrelaxed supersystem initial determinant -473.794467019934
performing fock build before subrot guess so that all methods have access
Printing subrot_rss_gen Method Specification:
Occupied Subspace Method is 0
Virtual Subspace Method is 0
Energy of the unrelaxed supersystem initial determinant w/ solvent -473.870626478813
write pseudocanon occs and virts to disk
write pseudocanon orbital energies to disk
Tolerance of ortho_decomp_scf: 1.00e-06
GDM subspace size: 20
Beginning the Orthogonal Decomposition of the Initial Supersystem Wavefunction
    1    -473.5318590936      1.03e-01     ortho_decomp Preconditoned Steepest Descent
    2    -473.5499257794      3.04e-03     ortho_decomp BFGS Step
    3    -473.5500066257      2.53e-04     ortho_decomp BFGS Step
    4    -473.5500067729      1.13e-05     ortho_decomp BFGS Step
    5    -473.5500067736      4.25e-07     ortho_decomp 00000 Convergence criterion met
 Hartree-Fock
 Hartree-Fock
 Hartree-Fock
Doing General SCFMI
 Exchange:     0.1670 Hartree-Fock + 1.0000 wB97X-V + LR-HF
 Correlation:  1.0000 wB97X-V
 Using Euler-Maclaurin-Lebedev (99,590) quadrature formula
 Nonlocal Correlation:  VV10 with C = 0.0100 and b = 6.00 and scale = 1.00000
 Grid used for NLC:  SG-1 standard quadrature
performing fock build at end of subrot_r(subrot) constructor so that all methods have access
<S^2> of initial wavefunction before polarization iterations 0.0000000000
Beginning iterations for the determination of the polarized wavefunction
Energy prior to optimization (guess energy) = -473.870626478813
Begin Timing: Total SCF Calculation
begin iterations for algorithm: DIIS         
the SCF tolerance is set to 1.00e-08
    1    -473.8706264788      2.22e-04     00000 
    2    -473.8729975916      1.06e-04     00000 
    3    -473.8732899536      5.86e-05     00000 
    4    -473.8733940154      1.61e-05     00000 
    5    -473.8734062479      6.82e-06     00000 
    6    -473.8734096533      2.96e-06     00000 
    7    -473.8734102354      1.56e-06     00000 
    8    -473.8734103589      6.26e-07     00000 
    9    -473.8734103774      2.60e-07     00000 
   10    -473.8734103795      7.74e-08     00000 
   11    -473.8734103799      3.82e-08     00000 
   12    -473.8734103799      1.44e-08     00000 
   13    -473.8734103800      5.26e-09     00000 Convergence criterion met
write pseudocanon occs and virts to disk
write pseudocanon orbital energies to disk
Timing for Total SCF: 2704.00s (wall), 5381.34s (cpu)
<S^2> of polarized wavefunction after polarization iterations 0.0000000000
relaxing scfmi constraint to allow all rotations in the entire AO span
Doing General SCFMI
 Exchange:     0.1670 Hartree-Fock + 1.0000 wB97X-V + LR-HF
 Correlation:  1.0000 wB97X-V
 Using Euler-Maclaurin-Lebedev (99,590) quadrature formula
 Nonlocal Correlation:  VV10 with C = 0.0100 and b = 6.00 and scale = 1.00000
 Grid used for NLC:  SG-1 standard quadrature
performing fock build at end of subrot_r(subrot) constructor so that all methods have access
<S^2> of polarized wavefunction before ct-allowed iterations 0.0000000000
Beginning iterations for the determination of the CT-Allowed wavefunction
Energy prior to optimization (guess energy) = -473.873410379950
Begin Timing: Total SCF Calculation
begin iterations for algorithm: DIIS         
the SCF tolerance is set to 1.00e-08
    1    -473.8734103800      2.59e-04     00000 
    2    -473.8816253846      4.43e-05     00000 
    3    -473.8820041219      1.93e-05     00000 
    4    -473.8820322209      8.76e-06     00000 
    5    -473.8820398107      1.75e-06     00000 
    6    -473.8820402212      6.04e-07     00000 
    7    -473.8820402938      2.24e-07     00000 
    8    -473.8820402990      9.17e-08     00000 
    9    -473.8820403002      3.25e-08     00000 
   10    -473.8820403003      1.05e-08     00000 
   11    -473.8820403004      3.42e-09     00000 Convergence criterion met
write pseudocanon occs and virts to disk
write pseudocanon orbital energies to disk
Timing for Total SCF: 2306.00s (wall), 4561.69s (cpu)
<S^2> of ct_allowed wavefunction after ct-allowed iterations 0.0000000000

================================
        Results of EDA2         
================================
Basic EDA Quantities
--------------------
Fragment Energies (Ha):
1 -245.2027043574
2 -228.6578732605
--------------------
  E_prp (kJ/mol) = 0.0000
  E_sol (kJ/mol) = 423.3053
  E_frz (kJ/mol) = -427.8365
  E_pol (kJ/mol) = -7.3092
  E_vct (kJ/mol) = -22.6581
  E_int (kJ/mol) = -34.4985
--------------------


Initial Wavefunction Decomposition
--------------------
  --------------------
  Orthogonal Fragment Subspace Decomposition:
  --------------------
     E_elec   (ELEC)   (kJ/mol) = -579.7931
     E_pauli  (PAULI)  (kJ/mol) = 176.5294
     E_disp   (DISP)   (kJ/mol) = -24.5728
     --------------------
     Terms summing to E_pauli:
     --------------------
        E_kep_pauli       (kJ/mol) = 214.0015
        E_disp_free_pauli (kJ/mol) = -37.4721
  --------------------
  Classical Frozen Decomposition:
  --------------------
     E_cls_elec  (CLS ELEC)  (kJ/mol) = -514.0457
     E_cls_pauli (CLS PAULI) (kJ/mol) = 86.2092
    [E_mod_pauli (MOD PAULI) (kJ/mol) = 110.7820 (CLS PAULI - DISP from orthogonal decomposition) ]
  --------------------
--------------------

Simplified EDA Summary (kJ/mol)
--------------------
 PREPARATION     0.0000
 SOLVATION       423.3053
 FROZEN          -403.2637      (does not include dispersion)
[PAULI           176.5294]     (if this is negligible, then frozen describes electrostatics)
 DISPERSION      -24.5728
 POLARIZATION    -7.3092
 CHARGE TRANSFER -22.6581
 TOTAL           -34.4985     (PRP + SOL + FRZ + DISP + POL + CT)
--------------------
 
 --------------------------------------------------------------
 
                    Orbital Energies (a.u.)
 --------------------------------------------------------------
 
 Alpha MOs
 -- Occupied --
-19.1603 -19.1601 -14.4462 -14.4308 -14.4291 -10.4114 -10.3612 -10.3007
-10.2519  -1.1812  -1.1599  -1.0763  -1.0453  -1.0263  -0.8468  -0.8414
 -0.7538  -0.7135  -0.6749  -0.6329  -0.6014  -0.5967  -0.5886  -0.5633
 -0.5552  -0.5531  -0.5425  -0.5183  -0.5048  -0.4850  -0.4703  -0.3865
 -0.3744  -0.3687  -0.3630  -0.3521
 -- Virtual --
  0.0584   0.0763   0.0883   0.0938   0.1006   0.1070   0.1184   0.1230
  0.1284   0.1349   0.1402   0.1424   0.1537   0.1582   0.1641   0.1691
  0.1794   0.1909   0.1985   0.2056   0.2118   0.2132   0.2217   0.2327
  0.2394   0.2456   0.2478   0.2532   0.2604   0.2636   0.2693   0.2724
  0.2875   0.2959   0.2989   0.3041   0.3117   0.3138   0.3175   0.3220
  0.3248   0.3297   0.3353   0.3408   0.3459   0.3497   0.3538   0.3599
  0.3634   0.3666   0.3712   0.3775   0.3791   0.3864   0.3892   0.3944
  0.3992   0.4000   0.4037   0.4104   0.4151   0.4239   0.4359   0.4429
  0.4466   0.4519   0.4608   0.4672   0.4756   0.4807   0.4819   0.4846
  0.4926   0.4959   0.4979   0.4995   0.5067   0.5080   0.5173   0.5261
  0.5323   0.5344   0.5357   0.5426   0.5471   0.5642   0.5680   0.5768
  0.5808   0.5909   0.5944   0.5968   0.6088   0.6162   0.6248   0.6311
  0.6341   0.6434   0.6482   0.6546   0.6592   0.6639   0.6802   0.6868
  0.6895   0.7035   0.7060   0.7176   0.7236   0.7306   0.7370   0.7442
  0.7512   0.7641   0.7683   0.7782   0.7830   0.7873   0.7980   0.8032
  0.8054   0.8183   0.8282   0.8342   0.8371   0.8461   0.8508   0.8564
  0.8727   0.8807   0.8894   0.8906   0.9084   0.9123   0.9178   0.9257
  0.9366   0.9521   0.9678   0.9765   0.9803   1.0026   1.0154   1.0370
  1.0430   1.0523   1.0581   1.0674   1.0797   1.0924   1.0967   1.1082
  1.1318   1.1371   1.1485   1.1592   1.1677   1.1763   1.1924   1.1988
  1.2114   1.2282   1.2464   1.2501   1.2737   1.2839   1.2910   1.3209
  1.3248   1.3354   1.3605   1.3693   1.3921   1.4020   1.4360   1.4696
  1.4764   1.4899   1.4993   1.5173   1.5506   1.5987   1.6278   1.6523
  1.6617   1.7050   1.7315   1.7398   1.7623   1.7658   1.7874   1.8307
  1.8677   1.8712   1.8737   1.8879   1.8948   1.9015   1.9208   1.9271
  1.9324   1.9424   1.9566   1.9682   1.9737   1.9929   2.0122   2.0289
  2.0459   2.0606   2.0872   2.1143   2.1192   2.1315   2.1490   2.1598
  2.1705   2.2028   2.2160   2.2210   2.2351   2.2572   2.2926   2.3062
  2.3162   2.3263   2.3554   2.3662   2.3760   2.3923   2.4350   2.4355
  2.4587   2.4719   2.4982   2.5100   2.5179   2.5500   2.5690   2.5852
  2.6097   2.6214   2.6298   2.6357   2.6436   2.6491   2.6808   2.7088
  2.7233   2.7273   2.7662   2.7767   2.8099   2.8319   2.8415   2.8538
  2.8668   2.8925   2.9150   2.9332   2.9557   2.9660   2.9854   3.0079
  3.0176   3.0255   3.0817   3.1217   3.1658   3.1779   3.1871   3.2022
  3.2092   3.2184   3.2496   3.2594   3.2738   3.2846   3.2975   3.3127
  3.3288   3.3336   3.3439   3.3509   3.3587   3.3650   3.3797   3.4197
  3.4249   3.4321   3.4459   3.4564   3.4827   3.4868   3.5168   3.5430
  3.5590   3.5768   3.6100   3.6244   3.6318   3.6504   3.6568   3.6874
  3.7106   3.7326   3.7568   3.7620   3.7679   3.8323   3.9026   3.9049
  3.9240   3.9805   3.9960   4.0443   4.0709   4.1217   4.1774   4.1867
  4.2012   4.2804   4.3226   4.3444   4.3673   4.3747   4.3943   4.3990
  4.5113   4.5336   4.6051   4.6151   4.6350   4.6554   4.7007   4.8045
  4.8466   4.8823   4.8961   4.9335   4.9702   4.9949   5.0420   5.0780
  5.0879   5.1533   5.1650   5.1764   5.2076   5.2190   5.2373   5.3042
  5.3199   5.3395   5.3518   5.3699   5.4232   5.4322   5.4512   5.4613
  5.4675   5.4758   5.5223   5.5353   5.6140   5.6923   5.7127   5.7270
  5.7723   5.8042   5.8146   5.8407   5.9345   6.0421   6.1776   6.1860
  6.2323   6.3409   6.3565   6.4164   6.4809   6.6216   6.6668   6.7379
  6.7489   6.8172   6.9629   7.0000   7.0255   7.2415   7.3217   7.4322
  7.4417  22.5888  22.6924  23.6773  23.7789  32.4211  32.5484  32.9024
 44.2585  44.3669
 --------------------------------------------------------------
 
          Ground-State Mulliken Net Atomic Charges

     Atom                 Charge (a.u.)
  ----------------------------------------
      1 C                    -0.802180
      2 C                     0.404719
      3 N                    -0.124710
      4 N                    -0.091692
      5 N                    -0.177204
      6 H                     0.211118
      7 H                     0.134547
      8 H                     0.283374
      9 H                     0.244780
     10 H                     0.157865
     11 H                     0.286668
     12 H                     0.302538
     13 H                     0.251952
     14 C                    -0.841195
     15 C                     0.708366
     16 O                    -0.834760
     17 O                    -0.821068
     18 H                     0.236741
     19 H                     0.233581
     20 H                     0.236561
  ----------------------------------------
  Sum of atomic charges =     0.000000

 -----------------------------------------------------------------
                    Cartesian Multipole Moments
 -----------------------------------------------------------------
    Charge (ESU x 10^10)
                -0.0000
    Dipole Moment (Debye)
         X     -10.5532      Y      -6.9377      Z      -4.8360
       Tot      13.5236
    Quadrupole Moments (Debye-Ang)
        XX     -43.7464     XY       9.8139     YY     -42.4741
        XZ       9.0902     YZ      -2.1912     ZZ     -56.4342
    Octopole Moments (Debye-Ang^2)
       XXX     -50.5449    XXY     -32.4702    XYY     -28.4219
       YYY     -33.9033    XXZ     -16.1456    XYZ      -1.3215
       YYZ       6.3141    XZZ     -29.9937    YZZ     -15.3863
       ZZZ     -33.4448
    Hexadecapole Moments (Debye-Ang^3)
      XXXX   -1257.8726   XXXY    -331.7265   XXYY    -270.8559
      XYYY    -338.5400   YYYY    -609.6986   XXXZ    -226.2059
      XXYZ      -9.7121   XYYZ     -86.6330   YYYZ    -172.9256
      XXZZ    -291.1128   XYZZ    -126.9804   YYZZ    -197.5504
      XZZZ    -308.1116   YZZZ    -180.4516   ZZZZ    -570.7567
 -----------------------------------------------------------------
Archival summary:
1\1\nid00571\SP\ProcedureUnspecified\BasisUnspecified\23411\meili\SunSep2614:57:312021SunSep2614:57:312021\0\\#,ProcedureUnspecified,BasisUnspecified,\\0,1\O\C,1,1.2378\O,2,1.24852,1,121.442\C,2,1.53856,1,117.424,3,-178.221,0\H,4,1.09282,2,108.926,1,-58.4572,0\H,4,1.09393,2,108.972,1,59.8944,0\H,4,1.1,2,113.954,1,-177.456,0\H,1,1.87229,2,113.74,3,30.0588,0\N,8,1.0188,1,164.279,2,-103.678,0\H,9,1.01179,8,120.235,1,-129.514,0\C,9,1.32141,8,119.476,1,49.5122,0\N,11,1.32373,9,119.536,8,3.28153,0\H,12,1.01184,11,120.673,9,176.629,0\H,12,1.01736,11,119.761,9,-1.89802,0\N,11,1.3296,9,119.843,8,-179.099,0\H,15,1.01038,11,118.348,9,176.956,0\C,15,1.45855,11,123.639,9,-1.26873,0\H,17,1.0864,15,108.707,11,161.551,0\H,17,1.09207,15,108.406,11,43.3262,0\H,17,1.1,15,111.249,11,-77.3509,0\\\@

 Total job time:  25389.70s(wall), 16722.78s(cpu) 
 Sun Sep 26 14:57:34 2021

        *************************************************************
        *                                                           *
        *  Thank you very much for using Q-Chem.  Have a nice day.  *
        *                                                           *
        *************************************************************


