
Running Job 1 of 1 SSI-050ASP-092TYR-1_PCM_TZVPD.in
qchem SSI-050ASP-092TYR-1_PCM_TZVPD.in_23036.0 /tmp/qchem23036/ 0
/global/common/cori/software/qchem/5.2/exe/qcprog.exe_s SSI-050ASP-092TYR-1_PCM_TZVPD.in_23036.0 /tmp/qchem23036/
                  Welcome to Q-Chem
     A Quantum Leap Into The Future Of Chemistry


 Q-Chem 5.2, Q-Chem, Inc., Pleasanton, CA (2019)

 License issued to: National Energy Research Scientific Computing Center

 Yihan Shao,  Zhengting Gan,  E. Epifanovsky,  A. T. B. Gilbert,  M. Wormit,  
 J. Kussmann,  A. W. Lange,  A. Behn,  Jia Deng,  Xintian Feng,  D. Ghosh,  
 M. Goldey,  P. R. Horn,  L. D. Jacobson,  I. Kaliman,  T. Kus,  A. Landau,  
 Jie Liu,  E. I. Proynov,  R. M. Richard,  R. P. Steele,  E. J. Sundstrom,  
 H. L. Woodcock III,  P. M. Zimmerman,  D. Zuev,  B. Albrecht,  E. Alguire,  
 S. A. Baeppler,  D. Barton,  Z. Benda,  Y. A. Bernard,  E. J. Berquist,  
 K. B. Bravaya,  H. Burton,  D. Casanova,  Chun-Min Chang,  Yunqing Chen,  
 A. Chien,  K. D. Closser,  M. P. Coons,  S. Coriani,  S. Dasgupta,  
 A. L. Dempwolff,  M. Diedenhofen,  Hainam Do,  R. G. Edgar,  Po-Tung Fang,  
 S. Faraji,  S. Fatehi,  Qingguo Feng,  K. D. Fenk,  J. Fosso-Tande,  
 J. Gayvert,  Qinghui Ge,  A. Ghysels,  G. Gidofalvi,  J. Gomes,  
 J. Gonthier,  A. Gunina,  D. Hait,  M. W. D. Hanson-Heine,  
 P. H. P. Harbach,  A. W. Hauser,  M. F. Herbst,  J. E. Herr,  
 E. G. Hohenstein,  Z. C. Holden,  Kerwin Hui,  B. C. Huynh,  T.-C. Jagau,  
 Hyunjun Ji,  B. Kaduk,  K. Khistyaev,  Jaehoon Kim,  P. Klunzinger,  K. Koh,  
 D. Kosenkov,  L. Koulias,  T. Kowalczyk,  C. M. Krauter,  A. Kunitsa,  
 Ka Un Lao,  A. Laurent,  K. V. Lawler,  Joonho Lee,  D. Lefrancois,  
 S. Lehtola,  D. S. Levine,  Yi-Pei Li,  You-Sheng Lin,  Fenglai Liu,  
 E. Livshits,  A. Luenser,  P. Manohar,  E. Mansoor,  S. F. Manzer,  
 Shan-Ping Mao,  Yuezhi Mao,  N. Mardirossian,  A. V. Marenich,  
 T. Markovich,  L. A. Martinez-Martinez,  S. A. Maurer,  N. J. Mayhall,  
 S. C. McKenzie,  J.-M. Mewes,  P. Morgante,  A. F. Morrison,  
 J. W. Mullinax,  K. Nanda,  T. S. Nguyen-Beck,  R. Olivares-Amaya,  
 J. A. Parkhill,  Zheng Pei,  T. M. Perrine,  F. Plasser,  P. Pokhilko,  
 S. Prager,  A. Prociuk,  E. Ramos,  D. R. Rehn,  F. Rob,  M. Scheurer,  
 M. Schneider,  N. Sergueev,  S. M. Sharada,  S. Sharma,  D. W. Small,  
 T. Stauch,  T. Stein,  Yu-Chuan Su,  A. J. W. Thom,  A. Tkatchenko,  
 T. Tsuchimochi,  N. M. Tubman,  L. Vogt,  M. L. Vidal,  O. Vydrov,  
 M. A. Watson,  J. Wenzel,  M. de Wergifosse,  T. A. Wesolowski,  A. White,  
 J. Witte,  A. Yamada,  Jun Yang,  K. Yao,  S. Yeganeh,  S. R. Yost,  
 Zhi-Qiang You,  A. Zech,  Igor Ying Zhang,  Xing Zhang,  Yan Zhao,  
 Ying Zhu,  B. R. Brooks,  G. K. L. Chan,  C. J. Cramer,  M. S. Gordon,  
 W. J. Hehre,  A. Klamt,  M. W. Schmidt,  C. D. Sherrill,  D. G. Truhlar,  
 A. Aspuru-Guzik,  R. Baer,  A. T. Bell,  N. A. Besley,  Jeng-Da Chai,  
 A. E. DePrince, III,  R. A. DiStasio Jr.,  A. Dreuw,  B. D. Dunietz,  
 T. R. Furlani,  Chao-Ping Hsu,  Yousung Jung,  Jing Kong,  D. S. Lambrecht,  
 WanZhen Liang,  C. Ochsenfeld,  V. A. Rassolov,  L. V. Slipchenko,  
 J. E. Subotnik,  T. Van Voorhis,  J. M. Herbert,  A. I. Krylov,  
 P. M. W. Gill,  M. Head-Gordon

 Contributors to earlier versions of Q-Chem not listed above: 
 R. D. Adamson,  B. Austin,  J. Baker,  G. J. O. Beran,  K. Brandhorst,  
 S. T. Brown,  E. F. C. Byrd,  A. K. Chakraborty,  C.-L. Cheng,  
 Siu Hung Chien,  D. M. Chipman,  D. L. Crittenden,  H. Dachsel,  
 R. J. Doerksen,  A. D. Dutoi,  L. Fusti-Molnar,  W. A. Goddard III,  
 A. Golubeva-Zadorozhnaya,  S. R. Gwaltney,  G. Hawkins,  A. Heyden,  
 S. Hirata,  G. Kedziora,  F. J. Keil,  C. Kelley,  Jihan Kim,  R. A. King,  
 R. Z. Khaliullin,  P. P. Korambath,  W. Kurlancheek,  A. M. Lee,  M. S. Lee,  
 S. V. Levchenko,  Ching Yeh Lin,  D. Liotard,  R. C. Lochan,  I. Lotan,  
 P. E. Maslen,  N. Nair,  D. P. O'Neill,  D. Neuhauser,  E. Neuscamman,  
 C. M. Oana,  R. Olson,  B. Peters,  R. Peverati,  P. A. Pieniazek,  
 Y. M. Rhee,  J. Ritchie,  M. A. Rohrdanz,  E. Rosta,  N. J. Russ,  
 H. F. Schaefer III,  N. E. Schultz,  N. Shenvi,  A. C. Simmonett,  A. Sodt,  
 D. Stuck,  K. S. Thanthiriwatte,  V. Vanovschi,  Tao Wang,  A. Warshel,  
 C. F. Williams,  Q. Wu,  X. Xu,  W. Zhang

 Please cite Q-Chem as follows:
 Y. Shao et al., Mol. Phys. 113, 184-215 (2015)
 DOI: 10.1080/00268976.2014.952696

 Q-Chem 5.2.0 for Intel X86 EM64T Linux

 Parts of Q-Chem use Armadillo 8.300.2 (Tropical Shenanigans).
 http://arma.sourceforge.net/

 Q-Chem begins on Sun Sep 26 08:20:48 2021  

Host: cori01
0

     Scratch files written to /tmp/qchem23036//
 May1019 |scratch|qcdevops|jenkins|workspace|build_RNUM -1
Processing $rem in /global/common/cori/software/qchem/5.2/config/preferences:
	 MEM_TOTAL  96000 
NAlpha2: 90
NElect   90
Mult     1
Symmetry turned off for PCM/SM12/SMD calculation

 Q-Chem warning in module libgen/rem_setup.C, line 2803:

 Neither GIA nor STOLL is specified by user. Use STOLL as the default


Checking the input file for inconsistencies... 	...done.

--------------------------------------------------------------
User input:
--------------------------------------------------------------
$comment
SSI-050ASP-092TYR-1.pdb
$end

$molecule
-1 1
--
-1 1
C    0.841867173163    0.069268309811    4.460842233003
C   -0.397132826837   -0.116731690189    3.613842233003
O   -0.411132826837    0.289268309811    2.435842233003
O   -1.353132826837   -0.686731690189    4.182842233003
H    1.003867173163   -0.813731690189    5.080842233003
H    0.663867173163    0.916268309811    5.126842233003
H    1.751707173163    0.272338309811    3.876922233003
--
0 1
C   -1.132132826837   -0.634731690189   -4.538157766997
C   -0.507132826837    0.024268309811   -0.864157766997
C   -1.133132826837   -0.300731690189   -2.056157766997
C    0.805867173163    0.384268309811   -0.838157766997
C   -0.429132826837   -0.294731690189   -3.250157766997
C    1.522867173163    0.439268309811   -2.010157766997
C    0.908867173163    0.100268309811   -3.225157766997
O    1.341867173163    0.699268309811    0.386842233003
H   -1.068132826837    0.102268309811    0.042842233003
H   -2.185132826837   -0.558731690189   -2.051157766997
H    0.685867173163    0.553268309811    1.098842233003
H    2.557867173163    0.742268309811   -1.988157766997
H   -1.587132826837   -1.618731690189   -4.417157766997
H   -0.407132826837   -0.699731690189   -5.349157766997
H    1.478867173163    0.141268309811   -4.143157766997
H   -1.915598826837    0.097698309811   -4.782537766997
$end

$rem
JOBTYPE			EDA
EDA2			1
method			wB97X-V
BASIS			def2-TZVPD
XC_GRID			000099000590
NL_GRID			1
UNRESTRICTED		FALSE
MAX_SCF_CYCLES		200
SYMMETRY		FALSE
SYM_IGNORE		TRUE
MEM_STATIC		2000
BASIS_LIN_DEP_THRESH 	6
THRESH 			14
SCF_CONVERGENCE 	8
SCF_PRINT_FRGM 		TRUE
SOLVENT_METHOD          PCM
$end

$PCM
THEORY                  CPCM
METHOD                  SWIG
SOLVER                  INVERSION
RADII                   UFF
HPOINTS                 302
HEAVYPOINTS             302
PRINTLEVEL              0
$END

$SOLVENT
DIELECTRIC              78.390000 ! water
$END
--------------------------------------------------------------
 ----------------------------------------------------------------
             Standard Nuclear Orientation (Angstroms)
    I     Atom           X                Y                Z
 ----------------------------------------------------------------
    1      C       0.8418671732     0.0692683098     4.4608422330
    2      C      -0.3971328268    -0.1167316902     3.6138422330
    3      O      -0.4111328268     0.2892683098     2.4358422330
    4      O      -1.3531328268    -0.6867316902     4.1828422330
    5      H       1.0038671732    -0.8137316902     5.0808422330
    6      H       0.6638671732     0.9162683098     5.1268422330
    7      H       1.7517071732     0.2723383098     3.8769222330
    8      C      -1.1321328268    -0.6347316902    -4.5381577670
    9      C      -0.5071328268     0.0242683098    -0.8641577670
   10      C      -1.1331328268    -0.3007316902    -2.0561577670
   11      C       0.8058671732     0.3842683098    -0.8381577670
   12      C      -0.4291328268    -0.2947316902    -3.2501577670
   13      C       1.5228671732     0.4392683098    -2.0101577670
   14      C       0.9088671732     0.1002683098    -3.2251577670
   15      O       1.3418671732     0.6992683098     0.3868422330
   16      H      -1.0681328268     0.1022683098     0.0428422330
   17      H      -2.1851328268    -0.5587316902    -2.0511577670
   18      H       0.6858671732     0.5532683098     1.0988422330
   19      H       2.5578671732     0.7422683098    -1.9881577670
   20      H      -1.5871328268    -1.6187316902    -4.4171577670
   21      H      -0.4071328268    -0.6997316902    -5.3491577670
   22      H       1.4788671732     0.1412683098    -4.1431577670
   23      H      -1.9155988268     0.0976983098    -4.7825377670
 ----------------------------------------------------------------
 Nuclear Repulsion Energy =         632.89388087 hartrees
 There are       45 alpha and       45 beta electrons
 Requested basis set is def2-TZVPD
 There are 214 shells and 552 basis functions

 Total QAlloc Memory Limit  96000 MB
 Mega-Array Size      1956 MB
 MEM_STATIC part      2000 MB
 Discretize the solute cavity surface with Lebedev spheres
	Using 302 Lebedev grid points for each H atom
	Using 302 Lebedev grid points for other atoms
	Atomic van der Waals radii will be scaled by 1.20
 Remove points where switching function is < 1.0e-08
 Keep 2680 surface tesserae and discard 4266 interior tesserae
 Molecular Surface Area = 278.011 Angst**2
 A cutoff of  1.0D-14 yielded  19222 shell pairs
 There are    128576 function pairs (    163164 Cartesian)
 Smallest overlap matrix eigenvalue = 4.73E-07
 Linear dependence detected in AO basis
 Tighter screening thresholds may be required for diffuse basis sets
 Use S2THRESH > 14 and THRESH = 14 in case of SCF convergence issues
 Number of orthogonalized atomic orbitals = 550
 Maximum deviation from orthogonality = 1.173E-10

 Scale SEOQF with 1.000000e-01/1.000000e-01/1.000000e-02

 Standard Electronic Orientation quadrupole field applied
 Nucleus-field energy     =    -0.0000000041 hartrees

 -----------------------------------------------------------------------
  General SCF calculation program by
  Eric Jon Sundstrom, Paul Horn, Yuezhi Mao, Dmitri Zuev, Alec White,
  David Stuck, Shaama M.S., Shane Yost, Joonho Lee, David Small,
  Daniel Levine, Susi Lehtola, Hugh Burton, Evgeny Epifanovsky
 -----------------------------------------------------------------------
================================================================
                 ALMO-EDA with the EDA2 driver                  
================================================================
 The second-generation ALMO-EDA (for DFT):                      
 P. R. Horn, Y. Mao and M. Head-Gordon, PCCP, 18, 23067 (2016)  
 Decomposition of the frozen energy:                            
 P. R. Horn, Y. Mao and M. Head-Gordon, JCP, 144, 114107 (2016) 
 FERF model for polarization:                                   
 P. R. Horn and M. Head-Gordon, JCP, 143, 114111 (2015)         
Using eda2 option set 1
Option set summary: Frozen orbital wavefunction, initial wavefunction decomposition, and nDQ polarization.
--------------------------------
Printing EDA Options
--------------------------------
eda_child_super_basis      0
fragmo_guess_mode          0
child_mp                   1
child_mp_orders            232
cls_elec                   1
cls_disp                   0
scfmi_mode                 1
scfmi_occs                 0
scfmi_virts                0
frz_relax                  0
frz_relax_method           0
dc_pen_start               0
dc_pen_conv                0
dc_pen_increment           0
dc_pen_steps               0
dc_pen_thresh_factor       0
dc_pen_pre_newton_thresh   0
frz_ortho_decomp           1
frz_ortho_decomp_conv      6
frgm_method                2
scfmi_freeze_ss            0
separate_rehyb             0
plot_diff_den              0
eda_nocv                   0
eda_vct_relax              1
disp_free_x                0
disp_free_c                0
eda_bsse                   0
eda_pct_a                  0
eda_covp                   0
--------------------------------
Attempting to make child job directory: /tmp/qchem23036//Frg1/
Attempting to make child job directory: /tmp/qchem23036//Frg2/
Creating input file /tmp/qchem23036/Frg1.input
using default PutDataFrgm: nothing
calling putenv with: QCSCRATCH=/tmp/qchem23036/ 
calling putenv with: QCLOCALSCR=/tmp/qchem23036/ 
Spawning Job For Fragment 0
                  Welcome to Q-Chem
     A Quantum Leap Into The Future Of Chemistry


 Q-Chem 5.2, Q-Chem, Inc., Pleasanton, CA (2019)

 License issued to: National Energy Research Scientific Computing Center

 Yihan Shao,  Zhengting Gan,  E. Epifanovsky,  A. T. B. Gilbert,  M. Wormit,  
 J. Kussmann,  A. W. Lange,  A. Behn,  Jia Deng,  Xintian Feng,  D. Ghosh,  
 M. Goldey,  P. R. Horn,  L. D. Jacobson,  I. Kaliman,  T. Kus,  A. Landau,  
 Jie Liu,  E. I. Proynov,  R. M. Richard,  R. P. Steele,  E. J. Sundstrom,  
 H. L. Woodcock III,  P. M. Zimmerman,  D. Zuev,  B. Albrecht,  E. Alguire,  
 S. A. Baeppler,  D. Barton,  Z. Benda,  Y. A. Bernard,  E. J. Berquist,  
 K. B. Bravaya,  H. Burton,  D. Casanova,  Chun-Min Chang,  Yunqing Chen,  
 A. Chien,  K. D. Closser,  M. P. Coons,  S. Coriani,  S. Dasgupta,  
 A. L. Dempwolff,  M. Diedenhofen,  Hainam Do,  R. G. Edgar,  Po-Tung Fang,  
 S. Faraji,  S. Fatehi,  Qingguo Feng,  K. D. Fenk,  J. Fosso-Tande,  
 J. Gayvert,  Qinghui Ge,  A. Ghysels,  G. Gidofalvi,  J. Gomes,  
 J. Gonthier,  A. Gunina,  D. Hait,  M. W. D. Hanson-Heine,  
 P. H. P. Harbach,  A. W. Hauser,  M. F. Herbst,  J. E. Herr,  
 E. G. Hohenstein,  Z. C. Holden,  Kerwin Hui,  B. C. Huynh,  T.-C. Jagau,  
 Hyunjun Ji,  B. Kaduk,  K. Khistyaev,  Jaehoon Kim,  P. Klunzinger,  K. Koh,  
 D. Kosenkov,  L. Koulias,  T. Kowalczyk,  C. M. Krauter,  A. Kunitsa,  
 Ka Un Lao,  A. Laurent,  K. V. Lawler,  Joonho Lee,  D. Lefrancois,  
 S. Lehtola,  D. S. Levine,  Yi-Pei Li,  You-Sheng Lin,  Fenglai Liu,  
 E. Livshits,  A. Luenser,  P. Manohar,  E. Mansoor,  S. F. Manzer,  
 Shan-Ping Mao,  Yuezhi Mao,  N. Mardirossian,  A. V. Marenich,  
 T. Markovich,  L. A. Martinez-Martinez,  S. A. Maurer,  N. J. Mayhall,  
 S. C. McKenzie,  J.-M. Mewes,  P. Morgante,  A. F. Morrison,  
 J. W. Mullinax,  K. Nanda,  T. S. Nguyen-Beck,  R. Olivares-Amaya,  
 J. A. Parkhill,  Zheng Pei,  T. M. Perrine,  F. Plasser,  P. Pokhilko,  
 S. Prager,  A. Prociuk,  E. Ramos,  D. R. Rehn,  F. Rob,  M. Scheurer,  
 M. Schneider,  N. Sergueev,  S. M. Sharada,  S. Sharma,  D. W. Small,  
 T. Stauch,  T. Stein,  Yu-Chuan Su,  A. J. W. Thom,  A. Tkatchenko,  
 T. Tsuchimochi,  N. M. Tubman,  L. Vogt,  M. L. Vidal,  O. Vydrov,  
 M. A. Watson,  J. Wenzel,  M. de Wergifosse,  T. A. Wesolowski,  A. White,  
 J. Witte,  A. Yamada,  Jun Yang,  K. Yao,  S. Yeganeh,  S. R. Yost,  
 Zhi-Qiang You,  A. Zech,  Igor Ying Zhang,  Xing Zhang,  Yan Zhao,  
 Ying Zhu,  B. R. Brooks,  G. K. L. Chan,  C. J. Cramer,  M. S. Gordon,  
 W. J. Hehre,  A. Klamt,  M. W. Schmidt,  C. D. Sherrill,  D. G. Truhlar,  
 A. Aspuru-Guzik,  R. Baer,  A. T. Bell,  N. A. Besley,  Jeng-Da Chai,  
 A. E. DePrince, III,  R. A. DiStasio Jr.,  A. Dreuw,  B. D. Dunietz,  
 T. R. Furlani,  Chao-Ping Hsu,  Yousung Jung,  Jing Kong,  D. S. Lambrecht,  
 WanZhen Liang,  C. Ochsenfeld,  V. A. Rassolov,  L. V. Slipchenko,  
 J. E. Subotnik,  T. Van Voorhis,  J. M. Herbert,  A. I. Krylov,  
 P. M. W. Gill,  M. Head-Gordon

 Contributors to earlier versions of Q-Chem not listed above: 
 R. D. Adamson,  B. Austin,  J. Baker,  G. J. O. Beran,  K. Brandhorst,  
 S. T. Brown,  E. F. C. Byrd,  A. K. Chakraborty,  C.-L. Cheng,  
 Siu Hung Chien,  D. M. Chipman,  D. L. Crittenden,  H. Dachsel,  
 R. J. Doerksen,  A. D. Dutoi,  L. Fusti-Molnar,  W. A. Goddard III,  
 A. Golubeva-Zadorozhnaya,  S. R. Gwaltney,  G. Hawkins,  A. Heyden,  
 S. Hirata,  G. Kedziora,  F. J. Keil,  C. Kelley,  Jihan Kim,  R. A. King,  
 R. Z. Khaliullin,  P. P. Korambath,  W. Kurlancheek,  A. M. Lee,  M. S. Lee,  
 S. V. Levchenko,  Ching Yeh Lin,  D. Liotard,  R. C. Lochan,  I. Lotan,  
 P. E. Maslen,  N. Nair,  D. P. O'Neill,  D. Neuhauser,  E. Neuscamman,  
 C. M. Oana,  R. Olson,  B. Peters,  R. Peverati,  P. A. Pieniazek,  
 Y. M. Rhee,  J. Ritchie,  M. A. Rohrdanz,  E. Rosta,  N. J. Russ,  
 H. F. Schaefer III,  N. E. Schultz,  N. Shenvi,  A. C. Simmonett,  A. Sodt,  
 D. Stuck,  K. S. Thanthiriwatte,  V. Vanovschi,  Tao Wang,  A. Warshel,  
 C. F. Williams,  Q. Wu,  X. Xu,  W. Zhang

 Please cite Q-Chem as follows:
 Y. Shao et al., Mol. Phys. 113, 184-215 (2015)
 DOI: 10.1080/00268976.2014.952696

 Q-Chem 5.2.0 for Intel X86 EM64T Linux

 Parts of Q-Chem use Armadillo 8.300.2 (Tropical Shenanigans).
 http://arma.sourceforge.net/

 Q-Chem begins on Sun Sep 26 08:20:53 2021  

Host: cori01
0

     Scratch files written to /tmp/qchem23036//Frg1//
 May1019 |scratch|qcdevops|jenkins|workspace|build_RNUM -1
Processing $rem in /global/common/cori/software/qchem/5.2/config/preferences:
	 MEM_TOTAL  96000 
NAlpha2: 32
NElect   32
Mult     1
Symmetry turned off for PCM/SM12/SMD calculation

Checking the input file for inconsistencies... 	...done.

--------------------------------------------------------------
User input:
--------------------------------------------------------------
$molecule
-1 1
 6	0.8418671732	0.0692683098	4.4608422330
 6	-0.3971328268	-0.1167316902	3.6138422330
 8	-0.4111328268	0.2892683098	2.4358422330
 8	-1.3531328268	-0.6867316902	4.1828422330
 1	1.0038671732	-0.8137316902	5.0808422330
 1	0.6638671732	0.9162683098	5.1268422330
 1	1.7517071732	0.2723383098	3.8769222330
$end
$rem
EDA2		1
METHOD		WB97X-V
BASIS		DEF2-TZVPD
XC_GRID		000099000590
NL_GRID		1
UNRESTRICTED		FALSE
MAX_SCF_CYCLES		200
SYMMETRY		FALSE
SYM_IGNORE		TRUE
BASIS_LIN_DEP_THRESH		6
THRESH		14
SCF_CONVERGENCE		8
SCF_PRINT_FRGM		TRUE
SOLVENT_METHOD		PCM
!required keywords
JOBTYPE		SP
SYM_IGNORE		TRUE
SUBSYSTEM		TRUE
GEN_SCFMAN		TRUE
CHILD_INSTRUCTION		2
SYM_IGNORE		TRUE
SCFMI		0
RI_K 0		
PARI_K 0		
MIN_PARI_K 0		
IARI_K 0		
OCC_RI_K 0		
PURECART		1111
MEM_STATIC		2000
MEM_TOTAL		96000
GUI		0
CHILD_MP		1
CHILD_MP_ORDERS		232
FRZ_RELAX		0
FRZ_RELAX_METHOD		0
EDA_CLS_ELEC		1
EDA_CLS_DISP		0
FRZ_ORTHO_DECOMP		1
EDA2		FALSE
FRGM_METHOD		FALSE
CIS_N_ROOTS  0
LOCAL_CIS    0
CIS_RLX_DNS  1
$end
$pcm
THEORY                  CPCM
METHOD                  SWIG
SOLVER                  INVERSION
RADII                   UFF
HPOINTS                 302
HEAVYPOINTS             302
PRINTLEVEL              0
$end
$solvent
DIELECTRIC              78.390000 ! water
$end
--------------------------------------------------------------
 ----------------------------------------------------------------
             Standard Nuclear Orientation (Angstroms)
    I     Atom           X                Y                Z
 ----------------------------------------------------------------
    1      C       0.8418671732     0.0692683098     4.4608422330
    2      C      -0.3971328268    -0.1167316902     3.6138422330
    3      O      -0.4111328268     0.2892683098     2.4358422330
    4      O      -1.3531328268    -0.6867316902     4.1828422330
    5      H       1.0038671732    -0.8137316902     5.0808422330
    6      H       0.6638671732     0.9162683098     5.1268422330
    7      H       1.7517071732     0.2723383098     3.8769222330
 ----------------------------------------------------------------
 Nuclear Repulsion Energy =         113.01708599 hartrees
 There are       16 alpha and       16 beta electrons
 Requested basis set is def2-TZVPD
 There are 69 shells and 181 basis functions

 Total QAlloc Memory Limit  96000 MB
 Mega-Array Size      1956 MB
 MEM_STATIC part      2000 MB
 Discretize the solute cavity surface with Lebedev spheres
	Using 302 Lebedev grid points for each H atom
	Using 302 Lebedev grid points for other atoms
	Atomic van der Waals radii will be scaled by 1.20
 Remove points where switching function is < 1.0e-08
 Keep 1010 surface tesserae and discard 1104 interior tesserae
 Molecular Surface Area = 119.840 Angst**2

                       Distance Matrix (Angstroms)
             C (  1)   C (  2)   O (  3)   O (  4)   H (  5)   H (  6)
   C (  2)  1.512325
   O (  3)  2.391450  1.246080
   O (  4)  2.338129  1.250039  2.211775
   H (  5)  1.091024  2.144924  3.196069  2.525467
   H (  6)  1.092085  2.117068  2.964833  2.743909  1.763694
   H (  7)  1.100004  2.199568  2.599014  3.263960  1.785563  1.777735

 
 A cutoff of  1.0D-14 yielded   2391 shell pairs
 There are     16695 function pairs (     21491 Cartesian)
 Smallest overlap matrix eigenvalue = 1.67E-05

 Scale SEOQF with 1.000000e-01/1.000000e-01/1.000000e-02

 Standard Electronic Orientation quadrupole field applied
 Nucleus-field energy     =    -0.0000000035 hartrees
 Guess from superposition of atomic densities
 Warning:  Energy on first SCF cycle will be non-variational
 SAD guess density has 30.625312 electrons

 -----------------------------------------------------------------------
  General SCF calculation program by
  Eric Jon Sundstrom, Paul Horn, Yuezhi Mao, Dmitri Zuev, Alec White,
  David Stuck, Shaama M.S., Shane Yost, Joonho Lee, David Small,
  Daniel Levine, Susi Lehtola, Hugh Burton, Evgeny Epifanovsky
 -----------------------------------------------------------------------
 Exchange:     0.1670 Hartree-Fock + 1.0000 wB97X-V + LR-HF
 Correlation:  1.0000 wB97X-V
 Using Euler-Maclaurin-Lebedev (99,590) quadrature formula
 Nonlocal Correlation:  VV10 with C = 0.0100 and b = 6.00 and scale = 1.00000
 Grid used for NLC:  SG-1 standard quadrature
Energy prior to optimization (guess energy) = -227.770471561601
Begin Timing: Total SCF Calculation
begin iterations for algorithm: DIIS         
the SCF tolerance is set to 1.00e-08
    1    -227.7704715616      1.66e-02     00000 
    2    -225.6413379022      2.52e-02     00000 
    3    -228.5777438488      4.13e-03     00000 
    4    -228.6365166208      1.38e-03     00000 
    5    -228.6425683760      2.65e-04     00000 
    6    -228.6427921952      2.12e-04     00000 
    7    -228.6429147446      4.65e-05     00000 
    8    -228.6429248272      1.34e-05     00000 
    9    -228.6429260676      2.77e-06     00000 
   10    -228.6429261677      5.95e-07     00000 
   11    -228.6429261711      2.57e-07     00000 
   12    -228.6429261718      5.91e-08     00000 
   13    -228.6429261718      1.67e-08     00000 
   14    -228.6429261718      2.73e-09     00000 Convergence criterion met
Timing for Total SCF: 289.00s (wall), 567.52s (cpu)

************** Final PCM Free Energy Summary **************
 G_electrostatic  =      -0.10126226 hartree =     -63.54302974 kcal/mol
 G_cavitation     =       0.00000000 hartree =       0.00000000 kcal/mol
 G_dispersion     =       0.00000000 hartree =       0.00000000 kcal/mol
 G_repulsion      =       0.00000000 hartree =       0.00000000 kcal/mol
 --------------------------------------------------
 Non-electrostatic Free Energy =       0.00000000 hartree =       0.00000000 kcal/mol
 Total                         =      -0.10126226 hartree =     -63.54302974 kcal/mol
 --------------------------------------------------
 SCF Energy (H0 + V/2)                       =    -228.64292617 
 Solute Internal Energy (H0)                 =    -228.54166391 
 Total Free Energy (H0 + V/2 + non-elec)     =    -228.64292617 hartree
                                             = -143475.60164998 kcal/mol
***********************************************************

E_pcm = -0.1012622640
Multipole orders to be included
        2
        3
computing dipole RHS
computing quadrupole RHS
total number of RHS in solve_reponses: 8
RHS batch sizes
        8
Beginning Block Conjugate Gradient Iterations. Batch Number: 0
computing hessian-vector products by finite difference
              1      6.69e-01     00000 Conjugate Gradient Iteration
computing hessian-vector products by finite difference
              2      2.40e-01     00000 Conjugate Gradient Iteration
computing hessian-vector products by finite difference
              3      6.32e-02     00000 Conjugate Gradient Iteration
computing hessian-vector products by finite difference
              4      1.66e-02     00000 Conjugate Gradient Iteration
computing hessian-vector products by finite difference
              5      2.92e-03     00000 Conjugate Gradient Iteration
computing hessian-vector products by finite difference
              6      6.85e-04     00000 Conjugate Gradient Iteration
computing hessian-vector products by finite difference
              7      1.12e-04     00000 Conjugate Gradient Iteration
computing hessian-vector products by finite difference
              8      1.37e-05     00000 Conjugate Gradient Iteration
computing hessian-vector products by finite difference
              9      2.18e-06     00000 Conjugate Gradient Iteration
computing hessian-vector products by finite difference
             10      2.61e-07     00000 Conjugate Gradient Iteration
computing hessian-vector products by finite difference
             11      6.70e-08     00000 Conjugate Gradient Iteration
computing hessian-vector products by finite difference
             12      1.33e-08     00000 Conjugate Gradient Iteration
computing hessian-vector products by finite difference
             13      1.44e-09     00000 CG Converged
batch 0 complete
Done Calculating Responses
TESTING ORTHOGONALIZATION OF MULTIPOLE BASIS
Multipole virts passed orthogonality test
Virts Per Order
        48
        80
 
 --------------------------------------------------------------
 
                    Orbital Energies (a.u.)
 --------------------------------------------------------------
 
 Alpha MOs
 -- Occupied --
-19.1238 -19.1202 -10.3234 -10.2370  -1.1334  -1.0352  -0.8280  -0.5923
 -0.5300  -0.5188  -0.5153  -0.4633  -0.4418  -0.3305  -0.3240  -0.3109
 -- Virtual --
  0.0632   0.0953   0.0961   0.1053   0.1306   0.1402   0.1423   0.1452
  0.1705   0.1924   0.2003   0.2217   0.2336   0.2366   0.2627   0.2687
  0.2991   0.3116   0.3343   0.3474   0.3562   0.3633   0.3746   0.3790
  0.3903   0.4086   0.4252   0.4275   0.4345   0.4632   0.4739   0.4777
  0.4899   0.4968   0.5038   0.5240   0.5588   0.5824   0.5981   0.6155
  0.6303   0.6426   0.6492   0.6580   0.6705   0.6889   0.6969   0.7097
  0.7243   0.7401   0.7864   0.8003   0.8124   0.8235   0.8489   0.8605
  0.8711   0.9795   0.9929   0.9992   1.0102   1.0449   1.0698   1.1141
  1.1567   1.2307   1.2609   1.2837   1.2882   1.3183   1.3607   1.3790
  1.4461   1.5685   1.6108   1.7421   1.8307   1.8712   1.8807   1.9166
  1.9342   1.9551   1.9663   1.9805   2.0297   2.1178   2.1326   2.1918
  2.2246   2.2292   2.3183   2.3452   2.4235   2.4474   2.4940   2.5075
  2.5819   2.5864   2.6345   2.6595   2.7882   2.8217   2.8651   2.9119
  2.9480   3.0319   3.0719   3.1771   3.2200   3.2552   3.2774   3.3064
  3.3444   3.3654   3.3957   3.4218   3.4324   3.5402   3.5941   3.6026
  3.6104   3.6740   3.7210   3.7421   3.7709   3.8604   3.9736   4.0627
  4.0982   4.2191   4.3825   4.5857   4.6197   4.6675   4.7997   4.8383
  4.9836   5.3325   5.3612   5.3704   5.3819   5.5217   5.7318   5.7572
  5.8239   6.0326   6.2740   6.3357   6.3618   6.6337   6.6510   6.7068
  6.7513   6.7603   6.9669   6.9766   7.0561   7.2423   7.3834   7.3978
  7.4255  22.6051  23.7747  44.2226  44.3733
 --------------------------------------------------------------
 
          Ground-State Mulliken Net Atomic Charges

     Atom                 Charge (a.u.)
  ----------------------------------------
      1 C                    -0.397149
      2 C                     0.286233
      3 O                    -0.670569
      4 O                    -0.676089
      5 H                     0.161183
      6 H                     0.125863
      7 H                     0.170529
  ----------------------------------------
  Sum of atomic charges =    -1.000000

 -----------------------------------------------------------------
                    Cartesian Multipole Moments
 -----------------------------------------------------------------
    Charge (ESU x 10^10)
                -4.8032
    Dipole Moment (Debye)
         X       5.5482      Y       1.1912      Z     -15.0490
       Tot      16.0833
    Quadrupole Moments (Debye-Ang)
        XX     -34.1700     XY      -3.4395     YY     -27.8542
        XZ      20.9191     YZ       7.4579     ZZ     -79.2777
    Octopole Moments (Debye-Ang^2)
       XXX      31.4083    XXY       7.5743    XYY       9.3909
       YYY       8.7909    XXZ    -129.8144    XYZ     -15.2756
       YYZ    -103.4768    XZZ      89.6818    YZZ      40.5307
       ZZZ    -499.9824
    Hexadecapole Moments (Debye-Ang^3)
      XXXX    -180.3330   XXXY     -26.2995   XXYY     -41.0411
      XYYY     -21.9759   YYYY     -60.5556   XXXZ     102.0039
      XXYZ      34.1679   XYYZ      31.3082   YYYZ      46.9579
      XXZZ    -549.2273   XYZZ     -73.4592   YYZZ    -418.2700
      XZZZ     399.9639   YZZZ     219.8917   ZZZZ   -3192.6641
 -----------------------------------------------------------------
Archival summary:
1\1\nid00506\SP\ProcedureUnspecified\BasisUnspecified\223(1-,1)\meili\SunSep2609:44:222021SunSep2609:44:222021\0\\#,ProcedureUnspecified,BasisUnspecified,\\-1,1\C\O,1,1.24608\O,1,1.25004,2,124.771\C,1,1.51232,2,119.907,3,-179.974,0\H,4,1.09102,1,109.9,2,-140.938,0\H,4,1.09208,1,107.662,2,101.928,0\H,4,1.1,1,113.768,2,-18.1953,0\\\@

 Total job time:  5012.41s(wall), 9812.93s(cpu) 
 Sun Sep 26 09:44:25 2021

        *************************************************************
        *                                                           *
        *  Thank you very much for using Q-Chem.  Have a nice day.  *
        *                                                           *
        *************************************************************


Done Job For Fragment 0
calling putenv with: QCSCRATCH=/global/cscratch1/sd/meili 
calling putenv with: QCLOCALSCR=/tmp 
calling putenv with: QCTHREADS=32 
Creating input file /tmp/qchem23036/Frg2.input
using default PutDataFrgm: nothing
calling putenv with: QCSCRATCH=/tmp/qchem23036/ 
calling putenv with: QCLOCALSCR=/tmp/qchem23036/ 
Spawning Job For Fragment 1
                  Welcome to Q-Chem
     A Quantum Leap Into The Future Of Chemistry


 Q-Chem 5.2, Q-Chem, Inc., Pleasanton, CA (2019)

 License issued to: National Energy Research Scientific Computing Center

 Yihan Shao,  Zhengting Gan,  E. Epifanovsky,  A. T. B. Gilbert,  M. Wormit,  
 J. Kussmann,  A. W. Lange,  A. Behn,  Jia Deng,  Xintian Feng,  D. Ghosh,  
 M. Goldey,  P. R. Horn,  L. D. Jacobson,  I. Kaliman,  T. Kus,  A. Landau,  
 Jie Liu,  E. I. Proynov,  R. M. Richard,  R. P. Steele,  E. J. Sundstrom,  
 H. L. Woodcock III,  P. M. Zimmerman,  D. Zuev,  B. Albrecht,  E. Alguire,  
 S. A. Baeppler,  D. Barton,  Z. Benda,  Y. A. Bernard,  E. J. Berquist,  
 K. B. Bravaya,  H. Burton,  D. Casanova,  Chun-Min Chang,  Yunqing Chen,  
 A. Chien,  K. D. Closser,  M. P. Coons,  S. Coriani,  S. Dasgupta,  
 A. L. Dempwolff,  M. Diedenhofen,  Hainam Do,  R. G. Edgar,  Po-Tung Fang,  
 S. Faraji,  S. Fatehi,  Qingguo Feng,  K. D. Fenk,  J. Fosso-Tande,  
 J. Gayvert,  Qinghui Ge,  A. Ghysels,  G. Gidofalvi,  J. Gomes,  
 J. Gonthier,  A. Gunina,  D. Hait,  M. W. D. Hanson-Heine,  
 P. H. P. Harbach,  A. W. Hauser,  M. F. Herbst,  J. E. Herr,  
 E. G. Hohenstein,  Z. C. Holden,  Kerwin Hui,  B. C. Huynh,  T.-C. Jagau,  
 Hyunjun Ji,  B. Kaduk,  K. Khistyaev,  Jaehoon Kim,  P. Klunzinger,  K. Koh,  
 D. Kosenkov,  L. Koulias,  T. Kowalczyk,  C. M. Krauter,  A. Kunitsa,  
 Ka Un Lao,  A. Laurent,  K. V. Lawler,  Joonho Lee,  D. Lefrancois,  
 S. Lehtola,  D. S. Levine,  Yi-Pei Li,  You-Sheng Lin,  Fenglai Liu,  
 E. Livshits,  A. Luenser,  P. Manohar,  E. Mansoor,  S. F. Manzer,  
 Shan-Ping Mao,  Yuezhi Mao,  N. Mardirossian,  A. V. Marenich,  
 T. Markovich,  L. A. Martinez-Martinez,  S. A. Maurer,  N. J. Mayhall,  
 S. C. McKenzie,  J.-M. Mewes,  P. Morgante,  A. F. Morrison,  
 J. W. Mullinax,  K. Nanda,  T. S. Nguyen-Beck,  R. Olivares-Amaya,  
 J. A. Parkhill,  Zheng Pei,  T. M. Perrine,  F. Plasser,  P. Pokhilko,  
 S. Prager,  A. Prociuk,  E. Ramos,  D. R. Rehn,  F. Rob,  M. Scheurer,  
 M. Schneider,  N. Sergueev,  S. M. Sharada,  S. Sharma,  D. W. Small,  
 T. Stauch,  T. Stein,  Yu-Chuan Su,  A. J. W. Thom,  A. Tkatchenko,  
 T. Tsuchimochi,  N. M. Tubman,  L. Vogt,  M. L. Vidal,  O. Vydrov,  
 M. A. Watson,  J. Wenzel,  M. de Wergifosse,  T. A. Wesolowski,  A. White,  
 J. Witte,  A. Yamada,  Jun Yang,  K. Yao,  S. Yeganeh,  S. R. Yost,  
 Zhi-Qiang You,  A. Zech,  Igor Ying Zhang,  Xing Zhang,  Yan Zhao,  
 Ying Zhu,  B. R. Brooks,  G. K. L. Chan,  C. J. Cramer,  M. S. Gordon,  
 W. J. Hehre,  A. Klamt,  M. W. Schmidt,  C. D. Sherrill,  D. G. Truhlar,  
 A. Aspuru-Guzik,  R. Baer,  A. T. Bell,  N. A. Besley,  Jeng-Da Chai,  
 A. E. DePrince, III,  R. A. DiStasio Jr.,  A. Dreuw,  B. D. Dunietz,  
 T. R. Furlani,  Chao-Ping Hsu,  Yousung Jung,  Jing Kong,  D. S. Lambrecht,  
 WanZhen Liang,  C. Ochsenfeld,  V. A. Rassolov,  L. V. Slipchenko,  
 J. E. Subotnik,  T. Van Voorhis,  J. M. Herbert,  A. I. Krylov,  
 P. M. W. Gill,  M. Head-Gordon

 Contributors to earlier versions of Q-Chem not listed above: 
 R. D. Adamson,  B. Austin,  J. Baker,  G. J. O. Beran,  K. Brandhorst,  
 S. T. Brown,  E. F. C. Byrd,  A. K. Chakraborty,  C.-L. Cheng,  
 Siu Hung Chien,  D. M. Chipman,  D. L. Crittenden,  H. Dachsel,  
 R. J. Doerksen,  A. D. Dutoi,  L. Fusti-Molnar,  W. A. Goddard III,  
 A. Golubeva-Zadorozhnaya,  S. R. Gwaltney,  G. Hawkins,  A. Heyden,  
 S. Hirata,  G. Kedziora,  F. J. Keil,  C. Kelley,  Jihan Kim,  R. A. King,  
 R. Z. Khaliullin,  P. P. Korambath,  W. Kurlancheek,  A. M. Lee,  M. S. Lee,  
 S. V. Levchenko,  Ching Yeh Lin,  D. Liotard,  R. C. Lochan,  I. Lotan,  
 P. E. Maslen,  N. Nair,  D. P. O'Neill,  D. Neuhauser,  E. Neuscamman,  
 C. M. Oana,  R. Olson,  B. Peters,  R. Peverati,  P. A. Pieniazek,  
 Y. M. Rhee,  J. Ritchie,  M. A. Rohrdanz,  E. Rosta,  N. J. Russ,  
 H. F. Schaefer III,  N. E. Schultz,  N. Shenvi,  A. C. Simmonett,  A. Sodt,  
 D. Stuck,  K. S. Thanthiriwatte,  V. Vanovschi,  Tao Wang,  A. Warshel,  
 C. F. Williams,  Q. Wu,  X. Xu,  W. Zhang

 Please cite Q-Chem as follows:
 Y. Shao et al., Mol. Phys. 113, 184-215 (2015)
 DOI: 10.1080/00268976.2014.952696

 Q-Chem 5.2.0 for Intel X86 EM64T Linux

 Parts of Q-Chem use Armadillo 8.300.2 (Tropical Shenanigans).
 http://arma.sourceforge.net/

 Q-Chem begins on Sun Sep 26 09:44:29 2021  

Host: cori01
0

     Scratch files written to /tmp/qchem23036//Frg2//
 May1019 |scratch|qcdevops|jenkins|workspace|build_RNUM -1
Processing $rem in /global/common/cori/software/qchem/5.2/config/preferences:
	 MEM_TOTAL  96000 
NAlpha2: 58
NElect   58
Mult     1
Symmetry turned off for PCM/SM12/SMD calculation

Checking the input file for inconsistencies... 	...done.

--------------------------------------------------------------
User input:
--------------------------------------------------------------
$molecule
0 1
 6	-1.1321328268	-0.6347316902	-4.5381577670
 6	-0.5071328268	0.0242683098	-0.8641577670
 6	-1.1331328268	-0.3007316902	-2.0561577670
 6	0.8058671732	0.3842683098	-0.8381577670
 6	-0.4291328268	-0.2947316902	-3.2501577670
 6	1.5228671732	0.4392683098	-2.0101577670
 6	0.9088671732	0.1002683098	-3.2251577670
 8	1.3418671732	0.6992683098	0.3868422330
 1	-1.0681328268	0.1022683098	0.0428422330
 1	-2.1851328268	-0.5587316902	-2.0511577670
 1	0.6858671732	0.5532683098	1.0988422330
 1	2.5578671732	0.7422683098	-1.9881577670
 1	-1.5871328268	-1.6187316902	-4.4171577670
 1	-0.4071328268	-0.6997316902	-5.3491577670
 1	1.4788671732	0.1412683098	-4.1431577670
 1	-1.9155988268	0.0976983098	-4.7825377670
$end
$rem
EDA2		1
METHOD		WB97X-V
BASIS		DEF2-TZVPD
XC_GRID		000099000590
NL_GRID		1
UNRESTRICTED		FALSE
MAX_SCF_CYCLES		200
SYMMETRY		FALSE
SYM_IGNORE		TRUE
BASIS_LIN_DEP_THRESH		6
THRESH		14
SCF_CONVERGENCE		8
SCF_PRINT_FRGM		TRUE
SOLVENT_METHOD		PCM
!required keywords
JOBTYPE		SP
SYM_IGNORE		TRUE
SUBSYSTEM		TRUE
GEN_SCFMAN		TRUE
CHILD_INSTRUCTION		2
SYM_IGNORE		TRUE
SCFMI		0
RI_K 0		
PARI_K 0		
MIN_PARI_K 0		
IARI_K 0		
OCC_RI_K 0		
PURECART		1111
MEM_STATIC		2000
MEM_TOTAL		96000
GUI		0
CHILD_MP		1
CHILD_MP_ORDERS		232
FRZ_RELAX		0
FRZ_RELAX_METHOD		0
EDA_CLS_ELEC		1
EDA_CLS_DISP		0
FRZ_ORTHO_DECOMP		1
EDA2		FALSE
FRGM_METHOD		FALSE
CIS_N_ROOTS  0
LOCAL_CIS    0
CIS_RLX_DNS  1
$end
$pcm
THEORY                  CPCM
METHOD                  SWIG
SOLVER                  INVERSION
RADII                   UFF
HPOINTS                 302
HEAVYPOINTS             302
PRINTLEVEL              0
$end
$solvent
DIELECTRIC              78.390000 ! water
$end
--------------------------------------------------------------
 ----------------------------------------------------------------
             Standard Nuclear Orientation (Angstroms)
    I     Atom           X                Y                Z
 ----------------------------------------------------------------
    1      C      -1.1321328268    -0.6347316902    -4.5381577670
    2      C      -0.5071328268     0.0242683098    -0.8641577670
    3      C      -1.1331328268    -0.3007316902    -2.0561577670
    4      C       0.8058671732     0.3842683098    -0.8381577670
    5      C      -0.4291328268    -0.2947316902    -3.2501577670
    6      C       1.5228671732     0.4392683098    -2.0101577670
    7      C       0.9088671732     0.1002683098    -3.2251577670
    8      O       1.3418671732     0.6992683098     0.3868422330
    9      H      -1.0681328268     0.1022683098     0.0428422330
   10      H      -2.1851328268    -0.5587316902    -2.0511577670
   11      H       0.6858671732     0.5532683098     1.0988422330
   12      H       2.5578671732     0.7422683098    -1.9881577670
   13      H      -1.5871328268    -1.6187316902    -4.4171577670
   14      H      -0.4071328268    -0.6997316902    -5.3491577670
   15      H       1.4788671732     0.1412683098    -4.1431577670
   16      H      -1.9155988268     0.0976983098    -4.7825377670
 ----------------------------------------------------------------
 Nuclear Repulsion Energy =         344.32290857 hartrees
 There are       29 alpha and       29 beta electrons
 Requested basis set is def2-TZVPD
 There are 145 shells and 371 basis functions

 Total QAlloc Memory Limit  96000 MB
 Mega-Array Size      1956 MB
 MEM_STATIC part      2000 MB
 Discretize the solute cavity surface with Lebedev spheres
	Using 302 Lebedev grid points for each H atom
	Using 302 Lebedev grid points for other atoms
	Atomic van der Waals radii will be scaled by 1.20
 Remove points where switching function is < 1.0e-08
 Keep 1858 surface tesserae and discard 2974 interior tesserae
 Molecular Surface Area = 189.872 Angst**2
 A cutoff of  1.0D-14 yielded  10048 shell pairs
 There are     67120 function pairs (     85829 Cartesian)
 Smallest overlap matrix eigenvalue = 5.29E-07
 Linear dependence detected in AO basis
 Tighter screening thresholds may be required for diffuse basis sets
 Use S2THRESH > 14 and THRESH = 14 in case of SCF convergence issues
 Number of orthogonalized atomic orbitals = 370
 Maximum deviation from orthogonality = 1.606E-10

 Scale SEOQF with 1.000000e-01/1.000000e-01/1.000000e-02

 Standard Electronic Orientation quadrupole field applied
 Nucleus-field energy     =    -0.0000000006 hartrees
 Guess from superposition of atomic densities
 Warning:  Energy on first SCF cycle will be non-variational
 SAD guess density has 57.738434 electrons

 -----------------------------------------------------------------------
  General SCF calculation program by
  Eric Jon Sundstrom, Paul Horn, Yuezhi Mao, Dmitri Zuev, Alec White,
  David Stuck, Shaama M.S., Shane Yost, Joonho Lee, David Small,
  Daniel Levine, Susi Lehtola, Hugh Burton, Evgeny Epifanovsky
 -----------------------------------------------------------------------
 Exchange:     0.1670 Hartree-Fock + 1.0000 wB97X-V + LR-HF
 Correlation:  1.0000 wB97X-V
 Using Euler-Maclaurin-Lebedev (99,590) quadrature formula
 Nonlocal Correlation:  VV10 with C = 0.0100 and b = 6.00 and scale = 1.00000
 Grid used for NLC:  SG-1 standard quadrature
Energy prior to optimization (guess energy) = -346.488391613658
Begin Timing: Total SCF Calculation
begin iterations for algorithm: DIIS         
the SCF tolerance is set to 1.00e-08
    1    -346.4883916137      5.19e-03     00000 
    2    -346.4165366461      5.66e-03     00000 
    3    -346.8082016330      5.45e-04     00000 
    4    -346.8124429761      1.84e-04     00000 
    5    -346.8130703093      2.47e-05     00000 
    6    -346.8130901314      1.08e-05     00000 
    7    -346.8130928344      3.73e-06     00000 
    8    -346.8130932105      1.16e-06     00000 
    9    -346.8130932620      5.73e-07     00000 
   10    -346.8130932726      1.44e-07     00000 
   11    -346.8130932748      6.33e-08     00000 
   12    -346.8130932752      3.54e-08     00000 
   13    -346.8130932753      8.46e-09     00000 Convergence criterion met
Timing for Total SCF: 2112.00s (wall), 4196.91s (cpu)

************** Final PCM Free Energy Summary **************
 G_electrostatic  =      -0.00561619 hartree =      -3.52421490 kcal/mol
 G_cavitation     =       0.00000000 hartree =       0.00000000 kcal/mol
 G_dispersion     =       0.00000000 hartree =       0.00000000 kcal/mol
 G_repulsion      =       0.00000000 hartree =       0.00000000 kcal/mol
 --------------------------------------------------
 Non-electrostatic Free Energy =       0.00000000 hartree =       0.00000000 kcal/mol
 Total                         =      -0.00561619 hartree =      -3.52421490 kcal/mol
 --------------------------------------------------
 SCF Energy (H0 + V/2)                       =    -346.81309328 
 Solute Internal Energy (H0)                 =    -346.80747708 
 Total Free Energy (H0 + V/2 + non-elec)     =    -346.81309328 hartree
                                             = -217628.50069703 kcal/mol
***********************************************************

E_pcm = -0.0056161940
Multipole orders to be included
        2
        3
computing dipole RHS
computing quadrupole RHS
total number of RHS in solve_reponses: 8
RHS batch sizes
        8
Beginning Block Conjugate Gradient Iterations. Batch Number: 0
computing hessian-vector products by finite difference
              1      5.98e-01     00000 Conjugate Gradient Iteration
computing hessian-vector products by finite difference
              2      1.93e-01     00000 Conjugate Gradient Iteration
computing hessian-vector products by finite difference
              3      4.92e-02     00000 Conjugate Gradient Iteration
computing hessian-vector products by finite difference
              4      1.35e-02     00000 Conjugate Gradient Iteration
computing hessian-vector products by finite difference
              5      3.40e-03     00000 Conjugate Gradient Iteration
computing hessian-vector products by finite difference
              6      1.35e-03     00000 Conjugate Gradient Iteration
computing hessian-vector products by finite difference
              7      3.50e-04     00000 Conjugate Gradient Iteration
computing hessian-vector products by finite difference
              8      6.96e-05     00000 Conjugate Gradient Iteration
computing hessian-vector products by finite difference
              9      1.30e-05     00000 Conjugate Gradient Iteration
computing hessian-vector products by finite difference
             10      1.75e-06     00000 Conjugate Gradient Iteration
computing hessian-vector products by finite difference
             11      2.64e-07     00000 Conjugate Gradient Iteration
computing hessian-vector products by finite difference
             12      7.57e-08     00000 Conjugate Gradient Iteration
computing hessian-vector products by finite difference
             13      1.21e-08     00000 Conjugate Gradient Iteration
computing hessian-vector products by finite difference
             14      3.06e-09     00000 CG Converged
batch 0 complete
Done Calculating Responses
TESTING ORTHOGONALIZATION OF MULTIPOLE BASIS
Multipole virts passed orthogonality test
Virts Per Order
           87
          145
 
 --------------------------------------------------------------
 
                    Orbital Energies (a.u.)
 --------------------------------------------------------------
 
 Alpha MOs
 -- Occupied --
-19.2441 -10.3296 -10.2767 -10.2759 -10.2723 -10.2719 -10.2662 -10.2620
 -1.1892  -0.9997  -0.9055  -0.8850  -0.8118  -0.7514  -0.7130  -0.6650
 -0.6069  -0.5810  -0.5525  -0.5433  -0.5330  -0.5220  -0.5103  -0.4793
 -0.4560  -0.4442  -0.4403  -0.3526  -0.3169
 -- Virtual --
  0.0571   0.0590   0.0682   0.0800   0.0830   0.0944   0.1081   0.1101
  0.1141   0.1310   0.1434   0.1502   0.1560   0.1681   0.1783   0.1909
  0.1976   0.2022   0.2130   0.2267   0.2322   0.2401   0.2462   0.2529
  0.2629   0.2661   0.2724   0.2747   0.2827   0.2956   0.2965   0.3026
  0.3041   0.3093   0.3125   0.3236   0.3319   0.3388   0.3451   0.3515
  0.3527   0.3547   0.3657   0.3694   0.3757   0.3789   0.3802   0.3893
  0.3935   0.3978   0.4024   0.4071   0.4128   0.4227   0.4270   0.4307
  0.4355   0.4561   0.4573   0.4631   0.4736   0.4778   0.4848   0.4858
  0.4870   0.4906   0.5003   0.5046   0.5097   0.5170   0.5299   0.5358
  0.5405   0.5472   0.5499   0.5521   0.5601   0.5657   0.5718   0.5936
  0.6008   0.6058   0.6211   0.6282   0.6447   0.6562   0.6601   0.6669
  0.6794   0.6838   0.6932   0.7005   0.7056   0.7088   0.7155   0.7273
  0.7295   0.7357   0.7456   0.7489   0.7603   0.7681   0.7839   0.7851
  0.7878   0.7905   0.7973   0.8002   0.8035   0.8168   0.8236   0.8366
  0.8427   0.8482   0.8537   0.8591   0.8645   0.8719   0.8819   0.8864
  0.9051   0.9136   0.9367   0.9530   0.9595   0.9823   1.0037   1.0075
  1.0180   1.0412   1.0455   1.0495   1.0576   1.0622   1.0790   1.0927
  1.1027   1.1180   1.1320   1.1630   1.2054   1.2274   1.2763   1.3048
  1.3134   1.3206   1.3239   1.3621   1.3708   1.3824   1.4058   1.4357
  1.4569   1.4705   1.4757   1.4887   1.5362   1.5749   1.6138   1.6272
  1.6372   1.6467   1.6733   1.6824   1.7052   1.7343   1.7512   1.7955
  1.8136   1.8259   1.8387   1.8607   1.8635   1.8715   1.9134   1.9265
  1.9445   1.9546   1.9774   1.9916   1.9931   2.0296   2.0324   2.0568
  2.0594   2.0742   2.0896   2.1128   2.1266   2.1517   2.2048   2.2093
  2.2267   2.2401   2.2651   2.2837   2.3029   2.3131   2.3416   2.3703
  2.4076   2.4143   2.4386   2.4603   2.4825   2.5002   2.5348   2.5564
  2.5754   2.5941   2.6272   2.6396   2.6568   2.6661   2.6856   2.7501
  2.7670   2.7703   2.7800   2.8078   2.8178   2.8383   2.8766   2.8790
  2.9161   2.9275   2.9387   2.9447   2.9633   2.9819   2.9870   3.0047
  3.0269   3.0433   3.0702   3.0897   3.1156   3.1401   3.1451   3.1627
  3.1835   3.1879   3.2113   3.2171   3.2316   3.2477   3.2877   3.2946
  3.3021   3.3660   3.3809   3.3967   3.4044   3.4205   3.4472   3.4524
  3.4607   3.4774   3.4932   3.5096   3.5255   3.5418   3.5434   3.5473
  3.5530   3.5653   3.5863   3.5996   3.6173   3.6302   3.6519   3.6809
  3.7038   3.7096   3.7344   3.7528   3.7944   3.8080   3.8605   3.9215
  3.9384   3.9766   3.9780   4.0038   4.0604   4.0893   4.1653   4.1899
  4.2572   4.2798   4.2870   4.3125   4.3367   4.3580   4.3641   4.3794
  4.4035   4.4206   4.4437   4.4742   4.4993   4.5770   4.6096   4.6144
  4.7474   4.7709   4.8100   4.8222   4.8455   4.9312   5.0219   5.0645
  5.0795   5.1441   5.1820   5.3124   5.3697   5.4119   5.4516   5.5381
  5.5951   5.6547   5.7155   5.7557   5.9406   6.1839   6.4937   6.5635
  6.6342   6.8717   7.0226   7.3007   7.4425  22.6686  22.6811  22.9718
 22.9886  23.0732  23.2295  23.5690  44.4225
 --------------------------------------------------------------
 
          Ground-State Mulliken Net Atomic Charges

     Atom                 Charge (a.u.)
  ----------------------------------------
      1 C                    -0.995506
      2 C                    -0.259941
      3 C                    -0.640667
      4 C                     0.863001
      5 C                     0.487282
      6 C                    -0.778046
      7 C                    -0.451663
      8 O                    -0.500771
      9 H                     0.280334
     10 H                     0.337164
     11 H                     0.294405
     12 H                     0.326912
     13 H                     0.246137
     14 H                     0.268619
     15 H                     0.294156
     16 H                     0.228585
  ----------------------------------------
  Sum of atomic charges =     0.000000

 -----------------------------------------------------------------
                    Cartesian Multipole Moments
 -----------------------------------------------------------------
    Charge (ESU x 10^10)
                -0.0000
    Dipole Moment (Debye)
         X      -1.8450      Y      -0.4718      Z       0.0594
       Tot       1.9053
    Quadrupole Moments (Debye-Ang)
        XX     -47.3827     XY       0.2228     YY     -51.4216
        XZ      -0.9883     YZ       1.0134     ZZ     -40.1694
    Octopole Moments (Debye-Ang^2)
       XXX     -22.5859    XXY      -2.5723    XYY      -8.6056
       YYY      -6.5622    XXZ      89.7796    XYZ      -4.3343
       YYZ     106.6538    XZZ      -2.8315    YZZ      -3.8430
       ZZZ     277.3673
    Hexadecapole Moments (Debye-Ang^3)
      XXXX    -403.7537   XXXY     -58.8105   XXYY     -93.1446
      XYYY     -66.6026   YYYY    -124.0411   XXXZ     -86.2027
      XXYZ     -30.1695   XYYZ     -21.5287   YYYZ     -69.4306
      XXZZ    -389.5353   XYZZ     -14.8336   YYZZ    -382.4327
      XZZZ     -96.2909   YZZZ     -58.1169   ZZZZ   -1943.4264
 -----------------------------------------------------------------
Archival summary:
1\1\nid00506\SP\ProcedureUnspecified\BasisUnspecified\178\meili\SunSep2621:17:372021SunSep2621:17:372021\0\\#,ProcedureUnspecified,BasisUnspecified,\\0,1\C\C,1,1.36171\H,2,1.06932,1,118.059\O,1,1.37373,2,116.992,3,6.09697,0\H,4,0.979079,1,110.662,2,3.97915,0\C,1,1.37503,2,119.808,3,-172.867,0\H,6,1.07866,1,119.616,2,178.885,0\C,2,1.38505,1,120.949,3,173.448,0\H,8,1.08319,2,119.398,1,-178.425,0\C,8,1.38611,2,120.715,1,1.38024,0\C,10,1.39531,8,118.218,2,-2.60711,0\H,11,1.08134,10,120.066,8,-178.375,0\C,10,1.50624,8,119.906,2,-179.249,0\H,13,1.08976,10,109.836,8,-173.105,0\H,13,1.09084,10,107.665,8,-55.9402,0\H,13,1.1,10,111.845,8,63.9768,0\\\@

 Total job time:  41591.35s(wall), 82514.22s(cpu) 
 Sun Sep 26 21:17:40 2021

        *************************************************************
        *                                                           *
        *  Thank you very much for using Q-Chem.  Have a nice day.  *
        *                                                           *
        *************************************************************


Done Job For Fragment 1
calling putenv with: QCSCRATCH=/global/cscratch1/sd/meili 
calling putenv with: QCLOCALSCR=/tmp 
calling putenv with: QCTHREADS=32 
Doing General SCFMI
 Exchange:     0.1670 Hartree-Fock + 1.0000 wB97X-V + LR-HF
 Correlation:  1.0000 wB97X-V
 Using Euler-Maclaurin-Lebedev (99,590) quadrature formula
 Nonlocal Correlation:  VV10 with C = 0.0100 and b = 6.00 and scale = 1.00000
 Grid used for NLC:  SG-1 standard quadrature
performing fock build before subrot guess so that all methods have access
Printing subrot_rss_gen Method Specification:
Occupied Subspace Method is 0
Virtual Subspace Method is 0
Energy of the unrelaxed supersystem initial determinant -575.368344153051
performing fock build before subrot guess so that all methods have access
Printing subrot_rss_gen Method Specification:
Occupied Subspace Method is 0
Virtual Subspace Method is 0
Energy of the unrelaxed supersystem initial determinant w/ solvent -575.462145691433
write pseudocanon occs and virts to disk
write pseudocanon orbital energies to disk
Tolerance of ortho_decomp_scf: 1.00e-06
GDM subspace size: 20
Beginning the Orthogonal Decomposition of the Initial Supersystem Wavefunction
    1    -575.2727217858      8.37e-02     ortho_decomp Preconditoned Steepest Descent
    2    -575.2853391885      1.74e-03     ortho_decomp BFGS Step
    3    -575.2853735169      1.53e-04     ortho_decomp BFGS Step
    4    -575.2853736065      6.36e-06     ortho_decomp BFGS Step
    5    -575.2853736067      2.29e-07     ortho_decomp 00000 Convergence criterion met
 Hartree-Fock
 Hartree-Fock
 Hartree-Fock
Doing General SCFMI
 Exchange:     0.1670 Hartree-Fock + 1.0000 wB97X-V + LR-HF
 Correlation:  1.0000 wB97X-V
 Using Euler-Maclaurin-Lebedev (99,590) quadrature formula
 Nonlocal Correlation:  VV10 with C = 0.0100 and b = 6.00 and scale = 1.00000
 Grid used for NLC:  SG-1 standard quadrature
performing fock build at end of subrot_r(subrot) constructor so that all methods have access
<S^2> of initial wavefunction before polarization iterations 0.0000000000
Beginning iterations for the determination of the polarized wavefunction
Energy prior to optimization (guess energy) = -575.462145691433
Begin Timing: Total SCF Calculation
begin iterations for algorithm: DIIS         
the SCF tolerance is set to 1.00e-08
    1    -575.4621456914      2.25e-04     00000 
    2    -575.4668357732      8.34e-05     00000 
    3    -575.4673494754      5.44e-05     00000 
    4    -575.4675176324      1.73e-05     00000 
    5    -575.4675450830      7.44e-06     00000 
    6    -575.4675519172      3.15e-06     00000 
    7    -575.4675533519      1.41e-06     00000 
    8    -575.4675535441      8.74e-07     00000 
    9    -575.4675535863      2.33e-07     00000 
   10    -575.4675535898      1.24e-07     00000 
   11    -575.4675535909      3.78e-08     00000 
   12    -575.4675535911      2.03e-08     00000 
   13    -575.4675535911      7.64e-09     00000 Convergence criterion met
write pseudocanon occs and virts to disk
write pseudocanon orbital energies to disk
Timing for Total SCF: 5878.00s (wall), 11701.21s (cpu)
<S^2> of polarized wavefunction after polarization iterations 0.0000000000
relaxing scfmi constraint to allow all rotations in the entire AO span
Doing General SCFMI
 Exchange:     0.1670 Hartree-Fock + 1.0000 wB97X-V + LR-HF
 Correlation:  1.0000 wB97X-V
 Using Euler-Maclaurin-Lebedev (99,590) quadrature formula
 Nonlocal Correlation:  VV10 with C = 0.0100 and b = 6.00 and scale = 1.00000
 Grid used for NLC:  SG-1 standard quadrature
performing fock build at end of subrot_r(subrot) constructor so that all methods have access
<S^2> of polarized wavefunction before ct-allowed iterations 0.0000000000
Beginning iterations for the determination of the CT-Allowed wavefunction
Energy prior to optimization (guess energy) = -575.467553591079
Begin Timing: Total SCF Calculation
begin iterations for algorithm: DIIS         
the SCF tolerance is set to 1.00e-08
    1    -575.4675535911      1.97e-04     00000 
    2    -575.4741950708      3.26e-05     00000 
    3    -575.4744482584      1.88e-05     00000 
    4    -575.4744827729      7.13e-06     00000 
    5    -575.4744898628      2.12e-06     00000 
    6    -575.4744904579      6.78e-07     00000 
    7    -575.4744905552      2.80e-07     00000 
    8    -575.4744905719      5.70e-08     00000 
    9    -575.4744905735      2.28e-08     00000 
   10    -575.4744905737      1.10e-08     00000 
   11    -575.4744905738      3.29e-09     00000 Convergence criterion met
write pseudocanon occs and virts to disk
write pseudocanon orbital energies to disk
Timing for Total SCF: 4864.00s (wall), 9661.45s (cpu)
<S^2> of ct_allowed wavefunction after ct-allowed iterations 0.0000000000

================================
        Results of EDA2         
================================
Basic EDA Quantities
--------------------
Fragment Energies (Ha):
1 -228.6429261718
2 -346.8130932753
--------------------
  E_prp (kJ/mol) = 0.0000
  E_sol (kJ/mol) = 34.3339
  E_frz (kJ/mol) = -50.4185
  E_pol (kJ/mol) = -14.1986
  E_vct (kJ/mol) = -18.2133
  E_int (kJ/mol) = -48.4965
--------------------


Initial Wavefunction Decomposition
--------------------
  --------------------
  Orthogonal Fragment Subspace Decomposition:
  --------------------
     E_elec   (ELEC)   (kJ/mol) = -170.1622
     E_pauli  (PAULI)  (kJ/mol) = 137.9142
     E_disp   (DISP)   (kJ/mol) = -18.1705
     --------------------
     Terms summing to E_pauli:
     --------------------
        E_kep_pauli       (kJ/mol) = 167.4232
        E_disp_free_pauli (kJ/mol) = -29.5090
  --------------------
  Classical Frozen Decomposition:
  --------------------
     E_cls_elec  (CLS ELEC)  (kJ/mol) = -108.6044
     E_cls_pauli (CLS PAULI) (kJ/mol) = 58.1859
    [E_mod_pauli (MOD PAULI) (kJ/mol) = 76.3564 (CLS PAULI - DISP from orthogonal decomposition) ]
  --------------------
--------------------

Simplified EDA Summary (kJ/mol)
--------------------
 PREPARATION     0.0000
 SOLVATION       34.3339
 FROZEN          -32.2480      (does not include dispersion)
[PAULI           137.9142]     (if this is negligible, then frozen describes electrostatics)
 DISPERSION      -18.1705
 POLARIZATION    -14.1986
 CHARGE TRANSFER -18.2133
 TOTAL           -48.4965     (PRP + SOL + FRZ + DISP + POL + CT)
--------------------
 
 --------------------------------------------------------------
 
                    Orbital Energies (a.u.)
 --------------------------------------------------------------
 
 Alpha MOs
 -- Occupied --
-19.2106 -19.1409 -19.1293 -10.3361 -10.3159 -10.2693 -10.2680 -10.2638
-10.2620 -10.2584 -10.2518 -10.2418  -1.1622  -1.1463  -1.0493  -0.9900
 -0.8964  -0.8753  -0.8339  -0.8032  -0.7403  -0.7018  -0.6510  -0.6081
 -0.5924  -0.5713  -0.5462  -0.5375  -0.5356  -0.5314  -0.5244  -0.5211
 -0.5090  -0.4989  -0.4756  -0.4635  -0.4511  -0.4452  -0.4302  -0.4264
 -0.3456  -0.3427  -0.3379  -0.3230  -0.3042
 -- Virtual --
  0.0570   0.0658   0.0685   0.0766   0.0852   0.0895   0.0929   0.1015
  0.1077   0.1095   0.1171   0.1225   0.1311   0.1382   0.1484   0.1546
  0.1554   0.1619   0.1664   0.1721   0.1755   0.1904   0.1930   0.1990
  0.2043   0.2078   0.2159   0.2193   0.2281   0.2323   0.2372   0.2414
  0.2431   0.2541   0.2571   0.2608   0.2664   0.2686   0.2740   0.2788
  0.2848   0.2927   0.2966   0.3002   0.3015   0.3036   0.3105   0.3170
  0.3192   0.3246   0.3319   0.3348   0.3398   0.3422   0.3488   0.3515
  0.3575   0.3594   0.3624   0.3656   0.3725   0.3766   0.3792   0.3803
  0.3853   0.3873   0.3909   0.3950   0.3976   0.3999   0.4082   0.4119
  0.4136   0.4226   0.4245   0.4282   0.4332   0.4394   0.4400   0.4450
  0.4517   0.4554   0.4594   0.4619   0.4666   0.4705   0.4751   0.4805
  0.4825   0.4874   0.4889   0.4924   0.4991   0.5049   0.5090   0.5124
  0.5186   0.5206   0.5230   0.5303   0.5359   0.5430   0.5446   0.5491
  0.5538   0.5638   0.5651   0.5711   0.5742   0.5842   0.5882   0.5957
  0.5968   0.6082   0.6132   0.6157   0.6178   0.6262   0.6344   0.6395
  0.6459   0.6536   0.6596   0.6666   0.6745   0.6767   0.6817   0.6897
  0.7003   0.7014   0.7029   0.7121   0.7202   0.7236   0.7290   0.7311
  0.7370   0.7404   0.7454   0.7516   0.7526   0.7618   0.7623   0.7715
  0.7734   0.7778   0.7878   0.7893   0.8000   0.8038   0.8066   0.8159
  0.8186   0.8214   0.8225   0.8309   0.8347   0.8362   0.8375   0.8443
  0.8531   0.8558   0.8608   0.8661   0.8670   0.8756   0.8820   0.8859
  0.9005   0.9064   0.9095   0.9186   0.9233   0.9400   0.9484   0.9573
  0.9690   0.9777   0.9844   0.9954   1.0018   1.0128   1.0313   1.0365
  1.0418   1.0523   1.0555   1.0641   1.0691   1.0753   1.0816   1.0896
  1.1121   1.1155   1.1183   1.1210   1.1356   1.1511   1.1618   1.1749
  1.1832   1.2007   1.2038   1.2293   1.2476   1.2616   1.3030   1.3156
  1.3283   1.3360   1.3427   1.3527   1.3557   1.3733   1.3771   1.3816
  1.3966   1.4021   1.4156   1.4194   1.4321   1.4346   1.4651   1.4833
  1.4869   1.4993   1.5072   1.5180   1.5604   1.5920   1.6279   1.6398
  1.6439   1.6608   1.6652   1.6862   1.7054   1.7102   1.7184   1.7299
  1.7461   1.7687   1.8235   1.8416   1.8516   1.8538   1.8787   1.8922
  1.8972   1.9027   1.9242   1.9300   1.9360   1.9416   1.9671   1.9685
  1.9808   1.9897   1.9901   1.9988   2.0024   2.0176   2.0245   2.0469
  2.0532   2.0614   2.0803   2.0987   2.1049   2.1084   2.1155   2.1402
  2.1575   2.1622   2.1683   2.1854   2.2141   2.2216   2.2389   2.2454
  2.2531   2.2693   2.2786   2.2890   2.3208   2.3367   2.3482   2.3639
  2.3806   2.4073   2.4157   2.4216   2.4290   2.4523   2.4595   2.4779
  2.4972   2.5304   2.5408   2.5448   2.5595   2.5733   2.5890   2.6004
  2.6051   2.6308   2.6377   2.6516   2.6578   2.6629   2.6726   2.6922
  2.7068   2.7498   2.7674   2.7826   2.7976   2.8004   2.8171   2.8197
  2.8390   2.8492   2.8749   2.8920   2.9105   2.9172   2.9312   2.9454
  2.9538   2.9599   2.9678   2.9827   2.9868   3.0050   3.0169   3.0381
  3.0583   3.0733   3.0841   3.0981   3.1089   3.1151   3.1514   3.1670
  3.1787   3.1947   3.2039   3.2057   3.2107   3.2283   3.2349   3.2421
  3.2490   3.2600   3.2794   3.2998   3.3051   3.3158   3.3252   3.3437
  3.3810   3.3890   3.3986   3.4084   3.4193   3.4272   3.4452   3.4483
  3.4543   3.4613   3.4707   3.4764   3.4933   3.5032   3.5145   3.5327
  3.5482   3.5560   3.5589   3.5662   3.5765   3.5815   3.5890   3.5983
  3.6085   3.6305   3.6323   3.6401   3.6567   3.6663   3.6907   3.6993
  3.7183   3.7237   3.7239   3.7309   3.7372   3.7623   3.7654   3.7931
  3.7972   3.8485   3.8700   3.8909   3.9415   3.9647   3.9863   3.9934
  4.0008   4.0260   4.0767   4.0853   4.1037   4.1047   4.1798   4.2300
  4.2696   4.2900   4.3074   4.3127   4.3331   4.3568   4.3713   4.3756
  4.3917   4.4017   4.4172   4.4420   4.4813   4.4951   4.5279   4.6006
  4.6048   4.6237   4.6266   4.6511   4.6881   4.7710   4.7841   4.8244
  4.8344   4.8368   4.8565   4.9111   4.9496   5.0001   5.0483   5.0879
  5.0959   5.1703   5.2068   5.3254   5.3264   5.3453   5.3638   5.3805
  5.3910   5.4409   5.4667   5.5164   5.5530   5.6406   5.6722   5.7193
  5.7355   5.7583   5.7744   5.8202   5.9760   6.0369   6.2388   6.2926
  6.3633   6.4125   6.5222   6.6027   6.6670   6.6840   6.7009   6.7457
  6.7690   6.7889   6.9175   6.9914   7.0262   7.0604   7.0958   7.2618
  7.3679   7.3982   7.4335   7.4585   7.6370  22.6213  22.6908  22.7062
 22.9920  23.0116  23.0972  23.2490  23.5924  23.8000  44.3615  44.4173
 44.5435
 --------------------------------------------------------------
 
          Ground-State Mulliken Net Atomic Charges

     Atom                 Charge (a.u.)
  ----------------------------------------
      1 C                    -0.464017
      2 C                     0.248495
      3 O                    -0.667503
      4 O                    -0.667778
      5 H                     0.186057
      6 H                     0.158953
      7 H                     0.156294
      8 C                    -0.996091
      9 C                    -0.176396
     10 C                    -0.643861
     11 C                     0.514381
     12 C                     0.263605
     13 C                    -0.590604
     14 C                    -0.309910
     15 O                    -0.498415
     16 H                     0.427602
     17 H                     0.357762
     18 H                     0.334470
     19 H                     0.333340
     20 H                     0.244779
     21 H                     0.249294
     22 H                     0.314625
     23 H                     0.224922
  ----------------------------------------
  Sum of atomic charges =    -1.000000

 -----------------------------------------------------------------
                    Cartesian Multipole Moments
 -----------------------------------------------------------------
    Charge (ESU x 10^10)
                -4.8032
    Dipole Moment (Debye)
         X       3.2098      Y       0.6013      Z     -13.0575
       Tot      13.4597
    Quadrupole Moments (Debye-Ang)
        XX     -82.2940     XY      -3.4966     YY     -79.3687
        XZ      19.3325     YZ       8.1061     ZZ    -117.8049
    Octopole Moments (Debye-Ang^2)
       XXX       6.0751    XXY       4.2588    XYY       0.1149
       YYY       1.8508    XXZ     -34.7208    XYZ     -18.6062
       YYZ       5.9235    XZZ      84.8954    YZZ      35.9268
       ZZZ    -188.6572
    Hexadecapole Moments (Debye-Ang^3)
      XXXX    -590.3388   XXXY     -86.8456   XXYY    -135.2528
      XYYY     -89.4072   YYYY    -185.0474   XXXZ      12.9757
      XXYZ       2.9013   XYYZ       8.6961   YYYZ     -23.8232
      XXZZ    -935.0836   XYZZ     -87.4532   YYZZ    -797.7372
      XZZZ     292.5004   YZZZ     151.5516   ZZZZ   -5082.6042
 -----------------------------------------------------------------
Archival summary:
1\1\nid00506\SP\ProcedureUnspecified\BasisUnspecified\3911(1-,1)\meili\MonSep2702:16:042021MonSep2702:16:042021\0\\#,ProcedureUnspecified,BasisUnspecified,\\-1,1\O\H,1,0.979079\C,1,1.37373,2,110.662\C,3,1.36171,1,116.992,2,3.97915,0\H,4,1.06932,3,118.059,1,6.09697,0\C,3,1.37503,1,123.191,2,-177.095,0\H,6,1.07866,3,119.616,1,-0.0123679,0\C,4,1.38505,3,120.949,1,179.545,0\H,8,1.08319,4,119.398,3,-178.425,0\C,8,1.38611,4,120.715,3,1.38024,0\C,10,1.39531,8,118.218,4,-2.60711,0\H,11,1.08134,10,120.066,8,-178.375,0\C,10,1.50624,8,119.906,4,-179.249,0\H,13,1.08976,10,109.836,8,-173.105,0\H,13,1.09084,10,107.665,8,-55.9402,0\H,13,1.1,10,111.845,8,63.9768,0\O,2,1.74948,1,176.748,3,160.193,0\C,17,1.24608,2,139.871,1,-17.7136,0\O,18,1.25004,17,124.771,2,-150.366,0\C,18,1.51232,17,119.907,2,29.6594,0\H,20,1.09102,18,109.9,17,-140.938,0\H,20,1.09208,18,107.662,17,101.928,0\H,20,1.1,18,113.768,17,-18.1953,0\\\@

 Total job time:  64520.01s(wall), 35647.90s(cpu) 
 Mon Sep 27 02:16:07 2021

        *************************************************************
        *                                                           *
        *  Thank you very much for using Q-Chem.  Have a nice day.  *
        *                                                           *
        *************************************************************


