
Running Job 1 of 1 SSI-078GLN-088GLU-1_PCM_TZVPD.in
qchem SSI-078GLN-088GLU-1_PCM_TZVPD.in_54836.0 /tmp/qchem54836/ 0
/global/common/cori/software/qchem/5.2/exe/qcprog.exe_s SSI-078GLN-088GLU-1_PCM_TZVPD.in_54836.0 /tmp/qchem54836/
                  Welcome to Q-Chem
     A Quantum Leap Into The Future Of Chemistry


 Q-Chem 5.2, Q-Chem, Inc., Pleasanton, CA (2019)

 License issued to: National Energy Research Scientific Computing Center

 Yihan Shao,  Zhengting Gan,  E. Epifanovsky,  A. T. B. Gilbert,  M. Wormit,  
 J. Kussmann,  A. W. Lange,  A. Behn,  Jia Deng,  Xintian Feng,  D. Ghosh,  
 M. Goldey,  P. R. Horn,  L. D. Jacobson,  I. Kaliman,  T. Kus,  A. Landau,  
 Jie Liu,  E. I. Proynov,  R. M. Richard,  R. P. Steele,  E. J. Sundstrom,  
 H. L. Woodcock III,  P. M. Zimmerman,  D. Zuev,  B. Albrecht,  E. Alguire,  
 S. A. Baeppler,  D. Barton,  Z. Benda,  Y. A. Bernard,  E. J. Berquist,  
 K. B. Bravaya,  H. Burton,  D. Casanova,  Chun-Min Chang,  Yunqing Chen,  
 A. Chien,  K. D. Closser,  M. P. Coons,  S. Coriani,  S. Dasgupta,  
 A. L. Dempwolff,  M. Diedenhofen,  Hainam Do,  R. G. Edgar,  Po-Tung Fang,  
 S. Faraji,  S. Fatehi,  Qingguo Feng,  K. D. Fenk,  J. Fosso-Tande,  
 J. Gayvert,  Qinghui Ge,  A. Ghysels,  G. Gidofalvi,  J. Gomes,  
 J. Gonthier,  A. Gunina,  D. Hait,  M. W. D. Hanson-Heine,  
 P. H. P. Harbach,  A. W. Hauser,  M. F. Herbst,  J. E. Herr,  
 E. G. Hohenstein,  Z. C. Holden,  Kerwin Hui,  B. C. Huynh,  T.-C. Jagau,  
 Hyunjun Ji,  B. Kaduk,  K. Khistyaev,  Jaehoon Kim,  P. Klunzinger,  K. Koh,  
 D. Kosenkov,  L. Koulias,  T. Kowalczyk,  C. M. Krauter,  A. Kunitsa,  
 Ka Un Lao,  A. Laurent,  K. V. Lawler,  Joonho Lee,  D. Lefrancois,  
 S. Lehtola,  D. S. Levine,  Yi-Pei Li,  You-Sheng Lin,  Fenglai Liu,  
 E. Livshits,  A. Luenser,  P. Manohar,  E. Mansoor,  S. F. Manzer,  
 Shan-Ping Mao,  Yuezhi Mao,  N. Mardirossian,  A. V. Marenich,  
 T. Markovich,  L. A. Martinez-Martinez,  S. A. Maurer,  N. J. Mayhall,  
 S. C. McKenzie,  J.-M. Mewes,  P. Morgante,  A. F. Morrison,  
 J. W. Mullinax,  K. Nanda,  T. S. Nguyen-Beck,  R. Olivares-Amaya,  
 J. A. Parkhill,  Zheng Pei,  T. M. Perrine,  F. Plasser,  P. Pokhilko,  
 S. Prager,  A. Prociuk,  E. Ramos,  D. R. Rehn,  F. Rob,  M. Scheurer,  
 M. Schneider,  N. Sergueev,  S. M. Sharada,  S. Sharma,  D. W. Small,  
 T. Stauch,  T. Stein,  Yu-Chuan Su,  A. J. W. Thom,  A. Tkatchenko,  
 T. Tsuchimochi,  N. M. Tubman,  L. Vogt,  M. L. Vidal,  O. Vydrov,  
 M. A. Watson,  J. Wenzel,  M. de Wergifosse,  T. A. Wesolowski,  A. White,  
 J. Witte,  A. Yamada,  Jun Yang,  K. Yao,  S. Yeganeh,  S. R. Yost,  
 Zhi-Qiang You,  A. Zech,  Igor Ying Zhang,  Xing Zhang,  Yan Zhao,  
 Ying Zhu,  B. R. Brooks,  G. K. L. Chan,  C. J. Cramer,  M. S. Gordon,  
 W. J. Hehre,  A. Klamt,  M. W. Schmidt,  C. D. Sherrill,  D. G. Truhlar,  
 A. Aspuru-Guzik,  R. Baer,  A. T. Bell,  N. A. Besley,  Jeng-Da Chai,  
 A. E. DePrince, III,  R. A. DiStasio Jr.,  A. Dreuw,  B. D. Dunietz,  
 T. R. Furlani,  Chao-Ping Hsu,  Yousung Jung,  Jing Kong,  D. S. Lambrecht,  
 WanZhen Liang,  C. Ochsenfeld,  V. A. Rassolov,  L. V. Slipchenko,  
 J. E. Subotnik,  T. Van Voorhis,  J. M. Herbert,  A. I. Krylov,  
 P. M. W. Gill,  M. Head-Gordon

 Contributors to earlier versions of Q-Chem not listed above: 
 R. D. Adamson,  B. Austin,  J. Baker,  G. J. O. Beran,  K. Brandhorst,  
 S. T. Brown,  E. F. C. Byrd,  A. K. Chakraborty,  C.-L. Cheng,  
 Siu Hung Chien,  D. M. Chipman,  D. L. Crittenden,  H. Dachsel,  
 R. J. Doerksen,  A. D. Dutoi,  L. Fusti-Molnar,  W. A. Goddard III,  
 A. Golubeva-Zadorozhnaya,  S. R. Gwaltney,  G. Hawkins,  A. Heyden,  
 S. Hirata,  G. Kedziora,  F. J. Keil,  C. Kelley,  Jihan Kim,  R. A. King,  
 R. Z. Khaliullin,  P. P. Korambath,  W. Kurlancheek,  A. M. Lee,  M. S. Lee,  
 S. V. Levchenko,  Ching Yeh Lin,  D. Liotard,  R. C. Lochan,  I. Lotan,  
 P. E. Maslen,  N. Nair,  D. P. O'Neill,  D. Neuhauser,  E. Neuscamman,  
 C. M. Oana,  R. Olson,  B. Peters,  R. Peverati,  P. A. Pieniazek,  
 Y. M. Rhee,  J. Ritchie,  M. A. Rohrdanz,  E. Rosta,  N. J. Russ,  
 H. F. Schaefer III,  N. E. Schultz,  N. Shenvi,  A. C. Simmonett,  A. Sodt,  
 D. Stuck,  K. S. Thanthiriwatte,  V. Vanovschi,  Tao Wang,  A. Warshel,  
 C. F. Williams,  Q. Wu,  X. Xu,  W. Zhang

 Please cite Q-Chem as follows:
 Y. Shao et al., Mol. Phys. 113, 184-215 (2015)
 DOI: 10.1080/00268976.2014.952696

 Q-Chem 5.2.0 for Intel X86 EM64T Linux

 Parts of Q-Chem use Armadillo 8.300.2 (Tropical Shenanigans).
 http://arma.sourceforge.net/

 Q-Chem begins on Sun Sep 26 11:04:47 2021  

Host: cori01
0

     Scratch files written to /tmp/qchem54836//
 May1019 |scratch|qcdevops|jenkins|workspace|build_RNUM -1
Processing $rem in /global/common/cori/software/qchem/5.2/config/preferences:
	 MEM_TOTAL  96000 
NAlpha2: 80
NElect   80
Mult     1
Symmetry turned off for PCM/SM12/SMD calculation

 Q-Chem warning in module libgen/rem_setup.C, line 2803:

 Neither GIA nor STOLL is specified by user. Use STOLL as the default


Checking the input file for inconsistencies... 	...done.

--------------------------------------------------------------
User input:
--------------------------------------------------------------
$comment
SSI-078GLN-088GLU-1.pdb
$end

$molecule
-1 1
--
0 1
C   -1.218944595020   -1.210984877535   -0.216287911881
C   -2.286944595020   -1.453984877535   -1.246287911881
C   -0.007944595020   -2.108984877535   -0.417287911881
O   -0.033944595020   -3.066984877535   -1.191287911881
N    1.045055404980   -1.826984877535    0.324712088119
H   -0.898944595020   -0.174984877535   -0.294287911881
H   -1.615944595020   -1.379984877535    0.784712088119
H   -2.632944595020   -2.484984877535   -1.187287911881
H   -1.851944595020   -1.293984877535   -2.235287911881
H    1.844055404980   -2.443984877535    0.331712088119
H    1.038055404980   -1.001984877535    0.927712088119
H   -3.154014595020   -0.785514877535   -1.139793211881
--
-1 1
C   -0.408944595020    2.358015122465    0.926712088119
C   -0.855944595020    3.116015122465   -0.322287911881
C    0.896055404980    1.610015122465    0.763712088119
O    1.597055404980    1.816015122465   -0.263287911881
O    1.164055404980    0.800015122465    1.671712088119
H   -0.317944595020    3.069015122465    1.750712088119
H   -1.193944595020    1.648015122465    1.190712088119
H   -0.717944595020    2.440015122465   -1.164287911881
H   -0.178944595020    3.960015122465   -0.468287911881
H   -1.891754595020    3.484254122465   -0.361049911881
$end

$rem
JOBTYPE			EDA
EDA2			1
method			wB97X-V
BASIS			def2-TZVPD
XC_GRID			000099000590
NL_GRID			1
UNRESTRICTED		FALSE
MAX_SCF_CYCLES		200
SYMMETRY		FALSE
SYM_IGNORE		TRUE
MEM_STATIC		2000
BASIS_LIN_DEP_THRESH 	6
THRESH 			14
SCF_CONVERGENCE 	8
SCF_PRINT_FRGM 		TRUE
SOLVENT_METHOD          PCM
$end

$PCM
THEORY                  CPCM
METHOD                  SWIG
SOLVER                  INVERSION
RADII                   UFF
HPOINTS                 302
HEAVYPOINTS             302
PRINTLEVEL              0
$END

$SOLVENT
DIELECTRIC              78.390000 ! water
$END
--------------------------------------------------------------
 ----------------------------------------------------------------
             Standard Nuclear Orientation (Angstroms)
    I     Atom           X                Y                Z
 ----------------------------------------------------------------
    1      C      -1.2189445950    -1.2109848775    -0.2162879119
    2      C      -2.2869445950    -1.4539848775    -1.2462879119
    3      C      -0.0079445950    -2.1089848775    -0.4172879119
    4      O      -0.0339445950    -3.0669848775    -1.1912879119
    5      N       1.0450554050    -1.8269848775     0.3247120881
    6      H      -0.8989445950    -0.1749848775    -0.2942879119
    7      H      -1.6159445950    -1.3799848775     0.7847120881
    8      H      -2.6329445950    -2.4849848775    -1.1872879119
    9      H      -1.8519445950    -1.2939848775    -2.2352879119
   10      H       1.8440554050    -2.4439848775     0.3317120881
   11      H       1.0380554050    -1.0019848775     0.9277120881
   12      H      -3.1540145950    -0.7855148775    -1.1397932119
   13      C      -0.4089445950     2.3580151225     0.9267120881
   14      C      -0.8559445950     3.1160151225    -0.3222879119
   15      C       0.8960554050     1.6100151225     0.7637120881
   16      O       1.5970554050     1.8160151225    -0.2632879119
   17      O       1.1640554050     0.8000151225     1.6717120881
   18      H      -0.3179445950     3.0690151225     1.7507120881
   19      H      -1.1939445950     1.6480151225     1.1907120881
   20      H      -0.7179445950     2.4400151225    -1.1642879119
   21      H      -0.1789445950     3.9600151225    -0.4682879119
   22      H      -1.8917545950     3.4842541225    -0.3610499119
 ----------------------------------------------------------------
 Nuclear Repulsion Energy =         536.40998841 hartrees
 There are       40 alpha and       40 beta electrons
 Requested basis set is def2-TZVPD
 There are 193 shells and 487 basis functions

 Total QAlloc Memory Limit  96000 MB
 Mega-Array Size      1956 MB
 MEM_STATIC part      2000 MB
 Discretize the solute cavity surface with Lebedev spheres
	Using 302 Lebedev grid points for each H atom
	Using 302 Lebedev grid points for other atoms
	Atomic van der Waals radii will be scaled by 1.20
 Remove points where switching function is < 1.0e-08
 Keep 2438 surface tesserae and discard 4206 interior tesserae
 Molecular Surface Area = 250.955 Angst**2
 A cutoff of  1.0D-14 yielded  16897 shell pairs
 There are    108101 function pairs (    135752 Cartesian)
 Smallest overlap matrix eigenvalue = 1.68E-06

 Scale SEOQF with 1.000000e-01/1.000000e-01/1.000000e-01

 Standard Electronic Orientation quadrupole field applied
 Nucleus-field energy     =     0.0000000218 hartrees

 -----------------------------------------------------------------------
  General SCF calculation program by
  Eric Jon Sundstrom, Paul Horn, Yuezhi Mao, Dmitri Zuev, Alec White,
  David Stuck, Shaama M.S., Shane Yost, Joonho Lee, David Small,
  Daniel Levine, Susi Lehtola, Hugh Burton, Evgeny Epifanovsky
 -----------------------------------------------------------------------
================================================================
                 ALMO-EDA with the EDA2 driver                  
================================================================
 The second-generation ALMO-EDA (for DFT):                      
 P. R. Horn, Y. Mao and M. Head-Gordon, PCCP, 18, 23067 (2016)  
 Decomposition of the frozen energy:                            
 P. R. Horn, Y. Mao and M. Head-Gordon, JCP, 144, 114107 (2016) 
 FERF model for polarization:                                   
 P. R. Horn and M. Head-Gordon, JCP, 143, 114111 (2015)         
Using eda2 option set 1
Option set summary: Frozen orbital wavefunction, initial wavefunction decomposition, and nDQ polarization.
--------------------------------
Printing EDA Options
--------------------------------
eda_child_super_basis      0
fragmo_guess_mode          0
child_mp                   1
child_mp_orders            232
cls_elec                   1
cls_disp                   0
scfmi_mode                 1
scfmi_occs                 0
scfmi_virts                0
frz_relax                  0
frz_relax_method           0
dc_pen_start               0
dc_pen_conv                0
dc_pen_increment           0
dc_pen_steps               0
dc_pen_thresh_factor       0
dc_pen_pre_newton_thresh   0
frz_ortho_decomp           1
frz_ortho_decomp_conv      6
frgm_method                2
scfmi_freeze_ss            0
separate_rehyb             0
plot_diff_den              0
eda_nocv                   0
eda_vct_relax              1
disp_free_x                0
disp_free_c                0
eda_bsse                   0
eda_pct_a                  0
eda_covp                   0
--------------------------------
Attempting to make child job directory: /tmp/qchem54836//Frg1/
Attempting to make child job directory: /tmp/qchem54836//Frg2/
Creating input file /tmp/qchem54836/Frg1.input
using default PutDataFrgm: nothing
calling putenv with: QCSCRATCH=/tmp/qchem54836/ 
calling putenv with: QCLOCALSCR=/tmp/qchem54836/ 
Spawning Job For Fragment 0
                  Welcome to Q-Chem
     A Quantum Leap Into The Future Of Chemistry


 Q-Chem 5.2, Q-Chem, Inc., Pleasanton, CA (2019)

 License issued to: National Energy Research Scientific Computing Center

 Yihan Shao,  Zhengting Gan,  E. Epifanovsky,  A. T. B. Gilbert,  M. Wormit,  
 J. Kussmann,  A. W. Lange,  A. Behn,  Jia Deng,  Xintian Feng,  D. Ghosh,  
 M. Goldey,  P. R. Horn,  L. D. Jacobson,  I. Kaliman,  T. Kus,  A. Landau,  
 Jie Liu,  E. I. Proynov,  R. M. Richard,  R. P. Steele,  E. J. Sundstrom,  
 H. L. Woodcock III,  P. M. Zimmerman,  D. Zuev,  B. Albrecht,  E. Alguire,  
 S. A. Baeppler,  D. Barton,  Z. Benda,  Y. A. Bernard,  E. J. Berquist,  
 K. B. Bravaya,  H. Burton,  D. Casanova,  Chun-Min Chang,  Yunqing Chen,  
 A. Chien,  K. D. Closser,  M. P. Coons,  S. Coriani,  S. Dasgupta,  
 A. L. Dempwolff,  M. Diedenhofen,  Hainam Do,  R. G. Edgar,  Po-Tung Fang,  
 S. Faraji,  S. Fatehi,  Qingguo Feng,  K. D. Fenk,  J. Fosso-Tande,  
 J. Gayvert,  Qinghui Ge,  A. Ghysels,  G. Gidofalvi,  J. Gomes,  
 J. Gonthier,  A. Gunina,  D. Hait,  M. W. D. Hanson-Heine,  
 P. H. P. Harbach,  A. W. Hauser,  M. F. Herbst,  J. E. Herr,  
 E. G. Hohenstein,  Z. C. Holden,  Kerwin Hui,  B. C. Huynh,  T.-C. Jagau,  
 Hyunjun Ji,  B. Kaduk,  K. Khistyaev,  Jaehoon Kim,  P. Klunzinger,  K. Koh,  
 D. Kosenkov,  L. Koulias,  T. Kowalczyk,  C. M. Krauter,  A. Kunitsa,  
 Ka Un Lao,  A. Laurent,  K. V. Lawler,  Joonho Lee,  D. Lefrancois,  
 S. Lehtola,  D. S. Levine,  Yi-Pei Li,  You-Sheng Lin,  Fenglai Liu,  
 E. Livshits,  A. Luenser,  P. Manohar,  E. Mansoor,  S. F. Manzer,  
 Shan-Ping Mao,  Yuezhi Mao,  N. Mardirossian,  A. V. Marenich,  
 T. Markovich,  L. A. Martinez-Martinez,  S. A. Maurer,  N. J. Mayhall,  
 S. C. McKenzie,  J.-M. Mewes,  P. Morgante,  A. F. Morrison,  
 J. W. Mullinax,  K. Nanda,  T. S. Nguyen-Beck,  R. Olivares-Amaya,  
 J. A. Parkhill,  Zheng Pei,  T. M. Perrine,  F. Plasser,  P. Pokhilko,  
 S. Prager,  A. Prociuk,  E. Ramos,  D. R. Rehn,  F. Rob,  M. Scheurer,  
 M. Schneider,  N. Sergueev,  S. M. Sharada,  S. Sharma,  D. W. Small,  
 T. Stauch,  T. Stein,  Yu-Chuan Su,  A. J. W. Thom,  A. Tkatchenko,  
 T. Tsuchimochi,  N. M. Tubman,  L. Vogt,  M. L. Vidal,  O. Vydrov,  
 M. A. Watson,  J. Wenzel,  M. de Wergifosse,  T. A. Wesolowski,  A. White,  
 J. Witte,  A. Yamada,  Jun Yang,  K. Yao,  S. Yeganeh,  S. R. Yost,  
 Zhi-Qiang You,  A. Zech,  Igor Ying Zhang,  Xing Zhang,  Yan Zhao,  
 Ying Zhu,  B. R. Brooks,  G. K. L. Chan,  C. J. Cramer,  M. S. Gordon,  
 W. J. Hehre,  A. Klamt,  M. W. Schmidt,  C. D. Sherrill,  D. G. Truhlar,  
 A. Aspuru-Guzik,  R. Baer,  A. T. Bell,  N. A. Besley,  Jeng-Da Chai,  
 A. E. DePrince, III,  R. A. DiStasio Jr.,  A. Dreuw,  B. D. Dunietz,  
 T. R. Furlani,  Chao-Ping Hsu,  Yousung Jung,  Jing Kong,  D. S. Lambrecht,  
 WanZhen Liang,  C. Ochsenfeld,  V. A. Rassolov,  L. V. Slipchenko,  
 J. E. Subotnik,  T. Van Voorhis,  J. M. Herbert,  A. I. Krylov,  
 P. M. W. Gill,  M. Head-Gordon

 Contributors to earlier versions of Q-Chem not listed above: 
 R. D. Adamson,  B. Austin,  J. Baker,  G. J. O. Beran,  K. Brandhorst,  
 S. T. Brown,  E. F. C. Byrd,  A. K. Chakraborty,  C.-L. Cheng,  
 Siu Hung Chien,  D. M. Chipman,  D. L. Crittenden,  H. Dachsel,  
 R. J. Doerksen,  A. D. Dutoi,  L. Fusti-Molnar,  W. A. Goddard III,  
 A. Golubeva-Zadorozhnaya,  S. R. Gwaltney,  G. Hawkins,  A. Heyden,  
 S. Hirata,  G. Kedziora,  F. J. Keil,  C. Kelley,  Jihan Kim,  R. A. King,  
 R. Z. Khaliullin,  P. P. Korambath,  W. Kurlancheek,  A. M. Lee,  M. S. Lee,  
 S. V. Levchenko,  Ching Yeh Lin,  D. Liotard,  R. C. Lochan,  I. Lotan,  
 P. E. Maslen,  N. Nair,  D. P. O'Neill,  D. Neuhauser,  E. Neuscamman,  
 C. M. Oana,  R. Olson,  B. Peters,  R. Peverati,  P. A. Pieniazek,  
 Y. M. Rhee,  J. Ritchie,  M. A. Rohrdanz,  E. Rosta,  N. J. Russ,  
 H. F. Schaefer III,  N. E. Schultz,  N. Shenvi,  A. C. Simmonett,  A. Sodt,  
 D. Stuck,  K. S. Thanthiriwatte,  V. Vanovschi,  Tao Wang,  A. Warshel,  
 C. F. Williams,  Q. Wu,  X. Xu,  W. Zhang

 Please cite Q-Chem as follows:
 Y. Shao et al., Mol. Phys. 113, 184-215 (2015)
 DOI: 10.1080/00268976.2014.952696

 Q-Chem 5.2.0 for Intel X86 EM64T Linux

 Parts of Q-Chem use Armadillo 8.300.2 (Tropical Shenanigans).
 http://arma.sourceforge.net/

 Q-Chem begins on Sun Sep 26 11:04:51 2021  

Host: cori01
0

     Scratch files written to /tmp/qchem54836//Frg1//
 May1019 |scratch|qcdevops|jenkins|workspace|build_RNUM -1
Processing $rem in /global/common/cori/software/qchem/5.2/config/preferences:
	 MEM_TOTAL  96000 
NAlpha2: 40
NElect   40
Mult     1
Symmetry turned off for PCM/SM12/SMD calculation

Checking the input file for inconsistencies... 	...done.

--------------------------------------------------------------
User input:
--------------------------------------------------------------
$molecule
0 1
 6	-1.2189445950	-1.2109848775	-0.2162879119
 6	-2.2869445950	-1.4539848775	-1.2462879119
 6	-0.0079445950	-2.1089848775	-0.4172879119
 8	-0.0339445950	-3.0669848775	-1.1912879119
 7	1.0450554050	-1.8269848775	0.3247120881
 1	-0.8989445950	-0.1749848775	-0.2942879119
 1	-1.6159445950	-1.3799848775	0.7847120881
 1	-2.6329445950	-2.4849848775	-1.1872879119
 1	-1.8519445950	-1.2939848775	-2.2352879119
 1	1.8440554050	-2.4439848775	0.3317120881
 1	1.0380554050	-1.0019848775	0.9277120881
 1	-3.1540145950	-0.7855148775	-1.1397932119
$end
$rem
EDA2		1
METHOD		WB97X-V
BASIS		DEF2-TZVPD
XC_GRID		000099000590
NL_GRID		1
UNRESTRICTED		FALSE
MAX_SCF_CYCLES		200
SYMMETRY		FALSE
SYM_IGNORE		TRUE
BASIS_LIN_DEP_THRESH		6
THRESH		14
SCF_CONVERGENCE		8
SCF_PRINT_FRGM		TRUE
SOLVENT_METHOD		PCM
!required keywords
JOBTYPE		SP
SYM_IGNORE		TRUE
SUBSYSTEM		TRUE
GEN_SCFMAN		TRUE
CHILD_INSTRUCTION		2
SYM_IGNORE		TRUE
SCFMI		0
RI_K 0		
PARI_K 0		
MIN_PARI_K 0		
IARI_K 0		
OCC_RI_K 0		
PURECART		1111
MEM_STATIC		2000
MEM_TOTAL		96000
GUI		0
CHILD_MP		1
CHILD_MP_ORDERS		232
FRZ_RELAX		0
FRZ_RELAX_METHOD		0
EDA_CLS_ELEC		1
EDA_CLS_DISP		0
FRZ_ORTHO_DECOMP		1
EDA2		FALSE
FRGM_METHOD		FALSE
CIS_N_ROOTS  0
LOCAL_CIS    0
CIS_RLX_DNS  1
$end
$pcm
THEORY                  CPCM
METHOD                  SWIG
SOLVER                  INVERSION
RADII                   UFF
HPOINTS                 302
HEAVYPOINTS             302
PRINTLEVEL              0
$end
$solvent
DIELECTRIC              78.390000 ! water
$end
--------------------------------------------------------------
 ----------------------------------------------------------------
             Standard Nuclear Orientation (Angstroms)
    I     Atom           X                Y                Z
 ----------------------------------------------------------------
    1      C      -1.2189445950    -1.2109848775    -0.2162879119
    2      C      -2.2869445950    -1.4539848775    -1.2462879119
    3      C      -0.0079445950    -2.1089848775    -0.4172879119
    4      O      -0.0339445950    -3.0669848775    -1.1912879119
    5      N       1.0450554050    -1.8269848775     0.3247120881
    6      H      -0.8989445950    -0.1749848775    -0.2942879119
    7      H      -1.6159445950    -1.3799848775     0.7847120881
    8      H      -2.6329445950    -2.4849848775    -1.1872879119
    9      H      -1.8519445950    -1.2939848775    -2.2352879119
   10      H       1.8440554050    -2.4439848775     0.3317120881
   11      H       1.0380554050    -1.0019848775     0.9277120881
   12      H      -3.1540145950    -0.7855148775    -1.1397932119
 ----------------------------------------------------------------
 Nuclear Repulsion Energy =         180.26668161 hartrees
 There are       20 alpha and       20 beta electrons
 Requested basis set is def2-TZVPD
 There are 101 shells and 251 basis functions

 Total QAlloc Memory Limit  96000 MB
 Mega-Array Size      1956 MB
 MEM_STATIC part      2000 MB
 Discretize the solute cavity surface with Lebedev spheres
	Using 302 Lebedev grid points for each H atom
	Using 302 Lebedev grid points for other atoms
	Atomic van der Waals radii will be scaled by 1.20
 Remove points where switching function is < 1.0e-08
 Keep 1480 surface tesserae and discard 2144 interior tesserae
 Molecular Surface Area = 150.870 Angst**2

                       Distance Matrix (Angstroms)
             C (  1)   C (  2)   C (  3)   O (  4)   N (  5)   H (  6)
   C (  2)  1.503520
   C (  3)  1.520962  2.511993
   O (  4)  2.408233  2.771426  1.231875
   N (  5)  2.407869  3.702620  1.318672  2.236090
   H (  6)  1.087097  2.113927  2.132924  3.149047  2.625148
   H (  7)  1.090033  2.140252  2.135863  3.041919  2.737212  1.769281
   H (  8)  2.136659  1.089109  2.761322  2.663370  4.030731  3.023294
   H (  9)  2.117531  1.092221  2.714716  2.745649  3.902601  2.434718
   H ( 10)  3.347023  4.531594  2.025618  2.496906  1.009524  3.614455
   H ( 11)  2.538989  3.998275  2.031893  3.146994  1.021902  2.434991
   H ( 12)  2.185951  1.100002  3.488745  3.865565  4.567453  2.484546
             H (  7)   H (  8)   H (  9)   H ( 10)   H ( 11)
   H (  8)  2.478729
   H (  9)  3.030428  1.768261
   H ( 10)  3.648137  4.727851  4.644610
   H ( 11)  2.684595  4.488736  4.294407  1.756194
   H ( 12)  2.534319  1.778192  1.775961  5.467774  4.679197
 
 A cutoff of  1.0D-14 yielded   5038 shell pairs
 There are     31636 function pairs (     39775 Cartesian)
 Smallest overlap matrix eigenvalue = 5.09E-06

 Scale SEOQF with 1.000000e-01/1.000000e-01/1.000000e-01

 Standard Electronic Orientation quadrupole field applied
 Nucleus-field energy     =     0.0000000110 hartrees
 Guess from superposition of atomic densities
 Warning:  Energy on first SCF cycle will be non-variational
 SAD guess density has 39.592240 electrons

 -----------------------------------------------------------------------
  General SCF calculation program by
  Eric Jon Sundstrom, Paul Horn, Yuezhi Mao, Dmitri Zuev, Alec White,
  David Stuck, Shaama M.S., Shane Yost, Joonho Lee, David Small,
  Daniel Levine, Susi Lehtola, Hugh Burton, Evgeny Epifanovsky
 -----------------------------------------------------------------------
 Exchange:     0.1670 Hartree-Fock + 1.0000 wB97X-V + LR-HF
 Correlation:  1.0000 wB97X-V
 Using Euler-Maclaurin-Lebedev (99,590) quadrature formula
 Nonlocal Correlation:  VV10 with C = 0.0100 and b = 6.00 and scale = 1.00000
 Grid used for NLC:  SG-1 standard quadrature
Energy prior to optimization (guess energy) = -248.012986129027
Begin Timing: Total SCF Calculation
begin iterations for algorithm: DIIS         
the SCF tolerance is set to 1.00e-08
    1    -248.0129861290      9.84e-03     00000 
    2    -247.5970720981      1.23e-02     00000 
    3    -248.5364329818      2.04e-03     00000 
    4    -248.5584838712      6.68e-04     00000 
    5    -248.5614115013      1.00e-04     00000 
    6    -248.5615191343      4.35e-05     00000 
    7    -248.5615401345      9.88e-06     00000 
    8    -248.5615415883      1.76e-06     00000 
    9    -248.5615416880      4.83e-07     00000 
   10    -248.5615416928      1.49e-07     00000 
   11    -248.5615416932      5.44e-08     00000 
   12    -248.5615416932      1.67e-08     00000 
   13    -248.5615416932      4.15e-09     00000 Convergence criterion met
Timing for Total SCF: 702.00s (wall), 1375.59s (cpu)

************** Final PCM Free Energy Summary **************
 G_electrostatic  =      -0.01144872 hartree =      -7.18418303 kcal/mol
 G_cavitation     =       0.00000000 hartree =       0.00000000 kcal/mol
 G_dispersion     =       0.00000000 hartree =       0.00000000 kcal/mol
 G_repulsion      =       0.00000000 hartree =       0.00000000 kcal/mol
 --------------------------------------------------
 Non-electrostatic Free Energy =       0.00000000 hartree =       0.00000000 kcal/mol
 Total                         =      -0.01144872 hartree =      -7.18418303 kcal/mol
 --------------------------------------------------
 SCF Energy (H0 + V/2)                       =    -248.56154169 
 Solute Internal Energy (H0)                 =    -248.55009297 
 Total Free Energy (H0 + V/2 + non-elec)     =    -248.56154169 hartree
                                             = -155974.72153887 kcal/mol
***********************************************************

E_pcm = -0.0114487245
Multipole orders to be included
        2
        3
computing dipole RHS
computing quadrupole RHS
total number of RHS in solve_reponses: 8
RHS batch sizes
        8
Beginning Block Conjugate Gradient Iterations. Batch Number: 0
computing hessian-vector products by finite difference
              1      5.43e-01     00000 Conjugate Gradient Iteration
computing hessian-vector products by finite difference
              2      1.80e-01     00000 Conjugate Gradient Iteration
computing hessian-vector products by finite difference
              3      4.35e-02     00000 Conjugate Gradient Iteration
computing hessian-vector products by finite difference
              4      1.06e-02     00000 Conjugate Gradient Iteration
computing hessian-vector products by finite difference
              5      1.79e-03     00000 Conjugate Gradient Iteration
computing hessian-vector products by finite difference
              6      3.46e-04     00000 Conjugate Gradient Iteration
computing hessian-vector products by finite difference
              7      6.19e-05     00000 Conjugate Gradient Iteration
computing hessian-vector products by finite difference
              8      8.19e-06     00000 Conjugate Gradient Iteration
computing hessian-vector products by finite difference
              9      1.04e-06     00000 Conjugate Gradient Iteration
computing hessian-vector products by finite difference
             10      1.16e-07     00000 Conjugate Gradient Iteration
computing hessian-vector products by finite difference
             11      1.88e-08     00000 Conjugate Gradient Iteration
computing hessian-vector products by finite difference
             12      6.51e-09     00000 CG Converged
batch 0 complete
Done Calculating Responses
TESTING ORTHOGONALIZATION OF MULTIPOLE BASIS
Multipole virts passed orthogonality test
Virts Per Order
           60
          100
 
 --------------------------------------------------------------
 
                    Orbital Energies (a.u.)
 --------------------------------------------------------------
 
 Alpha MOs
 -- Occupied --
-19.1778 -14.4336 -10.3730 -10.2739 -10.2553  -1.1701  -1.0460  -0.9136
 -0.7818  -0.6994  -0.6532  -0.6016  -0.5890  -0.5318  -0.5125  -0.4824
 -0.4619  -0.4502  -0.3813  -0.3668
 -- Virtual --
  0.0590   0.0817   0.0874   0.0935   0.1161   0.1228   0.1271   0.1315
  0.1536   0.1699   0.1831   0.1874   0.1999   0.2070   0.2128   0.2244
  0.2356   0.2405   0.2624   0.2726   0.2771   0.2867   0.2918   0.3023
  0.3153   0.3196   0.3277   0.3395   0.3431   0.3545   0.3614   0.3644
  0.3761   0.3781   0.3890   0.3957   0.4007   0.4035   0.4152   0.4239
  0.4370   0.4388   0.4517   0.4604   0.4685   0.4769   0.4803   0.4933
  0.5018   0.5158   0.5215   0.5271   0.5332   0.5435   0.5546   0.5697
  0.5892   0.5989   0.6098   0.6251   0.6333   0.6506   0.6595   0.6669
  0.6684   0.6977   0.7106   0.7249   0.7451   0.7494   0.7633   0.7739
  0.7792   0.7855   0.7939   0.8024   0.8162   0.8341   0.8413   0.8510
  0.8638   0.8844   0.8903   0.9094   0.9420   0.9552   0.9902   1.0044
  1.0297   1.0415   1.0532   1.0728   1.1199   1.1311   1.1415   1.1590
  1.2474   1.2755   1.2929   1.3122   1.3410   1.3519   1.3814   1.3942
  1.4452   1.4721   1.4913   1.5536   1.5676   1.6298   1.6875   1.7445
  1.8093   1.8424   1.8544   1.8940   1.9099   1.9219   1.9307   1.9689
  1.9694   1.9839   1.9929   2.0168   2.0316   2.0497   2.1032   2.1355
  2.1644   2.2063   2.2323   2.2572   2.2994   2.3226   2.3458   2.3683
  2.4288   2.4830   2.5021   2.5320   2.5448   2.5591   2.6157   2.6251
  2.6679   2.6930   2.7128   2.7531   2.7778   2.8016   2.8228   2.8335
  2.8791   2.9147   2.9218   2.9755   3.0134   3.0359   3.0867   3.1087
  3.1918   3.2149   3.2406   3.2813   3.2922   3.3105   3.3188   3.3339
  3.3382   3.4094   3.4267   3.4349   3.4671   3.4820   3.5046   3.5518
  3.5876   3.6039   3.6489   3.6976   3.7081   3.7282   3.7610   3.7905
  3.9255   3.9594   4.0063   4.0470   4.0825   4.1201   4.1381   4.2630
  4.3462   4.3558   4.4608   4.5397   4.5794   4.6298   4.6675   4.7378
  4.7650   4.8812   4.8949   4.9191   4.9816   5.0746   5.1905   5.1974
  5.2815   5.3635   5.3870   5.4065   5.4365   5.5386   5.5947   5.7777
  5.9315   6.1461   6.2714   6.5346   6.6591   6.7592   6.8535   6.9907
  7.2707   7.3455  22.6783  22.8023  23.6401  32.4403  44.3363
 --------------------------------------------------------------
 
          Ground-State Mulliken Net Atomic Charges

     Atom                 Charge (a.u.)
  ----------------------------------------
      1 C                    -0.039398
      2 C                    -0.825624
      3 C                     0.211770
      4 O                    -0.586891
      5 N                    -0.249092
      6 H                     0.235218
      7 H                     0.218335
      8 H                     0.192548
      9 H                     0.191470
     10 H                     0.219974
     11 H                     0.202412
     12 H                     0.229278
  ----------------------------------------
  Sum of atomic charges =     0.000000

 -----------------------------------------------------------------
                    Cartesian Multipole Moments
 -----------------------------------------------------------------
    Charge (ESU x 10^10)
                 0.0000
    Dipole Moment (Debye)
         X       1.0271      Y       3.5896      Z       3.5200
       Tot       5.1314
    Quadrupole Moments (Debye-Ang)
        XX     -27.0452     XY      -2.9744     YY     -47.2938
        XZ       1.3258     YZ      -9.9877     ZZ     -34.5730
    Octopole Moments (Debye-Ang^2)
       XXX      61.7043    XXY      49.4129    XYY      26.9985
       YYY     235.5951    XXZ      21.3475    XYZ      -1.1363
       YYZ      48.9218    XZZ      20.0106    YZZ      71.9130
       ZZZ      58.4250
    Hexadecapole Moments (Debye-Ang^3)
      XXXX    -382.2259   XXXY     -87.6203   XXYY    -174.0565
      XYYY     -88.7830   YYYY    -999.3708   XXXZ     -78.1013
      XXYZ     -45.2850   XYYZ     -24.6173   YYYZ    -213.3312
      XXZZ     -99.4560   XYZZ     -23.7098   YYZZ    -206.7778
      XZZZ     -82.8992   YZZZ    -129.8144   ZZZZ    -190.8754
 -----------------------------------------------------------------
Archival summary:
1\1\nid00572\SP\ProcedureUnspecified\BasisUnspecified\1137\meili\SunSep2614:33:562021SunSep2614:33:562021\0\\#,ProcedureUnspecified,BasisUnspecified,\\0,1\C\O,1,1.23187\N,1,1.31867,2,122.459\H,3,1.00952,1,120.345,2,-5.01626,0\H,3,1.0219,1,119.947,2,177.679,0\C,1,1.52096,2,121.694,3,-177.311,0\H,6,1.0871,1,108.591,2,-131.536,0\H,6,1.09003,1,108.651,2,110.377,0\C,6,1.50352,1,112.31,2,-11.7952,0\H,9,1.08911,6,109.971,1,60.4773,0\H,9,1.09222,6,108.285,1,-57.7011,0\H,9,1.1,6,113.289,1,-177.743,0\\\@

 Total job time:  12546.77s(wall), 24844.60s(cpu) 
 Sun Sep 26 14:33:58 2021

        *************************************************************
        *                                                           *
        *  Thank you very much for using Q-Chem.  Have a nice day.  *
        *                                                           *
        *************************************************************


Done Job For Fragment 0
calling putenv with: QCSCRATCH=/global/cscratch1/sd/meili 
calling putenv with: QCLOCALSCR=/tmp 
calling putenv with: QCTHREADS=32 
Creating input file /tmp/qchem54836/Frg2.input
using default PutDataFrgm: nothing
calling putenv with: QCSCRATCH=/tmp/qchem54836/ 
calling putenv with: QCLOCALSCR=/tmp/qchem54836/ 
Spawning Job For Fragment 1
                  Welcome to Q-Chem
     A Quantum Leap Into The Future Of Chemistry


 Q-Chem 5.2, Q-Chem, Inc., Pleasanton, CA (2019)

 License issued to: National Energy Research Scientific Computing Center

 Yihan Shao,  Zhengting Gan,  E. Epifanovsky,  A. T. B. Gilbert,  M. Wormit,  
 J. Kussmann,  A. W. Lange,  A. Behn,  Jia Deng,  Xintian Feng,  D. Ghosh,  
 M. Goldey,  P. R. Horn,  L. D. Jacobson,  I. Kaliman,  T. Kus,  A. Landau,  
 Jie Liu,  E. I. Proynov,  R. M. Richard,  R. P. Steele,  E. J. Sundstrom,  
 H. L. Woodcock III,  P. M. Zimmerman,  D. Zuev,  B. Albrecht,  E. Alguire,  
 S. A. Baeppler,  D. Barton,  Z. Benda,  Y. A. Bernard,  E. J. Berquist,  
 K. B. Bravaya,  H. Burton,  D. Casanova,  Chun-Min Chang,  Yunqing Chen,  
 A. Chien,  K. D. Closser,  M. P. Coons,  S. Coriani,  S. Dasgupta,  
 A. L. Dempwolff,  M. Diedenhofen,  Hainam Do,  R. G. Edgar,  Po-Tung Fang,  
 S. Faraji,  S. Fatehi,  Qingguo Feng,  K. D. Fenk,  J. Fosso-Tande,  
 J. Gayvert,  Qinghui Ge,  A. Ghysels,  G. Gidofalvi,  J. Gomes,  
 J. Gonthier,  A. Gunina,  D. Hait,  M. W. D. Hanson-Heine,  
 P. H. P. Harbach,  A. W. Hauser,  M. F. Herbst,  J. E. Herr,  
 E. G. Hohenstein,  Z. C. Holden,  Kerwin Hui,  B. C. Huynh,  T.-C. Jagau,  
 Hyunjun Ji,  B. Kaduk,  K. Khistyaev,  Jaehoon Kim,  P. Klunzinger,  K. Koh,  
 D. Kosenkov,  L. Koulias,  T. Kowalczyk,  C. M. Krauter,  A. Kunitsa,  
 Ka Un Lao,  A. Laurent,  K. V. Lawler,  Joonho Lee,  D. Lefrancois,  
 S. Lehtola,  D. S. Levine,  Yi-Pei Li,  You-Sheng Lin,  Fenglai Liu,  
 E. Livshits,  A. Luenser,  P. Manohar,  E. Mansoor,  S. F. Manzer,  
 Shan-Ping Mao,  Yuezhi Mao,  N. Mardirossian,  A. V. Marenich,  
 T. Markovich,  L. A. Martinez-Martinez,  S. A. Maurer,  N. J. Mayhall,  
 S. C. McKenzie,  J.-M. Mewes,  P. Morgante,  A. F. Morrison,  
 J. W. Mullinax,  K. Nanda,  T. S. Nguyen-Beck,  R. Olivares-Amaya,  
 J. A. Parkhill,  Zheng Pei,  T. M. Perrine,  F. Plasser,  P. Pokhilko,  
 S. Prager,  A. Prociuk,  E. Ramos,  D. R. Rehn,  F. Rob,  M. Scheurer,  
 M. Schneider,  N. Sergueev,  S. M. Sharada,  S. Sharma,  D. W. Small,  
 T. Stauch,  T. Stein,  Yu-Chuan Su,  A. J. W. Thom,  A. Tkatchenko,  
 T. Tsuchimochi,  N. M. Tubman,  L. Vogt,  M. L. Vidal,  O. Vydrov,  
 M. A. Watson,  J. Wenzel,  M. de Wergifosse,  T. A. Wesolowski,  A. White,  
 J. Witte,  A. Yamada,  Jun Yang,  K. Yao,  S. Yeganeh,  S. R. Yost,  
 Zhi-Qiang You,  A. Zech,  Igor Ying Zhang,  Xing Zhang,  Yan Zhao,  
 Ying Zhu,  B. R. Brooks,  G. K. L. Chan,  C. J. Cramer,  M. S. Gordon,  
 W. J. Hehre,  A. Klamt,  M. W. Schmidt,  C. D. Sherrill,  D. G. Truhlar,  
 A. Aspuru-Guzik,  R. Baer,  A. T. Bell,  N. A. Besley,  Jeng-Da Chai,  
 A. E. DePrince, III,  R. A. DiStasio Jr.,  A. Dreuw,  B. D. Dunietz,  
 T. R. Furlani,  Chao-Ping Hsu,  Yousung Jung,  Jing Kong,  D. S. Lambrecht,  
 WanZhen Liang,  C. Ochsenfeld,  V. A. Rassolov,  L. V. Slipchenko,  
 J. E. Subotnik,  T. Van Voorhis,  J. M. Herbert,  A. I. Krylov,  
 P. M. W. Gill,  M. Head-Gordon

 Contributors to earlier versions of Q-Chem not listed above: 
 R. D. Adamson,  B. Austin,  J. Baker,  G. J. O. Beran,  K. Brandhorst,  
 S. T. Brown,  E. F. C. Byrd,  A. K. Chakraborty,  C.-L. Cheng,  
 Siu Hung Chien,  D. M. Chipman,  D. L. Crittenden,  H. Dachsel,  
 R. J. Doerksen,  A. D. Dutoi,  L. Fusti-Molnar,  W. A. Goddard III,  
 A. Golubeva-Zadorozhnaya,  S. R. Gwaltney,  G. Hawkins,  A. Heyden,  
 S. Hirata,  G. Kedziora,  F. J. Keil,  C. Kelley,  Jihan Kim,  R. A. King,  
 R. Z. Khaliullin,  P. P. Korambath,  W. Kurlancheek,  A. M. Lee,  M. S. Lee,  
 S. V. Levchenko,  Ching Yeh Lin,  D. Liotard,  R. C. Lochan,  I. Lotan,  
 P. E. Maslen,  N. Nair,  D. P. O'Neill,  D. Neuhauser,  E. Neuscamman,  
 C. M. Oana,  R. Olson,  B. Peters,  R. Peverati,  P. A. Pieniazek,  
 Y. M. Rhee,  J. Ritchie,  M. A. Rohrdanz,  E. Rosta,  N. J. Russ,  
 H. F. Schaefer III,  N. E. Schultz,  N. Shenvi,  A. C. Simmonett,  A. Sodt,  
 D. Stuck,  K. S. Thanthiriwatte,  V. Vanovschi,  Tao Wang,  A. Warshel,  
 C. F. Williams,  Q. Wu,  X. Xu,  W. Zhang

 Please cite Q-Chem as follows:
 Y. Shao et al., Mol. Phys. 113, 184-215 (2015)
 DOI: 10.1080/00268976.2014.952696

 Q-Chem 5.2.0 for Intel X86 EM64T Linux

 Parts of Q-Chem use Armadillo 8.300.2 (Tropical Shenanigans).
 http://arma.sourceforge.net/

 Q-Chem begins on Sun Sep 26 14:34:00 2021  

Host: cori01
0

     Scratch files written to /tmp/qchem54836//Frg2//
 May1019 |scratch|qcdevops|jenkins|workspace|build_RNUM -1
Processing $rem in /global/common/cori/software/qchem/5.2/config/preferences:
	 MEM_TOTAL  96000 
NAlpha2: 40
NElect   40
Mult     1
Symmetry turned off for PCM/SM12/SMD calculation

Checking the input file for inconsistencies... 	...done.

--------------------------------------------------------------
User input:
--------------------------------------------------------------
$molecule
-1 1
 6	-0.4089445950	2.3580151225	0.9267120881
 6	-0.8559445950	3.1160151225	-0.3222879119
 6	0.8960554050	1.6100151225	0.7637120881
 8	1.5970554050	1.8160151225	-0.2632879119
 8	1.1640554050	0.8000151225	1.6717120881
 1	-0.3179445950	3.0690151225	1.7507120881
 1	-1.1939445950	1.6480151225	1.1907120881
 1	-0.7179445950	2.4400151225	-1.1642879119
 1	-0.1789445950	3.9600151225	-0.4682879119
 1	-1.8917545950	3.4842541225	-0.3610499119
$end
$rem
EDA2		1
METHOD		WB97X-V
BASIS		DEF2-TZVPD
XC_GRID		000099000590
NL_GRID		1
UNRESTRICTED		FALSE
MAX_SCF_CYCLES		200
SYMMETRY		FALSE
SYM_IGNORE		TRUE
BASIS_LIN_DEP_THRESH		6
THRESH		14
SCF_CONVERGENCE		8
SCF_PRINT_FRGM		TRUE
SOLVENT_METHOD		PCM
!required keywords
JOBTYPE		SP
SYM_IGNORE		TRUE
SUBSYSTEM		TRUE
GEN_SCFMAN		TRUE
CHILD_INSTRUCTION		2
SYM_IGNORE		TRUE
SCFMI		0
RI_K 0		
PARI_K 0		
MIN_PARI_K 0		
IARI_K 0		
OCC_RI_K 0		
PURECART		1111
MEM_STATIC		2000
MEM_TOTAL		96000
GUI		0
CHILD_MP		1
CHILD_MP_ORDERS		232
FRZ_RELAX		0
FRZ_RELAX_METHOD		0
EDA_CLS_ELEC		1
EDA_CLS_DISP		0
FRZ_ORTHO_DECOMP		1
EDA2		FALSE
FRGM_METHOD		FALSE
CIS_N_ROOTS  0
LOCAL_CIS    0
CIS_RLX_DNS  1
$end
$pcm
THEORY                  CPCM
METHOD                  SWIG
SOLVER                  INVERSION
RADII                   UFF
HPOINTS                 302
HEAVYPOINTS             302
PRINTLEVEL              0
$end
$solvent
DIELECTRIC              78.390000 ! water
$end
--------------------------------------------------------------
 ----------------------------------------------------------------
             Standard Nuclear Orientation (Angstroms)
    I     Atom           X                Y                Z
 ----------------------------------------------------------------
    1      C      -0.4089445950     2.3580151225     0.9267120881
    2      C      -0.8559445950     3.1160151225    -0.3222879119
    3      C       0.8960554050     1.6100151225     0.7637120881
    4      O       1.5970554050     1.8160151225    -0.2632879119
    5      O       1.1640554050     0.8000151225     1.6717120881
    6      H      -0.3179445950     3.0690151225     1.7507120881
    7      H      -1.1939445950     1.6480151225     1.1907120881
    8      H      -0.7179445950     2.4400151225    -1.1642879119
    9      H      -0.1789445950     3.9600151225    -0.4682879119
   10      H      -1.8917545950     3.4842541225    -0.3610499119
 ----------------------------------------------------------------
 Nuclear Repulsion Energy =         169.59344122 hartrees
 There are       20 alpha and       20 beta electrons
 Requested basis set is def2-TZVPD
 There are 92 shells and 236 basis functions

 Total QAlloc Memory Limit  96000 MB
 Mega-Array Size      1956 MB
 MEM_STATIC part      2000 MB
 Discretize the solute cavity surface with Lebedev spheres
	Using 302 Lebedev grid points for each H atom
	Using 302 Lebedev grid points for other atoms
	Atomic van der Waals radii will be scaled by 1.20
 Remove points where switching function is < 1.0e-08
 Keep 1288 surface tesserae and discard 1732 interior tesserae
 Molecular Surface Area = 142.684 Angst**2

                       Distance Matrix (Angstroms)
             C (  1)   C (  2)   C (  3)   O (  4)   O (  5)   H (  6)
   C (  2)  1.527866
   C (  3)  1.512977  2.552829
   O (  4)  2.394556  2.776813  1.260383
   O (  5)  2.335962  3.663372  1.245949  2.227997
   H (  6)  1.092144  2.142191  2.139310  3.048513  2.711259
   H (  7)  1.090881  2.135050  2.133512  3.151511  2.551593  1.760743
   H (  8)  2.115298  1.088570  2.647844  2.561328  3.778150  3.008798
   H (  9)  2.136663  1.091779  2.862857  2.791583  4.045843  2.395238
   H ( 10)  2.263950  1.100002  3.542562  3.868381  4.547003  2.666241
             H (  7)   H (  8)   H (  9)
   H (  8)  2.529795
   H (  9)  3.021233  1.756513
   H ( 10)  2.503333  1.764499  1.780889
 
 A cutoff of  1.0D-14 yielded   4190 shell pairs
 There are     28002 function pairs (     35682 Cartesian)
 Smallest overlap matrix eigenvalue = 7.94E-06

 Scale SEOQF with 1.000000e-01/1.000000e-01/1.000000e-01

 Standard Electronic Orientation quadrupole field applied
 Nucleus-field energy     =     0.0000000108 hartrees
 Guess from superposition of atomic densities
 Warning:  Energy on first SCF cycle will be non-variational
 SAD guess density has 38.612942 electrons

 -----------------------------------------------------------------------
  General SCF calculation program by
  Eric Jon Sundstrom, Paul Horn, Yuezhi Mao, Dmitri Zuev, Alec White,
  David Stuck, Shaama M.S., Shane Yost, Joonho Lee, David Small,
  Daniel Levine, Susi Lehtola, Hugh Burton, Evgeny Epifanovsky
 -----------------------------------------------------------------------
 Exchange:     0.1670 Hartree-Fock + 1.0000 wB97X-V + LR-HF
 Correlation:  1.0000 wB97X-V
 Using Euler-Maclaurin-Lebedev (99,590) quadrature formula
 Nonlocal Correlation:  VV10 with C = 0.0100 and b = 6.00 and scale = 1.00000
 Grid used for NLC:  SG-1 standard quadrature
Energy prior to optimization (guess energy) = -267.077472394863
Begin Timing: Total SCF Calculation
begin iterations for algorithm: DIIS         
the SCF tolerance is set to 1.00e-08
    1    -267.0774723949      1.27e-02     00000 
    2    -263.1446795740      2.07e-02     00000 
    3    -267.7976146717      4.97e-03     00000 
    4    -267.9292702877      2.15e-03     00000 
    5    -267.9550370856      3.70e-04     00000 
    6    -267.9560425190      2.47e-04     00000 
    7    -267.9563220380      5.93e-05     00000 
    8    -267.9563435244      1.50e-05     00000 
    9    -267.9563454239      5.65e-06     00000 
   10    -267.9563457310      1.95e-06     00000 
   11    -267.9563457917      3.16e-07     00000 
   12    -267.9563457952      9.92e-08     00000 
   13    -267.9563457954      4.15e-08     00000 
   14    -267.9563457954      1.24e-08     00000 
   15    -267.9563457954      1.80e-09     00000 Convergence criterion met
Timing for Total SCF: 637.00s (wall), 1259.75s (cpu)

************** Final PCM Free Energy Summary **************
 G_electrostatic  =      -0.09934512 hartree =     -62.34000276 kcal/mol
 G_cavitation     =       0.00000000 hartree =       0.00000000 kcal/mol
 G_dispersion     =       0.00000000 hartree =       0.00000000 kcal/mol
 G_repulsion      =       0.00000000 hartree =       0.00000000 kcal/mol
 --------------------------------------------------
 Non-electrostatic Free Energy =       0.00000000 hartree =       0.00000000 kcal/mol
 Total                         =      -0.09934512 hartree =     -62.34000276 kcal/mol
 --------------------------------------------------
 SCF Energy (H0 + V/2)                       =    -267.95634580 
 Solute Internal Energy (H0)                 =    -267.85700068 
 Total Free Energy (H0 + V/2 + non-elec)     =    -267.95634580 hartree
                                             = -168145.14480116 kcal/mol
***********************************************************

E_pcm = -0.0993451185
Multipole orders to be included
        2
        3
computing dipole RHS
computing quadrupole RHS
total number of RHS in solve_reponses: 8
RHS batch sizes
        8
Beginning Block Conjugate Gradient Iterations. Batch Number: 0
computing hessian-vector products by finite difference
              1      6.46e-01     00000 Conjugate Gradient Iteration
computing hessian-vector products by finite difference
              2      2.24e-01     00000 Conjugate Gradient Iteration
computing hessian-vector products by finite difference
              3      5.65e-02     00000 Conjugate Gradient Iteration
computing hessian-vector products by finite difference
              4      1.46e-02     00000 Conjugate Gradient Iteration
computing hessian-vector products by finite difference
              5      2.79e-03     00000 Conjugate Gradient Iteration
computing hessian-vector products by finite difference
              6      6.48e-04     00000 Conjugate Gradient Iteration
computing hessian-vector products by finite difference
              7      1.24e-04     00000 Conjugate Gradient Iteration
computing hessian-vector products by finite difference
              8      2.17e-05     00000 Conjugate Gradient Iteration
computing hessian-vector products by finite difference
              9      3.60e-06     00000 Conjugate Gradient Iteration
computing hessian-vector products by finite difference
             10      5.75e-07     00000 Conjugate Gradient Iteration
computing hessian-vector products by finite difference
             11      6.82e-08     00000 Conjugate Gradient Iteration
computing hessian-vector products by finite difference
             12      1.30e-08     00000 Conjugate Gradient Iteration
computing hessian-vector products by finite difference
             13      2.56e-09     00000 CG Converged
batch 0 complete
Done Calculating Responses
TESTING ORTHOGONALIZATION OF MULTIPOLE BASIS
Multipole virts passed orthogonality test
Virts Per Order
           60
          100
 
 --------------------------------------------------------------
 
                    Orbital Energies (a.u.)
 --------------------------------------------------------------
 
 Alpha MOs
 -- Occupied --
-19.1230 -19.1222 -10.3225 -10.2409 -10.2379  -1.1305  -1.0341  -0.8785
 -0.7414  -0.5936  -0.5558  -0.5338  -0.5044  -0.4765  -0.4669  -0.4302
 -0.4215  -0.3294  -0.3220  -0.3119
 -- Virtual --
  0.0635   0.0833   0.0918   0.1021   0.1179   0.1301   0.1382   0.1422
  0.1569   0.1709   0.1789   0.1973   0.2051   0.2097   0.2198   0.2342
  0.2535   0.2633   0.2693   0.2880   0.3008   0.3124   0.3176   0.3191
  0.3366   0.3458   0.3544   0.3635   0.3787   0.3907   0.3965   0.3997
  0.4067   0.4130   0.4162   0.4235   0.4365   0.4567   0.4594   0.4693
  0.4819   0.4955   0.5026   0.5084   0.5174   0.5205   0.5387   0.5411
  0.5503   0.5622   0.5790   0.5954   0.6141   0.6275   0.6296   0.6494
  0.6712   0.6750   0.6957   0.7042   0.7153   0.7172   0.7386   0.7535
  0.7729   0.7849   0.7871   0.8020   0.8099   0.8114   0.8240   0.8282
  0.8363   0.8544   0.8674   0.8870   0.9246   0.9716   0.9975   1.0175
  1.0299   1.0544   1.0749   1.1047   1.1259   1.1561   1.1701   1.2172
  1.2587   1.2853   1.3006   1.3237   1.3518   1.3939   1.4064   1.4176
  1.4231   1.4576   1.5042   1.6193   1.7148   1.7679   1.8361   1.8962
  1.9130   1.9212   1.9323   1.9410   1.9633   1.9772   1.9811   1.9978
  2.0286   2.0568   2.0964   2.1578   2.1753   2.2031   2.2319   2.2518
  2.2759   2.3162   2.3588   2.4062   2.4609   2.4932   2.5000   2.5420
  2.5733   2.5938   2.6149   2.6532   2.7074   2.7527   2.7802   2.8158
  2.8313   2.8411   2.8768   2.9109   2.9459   3.0292   3.0368   3.0893
  3.1026   3.2058   3.2377   3.2898   3.3082   3.3261   3.3473   3.3684
  3.3943   3.4073   3.4494   3.4694   3.4897   3.4996   3.5604   3.5856
  3.6062   3.6212   3.6547   3.6712   3.6824   3.7333   3.7676   3.7779
  3.8271   3.8434   3.9744   4.0558   4.1089   4.1470   4.1625   4.2385
  4.3435   4.4741   4.5464   4.5893   4.6929   4.7530   4.8037   4.8280
  4.9027   5.0527   5.1421   5.3391   5.3774   5.3831   5.3902   5.5286
  5.7419   5.7450   5.8129   6.0382   6.2776   6.3398   6.3556   6.6533
  6.6545   6.7110   6.7651   6.7817   6.9826   6.9900   7.0672   7.2679
  7.3842   7.4237   7.4324  22.6619  22.7870  23.7792  44.2640  44.4160
 --------------------------------------------------------------
 
          Ground-State Mulliken Net Atomic Charges

     Atom                 Charge (a.u.)
  ----------------------------------------
      1 C                     0.079186
      2 C                    -0.651594
      3 C                     0.153559
      4 O                    -0.674542
      5 O                    -0.682240
      6 H                     0.117112
      7 H                     0.141058
      8 H                     0.153854
      9 H                     0.139603
     10 H                     0.224004
  ----------------------------------------
  Sum of atomic charges =    -1.000000

 -----------------------------------------------------------------
                    Cartesian Multipole Moments
 -----------------------------------------------------------------
    Charge (ESU x 10^10)
                -4.8032
    Dipole Moment (Debye)
         X      -7.8323      Y      -5.5804      Z      -3.1859
       Tot      10.1309
    Quadrupole Moments (Debye-Ang)
        XX     -46.1590     XY      -9.3227     YY     -41.4301
        XZ      -3.7369     YZ       1.0998     ZZ     -42.9990
    Octopole Moments (Debye-Ang^2)
       XXX     -61.6851    XXY     -84.0548    XYY     -25.4297
       YYY    -214.0067    XXZ     -21.3267    XYZ       0.8934
       YYZ      -8.2441    XZZ     -23.7888    YZZ     -73.2141
       ZZZ     -69.1761
    Hexadecapole Moments (Debye-Ang^3)
      XXXX    -315.1570   XXXY     -44.0716   XXYY    -238.1869
      XYYY     -25.9882   YYYY   -1012.0783   XXXZ     -44.0335
      XXYZ     -17.3057   XYYZ      -5.3353   YYYZ     -28.4792
      XXZZ     -99.9690   XYZZ      -9.7207   YYZZ    -205.6723
      XZZZ     -58.0989   YZZZ     -66.3335   ZZZZ    -267.2517
 -----------------------------------------------------------------
Archival summary:
1\1\nid00572\SP\ProcedureUnspecified\BasisUnspecified\235(1-,1)\meili\SunSep2617:24:462021SunSep2617:24:462021\0\\#,ProcedureUnspecified,BasisUnspecified,\\-1,1\C\O,1,1.24595\O,1,1.26038,2,125.482\C,1,1.51298,2,115.368,3,178.1,0\H,4,1.09088,1,108.965,2,-46.8951,0\H,4,1.09214,1,109.346,2,70.3671,0\C,4,1.52787,1,114.177,2,-167.813,0\H,7,1.08857,4,106.687,1,45.0582,0\H,7,1.09178,4,108.145,1,-70.1328,0\H,7,1.1,4,118.059,1,166.035,0\\\@

 Total job time:  10248.60s(wall), 20292.61s(cpu) 
 Sun Sep 26 17:24:48 2021

        *************************************************************
        *                                                           *
        *  Thank you very much for using Q-Chem.  Have a nice day.  *
        *                                                           *
        *************************************************************


Done Job For Fragment 1
calling putenv with: QCSCRATCH=/global/cscratch1/sd/meili 
calling putenv with: QCLOCALSCR=/tmp 
calling putenv with: QCTHREADS=32 
Doing General SCFMI
 Exchange:     0.1670 Hartree-Fock + 1.0000 wB97X-V + LR-HF
 Correlation:  1.0000 wB97X-V
 Using Euler-Maclaurin-Lebedev (99,590) quadrature formula
 Nonlocal Correlation:  VV10 with C = 0.0100 and b = 6.00 and scale = 1.00000
 Grid used for NLC:  SG-1 standard quadrature
performing fock build before subrot guess so that all methods have access
Printing subrot_rss_gen Method Specification:
Occupied Subspace Method is 0
Virtual Subspace Method is 0
Energy of the unrelaxed supersystem initial determinant -516.433393719559
performing fock build before subrot guess so that all methods have access
Printing subrot_rss_gen Method Specification:
Occupied Subspace Method is 0
Virtual Subspace Method is 0
Energy of the unrelaxed supersystem initial determinant w/ solvent -516.523685907060
write pseudocanon occs and virts to disk
write pseudocanon orbital energies to disk
Tolerance of ortho_decomp_scf: 1.00e-06
GDM subspace size: 20
Beginning the Orthogonal Decomposition of the Initial Supersystem Wavefunction
    1    -516.3549829872      6.25e-02     ortho_decomp Preconditoned Steepest Descent
    2    -516.3631547813      1.70e-03     ortho_decomp BFGS Step
    3    -516.3631877907      1.43e-04     ortho_decomp BFGS Step
    4    -516.3631878533      6.20e-06     ortho_decomp BFGS Step
    5    -516.3631878536      2.29e-07     ortho_decomp 00000 Convergence criterion met
 Hartree-Fock
 Hartree-Fock
 Hartree-Fock
Doing General SCFMI
 Exchange:     0.1670 Hartree-Fock + 1.0000 wB97X-V + LR-HF
 Correlation:  1.0000 wB97X-V
 Using Euler-Maclaurin-Lebedev (99,590) quadrature formula
 Nonlocal Correlation:  VV10 with C = 0.0100 and b = 6.00 and scale = 1.00000
 Grid used for NLC:  SG-1 standard quadrature
performing fock build at end of subrot_r(subrot) constructor so that all methods have access
<S^2> of initial wavefunction before polarization iterations 0.0000000000
Beginning iterations for the determination of the polarized wavefunction
Energy prior to optimization (guess energy) = -516.523685907060
Begin Timing: Total SCF Calculation
begin iterations for algorithm: DIIS         
the SCF tolerance is set to 1.00e-08
    1    -516.5236859071      1.84e-04     00000 
    2    -516.5259710644      7.40e-05     00000 
    3    -516.5261866831      5.50e-05     00000 
    4    -516.5262816071      1.72e-05     00000 
    5    -516.5262956694      6.81e-06     00000 
    6    -516.5262989020      3.34e-06     00000 
    7    -516.5262997009      1.46e-06     00000 
    8    -516.5262998278      7.46e-07     00000 
    9    -516.5262998597      3.18e-07     00000 
   10    -516.5262998640      1.90e-07     00000 
   11    -516.5262998653      9.61e-08     00000 
   12    -516.5262998655      5.48e-08     00000 
   13    -516.5262998656      2.39e-08     00000 
   14    -516.5262998656      9.55e-09     00000 Convergence criterion met
write pseudocanon occs and virts to disk
write pseudocanon orbital energies to disk
Timing for Total SCF: 4806.00s (wall), 9547.51s (cpu)
<S^2> of polarized wavefunction after polarization iterations 0.0000000000
relaxing scfmi constraint to allow all rotations in the entire AO span
Doing General SCFMI
 Exchange:     0.1670 Hartree-Fock + 1.0000 wB97X-V + LR-HF
 Correlation:  1.0000 wB97X-V
 Using Euler-Maclaurin-Lebedev (99,590) quadrature formula
 Nonlocal Correlation:  VV10 with C = 0.0100 and b = 6.00 and scale = 1.00000
 Grid used for NLC:  SG-1 standard quadrature
performing fock build at end of subrot_r(subrot) constructor so that all methods have access
<S^2> of polarized wavefunction before ct-allowed iterations 0.0000000000
Beginning iterations for the determination of the CT-Allowed wavefunction
Energy prior to optimization (guess energy) = -516.526299865630
Begin Timing: Total SCF Calculation
begin iterations for algorithm: DIIS         
the SCF tolerance is set to 1.00e-08
    1    -516.5262998656      1.67e-04     00000 
    2    -516.5302267600      2.57e-05     00000 
    3    -516.5303912831      1.18e-05     00000 
    4    -516.5304027398      6.72e-06     00000 
    5    -516.5304074713      1.57e-06     00000 
    6    -516.5304077533      5.45e-07     00000 
    7    -516.5304078124      2.39e-07     00000 
    8    -516.5304078209      5.97e-08     00000 
    9    -516.5304078219      2.78e-08     00000 
   10    -516.5304078220      1.15e-08     00000 
   11    -516.5304078220      3.92e-09     00000 Convergence criterion met
write pseudocanon occs and virts to disk
write pseudocanon orbital energies to disk
Timing for Total SCF: 3666.00s (wall), 7284.07s (cpu)
<S^2> of ct_allowed wavefunction after ct-allowed iterations 0.0000000000

================================
        Results of EDA2         
================================
Basic EDA Quantities
--------------------
Fragment Energies (Ha):
1 -248.5615416932
2 -267.9563457954
--------------------
  E_prp (kJ/mol) = -0.0000
  E_sol (kJ/mol) = 53.8277
  E_frz (kJ/mol) = -69.0517
  E_pol (kJ/mol) = -6.8630
  E_vct (kJ/mol) = -10.7856
  E_int (kJ/mol) = -32.8725
--------------------


Initial Wavefunction Decomposition
--------------------
  --------------------
  Orthogonal Fragment Subspace Decomposition:
  --------------------
     E_elec   (ELEC)   (kJ/mol) = -138.8152
     E_pauli  (PAULI)  (kJ/mol) = 92.7712
     E_disp   (DISP)   (kJ/mol) = -23.0076
     --------------------
     Terms summing to E_pauli:
     --------------------
        E_kep_pauli       (kJ/mol) = 115.2760
        E_disp_free_pauli (kJ/mol) = -22.5049
  --------------------
  Classical Frozen Decomposition:
  --------------------
     E_cls_elec  (CLS ELEC)  (kJ/mol) = -99.3600
     E_cls_pauli (CLS PAULI) (kJ/mol) = 30.3083
    [E_mod_pauli (MOD PAULI) (kJ/mol) = 53.3159 (CLS PAULI - DISP from orthogonal decomposition) ]
  --------------------
--------------------

Simplified EDA Summary (kJ/mol)
--------------------
 PREPARATION     -0.0000
 SOLVATION       53.8277
 FROZEN          -46.0440      (does not include dispersion)
[PAULI           92.7712]     (if this is negligible, then frozen describes electrostatics)
 DISPERSION      -23.0076
 POLARIZATION    -6.8630
 CHARGE TRANSFER -10.7856
 TOTAL           -32.8725     (PRP + SOL + FRZ + DISP + POL + CT)
--------------------
 
 --------------------------------------------------------------
 
                    Orbital Energies (a.u.)
 --------------------------------------------------------------
 
 Alpha MOs
 -- Occupied --
-19.1674 -19.1323 -19.1303 -14.4109 -10.3612 -10.3306 -10.2659 -10.2512
-10.2447 -10.2404  -1.1591  -1.1402  -1.0437  -1.0282  -0.9066  -0.8823
 -0.7733  -0.7455  -0.6850  -0.6377  -0.5990  -0.5944  -0.5820  -0.5587
 -0.5417  -0.5239  -0.5097  -0.5033  -0.4827  -0.4750  -0.4732  -0.4544
 -0.4434  -0.4330  -0.4258  -0.3670  -0.3580  -0.3388  -0.3289  -0.3206
 -- Virtual --
  0.0570   0.0725   0.0755   0.0806   0.0979   0.1006   0.1056   0.1102
  0.1182   0.1263   0.1306   0.1347   0.1419   0.1481   0.1515   0.1597
  0.1664   0.1765   0.1777   0.1861   0.1933   0.1982   0.2037   0.2111
  0.2179   0.2241   0.2288   0.2328   0.2386   0.2496   0.2528   0.2643
  0.2674   0.2744   0.2749   0.2805   0.2900   0.2929   0.2997   0.3056
  0.3086   0.3184   0.3197   0.3226   0.3233   0.3303   0.3344   0.3422
  0.3458   0.3481   0.3549   0.3613   0.3630   0.3647   0.3711   0.3744
  0.3802   0.3820   0.3837   0.3925   0.3978   0.4055   0.4097   0.4112
  0.4171   0.4207   0.4277   0.4333   0.4366   0.4447   0.4530   0.4538
  0.4582   0.4605   0.4703   0.4739   0.4782   0.4810   0.4865   0.4963
  0.4995   0.5079   0.5123   0.5203   0.5214   0.5256   0.5269   0.5369
  0.5427   0.5431   0.5456   0.5573   0.5619   0.5659   0.5694   0.5727
  0.5807   0.5848   0.5896   0.6011   0.6040   0.6083   0.6175   0.6219
  0.6321   0.6355   0.6395   0.6430   0.6541   0.6578   0.6674   0.6798
  0.6855   0.6893   0.6964   0.7016   0.7062   0.7073   0.7187   0.7247
  0.7373   0.7436   0.7495   0.7558   0.7583   0.7652   0.7676   0.7745
  0.7813   0.7894   0.7944   0.7946   0.7997   0.8027   0.8092   0.8175
  0.8211   0.8255   0.8265   0.8306   0.8422   0.8434   0.8536   0.8629
  0.8666   0.8767   0.8888   0.8947   0.9101   0.9145   0.9190   0.9212
  0.9424   0.9481   0.9497   0.9667   0.9710   0.9845   0.9931   1.0110
  1.0141   1.0260   1.0394   1.0492   1.0528   1.0735   1.0771   1.0903
  1.0958   1.1016   1.1196   1.1344   1.1543   1.1627   1.1689   1.1901
  1.1981   1.2072   1.2163   1.2306   1.2421   1.2615   1.2726   1.2819
  1.2845   1.3056   1.3246   1.3251   1.3497   1.3560   1.3732   1.3840
  1.3905   1.4036   1.4194   1.4321   1.4371   1.4502   1.4691   1.4784
  1.4933   1.5070   1.5214   1.5432   1.5531   1.5701   1.6004   1.6217
  1.6505   1.7036   1.7422   1.7604   1.7904   1.8080   1.8538   1.8816
  1.8984   1.9203   1.9282   1.9285   1.9578   1.9583   1.9658   1.9710
  1.9793   1.9813   1.9972   2.0045   2.0108   2.0160   2.0229   2.0352
  2.0494   2.0526   2.0579   2.0649   2.0762   2.1024   2.1072   2.1334
  2.1438   2.1724   2.1883   2.1950   2.2246   2.2470   2.2613   2.2688
  2.2831   2.2953   2.3054   2.3305   2.3409   2.3502   2.3663   2.3731
  2.4051   2.4194   2.4353   2.4400   2.4857   2.5069   2.5218   2.5346
  2.5463   2.5625   2.5821   2.5915   2.6100   2.6274   2.6390   2.6543
  2.6616   2.6663   2.6790   2.7011   2.7089   2.7417   2.7542   2.7684
  2.7960   2.8035   2.8194   2.8222   2.8246   2.8539   2.8653   2.8755
  2.8771   2.9040   2.9306   2.9375   2.9442   2.9589   2.9743   3.0042
  3.0188   3.0503   3.0777   3.0853   3.0900   3.1277   3.1435   3.1683
  3.2239   3.2388   3.2475   3.2555   3.2676   3.3101   3.3179   3.3246
  3.3420   3.3490   3.3545   3.3659   3.3791   3.3852   3.3890   3.4041
  3.4220   3.4345   3.4365   3.4529   3.4613   3.4737   3.4904   3.4987
  3.5165   3.5222   3.5291   3.5441   3.5622   3.5991   3.6057   3.6166
  3.6234   3.6444   3.6509   3.6733   3.6971   3.7092   3.7242   3.7284
  3.7378   3.7544   3.7623   3.7803   3.7973   3.8109   3.8305   3.8387
  3.8569   3.9001   3.9484   3.9880   3.9929   4.0480   4.0778   4.0921
  4.1126   4.1234   4.1584   4.1650   4.1756   4.2126   4.2748   4.3177
  4.3588   4.3830   4.4005   4.4820   4.4948   4.5574   4.5642   4.6072
  4.6249   4.6591   4.6985   4.7088   4.7692   4.7830   4.8009   4.8334
  4.8667   4.9040   4.9166   4.9567   4.9706   5.0350   5.0786   5.1022
  5.1624   5.2184   5.2547   5.2975   5.3455   5.3788   5.3913   5.3942
  5.4107   5.4316   5.4438   5.5123   5.5313   5.5896   5.6373   5.7436
  5.7464   5.7915   5.8077   5.9599   6.0367   6.1882   6.2868   6.3015
  6.3484   6.3703   6.5516   6.6668   6.6724   6.6983   6.7504   6.7776
  6.8013   6.8100   6.8730   6.9949   7.0197   7.0403   7.0969   7.2836
  7.2956   7.3745   7.3974   7.4293   7.4500  22.6918  22.7230  22.8630
 22.9196  23.6816  23.8256  32.5792  44.4199  44.4466  44.4974
 --------------------------------------------------------------
 
          Ground-State Mulliken Net Atomic Charges

     Atom                 Charge (a.u.)
  ----------------------------------------
      1 C                     0.746705
      2 C                    -1.041678
      3 C                     0.053637
      4 O                    -0.616582
      5 N                    -0.101971
      6 H                    -0.418823
      7 H                     0.253203
      8 H                     0.211302
      9 H                     0.187875
     10 H                     0.223356
     11 H                     0.151029
     12 H                     0.271899
     13 C                     0.001655
     14 C                    -0.714442
     15 C                     0.304700
     16 O                    -0.684034
     17 O                    -0.790225
     18 H                     0.217164
     19 H                     0.180462
     20 H                     0.174709
     21 H                     0.172944
     22 H                     0.217115
  ----------------------------------------
  Sum of atomic charges =    -1.000000

 -----------------------------------------------------------------
                    Cartesian Multipole Moments
 -----------------------------------------------------------------
    Charge (ESU x 10^10)
                -4.8032
    Dipole Moment (Debye)
         X      -6.4878      Y      -1.0501      Z       0.6764
       Tot       6.6069
    Quadrupole Moments (Debye-Ang)
        XX     -73.2306     XY     -11.9971     YY     -89.6127
        XZ      -2.4398     YZ      -9.2358     ZZ     -77.5027
    Octopole Moments (Debye-Ang^2)
       XXX       2.4703    XXY     -31.9204    XYY       1.5585
       YYY      31.9668    XXZ       1.0083    XYZ       0.0561
       YYZ      42.5521    XZZ      -2.8508    YZZ       0.7987
       ZZZ      -8.7331
    Hexadecapole Moments (Debye-Ang^3)
      XXXX    -699.0312   XXXY    -130.9321   XXYY    -413.2712
      XYYY    -112.9908   YYYY   -2022.0232   XXXZ    -122.9251
      XXYZ     -63.2997   XYYZ     -30.5452   YYYZ    -246.0516
      XXZZ    -199.4115   XYZZ     -33.4511   YYZZ    -413.6472
      XZZZ    -140.7381   YZZZ    -196.7836   ZZZZ    -456.8162
 -----------------------------------------------------------------
Archival summary:
1\1\nid00572\SP\ProcedureUnspecified\BasisUnspecified\31612(1-,1)\meili\SunSep2621:15:192021SunSep2621:15:192021\0\\#,ProcedureUnspecified,BasisUnspecified,\\-1,1\O\C,1,1.24595\O,2,1.26038,1,125.482\C,2,1.51298,1,115.368,3,178.1,0\H,4,1.09088,2,108.965,1,-46.8951,0\H,4,1.09214,2,109.346,1,70.3671,0\C,4,1.52787,2,114.177,1,-167.813,0\H,7,1.08857,4,106.687,2,45.0582,0\H,7,1.09178,4,108.145,2,-70.1328,0\H,7,1.1,4,118.059,2,166.035,0\H,1,1.95362,2,107.953,3,-67.0063,0\N,11,1.0219,1,165.683,2,30.6507,0\H,12,1.00952,11,119.653,1,98.2077,0\C,12,1.31867,11,119.947,1,-84.4684,0\O,14,1.23187,12,122.459,11,177.679,0\C,14,1.52096,12,115.796,11,-4.86273,0\H,16,1.0871,14,108.591,12,50.9844,0\H,16,1.09003,14,108.651,12,-67.1027,0\C,16,1.50352,14,112.31,12,170.725,0\H,19,1.08911,16,109.971,14,60.4773,0\H,19,1.09222,16,108.285,14,-57.7011,0\H,19,1.1,16,113.289,14,-177.743,0\\\@

 Total job time:  36635.96s(wall), 27511.90s(cpu) 
 Sun Sep 26 21:15:23 2021

        *************************************************************
        *                                                           *
        *  Thank you very much for using Q-Chem.  Have a nice day.  *
        *                                                           *
        *************************************************************


