
Running Job 1 of 1 SSI-033PHE-058PHE-1_SMD_TZVPD.in
qchem SSI-033PHE-058PHE-1_SMD_TZVPD.in_51162.0 /tmp/qchem51162/ 0
/global/common/cori/software/qchem/5.2/exe/qcprog.exe_s SSI-033PHE-058PHE-1_SMD_TZVPD.in_51162.0 /tmp/qchem51162/
                  Welcome to Q-Chem
     A Quantum Leap Into The Future Of Chemistry


 Q-Chem 5.2, Q-Chem, Inc., Pleasanton, CA (2019)

 License issued to: National Energy Research Scientific Computing Center

 Yihan Shao,  Zhengting Gan,  E. Epifanovsky,  A. T. B. Gilbert,  M. Wormit,  
 J. Kussmann,  A. W. Lange,  A. Behn,  Jia Deng,  Xintian Feng,  D. Ghosh,  
 M. Goldey,  P. R. Horn,  L. D. Jacobson,  I. Kaliman,  T. Kus,  A. Landau,  
 Jie Liu,  E. I. Proynov,  R. M. Richard,  R. P. Steele,  E. J. Sundstrom,  
 H. L. Woodcock III,  P. M. Zimmerman,  D. Zuev,  B. Albrecht,  E. Alguire,  
 S. A. Baeppler,  D. Barton,  Z. Benda,  Y. A. Bernard,  E. J. Berquist,  
 K. B. Bravaya,  H. Burton,  D. Casanova,  Chun-Min Chang,  Yunqing Chen,  
 A. Chien,  K. D. Closser,  M. P. Coons,  S. Coriani,  S. Dasgupta,  
 A. L. Dempwolff,  M. Diedenhofen,  Hainam Do,  R. G. Edgar,  Po-Tung Fang,  
 S. Faraji,  S. Fatehi,  Qingguo Feng,  K. D. Fenk,  J. Fosso-Tande,  
 J. Gayvert,  Qinghui Ge,  A. Ghysels,  G. Gidofalvi,  J. Gomes,  
 J. Gonthier,  A. Gunina,  D. Hait,  M. W. D. Hanson-Heine,  
 P. H. P. Harbach,  A. W. Hauser,  M. F. Herbst,  J. E. Herr,  
 E. G. Hohenstein,  Z. C. Holden,  Kerwin Hui,  B. C. Huynh,  T.-C. Jagau,  
 Hyunjun Ji,  B. Kaduk,  K. Khistyaev,  Jaehoon Kim,  P. Klunzinger,  K. Koh,  
 D. Kosenkov,  L. Koulias,  T. Kowalczyk,  C. M. Krauter,  A. Kunitsa,  
 Ka Un Lao,  A. Laurent,  K. V. Lawler,  Joonho Lee,  D. Lefrancois,  
 S. Lehtola,  D. S. Levine,  Yi-Pei Li,  You-Sheng Lin,  Fenglai Liu,  
 E. Livshits,  A. Luenser,  P. Manohar,  E. Mansoor,  S. F. Manzer,  
 Shan-Ping Mao,  Yuezhi Mao,  N. Mardirossian,  A. V. Marenich,  
 T. Markovich,  L. A. Martinez-Martinez,  S. A. Maurer,  N. J. Mayhall,  
 S. C. McKenzie,  J.-M. Mewes,  P. Morgante,  A. F. Morrison,  
 J. W. Mullinax,  K. Nanda,  T. S. Nguyen-Beck,  R. Olivares-Amaya,  
 J. A. Parkhill,  Zheng Pei,  T. M. Perrine,  F. Plasser,  P. Pokhilko,  
 S. Prager,  A. Prociuk,  E. Ramos,  D. R. Rehn,  F. Rob,  M. Scheurer,  
 M. Schneider,  N. Sergueev,  S. M. Sharada,  S. Sharma,  D. W. Small,  
 T. Stauch,  T. Stein,  Yu-Chuan Su,  A. J. W. Thom,  A. Tkatchenko,  
 T. Tsuchimochi,  N. M. Tubman,  L. Vogt,  M. L. Vidal,  O. Vydrov,  
 M. A. Watson,  J. Wenzel,  M. de Wergifosse,  T. A. Wesolowski,  A. White,  
 J. Witte,  A. Yamada,  Jun Yang,  K. Yao,  S. Yeganeh,  S. R. Yost,  
 Zhi-Qiang You,  A. Zech,  Igor Ying Zhang,  Xing Zhang,  Yan Zhao,  
 Ying Zhu,  B. R. Brooks,  G. K. L. Chan,  C. J. Cramer,  M. S. Gordon,  
 W. J. Hehre,  A. Klamt,  M. W. Schmidt,  C. D. Sherrill,  D. G. Truhlar,  
 A. Aspuru-Guzik,  R. Baer,  A. T. Bell,  N. A. Besley,  Jeng-Da Chai,  
 A. E. DePrince, III,  R. A. DiStasio Jr.,  A. Dreuw,  B. D. Dunietz,  
 T. R. Furlani,  Chao-Ping Hsu,  Yousung Jung,  Jing Kong,  D. S. Lambrecht,  
 WanZhen Liang,  C. Ochsenfeld,  V. A. Rassolov,  L. V. Slipchenko,  
 J. E. Subotnik,  T. Van Voorhis,  J. M. Herbert,  A. I. Krylov,  
 P. M. W. Gill,  M. Head-Gordon

 Contributors to earlier versions of Q-Chem not listed above: 
 R. D. Adamson,  B. Austin,  J. Baker,  G. J. O. Beran,  K. Brandhorst,  
 S. T. Brown,  E. F. C. Byrd,  A. K. Chakraborty,  C.-L. Cheng,  
 Siu Hung Chien,  D. M. Chipman,  D. L. Crittenden,  H. Dachsel,  
 R. J. Doerksen,  A. D. Dutoi,  L. Fusti-Molnar,  W. A. Goddard III,  
 A. Golubeva-Zadorozhnaya,  S. R. Gwaltney,  G. Hawkins,  A. Heyden,  
 S. Hirata,  G. Kedziora,  F. J. Keil,  C. Kelley,  Jihan Kim,  R. A. King,  
 R. Z. Khaliullin,  P. P. Korambath,  W. Kurlancheek,  A. M. Lee,  M. S. Lee,  
 S. V. Levchenko,  Ching Yeh Lin,  D. Liotard,  R. C. Lochan,  I. Lotan,  
 P. E. Maslen,  N. Nair,  D. P. O'Neill,  D. Neuhauser,  E. Neuscamman,  
 C. M. Oana,  R. Olson,  B. Peters,  R. Peverati,  P. A. Pieniazek,  
 Y. M. Rhee,  J. Ritchie,  M. A. Rohrdanz,  E. Rosta,  N. J. Russ,  
 H. F. Schaefer III,  N. E. Schultz,  N. Shenvi,  A. C. Simmonett,  A. Sodt,  
 D. Stuck,  K. S. Thanthiriwatte,  V. Vanovschi,  Tao Wang,  A. Warshel,  
 C. F. Williams,  Q. Wu,  X. Xu,  W. Zhang

 Please cite Q-Chem as follows:
 Y. Shao et al., Mol. Phys. 113, 184-215 (2015)
 DOI: 10.1080/00268976.2014.952696

 Q-Chem 5.2.0 for Intel X86 EM64T Linux

 Parts of Q-Chem use Armadillo 8.300.2 (Tropical Shenanigans).
 http://arma.sourceforge.net/

 Q-Chem begins on Sun Sep 26 05:26:21 2021  

Host: cori01
0

     Scratch files written to /tmp/qchem51162//
 May1019 |scratch|qcdevops|jenkins|workspace|build_RNUM -1
Processing $rem in /global/common/cori/software/qchem/5.2/config/preferences:
	 MEM_TOTAL  96000 
NAlpha2: 108
NElect   108
Mult     1
Symmetry turned off for PCM/SM12/SMD calculation

 Q-Chem warning in module libgen/rem_setup.C, line 2803:

 Neither GIA nor STOLL is specified by user. Use STOLL as the default


Checking the input file for inconsistencies... 	...done.

--------------------------------------------------------------
User input:
--------------------------------------------------------------
$comment
SSI-033PHE-058PHE-1.pdb
$end

$molecule
0 1
--
0 1
C    1.342162230611    2.998963590699    0.401278089598
C    2.426162230611    0.746963590699    0.734278089598
C    2.393162230611    1.971963590699    0.063278089598
C    3.392162230611   -0.201036409301    0.403278089598
C    4.346162230611    0.075963590699   -0.582721910402
C    3.329162230611    2.223963590699   -0.954721910402
C    4.316162230611    1.293963590699   -1.262721910402
H    1.707162230611    0.524963590699    1.497278089598
H    3.403162230611   -1.154036409301    0.915278089598
H    1.788162230611    3.992963590699    0.413278089598
H    0.987162230611    2.793963590699    1.411278089598
H    5.101162230611   -0.660036409301   -0.828721910402
H    3.308162230611    3.167963590699   -1.482721910402
H    5.053162230611    1.510963590699   -2.024721910402
H    0.490982230611    2.983866590699   -0.295331910402
--
0 1
C   -1.027837769389   -0.858036409301    1.362278089598
C   -1.501837769389   -0.477036409301    2.763278089598
C   -2.141837769389   -1.105036409301    0.366278089598
C   -2.621837769389   -0.066036409301   -0.440721910402
C   -2.682837769389   -2.389036409301    0.214278089598
C   -3.635837769389   -0.279036409301   -1.362721910402
C   -3.678837769389   -2.628036409301   -0.720721910402
C   -4.158837769389   -1.565036409301   -1.533721910402
H   -0.393837769389   -0.063036409301    0.970278089598
H   -0.419837769389   -1.761036409301    1.432278089598
H   -2.180837769389   -1.252036409301    3.111278089598
H   -2.208837769389    0.924963590699   -0.338721910402
H   -2.311837769389   -3.200036409301    0.816278089598
H   -3.989837769389    0.532963590699   -1.948721910402
H   -4.039837769389   -3.634036409301   -0.871721910402
H   -4.802837769389   -1.732036409301   -2.372721910402
H   -2.031367769389    0.487110890699    2.758758089598
H   -0.596357769389   -0.408780409301    3.384118089598
$end

$rem
JOBTYPE			EDA
EDA2			1
method			wB97X-V
BASIS			def2-TZVPD
XC_GRID			000099000590
NL_GRID			1
UNRESTRICTED		FALSE
MAX_SCF_CYCLES		200
SYMMETRY		FALSE
SYM_IGNORE		TRUE
MEM_STATIC		2000
BASIS_LIN_DEP_THRESH 	6
THRESH 			14
SCF_CONVERGENCE 	8
SCF_PRINT_FRGM 		TRUE
SOLVENT_METHOD          SMD
$end

$SMX
SOLVENT			WATER
$END
--------------------------------------------------------------
 ----------------------------------------------------------------
             Standard Nuclear Orientation (Angstroms)
    I     Atom           X                Y                Z
 ----------------------------------------------------------------
    1      C       1.3421622306     2.9989635907     0.4012780896
    2      C       2.4261622306     0.7469635907     0.7342780896
    3      C       2.3931622306     1.9719635907     0.0632780896
    4      C       3.3921622306    -0.2010364093     0.4032780896
    5      C       4.3461622306     0.0759635907    -0.5827219104
    6      C       3.3291622306     2.2239635907    -0.9547219104
    7      C       4.3161622306     1.2939635907    -1.2627219104
    8      H       1.7071622306     0.5249635907     1.4972780896
    9      H       3.4031622306    -1.1540364093     0.9152780896
   10      H       1.7881622306     3.9929635907     0.4132780896
   11      H       0.9871622306     2.7939635907     1.4112780896
   12      H       5.1011622306    -0.6600364093    -0.8287219104
   13      H       3.3081622306     3.1679635907    -1.4827219104
   14      H       5.0531622306     1.5109635907    -2.0247219104
   15      H       0.4909822306     2.9838665907    -0.2953319104
   16      C      -1.0278377694    -0.8580364093     1.3622780896
   17      C      -1.5018377694    -0.4770364093     2.7632780896
   18      C      -2.1418377694    -1.1050364093     0.3662780896
   19      C      -2.6218377694    -0.0660364093    -0.4407219104
   20      C      -2.6828377694    -2.3890364093     0.2142780896
   21      C      -3.6358377694    -0.2790364093    -1.3627219104
   22      C      -3.6788377694    -2.6280364093    -0.7207219104
   23      C      -4.1588377694    -1.5650364093    -1.5337219104
   24      H      -0.3938377694    -0.0630364093     0.9702780896
   25      H      -0.4198377694    -1.7610364093     1.4322780896
   26      H      -2.1808377694    -1.2520364093     3.1112780896
   27      H      -2.2088377694     0.9249635907    -0.3387219104
   28      H      -2.3118377694    -3.2000364093     0.8162780896
   29      H      -3.9898377694     0.5329635907    -1.9487219104
   30      H      -4.0398377694    -3.6340364093    -0.8717219104
   31      H      -4.8028377694    -1.7320364093    -2.3727219104
   32      H      -2.0313677694     0.4871108907     2.7587580896
   33      H      -0.5963577694    -0.4087804093     3.3841180896
 ----------------------------------------------------------------
 Nuclear Repulsion Energy =         851.19311977 hartrees
 There are       54 alpha and       54 beta electrons
 Requested basis set is def2-TZVPD
 There are 285 shells and 717 basis functions

 Total QAlloc Memory Limit  96000 MB
 Mega-Array Size      1956 MB
 MEM_STATIC part      2000 MB
 
 Citation of the SMD model:
 Marenich, A.V.; Cramer, C.J.; Truhlar, D.G.
 J. Phys. Chem. B 2009, 113, 6378-6396.
 iSolventCode=           1
 Solvent: water                                                           
 
 vradii
            1           2           3           4           5           6
    1   1.8500000   1.8500000   1.8500000   1.8500000   1.8500000   1.8500000
            7           8           9          10          11          12
    1   1.8500000   1.2000000   1.2000000   1.2000000   1.2000000   1.2000000
           13          14          15          16          17          18
    1   1.2000000   1.2000000   1.2000000   1.8500000   1.8500000   1.8500000
           19          20          21          22          23          24
    1   1.8500000   1.8500000   1.8500000   1.8500000   1.8500000   1.2000000
           25          26          27          28          29          30
    1   1.2000000   1.2000000   1.2000000   1.2000000   1.2000000   1.2000000
           31          32          33
    1   1.2000000   1.2000000   1.2000000
 Changing PCM_VDW_RADII to SMD_RADIUS
 Discretize the solute cavity surface with Lebedev spheres
	Using 110 Lebedev grid points for each H atom
	Using 194 Lebedev grid points for other atoms
	Atomic van der Waals radii will be scaled by 1.20
 Remove points where switching function is < 1.0e-08
 Keep 2331 surface tesserae and discard 2559 interior tesserae
 Molecular Surface Area = 283.320 Angst**2
 A cutoff of  1.0D-14 yielded  33382 shell pairs
 There are    209358 function pairs (    262138 Cartesian)
 Smallest overlap matrix eigenvalue = 4.90E-07
 Linear dependence detected in AO basis
 Tighter screening thresholds may be required for diffuse basis sets
 Use S2THRESH > 14 and THRESH = 14 in case of SCF convergence issues
 Number of orthogonalized atomic orbitals = 715
 Maximum deviation from orthogonality = 3.108E-10

 Scale SEOQF with 1.000000e-02/1.000000e-01/1.000000e-01

 Standard Electronic Orientation quadrupole field applied
 Nucleus-field energy     =     0.0000000076 hartrees

 -----------------------------------------------------------------------
  General SCF calculation program by
  Eric Jon Sundstrom, Paul Horn, Yuezhi Mao, Dmitri Zuev, Alec White,
  David Stuck, Shaama M.S., Shane Yost, Joonho Lee, David Small,
  Daniel Levine, Susi Lehtola, Hugh Burton, Evgeny Epifanovsky
 -----------------------------------------------------------------------
================================================================
                 ALMO-EDA with the EDA2 driver                  
================================================================
 The second-generation ALMO-EDA (for DFT):                      
 P. R. Horn, Y. Mao and M. Head-Gordon, PCCP, 18, 23067 (2016)  
 Decomposition of the frozen energy:                            
 P. R. Horn, Y. Mao and M. Head-Gordon, JCP, 144, 114107 (2016) 
 FERF model for polarization:                                   
 P. R. Horn and M. Head-Gordon, JCP, 143, 114111 (2015)         
Using eda2 option set 1
Option set summary: Frozen orbital wavefunction, initial wavefunction decomposition, and nDQ polarization.
--------------------------------
Printing EDA Options
--------------------------------
eda_child_super_basis      0
fragmo_guess_mode          0
child_mp                   1
child_mp_orders            232
cls_elec                   1
cls_disp                   0
scfmi_mode                 1
scfmi_occs                 0
scfmi_virts                0
frz_relax                  0
frz_relax_method           0
dc_pen_start               0
dc_pen_conv                0
dc_pen_increment           0
dc_pen_steps               0
dc_pen_thresh_factor       0
dc_pen_pre_newton_thresh   0
frz_ortho_decomp           1
frz_ortho_decomp_conv      6
frgm_method                2
scfmi_freeze_ss            0
separate_rehyb             0
plot_diff_den              0
eda_nocv                   0
eda_vct_relax              1
disp_free_x                0
disp_free_c                0
eda_bsse                   0
eda_pct_a                  0
eda_covp                   0
--------------------------------
Attempting to make child job directory: /tmp/qchem51162//Frg1/
Attempting to make child job directory: /tmp/qchem51162//Frg2/
Creating input file /tmp/qchem51162/Frg1.input
using default PutDataFrgm: nothing
calling putenv with: QCSCRATCH=/tmp/qchem51162/ 
calling putenv with: QCLOCALSCR=/tmp/qchem51162/ 
Spawning Job For Fragment 0
                  Welcome to Q-Chem
     A Quantum Leap Into The Future Of Chemistry


 Q-Chem 5.2, Q-Chem, Inc., Pleasanton, CA (2019)

 License issued to: National Energy Research Scientific Computing Center

 Yihan Shao,  Zhengting Gan,  E. Epifanovsky,  A. T. B. Gilbert,  M. Wormit,  
 J. Kussmann,  A. W. Lange,  A. Behn,  Jia Deng,  Xintian Feng,  D. Ghosh,  
 M. Goldey,  P. R. Horn,  L. D. Jacobson,  I. Kaliman,  T. Kus,  A. Landau,  
 Jie Liu,  E. I. Proynov,  R. M. Richard,  R. P. Steele,  E. J. Sundstrom,  
 H. L. Woodcock III,  P. M. Zimmerman,  D. Zuev,  B. Albrecht,  E. Alguire,  
 S. A. Baeppler,  D. Barton,  Z. Benda,  Y. A. Bernard,  E. J. Berquist,  
 K. B. Bravaya,  H. Burton,  D. Casanova,  Chun-Min Chang,  Yunqing Chen,  
 A. Chien,  K. D. Closser,  M. P. Coons,  S. Coriani,  S. Dasgupta,  
 A. L. Dempwolff,  M. Diedenhofen,  Hainam Do,  R. G. Edgar,  Po-Tung Fang,  
 S. Faraji,  S. Fatehi,  Qingguo Feng,  K. D. Fenk,  J. Fosso-Tande,  
 J. Gayvert,  Qinghui Ge,  A. Ghysels,  G. Gidofalvi,  J. Gomes,  
 J. Gonthier,  A. Gunina,  D. Hait,  M. W. D. Hanson-Heine,  
 P. H. P. Harbach,  A. W. Hauser,  M. F. Herbst,  J. E. Herr,  
 E. G. Hohenstein,  Z. C. Holden,  Kerwin Hui,  B. C. Huynh,  T.-C. Jagau,  
 Hyunjun Ji,  B. Kaduk,  K. Khistyaev,  Jaehoon Kim,  P. Klunzinger,  K. Koh,  
 D. Kosenkov,  L. Koulias,  T. Kowalczyk,  C. M. Krauter,  A. Kunitsa,  
 Ka Un Lao,  A. Laurent,  K. V. Lawler,  Joonho Lee,  D. Lefrancois,  
 S. Lehtola,  D. S. Levine,  Yi-Pei Li,  You-Sheng Lin,  Fenglai Liu,  
 E. Livshits,  A. Luenser,  P. Manohar,  E. Mansoor,  S. F. Manzer,  
 Shan-Ping Mao,  Yuezhi Mao,  N. Mardirossian,  A. V. Marenich,  
 T. Markovich,  L. A. Martinez-Martinez,  S. A. Maurer,  N. J. Mayhall,  
 S. C. McKenzie,  J.-M. Mewes,  P. Morgante,  A. F. Morrison,  
 J. W. Mullinax,  K. Nanda,  T. S. Nguyen-Beck,  R. Olivares-Amaya,  
 J. A. Parkhill,  Zheng Pei,  T. M. Perrine,  F. Plasser,  P. Pokhilko,  
 S. Prager,  A. Prociuk,  E. Ramos,  D. R. Rehn,  F. Rob,  M. Scheurer,  
 M. Schneider,  N. Sergueev,  S. M. Sharada,  S. Sharma,  D. W. Small,  
 T. Stauch,  T. Stein,  Yu-Chuan Su,  A. J. W. Thom,  A. Tkatchenko,  
 T. Tsuchimochi,  N. M. Tubman,  L. Vogt,  M. L. Vidal,  O. Vydrov,  
 M. A. Watson,  J. Wenzel,  M. de Wergifosse,  T. A. Wesolowski,  A. White,  
 J. Witte,  A. Yamada,  Jun Yang,  K. Yao,  S. Yeganeh,  S. R. Yost,  
 Zhi-Qiang You,  A. Zech,  Igor Ying Zhang,  Xing Zhang,  Yan Zhao,  
 Ying Zhu,  B. R. Brooks,  G. K. L. Chan,  C. J. Cramer,  M. S. Gordon,  
 W. J. Hehre,  A. Klamt,  M. W. Schmidt,  C. D. Sherrill,  D. G. Truhlar,  
 A. Aspuru-Guzik,  R. Baer,  A. T. Bell,  N. A. Besley,  Jeng-Da Chai,  
 A. E. DePrince, III,  R. A. DiStasio Jr.,  A. Dreuw,  B. D. Dunietz,  
 T. R. Furlani,  Chao-Ping Hsu,  Yousung Jung,  Jing Kong,  D. S. Lambrecht,  
 WanZhen Liang,  C. Ochsenfeld,  V. A. Rassolov,  L. V. Slipchenko,  
 J. E. Subotnik,  T. Van Voorhis,  J. M. Herbert,  A. I. Krylov,  
 P. M. W. Gill,  M. Head-Gordon

 Contributors to earlier versions of Q-Chem not listed above: 
 R. D. Adamson,  B. Austin,  J. Baker,  G. J. O. Beran,  K. Brandhorst,  
 S. T. Brown,  E. F. C. Byrd,  A. K. Chakraborty,  C.-L. Cheng,  
 Siu Hung Chien,  D. M. Chipman,  D. L. Crittenden,  H. Dachsel,  
 R. J. Doerksen,  A. D. Dutoi,  L. Fusti-Molnar,  W. A. Goddard III,  
 A. Golubeva-Zadorozhnaya,  S. R. Gwaltney,  G. Hawkins,  A. Heyden,  
 S. Hirata,  G. Kedziora,  F. J. Keil,  C. Kelley,  Jihan Kim,  R. A. King,  
 R. Z. Khaliullin,  P. P. Korambath,  W. Kurlancheek,  A. M. Lee,  M. S. Lee,  
 S. V. Levchenko,  Ching Yeh Lin,  D. Liotard,  R. C. Lochan,  I. Lotan,  
 P. E. Maslen,  N. Nair,  D. P. O'Neill,  D. Neuhauser,  E. Neuscamman,  
 C. M. Oana,  R. Olson,  B. Peters,  R. Peverati,  P. A. Pieniazek,  
 Y. M. Rhee,  J. Ritchie,  M. A. Rohrdanz,  E. Rosta,  N. J. Russ,  
 H. F. Schaefer III,  N. E. Schultz,  N. Shenvi,  A. C. Simmonett,  A. Sodt,  
 D. Stuck,  K. S. Thanthiriwatte,  V. Vanovschi,  Tao Wang,  A. Warshel,  
 C. F. Williams,  Q. Wu,  X. Xu,  W. Zhang

 Please cite Q-Chem as follows:
 Y. Shao et al., Mol. Phys. 113, 184-215 (2015)
 DOI: 10.1080/00268976.2014.952696

 Q-Chem 5.2.0 for Intel X86 EM64T Linux

 Parts of Q-Chem use Armadillo 8.300.2 (Tropical Shenanigans).
 http://arma.sourceforge.net/

 Q-Chem begins on Sun Sep 26 05:26:29 2021  

Host: cori01
0

     Scratch files written to /tmp/qchem51162//Frg1//
 May1019 |scratch|qcdevops|jenkins|workspace|build_RNUM -1
Processing $rem in /global/common/cori/software/qchem/5.2/config/preferences:
	 MEM_TOTAL  96000 
NAlpha2: 50
NElect   50
Mult     1
Symmetry turned off for PCM/SM12/SMD calculation

Checking the input file for inconsistencies... 	...done.

--------------------------------------------------------------
User input:
--------------------------------------------------------------
$molecule
0 1
 6	1.3421622306	2.9989635907	0.4012780896
 6	2.4261622306	0.7469635907	0.7342780896
 6	2.3931622306	1.9719635907	0.0632780896
 6	3.3921622306	-0.2010364093	0.4032780896
 6	4.3461622306	0.0759635907	-0.5827219104
 6	3.3291622306	2.2239635907	-0.9547219104
 6	4.3161622306	1.2939635907	-1.2627219104
 1	1.7071622306	0.5249635907	1.4972780896
 1	3.4031622306	-1.1540364093	0.9152780896
 1	1.7881622306	3.9929635907	0.4132780896
 1	0.9871622306	2.7939635907	1.4112780896
 1	5.1011622306	-0.6600364093	-0.8287219104
 1	3.3081622306	3.1679635907	-1.4827219104
 1	5.0531622306	1.5109635907	-2.0247219104
 1	0.4909822306	2.9838665907	-0.2953319104
$end
$rem
EDA2		1
METHOD		WB97X-V
BASIS		DEF2-TZVPD
XC_GRID		000099000590
NL_GRID		1
UNRESTRICTED		FALSE
MAX_SCF_CYCLES		200
SYMMETRY		FALSE
SYM_IGNORE		TRUE
BASIS_LIN_DEP_THRESH		6
THRESH		14
SCF_CONVERGENCE		8
SCF_PRINT_FRGM		TRUE
SOLVENT_METHOD		SMD
!required keywords
JOBTYPE		SP
SYM_IGNORE		TRUE
SUBSYSTEM		TRUE
GEN_SCFMAN		TRUE
CHILD_INSTRUCTION		2
SYM_IGNORE		TRUE
SCFMI		0
RI_K 0		
PARI_K 0		
MIN_PARI_K 0		
IARI_K 0		
OCC_RI_K 0		
PURECART		1111
MEM_STATIC		2000
MEM_TOTAL		96000
GUI		0
CHILD_MP		1
CHILD_MP_ORDERS		232
FRZ_RELAX		0
FRZ_RELAX_METHOD		0
EDA_CLS_ELEC		1
EDA_CLS_DISP		0
FRZ_ORTHO_DECOMP		1
EDA2		FALSE
FRGM_METHOD		FALSE
CIS_N_ROOTS  0
LOCAL_CIS    0
CIS_RLX_DNS  1
$end
$smx
SOLVENT			WATER
$end
--------------------------------------------------------------
 ----------------------------------------------------------------
             Standard Nuclear Orientation (Angstroms)
    I     Atom           X                Y                Z
 ----------------------------------------------------------------
    1      C       1.3421622306     2.9989635907     0.4012780896
    2      C       2.4261622306     0.7469635907     0.7342780896
    3      C       2.3931622306     1.9719635907     0.0632780896
    4      C       3.3921622306    -0.2010364093     0.4032780896
    5      C       4.3461622306     0.0759635907    -0.5827219104
    6      C       3.3291622306     2.2239635907    -0.9547219104
    7      C       4.3161622306     1.2939635907    -1.2627219104
    8      H       1.7071622306     0.5249635907     1.4972780896
    9      H       3.4031622306    -1.1540364093     0.9152780896
   10      H       1.7881622306     3.9929635907     0.4132780896
   11      H       0.9871622306     2.7939635907     1.4112780896
   12      H       5.1011622306    -0.6600364093    -0.8287219104
   13      H       3.3081622306     3.1679635907    -1.4827219104
   14      H       5.0531622306     1.5109635907    -2.0247219104
   15      H       0.4909822306     2.9838665907    -0.2953319104
 ----------------------------------------------------------------
 Nuclear Repulsion Energy =         269.23984335 hartrees
 There are       25 alpha and       25 beta electrons
 Requested basis set is def2-TZVPD
 There are 131 shells and 331 basis functions

 Total QAlloc Memory Limit  96000 MB
 Mega-Array Size      1956 MB
 MEM_STATIC part      2000 MB
 
 Citation of the SMD model:
 Marenich, A.V.; Cramer, C.J.; Truhlar, D.G.
 J. Phys. Chem. B 2009, 113, 6378-6396.
 iSolventCode=           1
 Solvent: water                                                           
 
 vradii
            1           2           3           4           5           6
    1   1.8500000   1.8500000   1.8500000   1.8500000   1.8500000   1.8500000
            7           8           9          10          11          12
    1   1.8500000   1.2000000   1.2000000   1.2000000   1.2000000   1.2000000
           13          14          15
    1   1.2000000   1.2000000   1.2000000
 Changing PCM_VDW_RADII to SMD_RADIUS
 Discretize the solute cavity surface with Lebedev spheres
	Using 110 Lebedev grid points for each H atom
	Using 194 Lebedev grid points for other atoms
	Atomic van der Waals radii will be scaled by 1.20
 Remove points where switching function is < 1.0e-08
 Keep 1066 surface tesserae and discard 1172 interior tesserae
 Molecular Surface Area = 132.228 Angst**2

                       Distance Matrix (Angstroms)
             C (  1)   C (  2)   C (  3)   C (  4)   C (  5)   C (  6)
   C (  2)  2.521398
   C (  3)  1.507838  1.397124
   C (  4)  3.800329  1.393349  2.415684
   C (  5)  4.305369  2.423041  2.797560  1.399657
   C (  6)  2.527356  2.418607  1.405676  2.780064  2.405531
   C (  7)  3.810590  2.803448  2.432260  2.421643  1.395286  1.390659
   H (  8)  2.730406  1.071641  2.149596  2.136150  3.390033  3.395554
   H (  9)  4.664689  2.145015  3.393800  1.081884  2.155494  3.861769
   H ( 10)  1.089539  3.323643  2.138449  4.490273  4.783123  2.715781
   H ( 11)  1.090023  2.592153  2.114149  3.971160  4.758828  3.377546
   H ( 12)  5.388067  3.402682  3.880252  2.156197  1.082699  3.387228
   H ( 13)  2.728218  3.399155  2.158184  3.861892  3.383476  1.081832
   H ( 14)  4.676659  3.885474  3.412897  3.403682  2.153703  2.150685
   H ( 15)  1.100000  3.131893  2.184225  4.364460  4.837448  3.011231
             C (  7)   H (  8)   H (  9)   H ( 10)   H ( 11)   H ( 12)
   H (  8)  3.875028
   H (  9)  3.401464  2.456457
   H ( 10)  4.060094  3.634369  5.417734
   H ( 11)  4.525761  2.382049  4.655081  1.753627
   H ( 12)  2.150046  4.281791  2.483702  5.845421  5.820027
   H ( 13)  2.139238  4.292907  4.943593  2.566289  3.728559  4.277400
   H ( 14)  1.082082  4.957055  4.297479  4.771205  5.475814  2.479105
   H ( 15)  4.292274  3.277003  5.202750  1.789715  1.787393  5.900533
             H ( 13)   H ( 14)
   H ( 14)  2.466665
   H ( 15)  3.062726  5.096442
 
 A cutoff of  1.0D-14 yielded   8359 shell pairs
 There are     54495 function pairs (     69449 Cartesian)
 Smallest overlap matrix eigenvalue = 5.92E-07
 Linear dependence detected in AO basis
 Tighter screening thresholds may be required for diffuse basis sets
 Use S2THRESH > 14 and THRESH = 14 in case of SCF convergence issues
 Number of orthogonalized atomic orbitals = 330
 Maximum deviation from orthogonality = 1.424E-10

 Scale SEOQF with 1.000000e-02/1.000000e-01/1.000000e-01

 Standard Electronic Orientation quadrupole field applied
 Nucleus-field energy     =     0.0000000101 hartrees
 Guess from superposition of atomic densities
 Warning:  Energy on first SCF cycle will be non-variational
 SAD guess density has 49.913408 electrons

 -----------------------------------------------------------------------
  General SCF calculation program by
  Eric Jon Sundstrom, Paul Horn, Yuezhi Mao, Dmitri Zuev, Alec White,
  David Stuck, Shaama M.S., Shane Yost, Joonho Lee, David Small,
  Daniel Levine, Susi Lehtola, Hugh Burton, Evgeny Epifanovsky
 -----------------------------------------------------------------------
 Exchange:     0.1670 Hartree-Fock + 1.0000 wB97X-V + LR-HF
 Correlation:  1.0000 wB97X-V
 Using Euler-Maclaurin-Lebedev (99,590) quadrature formula
 Nonlocal Correlation:  VV10 with C = 0.0100 and b = 6.00 and scale = 1.00000
 Grid used for NLC:  SG-1 standard quadrature
Energy prior to optimization (guess energy) = -271.520795374511
Begin Timing: Total SCF Calculation
begin iterations for algorithm: DIIS         
the SCF tolerance is set to 1.00e-08
    1    -271.5207953745      1.94e-03     00000 
    2    -271.5615556235      1.26e-03     00000 
    3    -271.5847952000      1.55e-04     00000 
    4    -271.5854920760      4.51e-05     00000 
    5    -271.5855417618      2.03e-05     00000 
    6    -271.5855488052      5.15e-06     00000 
    7    -271.5855494894      9.77e-07     00000 
    8    -271.5855495129      3.92e-07     00000 
    9    -271.5855495164      1.16e-07     00000 
   10    -271.5855495168      3.24e-08     00000 
   11    -271.5855495168      1.79e-08     00000 
   12    -271.5855495169      6.06e-09     00000 Convergence criterion met
Timing for Total SCF: 1273.00s (wall), 2532.96s (cpu)
(3)  G-ENP(liq) elect-nuc-pol free energy of system     -271.585549517 a.u.
(4)  G-CDS(liq) cavity-dispersion-solvent structure 
     free energy                                                3.1951 kcal/mol
(6)  G-S(liq) free energy of system                     -271.580457834 a.u.
E_pcm = -0.0075562792
E_cds = 0.0050916826
Multipole orders to be included
        2
        3
computing dipole RHS
computing quadrupole RHS
total number of RHS in solve_reponses: 8
RHS batch sizes
        8
Beginning Block Conjugate Gradient Iterations. Batch Number: 0
computing hessian-vector products by finite difference
              1      6.11e-01     00000 Conjugate Gradient Iteration
computing hessian-vector products by finite difference
              2      1.84e-01     00000 Conjugate Gradient Iteration
computing hessian-vector products by finite difference
              3      4.43e-02     00000 Conjugate Gradient Iteration
computing hessian-vector products by finite difference
              4      1.11e-02     00000 Conjugate Gradient Iteration
computing hessian-vector products by finite difference
              5      2.17e-03     00000 Conjugate Gradient Iteration
computing hessian-vector products by finite difference
              6      6.15e-04     00000 Conjugate Gradient Iteration
computing hessian-vector products by finite difference
              7      1.53e-04     00000 Conjugate Gradient Iteration
computing hessian-vector products by finite difference
              8      2.46e-05     00000 Conjugate Gradient Iteration
computing hessian-vector products by finite difference
              9      3.09e-06     00000 Conjugate Gradient Iteration
computing hessian-vector products by finite difference
             10      5.59e-07     00000 Conjugate Gradient Iteration
computing hessian-vector products by finite difference
             11      1.04e-07     00000 Conjugate Gradient Iteration
computing hessian-vector products by finite difference
             12      1.60e-08     00000 Conjugate Gradient Iteration
computing hessian-vector products by finite difference
             13      3.62e-09     00000 CG Converged
batch 0 complete
Done Calculating Responses
TESTING ORTHOGONALIZATION OF MULTIPOLE BASIS
Multipole virts passed orthogonality test
Virts Per Order
           75
          125
 
 --------------------------------------------------------------
 
                    Orbital Energies (a.u.)
 --------------------------------------------------------------
 
 Alpha MOs
 -- Occupied --
-10.2792 -10.2691 -10.2689 -10.2666 -10.2654 -10.2643 -10.2538  -0.9911
 -0.9000  -0.8748  -0.8061  -0.7239  -0.7003  -0.6230  -0.5672  -0.5612
 -0.5290  -0.5253  -0.5060  -0.4797  -0.4689  -0.4354  -0.4343  -0.3470
 -0.3330
 -- Virtual --
  0.0661   0.0686   0.0708   0.0845   0.0899   0.1096   0.1158   0.1183
  0.1410   0.1581   0.1703   0.1751   0.1912   0.1963   0.2000   0.2072
  0.2275   0.2307   0.2397   0.2437   0.2538   0.2633   0.2658   0.2771
  0.2844   0.2868   0.2890   0.2975   0.2985   0.3064   0.3085   0.3166
  0.3228   0.3291   0.3345   0.3412   0.3560   0.3576   0.3709   0.3780
  0.3819   0.3871   0.3886   0.3933   0.3962   0.4033   0.4095   0.4125
  0.4168   0.4330   0.4345   0.4404   0.4463   0.4505   0.4559   0.4572
  0.4664   0.4736   0.4796   0.4867   0.4973   0.4999   0.5171   0.5190
  0.5235   0.5290   0.5388   0.5417   0.5473   0.5523   0.5547   0.5709
  0.5859   0.5913   0.5993   0.6020   0.6043   0.6254   0.6429   0.6464
  0.6673   0.6775   0.6825   0.6888   0.6934   0.7016   0.7255   0.7275
  0.7333   0.7348   0.7486   0.7616   0.7677   0.7696   0.7824   0.7905
  0.7935   0.7975   0.8039   0.8062   0.8125   0.8271   0.8305   0.8370
  0.8401   0.8405   0.8482   0.8590   0.8611   0.8772   0.8906   0.8975
  0.9140   0.9232   0.9345   0.9493   0.9535   1.0110   1.0287   1.0447
  1.0457   1.0624   1.0718   1.0818   1.0915   1.0940   1.1073   1.1432
  1.1674   1.1798   1.2553   1.2762   1.2979   1.3259   1.3499   1.3556
  1.3781   1.4391   1.4528   1.4629   1.4669   1.4824   1.5287   1.5376
  1.6011   1.6062   1.6238   1.6277   1.6703   1.6764   1.7430   1.7829
  1.7934   1.8001   1.8041   1.8185   1.8343   1.8688   1.8899   1.9158
  1.9231   1.9334   1.9511   1.9704   1.9910   1.9970   2.0169   2.0284
  2.0349   2.0513   2.0719   2.0961   2.1168   2.1283   2.1754   2.1823
  2.2010   2.2363   2.2497   2.2720   2.2941   2.3130   2.3972   2.4000
  2.4040   2.4121   2.4824   2.5123   2.5402   2.5547   2.5703   2.6089
  2.6208   2.6322   2.6723   2.6848   2.6966   2.7084   2.7613   2.7743
  2.7812   2.8123   2.8250   2.8478   2.8644   2.9029   2.9098   2.9183
  2.9366   2.9398   2.9661   2.9775   2.9915   3.0197   3.0234   3.0553
  3.0659   3.0902   3.1007   3.1370   3.1783   3.1953   3.2026   3.2248
  3.2311   3.2491   3.2911   3.3035   3.3403   3.3618   3.3709   3.3788
  3.4072   3.4441   3.4475   3.4540   3.4666   3.4729   3.4914   3.4997
  3.5108   3.5318   3.5394   3.5469   3.5600   3.5730   3.5848   3.6050
  3.6244   3.6302   3.6546   3.6894   3.7093   3.7495   3.7841   3.8067
  3.8431   3.8926   3.9134   3.9543   3.9558   3.9941   4.0319   4.0554
  4.1187   4.2005   4.2696   4.2738   4.2895   4.3031   4.3231   4.3356
  4.3465   4.3641   4.3787   4.4001   4.4224   4.4435   4.4822   4.5294
  4.6035   4.6227   4.7530   4.7667   4.8227   4.8767   4.9075   4.9477
  5.0209   5.0487   5.1632   5.2668   5.3574   5.3724   5.4936   5.5275
  5.6689   5.8438  22.5879  22.6736  22.8755  22.8976  23.0062  23.0575
 23.3977
 --------------------------------------------------------------
 
          Ground-State Mulliken Net Atomic Charges

     Atom                 Charge (a.u.)
  ----------------------------------------
      1 C                    -1.068589
      2 C                    -0.460037
      3 C                     0.811329
      4 C                    -0.560116
      5 C                    -0.539678
      6 C                    -0.393710
      7 C                    -0.545438
      8 H                     0.391339
      9 H                     0.371919
     10 H                     0.283438
     11 H                     0.296368
     12 H                     0.397735
     13 H                     0.399333
     14 H                     0.373738
     15 H                     0.242369
  ----------------------------------------
  Sum of atomic charges =     0.000000

 -----------------------------------------------------------------
                    Cartesian Multipole Moments
 -----------------------------------------------------------------
    Charge (ESU x 10^10)
                 0.0000
    Dipole Moment (Debye)
         X      -0.3885      Y       0.3749      Z       0.1144
       Tot       0.5519
    Quadrupole Moments (Debye-Ang)
        XX     -43.1035     XY      -1.5114     YY     -37.8871
        XZ      -3.4332     YZ      -2.3588     ZZ     -41.7908
    Octopole Moments (Debye-Ang^2)
       XXX    -381.4862    XXY     -69.2681    XYY    -118.3879
       YYY    -157.1220    XXZ     -19.5885    XYZ     -10.7870
       YYZ       1.2645    XZZ    -125.4098    YZZ     -54.5799
       ZZZ      20.2852
    Hexadecapole Moments (Debye-Ang^3)
      XXXX   -2658.6373   XXXY    -480.0382   XXYY    -576.3985
      XYYY    -380.3960   YYYY    -825.2721   XXXZ     -11.1212
      XXYZ     -36.1086   XYYZ      24.7565   YYYZ      16.3765
      XXZZ    -462.4529   XYZZ    -125.4491   YYZZ    -173.8286
      XZZZ     129.0329   YZZZ      31.1886   ZZZZ    -218.8884
 -----------------------------------------------------------------
Archival summary:
1\1\nid00554\SP\ProcedureUnspecified\BasisUnspecified\78\meili\SunSep2612:49:132021SunSep2612:49:132021\0\\#,ProcedureUnspecified,BasisUnspecified,\\0,1\C\C,1,1.39712\H,2,1.07164,1,120.513\C,2,1.39335,1,119.923,3,179.404,0\H,4,1.08188,2,119.6,1,-179.032,0\C,4,1.39966,2,120.348,1,1.13329,0\H,6,1.0827,4,120.055,2,179.345,0\C,6,1.39529,4,120.094,2,-1.47314,0\H,8,1.08208,6,120.239,4,179.938,0\C,8,1.39066,6,119.413,4,-0.228371,0\H,10,1.08183,8,119.29,6,179.96,0\C,1,1.50784,2,120.398,3,-0.145917,0\H,12,1.08954,1,109.787,2,139.122,0\H,12,1.09002,1,107.856,2,22.704,0\H,12,1.1,1,112.833,2,-98.2477,0\\\@

 Total job time:  26566.74s(wall), 52723.59s(cpu) 
 Sun Sep 26 12:49:15 2021

        *************************************************************
        *                                                           *
        *  Thank you very much for using Q-Chem.  Have a nice day.  *
        *                                                           *
        *************************************************************


Done Job For Fragment 0
calling putenv with: QCSCRATCH=/global/cscratch1/sd/meili 
calling putenv with: QCLOCALSCR=/tmp 
calling putenv with: QCTHREADS=32 
Creating input file /tmp/qchem51162/Frg2.input
using default PutDataFrgm: nothing
calling putenv with: QCSCRATCH=/tmp/qchem51162/ 
calling putenv with: QCLOCALSCR=/tmp/qchem51162/ 
Spawning Job For Fragment 1
                  Welcome to Q-Chem
     A Quantum Leap Into The Future Of Chemistry


 Q-Chem 5.2, Q-Chem, Inc., Pleasanton, CA (2019)

 License issued to: National Energy Research Scientific Computing Center

 Yihan Shao,  Zhengting Gan,  E. Epifanovsky,  A. T. B. Gilbert,  M. Wormit,  
 J. Kussmann,  A. W. Lange,  A. Behn,  Jia Deng,  Xintian Feng,  D. Ghosh,  
 M. Goldey,  P. R. Horn,  L. D. Jacobson,  I. Kaliman,  T. Kus,  A. Landau,  
 Jie Liu,  E. I. Proynov,  R. M. Richard,  R. P. Steele,  E. J. Sundstrom,  
 H. L. Woodcock III,  P. M. Zimmerman,  D. Zuev,  B. Albrecht,  E. Alguire,  
 S. A. Baeppler,  D. Barton,  Z. Benda,  Y. A. Bernard,  E. J. Berquist,  
 K. B. Bravaya,  H. Burton,  D. Casanova,  Chun-Min Chang,  Yunqing Chen,  
 A. Chien,  K. D. Closser,  M. P. Coons,  S. Coriani,  S. Dasgupta,  
 A. L. Dempwolff,  M. Diedenhofen,  Hainam Do,  R. G. Edgar,  Po-Tung Fang,  
 S. Faraji,  S. Fatehi,  Qingguo Feng,  K. D. Fenk,  J. Fosso-Tande,  
 J. Gayvert,  Qinghui Ge,  A. Ghysels,  G. Gidofalvi,  J. Gomes,  
 J. Gonthier,  A. Gunina,  D. Hait,  M. W. D. Hanson-Heine,  
 P. H. P. Harbach,  A. W. Hauser,  M. F. Herbst,  J. E. Herr,  
 E. G. Hohenstein,  Z. C. Holden,  Kerwin Hui,  B. C. Huynh,  T.-C. Jagau,  
 Hyunjun Ji,  B. Kaduk,  K. Khistyaev,  Jaehoon Kim,  P. Klunzinger,  K. Koh,  
 D. Kosenkov,  L. Koulias,  T. Kowalczyk,  C. M. Krauter,  A. Kunitsa,  
 Ka Un Lao,  A. Laurent,  K. V. Lawler,  Joonho Lee,  D. Lefrancois,  
 S. Lehtola,  D. S. Levine,  Yi-Pei Li,  You-Sheng Lin,  Fenglai Liu,  
 E. Livshits,  A. Luenser,  P. Manohar,  E. Mansoor,  S. F. Manzer,  
 Shan-Ping Mao,  Yuezhi Mao,  N. Mardirossian,  A. V. Marenich,  
 T. Markovich,  L. A. Martinez-Martinez,  S. A. Maurer,  N. J. Mayhall,  
 S. C. McKenzie,  J.-M. Mewes,  P. Morgante,  A. F. Morrison,  
 J. W. Mullinax,  K. Nanda,  T. S. Nguyen-Beck,  R. Olivares-Amaya,  
 J. A. Parkhill,  Zheng Pei,  T. M. Perrine,  F. Plasser,  P. Pokhilko,  
 S. Prager,  A. Prociuk,  E. Ramos,  D. R. Rehn,  F. Rob,  M. Scheurer,  
 M. Schneider,  N. Sergueev,  S. M. Sharada,  S. Sharma,  D. W. Small,  
 T. Stauch,  T. Stein,  Yu-Chuan Su,  A. J. W. Thom,  A. Tkatchenko,  
 T. Tsuchimochi,  N. M. Tubman,  L. Vogt,  M. L. Vidal,  O. Vydrov,  
 M. A. Watson,  J. Wenzel,  M. de Wergifosse,  T. A. Wesolowski,  A. White,  
 J. Witte,  A. Yamada,  Jun Yang,  K. Yao,  S. Yeganeh,  S. R. Yost,  
 Zhi-Qiang You,  A. Zech,  Igor Ying Zhang,  Xing Zhang,  Yan Zhao,  
 Ying Zhu,  B. R. Brooks,  G. K. L. Chan,  C. J. Cramer,  M. S. Gordon,  
 W. J. Hehre,  A. Klamt,  M. W. Schmidt,  C. D. Sherrill,  D. G. Truhlar,  
 A. Aspuru-Guzik,  R. Baer,  A. T. Bell,  N. A. Besley,  Jeng-Da Chai,  
 A. E. DePrince, III,  R. A. DiStasio Jr.,  A. Dreuw,  B. D. Dunietz,  
 T. R. Furlani,  Chao-Ping Hsu,  Yousung Jung,  Jing Kong,  D. S. Lambrecht,  
 WanZhen Liang,  C. Ochsenfeld,  V. A. Rassolov,  L. V. Slipchenko,  
 J. E. Subotnik,  T. Van Voorhis,  J. M. Herbert,  A. I. Krylov,  
 P. M. W. Gill,  M. Head-Gordon

 Contributors to earlier versions of Q-Chem not listed above: 
 R. D. Adamson,  B. Austin,  J. Baker,  G. J. O. Beran,  K. Brandhorst,  
 S. T. Brown,  E. F. C. Byrd,  A. K. Chakraborty,  C.-L. Cheng,  
 Siu Hung Chien,  D. M. Chipman,  D. L. Crittenden,  H. Dachsel,  
 R. J. Doerksen,  A. D. Dutoi,  L. Fusti-Molnar,  W. A. Goddard III,  
 A. Golubeva-Zadorozhnaya,  S. R. Gwaltney,  G. Hawkins,  A. Heyden,  
 S. Hirata,  G. Kedziora,  F. J. Keil,  C. Kelley,  Jihan Kim,  R. A. King,  
 R. Z. Khaliullin,  P. P. Korambath,  W. Kurlancheek,  A. M. Lee,  M. S. Lee,  
 S. V. Levchenko,  Ching Yeh Lin,  D. Liotard,  R. C. Lochan,  I. Lotan,  
 P. E. Maslen,  N. Nair,  D. P. O'Neill,  D. Neuhauser,  E. Neuscamman,  
 C. M. Oana,  R. Olson,  B. Peters,  R. Peverati,  P. A. Pieniazek,  
 Y. M. Rhee,  J. Ritchie,  M. A. Rohrdanz,  E. Rosta,  N. J. Russ,  
 H. F. Schaefer III,  N. E. Schultz,  N. Shenvi,  A. C. Simmonett,  A. Sodt,  
 D. Stuck,  K. S. Thanthiriwatte,  V. Vanovschi,  Tao Wang,  A. Warshel,  
 C. F. Williams,  Q. Wu,  X. Xu,  W. Zhang

 Please cite Q-Chem as follows:
 Y. Shao et al., Mol. Phys. 113, 184-215 (2015)
 DOI: 10.1080/00268976.2014.952696

 Q-Chem 5.2.0 for Intel X86 EM64T Linux

 Parts of Q-Chem use Armadillo 8.300.2 (Tropical Shenanigans).
 http://arma.sourceforge.net/

 Q-Chem begins on Sun Sep 26 12:49:19 2021  

Host: cori01
0

     Scratch files written to /tmp/qchem51162//Frg2//
 May1019 |scratch|qcdevops|jenkins|workspace|build_RNUM -1
Processing $rem in /global/common/cori/software/qchem/5.2/config/preferences:
	 MEM_TOTAL  96000 
NAlpha2: 58
NElect   58
Mult     1
Symmetry turned off for PCM/SM12/SMD calculation

Checking the input file for inconsistencies... 	...done.

--------------------------------------------------------------
User input:
--------------------------------------------------------------
$molecule
0 1
 6	-1.0278377694	-0.8580364093	1.3622780896
 6	-1.5018377694	-0.4770364093	2.7632780896
 6	-2.1418377694	-1.1050364093	0.3662780896
 6	-2.6218377694	-0.0660364093	-0.4407219104
 6	-2.6828377694	-2.3890364093	0.2142780896
 6	-3.6358377694	-0.2790364093	-1.3627219104
 6	-3.6788377694	-2.6280364093	-0.7207219104
 6	-4.1588377694	-1.5650364093	-1.5337219104
 1	-0.3938377694	-0.0630364093	0.9702780896
 1	-0.4198377694	-1.7610364093	1.4322780896
 1	-2.1808377694	-1.2520364093	3.1112780896
 1	-2.2088377694	0.9249635907	-0.3387219104
 1	-2.3118377694	-3.2000364093	0.8162780896
 1	-3.9898377694	0.5329635907	-1.9487219104
 1	-4.0398377694	-3.6340364093	-0.8717219104
 1	-4.8028377694	-1.7320364093	-2.3727219104
 1	-2.0313677694	0.4871108907	2.7587580896
 1	-0.5963577694	-0.4087804093	3.3841180896
$end
$rem
EDA2		1
METHOD		WB97X-V
BASIS		DEF2-TZVPD
XC_GRID		000099000590
NL_GRID		1
UNRESTRICTED		FALSE
MAX_SCF_CYCLES		200
SYMMETRY		FALSE
SYM_IGNORE		TRUE
BASIS_LIN_DEP_THRESH		6
THRESH		14
SCF_CONVERGENCE		8
SCF_PRINT_FRGM		TRUE
SOLVENT_METHOD		SMD
!required keywords
JOBTYPE		SP
SYM_IGNORE		TRUE
SUBSYSTEM		TRUE
GEN_SCFMAN		TRUE
CHILD_INSTRUCTION		2
SYM_IGNORE		TRUE
SCFMI		0
RI_K 0		
PARI_K 0		
MIN_PARI_K 0		
IARI_K 0		
OCC_RI_K 0		
PURECART		1111
MEM_STATIC		2000
MEM_TOTAL		96000
GUI		0
CHILD_MP		1
CHILD_MP_ORDERS		232
FRZ_RELAX		0
FRZ_RELAX_METHOD		0
EDA_CLS_ELEC		1
EDA_CLS_DISP		0
FRZ_ORTHO_DECOMP		1
EDA2		FALSE
FRGM_METHOD		FALSE
CIS_N_ROOTS  0
LOCAL_CIS    0
CIS_RLX_DNS  1
$end
$smx
SOLVENT			WATER
$end
--------------------------------------------------------------
 ----------------------------------------------------------------
             Standard Nuclear Orientation (Angstroms)
    I     Atom           X                Y                Z
 ----------------------------------------------------------------
    1      C      -1.0278377694    -0.8580364093     1.3622780896
    2      C      -1.5018377694    -0.4770364093     2.7632780896
    3      C      -2.1418377694    -1.1050364093     0.3662780896
    4      C      -2.6218377694    -0.0660364093    -0.4407219104
    5      C      -2.6828377694    -2.3890364093     0.2142780896
    6      C      -3.6358377694    -0.2790364093    -1.3627219104
    7      C      -3.6788377694    -2.6280364093    -0.7207219104
    8      C      -4.1588377694    -1.5650364093    -1.5337219104
    9      H      -0.3938377694    -0.0630364093     0.9702780896
   10      H      -0.4198377694    -1.7610364093     1.4322780896
   11      H      -2.1808377694    -1.2520364093     3.1112780896
   12      H      -2.2088377694     0.9249635907    -0.3387219104
   13      H      -2.3118377694    -3.2000364093     0.8162780896
   14      H      -3.9898377694     0.5329635907    -1.9487219104
   15      H      -4.0398377694    -3.6340364093    -0.8717219104
   16      H      -4.8028377694    -1.7320364093    -2.3727219104
   17      H      -2.0313677694     0.4871108907     2.7587580896
   18      H      -0.5963577694    -0.4087804093     3.3841180896
 ----------------------------------------------------------------
 Nuclear Repulsion Energy =         339.50336873 hartrees
 There are       29 alpha and       29 beta electrons
 Requested basis set is def2-TZVPD
 There are 154 shells and 386 basis functions

 Total QAlloc Memory Limit  96000 MB
 Mega-Array Size      1956 MB
 MEM_STATIC part      2000 MB
 
 Citation of the SMD model:
 Marenich, A.V.; Cramer, C.J.; Truhlar, D.G.
 J. Phys. Chem. B 2009, 113, 6378-6396.
 iSolventCode=           1
 Solvent: water                                                           
 
 vradii
            1           2           3           4           5           6
    1   1.8500000   1.8500000   1.8500000   1.8500000   1.8500000   1.8500000
            7           8           9          10          11          12
    1   1.8500000   1.8500000   1.2000000   1.2000000   1.2000000   1.2000000
           13          14          15          16          17          18
    1   1.2000000   1.2000000   1.2000000   1.2000000   1.2000000   1.2000000
 Changing PCM_VDW_RADII to SMD_RADIUS
 Discretize the solute cavity surface with Lebedev spheres
	Using 110 Lebedev grid points for each H atom
	Using 194 Lebedev grid points for other atoms
	Atomic van der Waals radii will be scaled by 1.20
 Remove points where switching function is < 1.0e-08
 Keep 1265 surface tesserae and discard 1387 interior tesserae
 Molecular Surface Area = 152.802 Angst**2
 A cutoff of  1.0D-14 yielded  11347 shell pairs
 There are     72649 function pairs (     92044 Cartesian)
 Smallest overlap matrix eigenvalue = 5.89E-07
 Linear dependence detected in AO basis
 Tighter screening thresholds may be required for diffuse basis sets
 Use S2THRESH > 14 and THRESH = 14 in case of SCF convergence issues
 Number of orthogonalized atomic orbitals = 385
 Maximum deviation from orthogonality = 1.673E-10

 Scale SEOQF with 1.000000e-01/1.000000e-01/1.000000e-01

 Standard Electronic Orientation quadrupole field applied
 Nucleus-field energy     =     0.0000000126 hartrees
 Guess from superposition of atomic densities
 Warning:  Energy on first SCF cycle will be non-variational
 SAD guess density has 57.901037 electrons

 -----------------------------------------------------------------------
  General SCF calculation program by
  Eric Jon Sundstrom, Paul Horn, Yuezhi Mao, Dmitri Zuev, Alec White,
  David Stuck, Shaama M.S., Shane Yost, Joonho Lee, David Small,
  Daniel Levine, Susi Lehtola, Hugh Burton, Evgeny Epifanovsky
 -----------------------------------------------------------------------
 Exchange:     0.1670 Hartree-Fock + 1.0000 wB97X-V + LR-HF
 Correlation:  1.0000 wB97X-V
 Using Euler-Maclaurin-Lebedev (99,590) quadrature formula
 Nonlocal Correlation:  VV10 with C = 0.0100 and b = 6.00 and scale = 1.00000
 Grid used for NLC:  SG-1 standard quadrature
Energy prior to optimization (guess energy) = -310.826721134228
Begin Timing: Total SCF Calculation
begin iterations for algorithm: DIIS         
the SCF tolerance is set to 1.00e-08
    1    -310.8267211342      1.77e-03     00000 
    2    -310.8728343087      1.14e-03     00000 
    3    -310.8986505371      1.37e-04     00000 
    4    -310.8993954637      4.04e-05     00000 
    5    -310.8994443236      2.20e-05     00000 
    6    -310.8994546387      5.58e-06     00000 
    7    -310.8994556034      1.76e-06     00000 
    8    -310.8994556862      4.41e-07     00000 
    9    -310.8994556948      1.06e-07     00000 
   10    -310.8994556956      4.95e-08     00000 
   11    -310.8994556957      2.25e-08     00000 
   12    -310.8994556958      6.67e-09     00000 Convergence criterion met
Timing for Total SCF: 2074.00s (wall), 4089.44s (cpu)
(3)  G-ENP(liq) elect-nuc-pol free energy of system     -310.899455696 a.u.
(4)  G-CDS(liq) cavity-dispersion-solvent structure 
     free energy                                                3.5338 kcal/mol
(6)  G-S(liq) free energy of system                     -310.893824216 a.u.
E_pcm = -0.0080159184
E_cds = 0.0056314793
Multipole orders to be included
        2
        3
computing dipole RHS
computing quadrupole RHS
total number of RHS in solve_reponses: 8
RHS batch sizes
        8
Beginning Block Conjugate Gradient Iterations. Batch Number: 0
computing hessian-vector products by finite difference
              1      6.07e-01     00000 Conjugate Gradient Iteration
computing hessian-vector products by finite difference
              2      1.91e-01     00000 Conjugate Gradient Iteration
computing hessian-vector products by finite difference
              3      4.64e-02     00000 Conjugate Gradient Iteration
computing hessian-vector products by finite difference
              4      1.12e-02     00000 Conjugate Gradient Iteration
computing hessian-vector products by finite difference
              5      2.53e-03     00000 Conjugate Gradient Iteration
computing hessian-vector products by finite difference
              6      6.24e-04     00000 Conjugate Gradient Iteration
computing hessian-vector products by finite difference
              7      1.85e-04     00000 Conjugate Gradient Iteration
computing hessian-vector products by finite difference
              8      3.17e-05     00000 Conjugate Gradient Iteration
computing hessian-vector products by finite difference
              9      4.37e-06     00000 Conjugate Gradient Iteration
computing hessian-vector products by finite difference
             10      6.75e-07     00000 Conjugate Gradient Iteration
computing hessian-vector products by finite difference
             11      1.06e-07     00000 Conjugate Gradient Iteration
computing hessian-vector products by finite difference
             12      2.06e-08     00000 Conjugate Gradient Iteration
computing hessian-vector products by finite difference
             13      4.23e-09     00000 CG Converged
batch 0 complete
Done Calculating Responses
TESTING ORTHOGONALIZATION OF MULTIPOLE BASIS
Multipole virts passed orthogonality test
Virts Per Order
           87
          145
 
 --------------------------------------------------------------
 
                    Orbital Energies (a.u.)
 --------------------------------------------------------------
 
 Alpha MOs
 -- Occupied --
-10.2762 -10.2714 -10.2685 -10.2659 -10.2650 -10.2638 -10.2581 -10.2504
 -0.9910  -0.9144  -0.8760  -0.8474  -0.7506  -0.7232  -0.6935  -0.6229
 -0.5751  -0.5679  -0.5349  -0.5287  -0.5203  -0.4967  -0.4796  -0.4546
 -0.4475  -0.4271  -0.4225  -0.3477  -0.3311
 -- Virtual --
  0.0631   0.0691   0.0704   0.0866   0.0892   0.0955   0.1102   0.1144
  0.1185   0.1371   0.1628   0.1691   0.1709   0.1772   0.1928   0.1949
  0.1980   0.2061   0.2192   0.2220   0.2235   0.2386   0.2457   0.2586
  0.2643   0.2736   0.2751   0.2787   0.2865   0.2889   0.2938   0.2974
  0.3008   0.3052   0.3080   0.3135   0.3240   0.3314   0.3362   0.3380
  0.3525   0.3545   0.3568   0.3634   0.3649   0.3717   0.3787   0.3841
  0.3880   0.3887   0.3947   0.3970   0.4006   0.4063   0.4202   0.4269
  0.4276   0.4380   0.4404   0.4450   0.4505   0.4544   0.4607   0.4630
  0.4694   0.4740   0.4795   0.4901   0.4931   0.4955   0.5016   0.5039
  0.5139   0.5158   0.5217   0.5291   0.5358   0.5405   0.5446   0.5517
  0.5572   0.5618   0.5701   0.5751   0.5847   0.5876   0.5961   0.6100
  0.6138   0.6266   0.6310   0.6504   0.6570   0.6640   0.6715   0.6796
  0.6874   0.6893   0.7068   0.7132   0.7152   0.7204   0.7268   0.7286
  0.7299   0.7564   0.7581   0.7608   0.7729   0.7766   0.7894   0.7926
  0.7940   0.7981   0.8018   0.8069   0.8104   0.8183   0.8200   0.8267
  0.8314   0.8392   0.8429   0.8500   0.8551   0.8596   0.8703   0.8770
  0.8853   0.8954   0.9194   0.9248   0.9371   0.9428   0.9686   0.9727
  0.9916   1.0036   1.0230   1.0453   1.0576   1.0582   1.0774   1.0903
  1.0982   1.1097   1.1239   1.1291   1.1680   1.1966   1.2038   1.2224
  1.2323   1.2966   1.3000   1.3220   1.3277   1.3623   1.3877   1.3958
  1.4120   1.4319   1.4522   1.4641   1.4859   1.4993   1.5211   1.5248
  1.5589   1.5665   1.6245   1.6284   1.6440   1.6575   1.6813   1.7414
  1.7512   1.7867   1.8025   1.8081   1.8200   1.8359   1.8631   1.8782
  1.8976   1.9095   1.9222   1.9328   1.9447   1.9666   1.9863   2.0002
  2.0017   2.0061   2.0287   2.0293   2.0570   2.0586   2.0735   2.0881
  2.0969   2.1124   2.1506   2.1643   2.1815   2.2052   2.2181   2.2228
  2.2480   2.2628   2.2996   2.3157   2.3202   2.3913   2.4043   2.4086
  2.4398   2.4846   2.5244   2.5263   2.5452   2.5521   2.5881   2.6101
  2.6128   2.6300   2.6463   2.6629   2.6862   2.7034   2.7277   2.7452
  2.7510   2.7807   2.7965   2.7978   2.8278   2.8336   2.8531   2.8793
  2.8920   2.9051   2.9204   2.9301   2.9445   2.9581   2.9599   2.9641
  2.9953   3.0119   3.0263   3.0393   3.0516   3.0610   3.0883   3.0993
  3.1170   3.1565   3.1815   3.2020   3.2150   3.2320   3.2583   3.2657
  3.2936   3.3042   3.3361   3.3492   3.3671   3.3821   3.4050   3.4192
  3.4373   3.4395   3.4549   3.4795   3.4858   3.4926   3.4967   3.5049
  3.5231   3.5339   3.5426   3.5574   3.5621   3.5675   3.5731   3.6208
  3.6232   3.6378   3.6503   3.6626   3.6901   3.6989   3.7078   3.7270
  3.7411   3.7771   3.7938   3.8283   3.8356   3.8582   3.9356   3.9551
  3.9694   4.0015   4.0470   4.0542   4.1205   4.1386   4.1761   4.1916
  4.2345   4.2825   4.2939   4.3079   4.3141   4.3343   4.3528   4.3714
  4.3850   4.3958   4.4203   4.4540   4.4679   4.5098   4.5450   4.5994
  4.6463   4.7057   4.7304   4.7602   4.8210   4.8645   4.9239   4.9259
  4.9586   5.0143   5.0326   5.1121   5.1811   5.2974   5.3649   5.3726
  5.5037   5.5163   5.7049   5.8511  22.6460  22.6708  22.7932  22.8765
 22.9376  23.0362  23.0721  23.4285
 --------------------------------------------------------------
 
          Ground-State Mulliken Net Atomic Charges

     Atom                 Charge (a.u.)
  ----------------------------------------
      1 C                    -0.563727
      2 C                    -0.867031
      3 C                     0.699710
      4 C                    -0.339948
      5 C                    -0.358401
      6 C                    -0.648151
      7 C                    -0.643871
      8 C                    -0.609344
      9 H                     0.291620
     10 H                     0.291701
     11 H                     0.284077
     12 H                     0.389230
     13 H                     0.402431
     14 H                     0.393742
     15 H                     0.378998
     16 H                     0.413215
     17 H                     0.269650
     18 H                     0.216100
  ----------------------------------------
  Sum of atomic charges =     0.000000

 -----------------------------------------------------------------
                    Cartesian Multipole Moments
 -----------------------------------------------------------------
    Charge (ESU x 10^10)
                -0.0000
    Dipole Moment (Debye)
         X       0.6651      Y       0.0847      Z       0.2454
       Tot       0.7140
    Quadrupole Moments (Debye-Ang)
        XX     -52.5379     XY       0.0832     YY     -44.4144
        XZ       4.0628     YZ      -1.7424     ZZ     -48.6251
    Octopole Moments (Debye-Ang^2)
       XXX     405.6352    XXY      54.9176    XYY     113.1067
       YYY     150.1953    XXZ     -33.6555    XYZ      -1.6161
       YYZ      -6.8101    XZZ     122.8895    YZZ      56.1705
       ZZZ     -31.0872
    Hexadecapole Moments (Debye-Ang^3)
      XXXX   -2568.4254   XXXY    -494.6404   XXYY    -475.3777
      XYYY    -431.2847   YYYY    -656.3018   XXXZ     -15.4737
      XXYZ      20.9165   XYYZ     -34.5364   YYYZ     -19.2147
      XXZZ    -478.1747   XYZZ    -161.3750   YYZZ    -236.6004
      XZZZ    -107.5324   YZZZ     -15.9690   ZZZZ    -724.1509
 -----------------------------------------------------------------
Archival summary:
1\1\nid00554\SP\ProcedureUnspecified\BasisUnspecified\810\meili\MonSep2701:05:522021MonSep2701:05:522021\0\\#,ProcedureUnspecified,BasisUnspecified,\\0,1\C\C,1,1.40042\H,2,1.07845,1,119.736\C,2,1.38696,1,121.314,3,-179.129,0\H,4,1.0621,2,119.541,1,178.962,0\C,4,1.39877,2,119.724,1,-2.55699,0\H,6,1.07077,4,117.649,2,-168.74,0\C,1,1.40159,2,119.005,3,-179.55,0\H,8,1.076,1,119.783,2,178.981,0\C,8,1.38685,1,120.544,2,-0.0170716,0\H,10,1.07942,8,119.677,1,175.987,0\C,1,1.5146,2,120.667,3,-1.26002,0\H,12,1.08979,1,108.078,2,-30.1045,0\H,12,1.09086,1,108.49,2,-146.522,0\C,12,1.5273,1,114.559,2,91.8425,0\H,15,1.08755,12,108.03,1,55.1959,0\H,15,1.1,12,106.125,1,175.688,0\H,15,1.1,12,111.363,1,-64.4566,0\\\@

 Total job time:  44198.73s(wall), 87789.86s(cpu) 
 Mon Sep 27 01:05:58 2021

        *************************************************************
        *                                                           *
        *  Thank you very much for using Q-Chem.  Have a nice day.  *
        *                                                           *
        *************************************************************


Done Job For Fragment 1
calling putenv with: QCSCRATCH=/global/cscratch1/sd/meili 
calling putenv with: QCLOCALSCR=/tmp 
calling putenv with: QCTHREADS=32 
Doing General SCFMI
 Exchange:     0.1670 Hartree-Fock + 1.0000 wB97X-V + LR-HF
 Correlation:  1.0000 wB97X-V
 Using Euler-Maclaurin-Lebedev (99,590) quadrature formula
 Nonlocal Correlation:  VV10 with C = 0.0100 and b = 6.00 and scale = 1.00000
 Grid used for NLC:  SG-1 standard quadrature
performing fock build before subrot guess so that all methods have access
Printing subrot_rss_gen Method Specification:
Occupied Subspace Method is 0
Virtual Subspace Method is 0
Energy of the unrelaxed supersystem initial determinant -582.470261756584
performing fock build before subrot guess so that all methods have access
Printing subrot_rss_gen Method Specification:
Occupied Subspace Method is 0
Virtual Subspace Method is 0
Energy of the unrelaxed supersystem initial determinant w/ solvent -582.486382084293
write pseudocanon occs and virts to disk
write pseudocanon orbital energies to disk
Tolerance of ortho_decomp_scf: 1.00e-06
GDM subspace size: 20
Beginning the Orthogonal Decomposition of the Initial Supersystem Wavefunction
    1    -582.4621567459      1.14e-02     ortho_decomp Preconditoned Steepest Descent
    2    -582.4628395836      2.84e-04     ortho_decomp BFGS Step
    3    -582.4628416198      1.99e-05     ortho_decomp BFGS Step
    4    -582.4628416230      7.71e-07     ortho_decomp 00000 Convergence criterion met
 Hartree-Fock
 Hartree-Fock
 Hartree-Fock
Doing General SCFMI
 Exchange:     0.1670 Hartree-Fock + 1.0000 wB97X-V + LR-HF
 Correlation:  1.0000 wB97X-V
 Using Euler-Maclaurin-Lebedev (99,590) quadrature formula
 Nonlocal Correlation:  VV10 with C = 0.0100 and b = 6.00 and scale = 1.00000
 Grid used for NLC:  SG-1 standard quadrature
performing fock build at end of subrot_r(subrot) constructor so that all methods have access
<S^2> of initial wavefunction before polarization iterations 0.0000000000
Beginning iterations for the determination of the polarized wavefunction
Energy prior to optimization (guess energy) = -582.486382084293
Begin Timing: Total SCF Calculation
begin iterations for algorithm: DIIS         
the SCF tolerance is set to 1.00e-08
    1    -582.4863820843      2.30e-05     00000 
    2    -582.4864396558      9.14e-06     00000 
    3    -582.4864458579      5.04e-06     00000 
    4    -582.4864480043      1.30e-06     00000 
    5    -582.4864482406      6.90e-07     00000 
    6    -582.4864482964      2.08e-07     00000 
    7    -582.4864483011      7.60e-08     00000 
    8    -582.4864483016      3.11e-08     00000 
    9    -582.4864483016      1.20e-08     00000 
   10    -582.4864483016      5.86e-09     00000 Convergence criterion met
write pseudocanon occs and virts to disk
write pseudocanon orbital energies to disk
Timing for Total SCF: 8954.00s (wall), 17838.64s (cpu)
<S^2> of polarized wavefunction after polarization iterations 0.0000000000
relaxing scfmi constraint to allow all rotations in the entire AO span
Doing General SCFMI
 Exchange:     0.1670 Hartree-Fock + 1.0000 wB97X-V + LR-HF
 Correlation:  1.0000 wB97X-V
 Using Euler-Maclaurin-Lebedev (99,590) quadrature formula
 Nonlocal Correlation:  VV10 with C = 0.0100 and b = 6.00 and scale = 1.00000
 Grid used for NLC:  SG-1 standard quadrature
performing fock build at end of subrot_r(subrot) constructor so that all methods have access
<S^2> of polarized wavefunction before ct-allowed iterations 0.0000000000
Beginning iterations for the determination of the CT-Allowed wavefunction
Energy prior to optimization (guess energy) = -582.486448301632
Begin Timing: Total SCF Calculation
begin iterations for algorithm: DIIS         
the SCF tolerance is set to 1.00e-08
    1    -582.4864483016      4.48e-05     00000 
    2    -582.4868929259      4.20e-06     00000 
    3    -582.4869041226      6.52e-07     00000 
    4    -582.4869044752      1.97e-07     00000 
    5    -582.4869044898      8.60e-08     00000 
    6    -582.4869044932      1.59e-08     00000 
    7    -582.4869044933      8.22e-09     00000 Convergence criterion met
write pseudocanon occs and virts to disk
write pseudocanon orbital energies to disk
Timing for Total SCF: 5632.00s (wall), 11218.26s (cpu)
<S^2> of ct_allowed wavefunction after ct-allowed iterations 0.0000000000

================================
        Results of EDA2         
================================
Basic EDA Quantities
--------------------
Fragment Energies (Ha):
1 -271.5804578342
2 -310.8938242164
--------------------
  E_prp (kJ/mol) = 0.0000
  E_sol (kJ/mol) = -2.2586
  E_frz (kJ/mol) = -2.1759
  E_pol (kJ/mol) = -0.1739
  E_vct (kJ/mol) = -1.1977
  E_int (kJ/mol) = -5.8061
--------------------


Initial Wavefunction Decomposition
--------------------
  --------------------
  Orthogonal Fragment Subspace Decomposition:
  --------------------
     E_elec   (ELEC)   (kJ/mol) = -6.3432
     E_pauli  (PAULI)  (kJ/mol) = 13.3099
     E_disp   (DISP)   (kJ/mol) = -9.1426
     --------------------
     Terms summing to E_pauli:
     --------------------
        E_kep_pauli       (kJ/mol) = 17.3059
        E_disp_free_pauli (kJ/mol) = -3.9960
  --------------------
  Classical Frozen Decomposition:
  --------------------
     E_cls_elec  (CLS ELEC)  (kJ/mol) = -1.0455
     E_cls_pauli (CLS PAULI) (kJ/mol) = -1.1304
    [E_mod_pauli (MOD PAULI) (kJ/mol) = 8.0122 (CLS PAULI - DISP from orthogonal decomposition) ]
  --------------------
--------------------

Simplified EDA Summary (kJ/mol)
--------------------
 PREPARATION     0.0000
 SOLVATION       -2.2586
 FROZEN          6.9667      (does not include dispersion)
[PAULI           13.3099]     (if this is negligible, then frozen describes electrostatics)
 DISPERSION      -9.1426
 POLARIZATION    -0.1739
 CHARGE TRANSFER -1.1977
 TOTAL           -5.8061     (PRP + SOL + FRZ + DISP + POL + CT)
--------------------
 
 --------------------------------------------------------------
 
                    Orbital Energies (a.u.)
 --------------------------------------------------------------
 
 Alpha MOs
 -- Occupied --
-10.2792 -10.2762 -10.2714 -10.2691 -10.2688 -10.2685 -10.2666 -10.2660
-10.2654 -10.2650 -10.2641 -10.2639 -10.2578 -10.2541 -10.2505  -0.9912
 -0.9909  -0.9144  -0.9000  -0.8761  -0.8748  -0.8475  -0.8061  -0.7506
 -0.7241  -0.7230  -0.7005  -0.6933  -0.6244  -0.6217  -0.5756  -0.5684
 -0.5672  -0.5608  -0.5353  -0.5300  -0.5280  -0.5250  -0.5200  -0.5060
 -0.4967  -0.4799  -0.4796  -0.4691  -0.4546  -0.4477  -0.4359  -0.4343
 -0.4259  -0.4222  -0.3477  -0.3469  -0.3331  -0.3309
 -- Virtual --
  0.0593   0.0653   0.0680   0.0686   0.0693   0.0749   0.0775   0.0836
  0.0938   0.0963   0.1036   0.1064   0.1095   0.1191   0.1231   0.1246
  0.1309   0.1424   0.1504   0.1568   0.1650   0.1667   0.1734   0.1798
  0.1855   0.1906   0.1927   0.1950   0.1979   0.2042   0.2059   0.2117
  0.2200   0.2211   0.2252   0.2328   0.2329   0.2398   0.2445   0.2470
  0.2518   0.2567   0.2604   0.2623   0.2698   0.2721   0.2754   0.2779
  0.2786   0.2805   0.2813   0.2827   0.2902   0.2922   0.2937   0.2982
  0.2995   0.3033   0.3051   0.3102   0.3122   0.3146   0.3160   0.3173
  0.3245   0.3289   0.3305   0.3348   0.3404   0.3458   0.3465   0.3498
  0.3515   0.3562   0.3580   0.3628   0.3645   0.3668   0.3692   0.3755
  0.3780   0.3797   0.3822   0.3852   0.3867   0.3873   0.3929   0.3944
  0.3984   0.4015   0.4038   0.4071   0.4106   0.4127   0.4155   0.4179
  0.4231   0.4255   0.4274   0.4319   0.4344   0.4371   0.4401   0.4411
  0.4427   0.4463   0.4495   0.4531   0.4566   0.4580   0.4620   0.4642
  0.4673   0.4717   0.4747   0.4792   0.4844   0.4873   0.4889   0.4904
  0.4964   0.4988   0.5025   0.5031   0.5055   0.5100   0.5146   0.5176
  0.5201   0.5239   0.5255   0.5299   0.5325   0.5347   0.5366   0.5441
  0.5444   0.5496   0.5554   0.5574   0.5613   0.5646   0.5694   0.5723
  0.5757   0.5799   0.5839   0.5869   0.5893   0.5926   0.5978   0.6062
  0.6076   0.6124   0.6160   0.6193   0.6244   0.6251   0.6308   0.6364
  0.6478   0.6524   0.6551   0.6624   0.6651   0.6667   0.6709   0.6729
  0.6779   0.6821   0.6855   0.6894   0.6963   0.6979   0.7020   0.7058
  0.7114   0.7139   0.7157   0.7183   0.7237   0.7249   0.7322   0.7367
  0.7390   0.7426   0.7441   0.7486   0.7507   0.7581   0.7598   0.7620
  0.7655   0.7691   0.7722   0.7786   0.7830   0.7848   0.7868   0.7919
  0.7969   0.7990   0.8005   0.8035   0.8065   0.8115   0.8121   0.8168
  0.8172   0.8216   0.8267   0.8285   0.8314   0.8346   0.8359   0.8373
  0.8405   0.8457   0.8493   0.8523   0.8537   0.8617   0.8636   0.8684
  0.8716   0.8755   0.8765   0.8803   0.8816   0.8929   0.8971   0.9037
  0.9052   0.9175   0.9223   0.9245   0.9292   0.9357   0.9448   0.9474
  0.9501   0.9533   0.9627   0.9653   0.9675   0.9790   0.9868   0.9928
  0.9959   1.0063   1.0155   1.0249   1.0326   1.0380   1.0402   1.0469
  1.0553   1.0674   1.0711   1.0745   1.0812   1.0895   1.0967   1.0969
  1.1040   1.1156   1.1210   1.1259   1.1321   1.1426   1.1520   1.1652
  1.1698   1.1839   1.1867   1.2040   1.2184   1.2211   1.2396   1.2493
  1.2616   1.2733   1.2890   1.3123   1.3173   1.3198   1.3247   1.3342
  1.3402   1.3595   1.3691   1.3743   1.3933   1.4019   1.4096   1.4146
  1.4257   1.4417   1.4476   1.4636   1.4698   1.4763   1.4815   1.4936
  1.5040   1.5094   1.5254   1.5290   1.5364   1.5480   1.5546   1.5657
  1.5849   1.5878   1.6218   1.6353   1.6365   1.6441   1.6557   1.6662
  1.6690   1.6864   1.7018   1.7078   1.7467   1.7591   1.7654   1.7796
  1.7984   1.8071   1.8113   1.8165   1.8220   1.8311   1.8315   1.8461
  1.8595   1.8628   1.8699   1.8823   1.9017   1.9053   1.9131   1.9210
  1.9270   1.9330   1.9456   1.9476   1.9498   1.9661   1.9761   1.9870
  1.9900   2.0025   2.0072   2.0114   2.0208   2.0288   2.0343   2.0362
  2.0450   2.0504   2.0511   2.0587   2.0649   2.0730   2.0914   2.0975
  2.1046   2.1124   2.1204   2.1255   2.1331   2.1504   2.1677   2.1751
  2.1830   2.1870   2.1875   2.1997   2.2119   2.2279   2.2307   2.2529
  2.2590   2.2682   2.2863   2.3018   2.3069   2.3118   2.3167   2.3265
  2.3346   2.3430   2.3689   2.4078   2.4120   2.4213   2.4269   2.4284
  2.4396   2.4566   2.4747   2.4965   2.4981   2.5399   2.5504   2.5547
  2.5623   2.5710   2.5756   2.5950   2.5986   2.6113   2.6173   2.6302
  2.6394   2.6482   2.6583   2.6606   2.6834   2.6900   2.6965   2.7050
  2.7070   2.7218   2.7235   2.7362   2.7426   2.7623   2.7748   2.7806
  2.7866   2.7937   2.8015   2.8076   2.8176   2.8214   2.8387   2.8492
  2.8576   2.8694   2.8769   2.8802   2.9035   2.9108   2.9207   2.9239
  2.9306   2.9332   2.9403   2.9448   2.9490   2.9588   2.9647   2.9676
  2.9805   2.9850   2.9883   2.9958   3.0115   3.0236   3.0262   3.0340
  3.0412   3.0482   3.0568   3.0729   3.0797   3.0890   3.0939   3.1016
  3.1090   3.1241   3.1289   3.1472   3.1554   3.1756   3.1925   3.1980
  3.2140   3.2233   3.2279   3.2320   3.2380   3.2409   3.2592   3.2633
  3.2713   3.2815   3.3055   3.3128   3.3303   3.3380   3.3486   3.3663
  3.3728   3.3777   3.3800   3.3885   3.3938   3.3947   3.4165   3.4277
  3.4381   3.4420   3.4542   3.4584   3.4657   3.4689   3.4776   3.4795
  3.4879   3.4917   3.5018   3.5053   3.5101   3.5137   3.5196   3.5261
  3.5376   3.5487   3.5511   3.5520   3.5536   3.5605   3.5619   3.5714
  3.5755   3.5832   3.5864   3.5914   3.6025   3.6161   3.6289   3.6327
  3.6368   3.6389   3.6477   3.6497   3.6663   3.6729   3.6894   3.6941
  3.7033   3.7153   3.7168   3.7232   3.7409   3.7559   3.7697   3.7887
  3.8032   3.8122   3.8226   3.8381   3.8428   3.8554   3.8731   3.9041
  3.9267   3.9480   3.9592   3.9676   3.9707   3.9776   4.0111   4.0174
  4.0400   4.0619   4.0746   4.0795   4.1327   4.1340   4.1815   4.1898
  4.2086   4.2180   4.2408   4.2773   4.2806   4.2892   4.2998   4.3062
  4.3172   4.3211   4.3242   4.3343   4.3460   4.3493   4.3576   4.3629
  4.3671   4.3801   4.3867   4.3877   4.4083   4.4145   4.4247   4.4345
  4.4532   4.4601   4.4886   4.4962   4.5189   4.5401   4.5596   4.6145
  4.6230   4.6423   4.6763   4.7174   4.7343   4.7576   4.7657   4.7800
  4.8298   4.8366   4.8836   4.8876   4.9313   4.9373   4.9424   4.9580
  4.9698   5.0256   5.0300   5.0354   5.0585   5.1376   5.1828   5.1900
  5.2765   5.3054   5.3601   5.3706   5.3749   5.3769   5.4979   5.5109
  5.5194   5.5326   5.6879   5.7176   5.8540   5.8555  22.6454  22.6724
 22.7011  22.7145  22.8496  22.8859  22.8989  22.9131  22.9849  23.0312
 23.0497  23.0759  23.0866  23.4272  23.4494
 --------------------------------------------------------------
 
          Ground-State Mulliken Net Atomic Charges

     Atom                 Charge (a.u.)
  ----------------------------------------
      1 C                    -1.014262
      2 C                    -0.245071
      3 C                     0.775916
      4 C                    -0.678744
      5 C                    -0.580445
      6 C                    -0.481951
      7 C                    -0.582780
      8 H                     0.376738
      9 H                     0.393025
     10 H                     0.332385
     11 H                     0.309659
     12 H                     0.395888
     13 H                     0.404721
     14 H                     0.391297
     15 H                     0.210912
     16 C                     0.276688
     17 C                    -0.967261
     18 C                     0.256290
     19 C                    -0.155828
     20 C                    -0.493135
     21 C                    -0.736378
     22 C                    -0.616617
     23 C                    -0.629775
     24 H                    -0.196014
     25 H                     0.383222
     26 H                     0.330585
     27 H                     0.442624
     28 H                     0.405701
     29 H                     0.410594
     30 H                     0.385224
     31 H                     0.412949
     32 H                     0.255769
     33 H                     0.228074
  ----------------------------------------
  Sum of atomic charges =     0.000000

 -----------------------------------------------------------------
                    Cartesian Multipole Moments
 -----------------------------------------------------------------
    Charge (ESU x 10^10)
                -0.0000
    Dipole Moment (Debye)
         X       0.2812      Y       0.4608      Z       0.3615
       Tot       0.6497
    Quadrupole Moments (Debye-Ang)
        XX     -95.6717     XY      -1.4037     YY     -82.3046
        XZ       0.6264     YZ      -4.1024     ZZ     -90.4401
    Octopole Moments (Debye-Ang^2)
       XXX      24.0209    XXY     -14.3565    XYY      -5.2204
       YYY      -6.8096    XXZ     -53.3021    XYZ     -12.3975
       YYZ      -5.5668    XZZ      -2.5854    YZZ       1.5573
       ZZZ     -10.8866
    Hexadecapole Moments (Debye-Ang^3)
      XXXX   -5227.6367   XXXY    -974.6839   XXYY   -1051.7216
      XYYY    -811.3464   YYYY   -1481.2169   XXXZ     -26.6749
      XXYZ     -15.1841   XYYZ      -9.7558   YYYZ      -2.7600
      XXZZ    -940.8306   XYZZ    -286.8269   YYZZ    -410.5214
      XZZZ      21.3568   YZZZ      15.1418   ZZZZ    -943.3551
 -----------------------------------------------------------------
Archival summary:
1\1\nid00554\SP\ProcedureUnspecified\BasisUnspecified\1518\meili\MonSep2709:07:462021MonSep2709:07:462021\0\\#,ProcedureUnspecified,BasisUnspecified,\\0,1\C\C,1,1.40042\H,2,1.07845,1,119.736\C,2,1.38696,1,121.314,3,-179.129,0\H,4,1.0621,2,119.541,1,178.962,0\C,4,1.39877,2,119.724,1,-2.55699,0\H,6,1.07077,4,117.649,2,-168.74,0\C,1,1.40159,2,119.005,3,-179.55,0\H,8,1.076,1,119.783,2,178.981,0\C,8,1.38685,1,120.544,2,-0.0170716,0\H,10,1.07942,8,119.677,1,175.987,0\C,1,1.5146,2,120.667,3,-1.26002,0\H,12,1.08979,1,108.078,2,-30.1045,0\H,12,1.09086,1,108.49,2,-146.522,0\C,12,1.5273,1,114.559,2,91.8425,0\H,15,1.08755,12,108.03,1,55.1959,0\H,15,1.1,12,106.125,1,175.688,0\H,15,1.1,12,111.363,1,-64.4566,0\H,13,2.24448,12,130.634,1,-161.348,0\C,19,1.07164,13,121.007,12,135.268,0\C,20,1.39335,19,119.561,13,-102.457,0\H,21,1.08188,20,119.6,19,0.378127,0\C,20,1.39712,19,120.513,13,76.9499,0\C,21,1.39966,20,120.348,19,-179.457,0\H,24,1.0827,21,120.055,20,179.345,0\C,24,1.39529,21,120.094,20,-1.47314,0\H,26,1.08208,24,120.239,21,179.938,0\C,26,1.39066,24,119.413,21,-0.228371,0\H,28,1.08183,26,119.29,24,179.96,0\C,23,1.50784,20,120.398,19,-0.145917,0\H,30,1.08954,23,109.787,20,139.122,0\H,30,1.09002,23,107.856,20,22.704,0\H,30,1.1,23,112.833,20,-98.2477,0\\\@

 Total job time:  99688.61s(wall), 57566.29s(cpu) 
 Mon Sep 27 09:07:49 2021

        *************************************************************
        *                                                           *
        *  Thank you very much for using Q-Chem.  Have a nice day.  *
        *                                                           *
        *************************************************************


