
Running Job 1 of 1 SSI-105PHE-130ARG-1_SMD_TZVPD.in
qchem SSI-105PHE-130ARG-1_SMD_TZVPD.in_63088.0 /tmp/qchem63088/ 0
/global/common/cori/software/qchem/5.2/exe/qcprog.exe_s SSI-105PHE-130ARG-1_SMD_TZVPD.in_63088.0 /tmp/qchem63088/
                  Welcome to Q-Chem
     A Quantum Leap Into The Future Of Chemistry


 Q-Chem 5.2, Q-Chem, Inc., Pleasanton, CA (2019)

 License issued to: National Energy Research Scientific Computing Center

 Yihan Shao,  Zhengting Gan,  E. Epifanovsky,  A. T. B. Gilbert,  M. Wormit,  
 J. Kussmann,  A. W. Lange,  A. Behn,  Jia Deng,  Xintian Feng,  D. Ghosh,  
 M. Goldey,  P. R. Horn,  L. D. Jacobson,  I. Kaliman,  T. Kus,  A. Landau,  
 Jie Liu,  E. I. Proynov,  R. M. Richard,  R. P. Steele,  E. J. Sundstrom,  
 H. L. Woodcock III,  P. M. Zimmerman,  D. Zuev,  B. Albrecht,  E. Alguire,  
 S. A. Baeppler,  D. Barton,  Z. Benda,  Y. A. Bernard,  E. J. Berquist,  
 K. B. Bravaya,  H. Burton,  D. Casanova,  Chun-Min Chang,  Yunqing Chen,  
 A. Chien,  K. D. Closser,  M. P. Coons,  S. Coriani,  S. Dasgupta,  
 A. L. Dempwolff,  M. Diedenhofen,  Hainam Do,  R. G. Edgar,  Po-Tung Fang,  
 S. Faraji,  S. Fatehi,  Qingguo Feng,  K. D. Fenk,  J. Fosso-Tande,  
 J. Gayvert,  Qinghui Ge,  A. Ghysels,  G. Gidofalvi,  J. Gomes,  
 J. Gonthier,  A. Gunina,  D. Hait,  M. W. D. Hanson-Heine,  
 P. H. P. Harbach,  A. W. Hauser,  M. F. Herbst,  J. E. Herr,  
 E. G. Hohenstein,  Z. C. Holden,  Kerwin Hui,  B. C. Huynh,  T.-C. Jagau,  
 Hyunjun Ji,  B. Kaduk,  K. Khistyaev,  Jaehoon Kim,  P. Klunzinger,  K. Koh,  
 D. Kosenkov,  L. Koulias,  T. Kowalczyk,  C. M. Krauter,  A. Kunitsa,  
 Ka Un Lao,  A. Laurent,  K. V. Lawler,  Joonho Lee,  D. Lefrancois,  
 S. Lehtola,  D. S. Levine,  Yi-Pei Li,  You-Sheng Lin,  Fenglai Liu,  
 E. Livshits,  A. Luenser,  P. Manohar,  E. Mansoor,  S. F. Manzer,  
 Shan-Ping Mao,  Yuezhi Mao,  N. Mardirossian,  A. V. Marenich,  
 T. Markovich,  L. A. Martinez-Martinez,  S. A. Maurer,  N. J. Mayhall,  
 S. C. McKenzie,  J.-M. Mewes,  P. Morgante,  A. F. Morrison,  
 J. W. Mullinax,  K. Nanda,  T. S. Nguyen-Beck,  R. Olivares-Amaya,  
 J. A. Parkhill,  Zheng Pei,  T. M. Perrine,  F. Plasser,  P. Pokhilko,  
 S. Prager,  A. Prociuk,  E. Ramos,  D. R. Rehn,  F. Rob,  M. Scheurer,  
 M. Schneider,  N. Sergueev,  S. M. Sharada,  S. Sharma,  D. W. Small,  
 T. Stauch,  T. Stein,  Yu-Chuan Su,  A. J. W. Thom,  A. Tkatchenko,  
 T. Tsuchimochi,  N. M. Tubman,  L. Vogt,  M. L. Vidal,  O. Vydrov,  
 M. A. Watson,  J. Wenzel,  M. de Wergifosse,  T. A. Wesolowski,  A. White,  
 J. Witte,  A. Yamada,  Jun Yang,  K. Yao,  S. Yeganeh,  S. R. Yost,  
 Zhi-Qiang You,  A. Zech,  Igor Ying Zhang,  Xing Zhang,  Yan Zhao,  
 Ying Zhu,  B. R. Brooks,  G. K. L. Chan,  C. J. Cramer,  M. S. Gordon,  
 W. J. Hehre,  A. Klamt,  M. W. Schmidt,  C. D. Sherrill,  D. G. Truhlar,  
 A. Aspuru-Guzik,  R. Baer,  A. T. Bell,  N. A. Besley,  Jeng-Da Chai,  
 A. E. DePrince, III,  R. A. DiStasio Jr.,  A. Dreuw,  B. D. Dunietz,  
 T. R. Furlani,  Chao-Ping Hsu,  Yousung Jung,  Jing Kong,  D. S. Lambrecht,  
 WanZhen Liang,  C. Ochsenfeld,  V. A. Rassolov,  L. V. Slipchenko,  
 J. E. Subotnik,  T. Van Voorhis,  J. M. Herbert,  A. I. Krylov,  
 P. M. W. Gill,  M. Head-Gordon

 Contributors to earlier versions of Q-Chem not listed above: 
 R. D. Adamson,  B. Austin,  J. Baker,  G. J. O. Beran,  K. Brandhorst,  
 S. T. Brown,  E. F. C. Byrd,  A. K. Chakraborty,  C.-L. Cheng,  
 Siu Hung Chien,  D. M. Chipman,  D. L. Crittenden,  H. Dachsel,  
 R. J. Doerksen,  A. D. Dutoi,  L. Fusti-Molnar,  W. A. Goddard III,  
 A. Golubeva-Zadorozhnaya,  S. R. Gwaltney,  G. Hawkins,  A. Heyden,  
 S. Hirata,  G. Kedziora,  F. J. Keil,  C. Kelley,  Jihan Kim,  R. A. King,  
 R. Z. Khaliullin,  P. P. Korambath,  W. Kurlancheek,  A. M. Lee,  M. S. Lee,  
 S. V. Levchenko,  Ching Yeh Lin,  D. Liotard,  R. C. Lochan,  I. Lotan,  
 P. E. Maslen,  N. Nair,  D. P. O'Neill,  D. Neuhauser,  E. Neuscamman,  
 C. M. Oana,  R. Olson,  B. Peters,  R. Peverati,  P. A. Pieniazek,  
 Y. M. Rhee,  J. Ritchie,  M. A. Rohrdanz,  E. Rosta,  N. J. Russ,  
 H. F. Schaefer III,  N. E. Schultz,  N. Shenvi,  A. C. Simmonett,  A. Sodt,  
 D. Stuck,  K. S. Thanthiriwatte,  V. Vanovschi,  Tao Wang,  A. Warshel,  
 C. F. Williams,  Q. Wu,  X. Xu,  W. Zhang

 Please cite Q-Chem as follows:
 Y. Shao et al., Mol. Phys. 113, 184-215 (2015)
 DOI: 10.1080/00268976.2014.952696

 Q-Chem 5.2.0 for Intel X86 EM64T Linux

 Parts of Q-Chem use Armadillo 8.300.2 (Tropical Shenanigans).
 http://arma.sourceforge.net/

 Q-Chem begins on Sun Sep 26 13:12:13 2021  

Host: cori01
0

     Scratch files written to /tmp/qchem63088//
 May1019 |scratch|qcdevops|jenkins|workspace|build_RNUM -1
Processing $rem in /global/common/cori/software/qchem/5.2/config/preferences:
	 MEM_TOTAL  96000 
NAlpha2: 98
NElect   98
Mult     1
Symmetry turned off for PCM/SM12/SMD calculation

 Q-Chem warning in module libgen/rem_setup.C, line 2803:

 Neither GIA nor STOLL is specified by user. Use STOLL as the default


Checking the input file for inconsistencies... 	...done.

--------------------------------------------------------------
User input:
--------------------------------------------------------------
$comment
SSI-105PHE-130ARG-1.pdb
$end

$molecule
1 1
--
0 1
C    4.075590742330   -1.238521247908   -0.339277715825
C    0.137590742330   -2.447521247908    0.756722284175
C    0.824590742330   -3.159521247908   -0.228277715825
C    0.709590742330   -1.342521247908    1.384722284175
C    2.090590742330   -2.754521247908   -0.588277715825
C    1.995590742330   -0.952521247908    1.020722284175
C    2.683590742330   -1.659521247908    0.027722284175
H   -0.855409257670   -2.765521247908    1.046722284175
H    0.373590742330   -4.020521247908   -0.699277715825
H    0.166590742330   -0.803521247908    2.147722284175
H    2.617590742330   -3.285521247908   -1.365277715825
H    2.458590742330   -0.102521247908    1.503722284175
H    4.211590742330   -0.190521247908   -0.099277715825
H    4.171590742330   -1.352521247908   -1.407277715825
H    4.866160742330   -1.828751247908    0.147172284175
--
1 1
C   -1.796409257670    0.412478752092   -0.609277715825
C   -1.691409257670    0.501478752092   -2.127277715825
C   -1.983409257670    2.751478752092    0.231722284175
N   -2.480409257670    1.542478752092   -0.003277715825
N   -0.749409257670    3.103478752092   -0.064277715825
N   -2.786409257670    3.627478752092    0.808722284175
H   -2.339409257670   -0.499521247908   -0.354277715825
H   -0.795409257670    0.326478752092   -0.182277715825
H   -1.214409257670    1.438478752092   -2.415277715825
H   -2.688409257670    0.468478752092   -2.560277715825
H   -3.440409257670    1.403478752092    0.313722284175
H   -0.130409257670    2.440478752092   -0.498277715825
H   -0.425409257670    4.038478752092    0.129722284175
H   -3.719409257670    3.302478752092    1.056722284175
H   -2.486409257670    4.565478752092    1.017722284175
H   -1.073449257670   -0.339771247908   -2.474297715825
$end

$rem
JOBTYPE			EDA
EDA2			1
method			wB97X-V
BASIS			def2-TZVPD
XC_GRID			000099000590
NL_GRID			1
UNRESTRICTED		FALSE
MAX_SCF_CYCLES		200
SYMMETRY		FALSE
SYM_IGNORE		TRUE
MEM_STATIC		2000
BASIS_LIN_DEP_THRESH 	6
THRESH 			14
SCF_CONVERGENCE 	8
SCF_PRINT_FRGM 		TRUE
SOLVENT_METHOD          SMD
$end

$SMX
SOLVENT			WATER
$END
--------------------------------------------------------------
 ----------------------------------------------------------------
             Standard Nuclear Orientation (Angstroms)
    I     Atom           X                Y                Z
 ----------------------------------------------------------------
    1      C       4.0755907423    -1.2385212479    -0.3392777158
    2      C       0.1375907423    -2.4475212479     0.7567222842
    3      C       0.8245907423    -3.1595212479    -0.2282777158
    4      C       0.7095907423    -1.3425212479     1.3847222842
    5      C       2.0905907423    -2.7545212479    -0.5882777158
    6      C       1.9955907423    -0.9525212479     1.0207222842
    7      C       2.6835907423    -1.6595212479     0.0277222842
    8      H      -0.8554092577    -2.7655212479     1.0467222842
    9      H       0.3735907423    -4.0205212479    -0.6992777158
   10      H       0.1665907423    -0.8035212479     2.1477222842
   11      H       2.6175907423    -3.2855212479    -1.3652777158
   12      H       2.4585907423    -0.1025212479     1.5037222842
   13      H       4.2115907423    -0.1905212479    -0.0992777158
   14      H       4.1715907423    -1.3525212479    -1.4072777158
   15      H       4.8661607423    -1.8287512479     0.1471722842
   16      C      -1.7964092577     0.4124787521    -0.6092777158
   17      C      -1.6914092577     0.5014787521    -2.1272777158
   18      C      -1.9834092577     2.7514787521     0.2317222842
   19      N      -2.4804092577     1.5424787521    -0.0032777158
   20      N      -0.7494092577     3.1034787521    -0.0642777158
   21      N      -2.7864092577     3.6274787521     0.8087222842
   22      H      -2.3394092577    -0.4995212479    -0.3542777158
   23      H      -0.7954092577     0.3264787521    -0.1822777158
   24      H      -1.2144092577     1.4384787521    -2.4152777158
   25      H      -2.6884092577     0.4684787521    -2.5602777158
   26      H      -3.4404092577     1.4034787521     0.3137222842
   27      H      -0.1304092577     2.4404787521    -0.4982777158
   28      H      -0.4254092577     4.0384787521     0.1297222842
   29      H      -3.7194092577     3.3024787521     1.0567222842
   30      H      -2.4864092577     4.5654787521     1.0177222842
   31      H      -1.0734492577    -0.3397712479    -2.4742977158
 ----------------------------------------------------------------
 Nuclear Repulsion Energy =         759.78140827 hartrees
 There are       49 alpha and       49 beta electrons
 Requested basis set is def2-TZVPD
 There are 259 shells and 643 basis functions

 Total QAlloc Memory Limit  96000 MB
 Mega-Array Size      1956 MB
 MEM_STATIC part      2000 MB
 
 Citation of the SMD model:
 Marenich, A.V.; Cramer, C.J.; Truhlar, D.G.
 J. Phys. Chem. B 2009, 113, 6378-6396.
 iSolventCode=           1
 Solvent: water                                                           
 
 vradii
            1           2           3           4           5           6
    1   1.8500000   1.8500000   1.8500000   1.8500000   1.8500000   1.8500000
            7           8           9          10          11          12
    1   1.8500000   1.2000000   1.2000000   1.2000000   1.2000000   1.2000000
           13          14          15          16          17          18
    1   1.2000000   1.2000000   1.2000000   1.8500000   1.8500000   1.8500000
           19          20          21          22          23          24
    1   1.8900000   1.8900000   1.8900000   1.2000000   1.2000000   1.2000000
           25          26          27          28          29          30
    1   1.2000000   1.2000000   1.2000000   1.2000000   1.2000000   1.2000000
           31
    1   1.2000000
 Changing PCM_VDW_RADII to SMD_RADIUS
 Discretize the solute cavity surface with Lebedev spheres
	Using 110 Lebedev grid points for each H atom
	Using 194 Lebedev grid points for other atoms
	Atomic van der Waals radii will be scaled by 1.20
 Remove points where switching function is < 1.0e-08
 Keep 2202 surface tesserae and discard 2300 interior tesserae
 Molecular Surface Area = 261.575 Angst**2
 A cutoff of  1.0D-14 yielded  28512 shell pairs
 There are    175214 function pairs (    218364 Cartesian)
 Smallest overlap matrix eigenvalue = 4.85E-07
 Linear dependence detected in AO basis
 Tighter screening thresholds may be required for diffuse basis sets
 Use S2THRESH > 14 and THRESH = 14 in case of SCF convergence issues
 Number of orthogonalized atomic orbitals = 641
 Maximum deviation from orthogonality = 1.275E-10

 Scale SEOQF with 1.000000e-01/1.000000e-01/1.000000e-01

 Standard Electronic Orientation quadrupole field applied
 Nucleus-field energy     =     0.0000000435 hartrees

 -----------------------------------------------------------------------
  General SCF calculation program by
  Eric Jon Sundstrom, Paul Horn, Yuezhi Mao, Dmitri Zuev, Alec White,
  David Stuck, Shaama M.S., Shane Yost, Joonho Lee, David Small,
  Daniel Levine, Susi Lehtola, Hugh Burton, Evgeny Epifanovsky
 -----------------------------------------------------------------------
================================================================
                 ALMO-EDA with the EDA2 driver                  
================================================================
 The second-generation ALMO-EDA (for DFT):                      
 P. R. Horn, Y. Mao and M. Head-Gordon, PCCP, 18, 23067 (2016)  
 Decomposition of the frozen energy:                            
 P. R. Horn, Y. Mao and M. Head-Gordon, JCP, 144, 114107 (2016) 
 FERF model for polarization:                                   
 P. R. Horn and M. Head-Gordon, JCP, 143, 114111 (2015)         
Using eda2 option set 1
Option set summary: Frozen orbital wavefunction, initial wavefunction decomposition, and nDQ polarization.
--------------------------------
Printing EDA Options
--------------------------------
eda_child_super_basis      0
fragmo_guess_mode          0
child_mp                   1
child_mp_orders            232
cls_elec                   1
cls_disp                   0
scfmi_mode                 1
scfmi_occs                 0
scfmi_virts                0
frz_relax                  0
frz_relax_method           0
dc_pen_start               0
dc_pen_conv                0
dc_pen_increment           0
dc_pen_steps               0
dc_pen_thresh_factor       0
dc_pen_pre_newton_thresh   0
frz_ortho_decomp           1
frz_ortho_decomp_conv      6
frgm_method                2
scfmi_freeze_ss            0
separate_rehyb             0
plot_diff_den              0
eda_nocv                   0
eda_vct_relax              1
disp_free_x                0
disp_free_c                0
eda_bsse                   0
eda_pct_a                  0
eda_covp                   0
--------------------------------
Attempting to make child job directory: /tmp/qchem63088//Frg1/
Attempting to make child job directory: /tmp/qchem63088//Frg2/
Creating input file /tmp/qchem63088/Frg1.input
using default PutDataFrgm: nothing
calling putenv with: QCSCRATCH=/tmp/qchem63088/ 
calling putenv with: QCLOCALSCR=/tmp/qchem63088/ 
Spawning Job For Fragment 0
                  Welcome to Q-Chem
     A Quantum Leap Into The Future Of Chemistry


 Q-Chem 5.2, Q-Chem, Inc., Pleasanton, CA (2019)

 License issued to: National Energy Research Scientific Computing Center

 Yihan Shao,  Zhengting Gan,  E. Epifanovsky,  A. T. B. Gilbert,  M. Wormit,  
 J. Kussmann,  A. W. Lange,  A. Behn,  Jia Deng,  Xintian Feng,  D. Ghosh,  
 M. Goldey,  P. R. Horn,  L. D. Jacobson,  I. Kaliman,  T. Kus,  A. Landau,  
 Jie Liu,  E. I. Proynov,  R. M. Richard,  R. P. Steele,  E. J. Sundstrom,  
 H. L. Woodcock III,  P. M. Zimmerman,  D. Zuev,  B. Albrecht,  E. Alguire,  
 S. A. Baeppler,  D. Barton,  Z. Benda,  Y. A. Bernard,  E. J. Berquist,  
 K. B. Bravaya,  H. Burton,  D. Casanova,  Chun-Min Chang,  Yunqing Chen,  
 A. Chien,  K. D. Closser,  M. P. Coons,  S. Coriani,  S. Dasgupta,  
 A. L. Dempwolff,  M. Diedenhofen,  Hainam Do,  R. G. Edgar,  Po-Tung Fang,  
 S. Faraji,  S. Fatehi,  Qingguo Feng,  K. D. Fenk,  J. Fosso-Tande,  
 J. Gayvert,  Qinghui Ge,  A. Ghysels,  G. Gidofalvi,  J. Gomes,  
 J. Gonthier,  A. Gunina,  D. Hait,  M. W. D. Hanson-Heine,  
 P. H. P. Harbach,  A. W. Hauser,  M. F. Herbst,  J. E. Herr,  
 E. G. Hohenstein,  Z. C. Holden,  Kerwin Hui,  B. C. Huynh,  T.-C. Jagau,  
 Hyunjun Ji,  B. Kaduk,  K. Khistyaev,  Jaehoon Kim,  P. Klunzinger,  K. Koh,  
 D. Kosenkov,  L. Koulias,  T. Kowalczyk,  C. M. Krauter,  A. Kunitsa,  
 Ka Un Lao,  A. Laurent,  K. V. Lawler,  Joonho Lee,  D. Lefrancois,  
 S. Lehtola,  D. S. Levine,  Yi-Pei Li,  You-Sheng Lin,  Fenglai Liu,  
 E. Livshits,  A. Luenser,  P. Manohar,  E. Mansoor,  S. F. Manzer,  
 Shan-Ping Mao,  Yuezhi Mao,  N. Mardirossian,  A. V. Marenich,  
 T. Markovich,  L. A. Martinez-Martinez,  S. A. Maurer,  N. J. Mayhall,  
 S. C. McKenzie,  J.-M. Mewes,  P. Morgante,  A. F. Morrison,  
 J. W. Mullinax,  K. Nanda,  T. S. Nguyen-Beck,  R. Olivares-Amaya,  
 J. A. Parkhill,  Zheng Pei,  T. M. Perrine,  F. Plasser,  P. Pokhilko,  
 S. Prager,  A. Prociuk,  E. Ramos,  D. R. Rehn,  F. Rob,  M. Scheurer,  
 M. Schneider,  N. Sergueev,  S. M. Sharada,  S. Sharma,  D. W. Small,  
 T. Stauch,  T. Stein,  Yu-Chuan Su,  A. J. W. Thom,  A. Tkatchenko,  
 T. Tsuchimochi,  N. M. Tubman,  L. Vogt,  M. L. Vidal,  O. Vydrov,  
 M. A. Watson,  J. Wenzel,  M. de Wergifosse,  T. A. Wesolowski,  A. White,  
 J. Witte,  A. Yamada,  Jun Yang,  K. Yao,  S. Yeganeh,  S. R. Yost,  
 Zhi-Qiang You,  A. Zech,  Igor Ying Zhang,  Xing Zhang,  Yan Zhao,  
 Ying Zhu,  B. R. Brooks,  G. K. L. Chan,  C. J. Cramer,  M. S. Gordon,  
 W. J. Hehre,  A. Klamt,  M. W. Schmidt,  C. D. Sherrill,  D. G. Truhlar,  
 A. Aspuru-Guzik,  R. Baer,  A. T. Bell,  N. A. Besley,  Jeng-Da Chai,  
 A. E. DePrince, III,  R. A. DiStasio Jr.,  A. Dreuw,  B. D. Dunietz,  
 T. R. Furlani,  Chao-Ping Hsu,  Yousung Jung,  Jing Kong,  D. S. Lambrecht,  
 WanZhen Liang,  C. Ochsenfeld,  V. A. Rassolov,  L. V. Slipchenko,  
 J. E. Subotnik,  T. Van Voorhis,  J. M. Herbert,  A. I. Krylov,  
 P. M. W. Gill,  M. Head-Gordon

 Contributors to earlier versions of Q-Chem not listed above: 
 R. D. Adamson,  B. Austin,  J. Baker,  G. J. O. Beran,  K. Brandhorst,  
 S. T. Brown,  E. F. C. Byrd,  A. K. Chakraborty,  C.-L. Cheng,  
 Siu Hung Chien,  D. M. Chipman,  D. L. Crittenden,  H. Dachsel,  
 R. J. Doerksen,  A. D. Dutoi,  L. Fusti-Molnar,  W. A. Goddard III,  
 A. Golubeva-Zadorozhnaya,  S. R. Gwaltney,  G. Hawkins,  A. Heyden,  
 S. Hirata,  G. Kedziora,  F. J. Keil,  C. Kelley,  Jihan Kim,  R. A. King,  
 R. Z. Khaliullin,  P. P. Korambath,  W. Kurlancheek,  A. M. Lee,  M. S. Lee,  
 S. V. Levchenko,  Ching Yeh Lin,  D. Liotard,  R. C. Lochan,  I. Lotan,  
 P. E. Maslen,  N. Nair,  D. P. O'Neill,  D. Neuhauser,  E. Neuscamman,  
 C. M. Oana,  R. Olson,  B. Peters,  R. Peverati,  P. A. Pieniazek,  
 Y. M. Rhee,  J. Ritchie,  M. A. Rohrdanz,  E. Rosta,  N. J. Russ,  
 H. F. Schaefer III,  N. E. Schultz,  N. Shenvi,  A. C. Simmonett,  A. Sodt,  
 D. Stuck,  K. S. Thanthiriwatte,  V. Vanovschi,  Tao Wang,  A. Warshel,  
 C. F. Williams,  Q. Wu,  X. Xu,  W. Zhang

 Please cite Q-Chem as follows:
 Y. Shao et al., Mol. Phys. 113, 184-215 (2015)
 DOI: 10.1080/00268976.2014.952696

 Q-Chem 5.2.0 for Intel X86 EM64T Linux

 Parts of Q-Chem use Armadillo 8.300.2 (Tropical Shenanigans).
 http://arma.sourceforge.net/

 Q-Chem begins on Sun Sep 26 13:12:19 2021  

Host: cori01
0

     Scratch files written to /tmp/qchem63088//Frg1//
 May1019 |scratch|qcdevops|jenkins|workspace|build_RNUM -1
Processing $rem in /global/common/cori/software/qchem/5.2/config/preferences:
	 MEM_TOTAL  96000 
NAlpha2: 50
NElect   50
Mult     1
Symmetry turned off for PCM/SM12/SMD calculation

Checking the input file for inconsistencies... 	...done.

--------------------------------------------------------------
User input:
--------------------------------------------------------------
$molecule
0 1
 6	4.0755907423	-1.2385212479	-0.3392777158
 6	0.1375907423	-2.4475212479	0.7567222842
 6	0.8245907423	-3.1595212479	-0.2282777158
 6	0.7095907423	-1.3425212479	1.3847222842
 6	2.0905907423	-2.7545212479	-0.5882777158
 6	1.9955907423	-0.9525212479	1.0207222842
 6	2.6835907423	-1.6595212479	0.0277222842
 1	-0.8554092577	-2.7655212479	1.0467222842
 1	0.3735907423	-4.0205212479	-0.6992777158
 1	0.1665907423	-0.8035212479	2.1477222842
 1	2.6175907423	-3.2855212479	-1.3652777158
 1	2.4585907423	-0.1025212479	1.5037222842
 1	4.2115907423	-0.1905212479	-0.0992777158
 1	4.1715907423	-1.3525212479	-1.4072777158
 1	4.8661607423	-1.8287512479	0.1471722842
$end
$rem
EDA2		1
METHOD		WB97X-V
BASIS		DEF2-TZVPD
XC_GRID		000099000590
NL_GRID		1
UNRESTRICTED		FALSE
MAX_SCF_CYCLES		200
SYMMETRY		FALSE
SYM_IGNORE		TRUE
BASIS_LIN_DEP_THRESH		6
THRESH		14
SCF_CONVERGENCE		8
SCF_PRINT_FRGM		TRUE
SOLVENT_METHOD		SMD
!required keywords
JOBTYPE		SP
SYM_IGNORE		TRUE
SUBSYSTEM		TRUE
GEN_SCFMAN		TRUE
CHILD_INSTRUCTION		2
SYM_IGNORE		TRUE
SCFMI		0
RI_K 0		
PARI_K 0		
MIN_PARI_K 0		
IARI_K 0		
OCC_RI_K 0		
PURECART		1111
MEM_STATIC		2000
MEM_TOTAL		96000
GUI		0
CHILD_MP		1
CHILD_MP_ORDERS		232
FRZ_RELAX		0
FRZ_RELAX_METHOD		0
EDA_CLS_ELEC		1
EDA_CLS_DISP		0
FRZ_ORTHO_DECOMP		1
EDA2		FALSE
FRGM_METHOD		FALSE
CIS_N_ROOTS  0
LOCAL_CIS    0
CIS_RLX_DNS  1
$end
$smx
SOLVENT			WATER
$end
--------------------------------------------------------------
 ----------------------------------------------------------------
             Standard Nuclear Orientation (Angstroms)
    I     Atom           X                Y                Z
 ----------------------------------------------------------------
    1      C       4.0755907423    -1.2385212479    -0.3392777158
    2      C       0.1375907423    -2.4475212479     0.7567222842
    3      C       0.8245907423    -3.1595212479    -0.2282777158
    4      C       0.7095907423    -1.3425212479     1.3847222842
    5      C       2.0905907423    -2.7545212479    -0.5882777158
    6      C       1.9955907423    -0.9525212479     1.0207222842
    7      C       2.6835907423    -1.6595212479     0.0277222842
    8      H      -0.8554092577    -2.7655212479     1.0467222842
    9      H       0.3735907423    -4.0205212479    -0.6992777158
   10      H       0.1665907423    -0.8035212479     2.1477222842
   11      H       2.6175907423    -3.2855212479    -1.3652777158
   12      H       2.4585907423    -0.1025212479     1.5037222842
   13      H       4.2115907423    -0.1905212479    -0.0992777158
   14      H       4.1715907423    -1.3525212479    -1.4072777158
   15      H       4.8661607423    -1.8287512479     0.1471722842
 ----------------------------------------------------------------
 Nuclear Repulsion Energy =         270.38321665 hartrees
 There are       25 alpha and       25 beta electrons
 Requested basis set is def2-TZVPD
 There are 131 shells and 331 basis functions

 Total QAlloc Memory Limit  96000 MB
 Mega-Array Size      1956 MB
 MEM_STATIC part      2000 MB
 
 Citation of the SMD model:
 Marenich, A.V.; Cramer, C.J.; Truhlar, D.G.
 J. Phys. Chem. B 2009, 113, 6378-6396.
 iSolventCode=           1
 Solvent: water                                                           
 
 vradii
            1           2           3           4           5           6
    1   1.8500000   1.8500000   1.8500000   1.8500000   1.8500000   1.8500000
            7           8           9          10          11          12
    1   1.8500000   1.2000000   1.2000000   1.2000000   1.2000000   1.2000000
           13          14          15
    1   1.2000000   1.2000000   1.2000000
 Changing PCM_VDW_RADII to SMD_RADIUS
 Discretize the solute cavity surface with Lebedev spheres
	Using 110 Lebedev grid points for each H atom
	Using 194 Lebedev grid points for other atoms
	Atomic van der Waals radii will be scaled by 1.20
 Remove points where switching function is < 1.0e-08
 Keep 1083 surface tesserae and discard 1155 interior tesserae
 Molecular Surface Area = 131.550 Angst**2

                       Distance Matrix (Angstroms)
             C (  1)   C (  2)   C (  3)   C (  4)   C (  5)   C (  6)
   C (  2)  4.262715
   C (  3)  3.777772  1.396115
   C (  4)  3.783246  1.393769  2.432382
   C (  5)  2.510076  2.391126  1.377092  2.791708
   C (  6)  2.501559  2.399351  2.793222  1.392261  2.417666
   C (  7)  1.499865  2.763060  2.402377  2.416322  1.389291  1.399729
   H (  8)  5.344856  1.082254  2.145521  2.142055  3.369312  3.378734
   H (  9)  4.644774  2.156377  1.080075  3.409932  2.136157  3.873230
   H ( 10)  4.653458  2.153708  3.410143  1.080527  3.872192  2.153502
   H ( 11)  2.714526  3.369796  2.126851  3.870170  1.078619  3.394520
   H ( 12)  2.702191  3.382909  3.874923  2.147268  3.397792  1.081738
   H ( 13)  1.083697  4.735426  4.505926  3.974087  3.363311  2.597249
   H ( 14)  1.078349  4.706918  3.982173  4.447562  2.639494  3.284838
   H ( 15)  1.100003  4.807682  4.271557  4.364060  3.016907  3.125866
             C (  7)   H (  8)   H (  9)   H ( 10)   H ( 11)   H ( 12)
   H (  8)  3.845272
   H (  9)  3.382152  2.476688
   H ( 10)  3.400357  2.471058  4.300854
   H ( 11)  2.142121  4.260267  2.453430  4.950646
   H ( 12)  2.157186  4.275864  4.954913  2.481814  4.288115
   H ( 13)  2.123411  5.798140  5.455194  4.667634  3.704405  2.377049
   H ( 14)  2.089885  5.769698  4.695135  5.383257  2.480558  3.601498
   H ( 15)  2.192377  5.867120  5.069864  5.209535  3.076646  3.258296
             H ( 13)   H ( 14)
   H ( 14)  1.750059
   H ( 15)  1.781291  1.767919
 
 A cutoff of  1.0D-14 yielded   8372 shell pairs
 There are     54542 function pairs (     69500 Cartesian)
 Smallest overlap matrix eigenvalue = 5.56E-07
 Linear dependence detected in AO basis
 Tighter screening thresholds may be required for diffuse basis sets
 Use S2THRESH > 14 and THRESH = 14 in case of SCF convergence issues
 Number of orthogonalized atomic orbitals = 330
 Maximum deviation from orthogonality = 1.678E-10

 Scale SEOQF with 1.000000e-01/1.000000e-01/1.000000e-01

 Standard Electronic Orientation quadrupole field applied
 Nucleus-field energy     =     0.0000000218 hartrees
 Guess from superposition of atomic densities
 Warning:  Energy on first SCF cycle will be non-variational
 SAD guess density has 49.913408 electrons

 -----------------------------------------------------------------------
  General SCF calculation program by
  Eric Jon Sundstrom, Paul Horn, Yuezhi Mao, Dmitri Zuev, Alec White,
  David Stuck, Shaama M.S., Shane Yost, Joonho Lee, David Small,
  Daniel Levine, Susi Lehtola, Hugh Burton, Evgeny Epifanovsky
 -----------------------------------------------------------------------
 Exchange:     0.1670 Hartree-Fock + 1.0000 wB97X-V + LR-HF
 Correlation:  1.0000 wB97X-V
 Using Euler-Maclaurin-Lebedev (99,590) quadrature formula
 Nonlocal Correlation:  VV10 with C = 0.0100 and b = 6.00 and scale = 1.00000
 Grid used for NLC:  SG-1 standard quadrature
Energy prior to optimization (guess energy) = -271.518107762675
Begin Timing: Total SCF Calculation
begin iterations for algorithm: DIIS         
the SCF tolerance is set to 1.00e-08
    1    -271.5181077627      1.98e-03     00000 
    2    -271.5596454423      1.29e-03     00000 
    3    -271.5839385826      1.56e-04     00000 
    4    -271.5846363619      4.84e-05     00000 
    5    -271.5846885609      2.29e-05     00000 
    6    -271.5846971148      5.56e-06     00000 
    7    -271.5846978558      1.72e-06     00000 
    8    -271.5846979110      4.46e-07     00000 
    9    -271.5846979166      8.89e-08     00000 
   10    -271.5846979169      4.81e-08     00000 
   11    -271.5846979170      1.63e-08     00000 
   12    -271.5846979170      6.09e-09     00000 Convergence criterion met
Timing for Total SCF: 1417.00s (wall), 2820.32s (cpu)
(3)  G-ENP(liq) elect-nuc-pol free energy of system     -271.584697917 a.u.
(4)  G-CDS(liq) cavity-dispersion-solvent structure 
     free energy                                                3.1651 kcal/mol
(6)  G-S(liq) free energy of system                     -271.579653963 a.u.
E_pcm = -0.0074492888
E_cds = 0.0050439544
Multipole orders to be included
        2
        3
computing dipole RHS
computing quadrupole RHS
total number of RHS in solve_reponses: 8
RHS batch sizes
        8
Beginning Block Conjugate Gradient Iterations. Batch Number: 0
computing hessian-vector products by finite difference
              1      6.05e-01     00000 Conjugate Gradient Iteration
computing hessian-vector products by finite difference
              2      1.80e-01     00000 Conjugate Gradient Iteration
computing hessian-vector products by finite difference
              3      4.31e-02     00000 Conjugate Gradient Iteration
computing hessian-vector products by finite difference
              4      1.11e-02     00000 Conjugate Gradient Iteration
computing hessian-vector products by finite difference
              5      2.87e-03     00000 Conjugate Gradient Iteration
computing hessian-vector products by finite difference
              6      6.29e-04     00000 Conjugate Gradient Iteration
computing hessian-vector products by finite difference
              7      1.61e-04     00000 Conjugate Gradient Iteration
computing hessian-vector products by finite difference
              8      2.42e-05     00000 Conjugate Gradient Iteration
computing hessian-vector products by finite difference
              9      3.48e-06     00000 Conjugate Gradient Iteration
computing hessian-vector products by finite difference
             10      7.21e-07     00000 Conjugate Gradient Iteration
computing hessian-vector products by finite difference
             11      1.32e-07     00000 Conjugate Gradient Iteration
computing hessian-vector products by finite difference
             12      1.84e-08     00000 Conjugate Gradient Iteration
computing hessian-vector products by finite difference
             13      3.70e-09     00000 CG Converged
batch 0 complete
Done Calculating Responses
TESTING ORTHOGONALIZATION OF MULTIPOLE BASIS
Multipole virts passed orthogonality test
Virts Per Order
           75
          125
 
 --------------------------------------------------------------
 
                    Orbital Energies (a.u.)
 --------------------------------------------------------------
 
 Alpha MOs
 -- Occupied --
-10.2760 -10.2682 -10.2669 -10.2651 -10.2646 -10.2619 -10.2503  -0.9940
 -0.9013  -0.8773  -0.8061  -0.7250  -0.7010  -0.6236  -0.5693  -0.5609
 -0.5292  -0.5281  -0.5040  -0.4812  -0.4694  -0.4373  -0.4326  -0.3486
 -0.3325
 -- Virtual --
  0.0678   0.0685   0.0714   0.0845   0.0897   0.1097   0.1159   0.1181
  0.1415   0.1592   0.1712   0.1748   0.1920   0.1948   0.1999   0.2079
  0.2282   0.2310   0.2397   0.2460   0.2561   0.2637   0.2664   0.2764
  0.2867   0.2872   0.2899   0.2972   0.2981   0.3067   0.3085   0.3157
  0.3254   0.3291   0.3373   0.3408   0.3583   0.3592   0.3725   0.3779
  0.3837   0.3880   0.3897   0.3946   0.3958   0.4055   0.4092   0.4137
  0.4180   0.4340   0.4351   0.4411   0.4470   0.4524   0.4555   0.4578
  0.4664   0.4761   0.4804   0.4881   0.4997   0.5013   0.5171   0.5226
  0.5252   0.5300   0.5412   0.5435   0.5462   0.5531   0.5544   0.5719
  0.5876   0.5907   0.6023   0.6049   0.6065   0.6261   0.6463   0.6493
  0.6678   0.6786   0.6857   0.6904   0.6948   0.7048   0.7257   0.7266
  0.7319   0.7354   0.7494   0.7614   0.7685   0.7696   0.7806   0.7895
  0.7961   0.7981   0.8035   0.8079   0.8143   0.8288   0.8315   0.8382
  0.8391   0.8416   0.8498   0.8599   0.8647   0.8788   0.8946   0.9014
  0.9146   0.9231   0.9383   0.9525   0.9563   1.0162   1.0277   1.0455
  1.0462   1.0670   1.0748   1.0842   1.0936   1.0984   1.1079   1.1470
  1.1708   1.1849   1.2597   1.2757   1.2997   1.3275   1.3488   1.3592
  1.3801   1.4397   1.4572   1.4652   1.4730   1.4928   1.5346   1.5411
  1.6044   1.6078   1.6250   1.6299   1.6720   1.6803   1.7452   1.7733
  1.7994   1.8066   1.8116   1.8195   1.8367   1.8737   1.8956   1.9184
  1.9224   1.9341   1.9524   1.9663   1.9921   2.0014   2.0180   2.0299
  2.0367   2.0512   2.0722   2.0957   2.1203   2.1299   2.1796   2.1850
  2.1989   2.2422   2.2529   2.2783   2.2931   2.3154   2.3966   2.4029
  2.4145   2.4191   2.4893   2.5139   2.5491   2.5609   2.5707   2.6137
  2.6229   2.6346   2.6740   2.6808   2.7031   2.7192   2.7637   2.7757
  2.7923   2.8208   2.8231   2.8527   2.8736   2.9047   2.9194   2.9222
  2.9392   2.9501   2.9697   2.9813   2.9944   3.0224   3.0254   3.0613
  3.0654   3.0968   3.1045   3.1388   3.1874   3.1923   3.2103   3.2292
  3.2380   3.2502   3.2922   3.3130   3.3390   3.3625   3.3750   3.3851
  3.4042   3.4451   3.4549   3.4597   3.4725   3.4807   3.4980   3.5101
  3.5158   3.5334   3.5458   3.5472   3.5626   3.5793   3.5931   3.6041
  3.6262   3.6388   3.6594   3.6934   3.7173   3.7566   3.7930   3.8174
  3.8481   3.9027   3.9177   3.9645   3.9761   4.0099   4.0419   4.0613
  4.1176   4.2088   4.2683   4.2845   4.3092   4.3280   4.3312   4.3404
  4.3622   4.3766   4.3849   4.4101   4.4297   4.4568   4.5037   4.5392
  4.6095   4.6505   4.7627   4.7826   4.8373   4.9025   4.9093   4.9620
  5.0314   5.0609   5.1726   5.2680   5.3824   5.3879   5.5062   5.5368
  5.6775   5.8563  22.5876  22.7025  22.8844  22.9118  23.0293  23.0823
 23.4310
 --------------------------------------------------------------
 
          Ground-State Mulliken Net Atomic Charges

     Atom                 Charge (a.u.)
  ----------------------------------------
      1 C                    -1.092218
      2 C                    -0.520638
      3 C                    -0.565577
      4 C                    -0.595960
      5 C                    -0.414483
      6 C                    -0.444515
      7 C                     0.874756
      8 H                     0.395000
      9 H                     0.375093
     10 H                     0.374930
     11 H                     0.395612
     12 H                     0.382079
     13 H                     0.304354
     14 H                     0.286919
     15 H                     0.244649
  ----------------------------------------
  Sum of atomic charges =     0.000000

 -----------------------------------------------------------------
                    Cartesian Multipole Moments
 -----------------------------------------------------------------
    Charge (ESU x 10^10)
                 0.0000
    Dipole Moment (Debye)
         X       0.5174      Y       0.1116      Z      -0.1482
       Tot       0.5497
    Quadrupole Moments (Debye-Ang)
        XX     -37.0854     XY       1.2218     YY     -41.0517
        XZ      -2.4873     YZ       4.2192     ZZ     -41.8851
    Octopole Moments (Debye-Ang^2)
       XXX    -213.5858    XXY      75.7737    XYY     -82.4075
       YYY     235.2302    XXZ     -15.6575    XYZ      11.0635
       YYZ     -27.6141    XZZ     -78.9539    YZZ      83.6025
       ZZZ     -35.6547
    Hexadecapole Moments (Debye-Ang^3)
      XXXX   -1325.0095   XXXY     350.0384   XXYY    -419.5218
      XYYY     398.0695   YYYY   -1141.2727   XXXZ      -0.8076
      XXYZ      28.5429   XYYZ     -28.8971   YYYZ      83.5343
      XXZZ    -269.0920   XYZZ     128.9194   YYZZ    -238.3684
      XZZZ      -3.9048   YZZZ      35.8378   ZZZZ    -229.0078
 -----------------------------------------------------------------
Archival summary:
1\1\nid00531\SP\ProcedureUnspecified\BasisUnspecified\78\meili\SunSep2621:08:242021SunSep2621:08:242021\0\\#,ProcedureUnspecified,BasisUnspecified,\\0,1\C\C,1,1.38929\H,2,1.07862,1,119.925\C,2,1.37709,1,120.55,3,-179.113,0\H,4,1.08008,2,120.286,1,-179.062,0\C,4,1.39612,2,119.133,1,0.586014,0\H,6,1.08225,4,119.387,2,-179.662,0\C,6,1.39377,4,121.35,2,-0.313823,0\H,8,1.08053,6,120.491,4,-179.796,0\C,8,1.39226,6,118.905,4,-0.343274,0\H,10,1.08174,8,119.915,6,-179.468,0\C,1,1.49986,2,120.589,3,-2.42745,0\H,12,1.07835,1,107.175,2,39.4886,0\H,12,1.0837,1,109.495,2,156.493,0\H,12,1.1,1,114.091,2,-80.6417,0\\\@

 Total job time:  28569.54s(wall), 56788.76s(cpu) 
 Sun Sep 26 21:08:28 2021

        *************************************************************
        *                                                           *
        *  Thank you very much for using Q-Chem.  Have a nice day.  *
        *                                                           *
        *************************************************************


Done Job For Fragment 0
calling putenv with: QCSCRATCH=/global/cscratch1/sd/meili 
calling putenv with: QCLOCALSCR=/tmp 
calling putenv with: QCTHREADS=32 
Creating input file /tmp/qchem63088/Frg2.input
using default PutDataFrgm: nothing
calling putenv with: QCSCRATCH=/tmp/qchem63088/ 
calling putenv with: QCLOCALSCR=/tmp/qchem63088/ 
Spawning Job For Fragment 1
                  Welcome to Q-Chem
     A Quantum Leap Into The Future Of Chemistry


 Q-Chem 5.2, Q-Chem, Inc., Pleasanton, CA (2019)

 License issued to: National Energy Research Scientific Computing Center

 Yihan Shao,  Zhengting Gan,  E. Epifanovsky,  A. T. B. Gilbert,  M. Wormit,  
 J. Kussmann,  A. W. Lange,  A. Behn,  Jia Deng,  Xintian Feng,  D. Ghosh,  
 M. Goldey,  P. R. Horn,  L. D. Jacobson,  I. Kaliman,  T. Kus,  A. Landau,  
 Jie Liu,  E. I. Proynov,  R. M. Richard,  R. P. Steele,  E. J. Sundstrom,  
 H. L. Woodcock III,  P. M. Zimmerman,  D. Zuev,  B. Albrecht,  E. Alguire,  
 S. A. Baeppler,  D. Barton,  Z. Benda,  Y. A. Bernard,  E. J. Berquist,  
 K. B. Bravaya,  H. Burton,  D. Casanova,  Chun-Min Chang,  Yunqing Chen,  
 A. Chien,  K. D. Closser,  M. P. Coons,  S. Coriani,  S. Dasgupta,  
 A. L. Dempwolff,  M. Diedenhofen,  Hainam Do,  R. G. Edgar,  Po-Tung Fang,  
 S. Faraji,  S. Fatehi,  Qingguo Feng,  K. D. Fenk,  J. Fosso-Tande,  
 J. Gayvert,  Qinghui Ge,  A. Ghysels,  G. Gidofalvi,  J. Gomes,  
 J. Gonthier,  A. Gunina,  D. Hait,  M. W. D. Hanson-Heine,  
 P. H. P. Harbach,  A. W. Hauser,  M. F. Herbst,  J. E. Herr,  
 E. G. Hohenstein,  Z. C. Holden,  Kerwin Hui,  B. C. Huynh,  T.-C. Jagau,  
 Hyunjun Ji,  B. Kaduk,  K. Khistyaev,  Jaehoon Kim,  P. Klunzinger,  K. Koh,  
 D. Kosenkov,  L. Koulias,  T. Kowalczyk,  C. M. Krauter,  A. Kunitsa,  
 Ka Un Lao,  A. Laurent,  K. V. Lawler,  Joonho Lee,  D. Lefrancois,  
 S. Lehtola,  D. S. Levine,  Yi-Pei Li,  You-Sheng Lin,  Fenglai Liu,  
 E. Livshits,  A. Luenser,  P. Manohar,  E. Mansoor,  S. F. Manzer,  
 Shan-Ping Mao,  Yuezhi Mao,  N. Mardirossian,  A. V. Marenich,  
 T. Markovich,  L. A. Martinez-Martinez,  S. A. Maurer,  N. J. Mayhall,  
 S. C. McKenzie,  J.-M. Mewes,  P. Morgante,  A. F. Morrison,  
 J. W. Mullinax,  K. Nanda,  T. S. Nguyen-Beck,  R. Olivares-Amaya,  
 J. A. Parkhill,  Zheng Pei,  T. M. Perrine,  F. Plasser,  P. Pokhilko,  
 S. Prager,  A. Prociuk,  E. Ramos,  D. R. Rehn,  F. Rob,  M. Scheurer,  
 M. Schneider,  N. Sergueev,  S. M. Sharada,  S. Sharma,  D. W. Small,  
 T. Stauch,  T. Stein,  Yu-Chuan Su,  A. J. W. Thom,  A. Tkatchenko,  
 T. Tsuchimochi,  N. M. Tubman,  L. Vogt,  M. L. Vidal,  O. Vydrov,  
 M. A. Watson,  J. Wenzel,  M. de Wergifosse,  T. A. Wesolowski,  A. White,  
 J. Witte,  A. Yamada,  Jun Yang,  K. Yao,  S. Yeganeh,  S. R. Yost,  
 Zhi-Qiang You,  A. Zech,  Igor Ying Zhang,  Xing Zhang,  Yan Zhao,  
 Ying Zhu,  B. R. Brooks,  G. K. L. Chan,  C. J. Cramer,  M. S. Gordon,  
 W. J. Hehre,  A. Klamt,  M. W. Schmidt,  C. D. Sherrill,  D. G. Truhlar,  
 A. Aspuru-Guzik,  R. Baer,  A. T. Bell,  N. A. Besley,  Jeng-Da Chai,  
 A. E. DePrince, III,  R. A. DiStasio Jr.,  A. Dreuw,  B. D. Dunietz,  
 T. R. Furlani,  Chao-Ping Hsu,  Yousung Jung,  Jing Kong,  D. S. Lambrecht,  
 WanZhen Liang,  C. Ochsenfeld,  V. A. Rassolov,  L. V. Slipchenko,  
 J. E. Subotnik,  T. Van Voorhis,  J. M. Herbert,  A. I. Krylov,  
 P. M. W. Gill,  M. Head-Gordon

 Contributors to earlier versions of Q-Chem not listed above: 
 R. D. Adamson,  B. Austin,  J. Baker,  G. J. O. Beran,  K. Brandhorst,  
 S. T. Brown,  E. F. C. Byrd,  A. K. Chakraborty,  C.-L. Cheng,  
 Siu Hung Chien,  D. M. Chipman,  D. L. Crittenden,  H. Dachsel,  
 R. J. Doerksen,  A. D. Dutoi,  L. Fusti-Molnar,  W. A. Goddard III,  
 A. Golubeva-Zadorozhnaya,  S. R. Gwaltney,  G. Hawkins,  A. Heyden,  
 S. Hirata,  G. Kedziora,  F. J. Keil,  C. Kelley,  Jihan Kim,  R. A. King,  
 R. Z. Khaliullin,  P. P. Korambath,  W. Kurlancheek,  A. M. Lee,  M. S. Lee,  
 S. V. Levchenko,  Ching Yeh Lin,  D. Liotard,  R. C. Lochan,  I. Lotan,  
 P. E. Maslen,  N. Nair,  D. P. O'Neill,  D. Neuhauser,  E. Neuscamman,  
 C. M. Oana,  R. Olson,  B. Peters,  R. Peverati,  P. A. Pieniazek,  
 Y. M. Rhee,  J. Ritchie,  M. A. Rohrdanz,  E. Rosta,  N. J. Russ,  
 H. F. Schaefer III,  N. E. Schultz,  N. Shenvi,  A. C. Simmonett,  A. Sodt,  
 D. Stuck,  K. S. Thanthiriwatte,  V. Vanovschi,  Tao Wang,  A. Warshel,  
 C. F. Williams,  Q. Wu,  X. Xu,  W. Zhang

 Please cite Q-Chem as follows:
 Y. Shao et al., Mol. Phys. 113, 184-215 (2015)
 DOI: 10.1080/00268976.2014.952696

 Q-Chem 5.2.0 for Intel X86 EM64T Linux

 Parts of Q-Chem use Armadillo 8.300.2 (Tropical Shenanigans).
 http://arma.sourceforge.net/

 Q-Chem begins on Sun Sep 26 21:08:34 2021  

Host: cori01
0

     Scratch files written to /tmp/qchem63088//Frg2//
 May1019 |scratch|qcdevops|jenkins|workspace|build_RNUM -1
Processing $rem in /global/common/cori/software/qchem/5.2/config/preferences:
	 MEM_TOTAL  96000 
NAlpha2: 48
NElect   48
Mult     1
Symmetry turned off for PCM/SM12/SMD calculation

Checking the input file for inconsistencies... 	...done.

--------------------------------------------------------------
User input:
--------------------------------------------------------------
$molecule
1 1
 6	-1.7964092577	0.4124787521	-0.6092777158
 6	-1.6914092577	0.5014787521	-2.1272777158
 6	-1.9834092577	2.7514787521	0.2317222842
 7	-2.4804092577	1.5424787521	-0.0032777158
 7	-0.7494092577	3.1034787521	-0.0642777158
 7	-2.7864092577	3.6274787521	0.8087222842
 1	-2.3394092577	-0.4995212479	-0.3542777158
 1	-0.7954092577	0.3264787521	-0.1822777158
 1	-1.2144092577	1.4384787521	-2.4152777158
 1	-2.6884092577	0.4684787521	-2.5602777158
 1	-3.4404092577	1.4034787521	0.3137222842
 1	-0.1304092577	2.4404787521	-0.4982777158
 1	-0.4254092577	4.0384787521	0.1297222842
 1	-3.7194092577	3.3024787521	1.0567222842
 1	-2.4864092577	4.5654787521	1.0177222842
 1	-1.0734492577	-0.3397712479	-2.4742977158
$end
$rem
EDA2		1
METHOD		WB97X-V
BASIS		DEF2-TZVPD
XC_GRID		000099000590
NL_GRID		1
UNRESTRICTED		FALSE
MAX_SCF_CYCLES		200
SYMMETRY		FALSE
SYM_IGNORE		TRUE
BASIS_LIN_DEP_THRESH		6
THRESH		14
SCF_CONVERGENCE		8
SCF_PRINT_FRGM		TRUE
SOLVENT_METHOD		SMD
!required keywords
JOBTYPE		SP
SYM_IGNORE		TRUE
SUBSYSTEM		TRUE
GEN_SCFMAN		TRUE
CHILD_INSTRUCTION		2
SYM_IGNORE		TRUE
SCFMI		0
RI_K 0		
PARI_K 0		
MIN_PARI_K 0		
IARI_K 0		
OCC_RI_K 0		
PURECART		1111
MEM_STATIC		2000
MEM_TOTAL		96000
GUI		0
CHILD_MP		1
CHILD_MP_ORDERS		232
FRZ_RELAX		0
FRZ_RELAX_METHOD		0
EDA_CLS_ELEC		1
EDA_CLS_DISP		0
FRZ_ORTHO_DECOMP		1
EDA2		FALSE
FRGM_METHOD		FALSE
CIS_N_ROOTS  0
LOCAL_CIS    0
CIS_RLX_DNS  1
$end
$smx
SOLVENT			WATER
$end
--------------------------------------------------------------
 ----------------------------------------------------------------
             Standard Nuclear Orientation (Angstroms)
    I     Atom           X                Y                Z
 ----------------------------------------------------------------
    1      C      -1.7964092577     0.4124787521    -0.6092777158
    2      C      -1.6914092577     0.5014787521    -2.1272777158
    3      C      -1.9834092577     2.7514787521     0.2317222842
    4      N      -2.4804092577     1.5424787521    -0.0032777158
    5      N      -0.7494092577     3.1034787521    -0.0642777158
    6      N      -2.7864092577     3.6274787521     0.8087222842
    7      H      -2.3394092577    -0.4995212479    -0.3542777158
    8      H      -0.7954092577     0.3264787521    -0.1822777158
    9      H      -1.2144092577     1.4384787521    -2.4152777158
   10      H      -2.6884092577     0.4684787521    -2.5602777158
   11      H      -3.4404092577     1.4034787521     0.3137222842
   12      H      -0.1304092577     2.4404787521    -0.4982777158
   13      H      -0.4254092577     4.0384787521     0.1297222842
   14      H      -3.7194092577     3.3024787521     1.0567222842
   15      H      -2.4864092577     4.5654787521     1.0177222842
   16      H      -1.0734492577    -0.3397712479    -2.4742977158
 ----------------------------------------------------------------
 Nuclear Repulsion Energy =         259.61653406 hartrees
 There are       24 alpha and       24 beta electrons
 Requested basis set is def2-TZVPD
 There are 128 shells and 312 basis functions

 Total QAlloc Memory Limit  96000 MB
 Mega-Array Size      1956 MB
 MEM_STATIC part      2000 MB
 
 Citation of the SMD model:
 Marenich, A.V.; Cramer, C.J.; Truhlar, D.G.
 J. Phys. Chem. B 2009, 113, 6378-6396.
 iSolventCode=           1
 Solvent: water                                                           
 
 vradii
            1           2           3           4           5           6
    1   1.8500000   1.8500000   1.8500000   1.8900000   1.8900000   1.8900000
            7           8           9          10          11          12
    1   1.2000000   1.2000000   1.2000000   1.2000000   1.2000000   1.2000000
           13          14          15          16
    1   1.2000000   1.2000000   1.2000000   1.2000000
 Changing PCM_VDW_RADII to SMD_RADIUS
 Discretize the solute cavity surface with Lebedev spheres
	Using 110 Lebedev grid points for each H atom
	Using 194 Lebedev grid points for other atoms
	Atomic van der Waals radii will be scaled by 1.20
 Remove points where switching function is < 1.0e-08
 Keep 1121 surface tesserae and discard 1143 interior tesserae
 Molecular Surface Area = 133.288 Angst**2
 A cutoff of  1.0D-14 yielded   7971 shell pairs
 There are     48141 function pairs (     60053 Cartesian)
 Smallest overlap matrix eigenvalue = 1.00E-05

 Scale SEOQF with 1.000000e-01/1.000000e-01/1.000000e-01

 Standard Electronic Orientation quadrupole field applied
 Nucleus-field energy     =     0.0000000217 hartrees
 Guess from superposition of atomic densities
 Warning:  Energy on first SCF cycle will be non-variational
 SAD guess density has 48.375862 electrons

 -----------------------------------------------------------------------
  General SCF calculation program by
  Eric Jon Sundstrom, Paul Horn, Yuezhi Mao, Dmitri Zuev, Alec White,
  David Stuck, Shaama M.S., Shane Yost, Joonho Lee, David Small,
  Daniel Levine, Susi Lehtola, Hugh Burton, Evgeny Epifanovsky
 -----------------------------------------------------------------------
 Exchange:     0.1670 Hartree-Fock + 1.0000 wB97X-V + LR-HF
 Correlation:  1.0000 wB97X-V
 Using Euler-Maclaurin-Lebedev (99,590) quadrature formula
 Nonlocal Correlation:  VV10 with C = 0.0100 and b = 6.00 and scale = 1.00000
 Grid used for NLC:  SG-1 standard quadrature
Energy prior to optimization (guess energy) = -284.034184090784
Begin Timing: Total SCF Calculation
begin iterations for algorithm: DIIS         
the SCF tolerance is set to 1.00e-08
    1    -284.0341840908      6.60e-03     00000 
    2    -284.2792947762      5.18e-03     00000 
    3    -284.5235721071      3.04e-04     00000 
    4    -284.5248474854      1.58e-04     00000 
    5    -284.5251589844      4.53e-05     00000 
    6    -284.5251862401      1.82e-05     00000 
    7    -284.5251905615      3.62e-06     00000 
    8    -284.5251909097      8.96e-07     00000 
    9    -284.5251909361      4.28e-07     00000 
   10    -284.5251909408      1.22e-07     00000 
   11    -284.5251909414      2.48e-08     00000 
   12    -284.5251909415      6.27e-09     00000 Convergence criterion met
Timing for Total SCF: 1190.00s (wall), 2364.57s (cpu)
(3)  G-ENP(liq) elect-nuc-pol free energy of system     -284.525190941 a.u.
(4)  G-CDS(liq) cavity-dispersion-solvent structure 
     free energy                                                2.9729 kcal/mol
(6)  G-S(liq) free energy of system                     -284.520453310 a.u.
E_pcm = -0.1084567166
E_cds = 0.0047376310
Multipole orders to be included
        2
        3
computing dipole RHS
computing quadrupole RHS
total number of RHS in solve_reponses: 8
RHS batch sizes
        8
Beginning Block Conjugate Gradient Iterations. Batch Number: 0
computing hessian-vector products by finite difference
              1      4.80e-01     00000 Conjugate Gradient Iteration
computing hessian-vector products by finite difference
              2      1.78e-01     00000 Conjugate Gradient Iteration
computing hessian-vector products by finite difference
              3      5.11e-02     00000 Conjugate Gradient Iteration
computing hessian-vector products by finite difference
              4      1.44e-02     00000 Conjugate Gradient Iteration
computing hessian-vector products by finite difference
              5      2.10e-03     00000 Conjugate Gradient Iteration
computing hessian-vector products by finite difference
              6      3.69e-04     00000 Conjugate Gradient Iteration
computing hessian-vector products by finite difference
              7      5.59e-05     00000 Conjugate Gradient Iteration
computing hessian-vector products by finite difference
              8      8.80e-06     00000 Conjugate Gradient Iteration
computing hessian-vector products by finite difference
              9      1.36e-06     00000 Conjugate Gradient Iteration
computing hessian-vector products by finite difference
             10      1.89e-07     00000 Conjugate Gradient Iteration
computing hessian-vector products by finite difference
             11      2.62e-08     00000 Conjugate Gradient Iteration
computing hessian-vector products by finite difference
             12      3.70e-09     00000 CG Converged
batch 0 complete
Done Calculating Responses
TESTING ORTHOGONALIZATION OF MULTIPOLE BASIS
Multipole virts passed orthogonality test
Virts Per Order
           72
          120
 
 --------------------------------------------------------------
 
                    Orbital Energies (a.u.)
 --------------------------------------------------------------
 
 Alpha MOs
 -- Occupied --
-14.4530 -14.4496 -14.4443 -10.4223 -10.3081 -10.2553  -1.1737  -1.0582
 -1.0422  -0.8955  -0.7912  -0.7498  -0.7183  -0.6810  -0.6231  -0.6080
 -0.5970  -0.5753  -0.5499  -0.5013  -0.4809  -0.4543  -0.3994  -0.3725
 -- Virtual --
  0.0598   0.0832   0.0901   0.0974   0.1104   0.1235   0.1243   0.1324
  0.1598   0.1656   0.1748   0.1820   0.1911   0.2039   0.2068   0.2138
  0.2185   0.2251   0.2381   0.2389   0.2574   0.2619   0.2667   0.2709
  0.2846   0.2883   0.2937   0.3085   0.3098   0.3163   0.3252   0.3312
  0.3390   0.3452   0.3538   0.3565   0.3599   0.3627   0.3691   0.3760
  0.3815   0.3904   0.3917   0.3990   0.4137   0.4174   0.4242   0.4305
  0.4419   0.4489   0.4538   0.4691   0.4715   0.4779   0.4807   0.4865
  0.4982   0.5035   0.5088   0.5156   0.5196   0.5222   0.5364   0.5401
  0.5476   0.5518   0.5662   0.5763   0.5799   0.5812   0.5898   0.5939
  0.6076   0.6195   0.6258   0.6481   0.6546   0.6626   0.6787   0.6798
  0.6875   0.7067   0.7230   0.7326   0.7430   0.7564   0.7652   0.7784
  0.7877   0.7933   0.8012   0.8061   0.8214   0.8300   0.8408   0.8503
  0.8588   0.8728   0.8950   0.8963   0.9107   0.9264   0.9459   0.9509
  0.9589   0.9967   1.0086   1.0151   1.0352   1.0545   1.0792   1.0938
  1.1012   1.1172   1.1343   1.1486   1.1545   1.1645   1.1704   1.2175
  1.2281   1.2682   1.3082   1.3179   1.3392   1.3600   1.3912   1.4231
  1.4431   1.4640   1.4752   1.4931   1.5205   1.5536   1.5826   1.6034
  1.6706   1.6914   1.7150   1.7676   1.7953   1.8183   1.8522   1.8817
  1.9023   1.9160   1.9225   1.9293   1.9371   1.9474   1.9691   1.9859
  2.0020   2.0164   2.0196   2.0404   2.0870   2.0914   2.1527   2.1817
  2.1866   2.2108   2.2407   2.2673   2.2802   2.2935   2.3164   2.3438
  2.3620   2.4009   2.4387   2.4712   2.4814   2.5013   2.5509   2.5650
  2.5668   2.5924   2.6194   2.6525   2.6659   2.6674   2.6819   2.7131
  2.7277   2.7544   2.7999   2.8228   2.8447   2.8702   2.8861   2.9002
  2.9250   2.9353   2.9496   2.9732   3.0068   3.0572   3.1034   3.1427
  3.1591   3.1729   3.1891   3.2211   3.2261   3.2608   3.2879   3.3040
  3.3161   3.3250   3.3601   3.3689   3.3794   3.4189   3.4482   3.4747
  3.4987   3.5116   3.5234   3.5751   3.5912   3.6026   3.6235   3.6642
  3.7065   3.7179   3.7505   3.8493   3.8792   3.9610   3.9824   4.0131
  4.0596   4.0758   4.1115   4.1579   4.2097   4.2465   4.2800   4.3164
  4.3368   4.3694   4.4193   4.4304   4.5120   4.5840   4.6239   4.6341
  4.6595   4.8120   4.8556   4.8785   4.9001   4.9423   5.0153   5.0198
  5.0438   5.0879   5.1268   5.1375   5.1444   5.1777   5.2426   5.2780
  5.3299   5.3700   5.4087   5.4407   5.4602   5.4787   5.5132   5.5510
  5.5991   5.6726   5.7323   5.7935   5.8219   5.9374   6.1591   6.2315
  6.3970   6.5130  22.6274  22.8596  23.6702  32.3509  32.5110  32.9354
 --------------------------------------------------------------
 
          Ground-State Mulliken Net Atomic Charges

     Atom                 Charge (a.u.)
  ----------------------------------------
      1 C                    -0.536356
      2 C                    -0.777493
      3 C                     0.455109
      4 N                    -0.108685
      5 N                    -0.280046
      6 N                    -0.313923
      7 H                     0.264545
      8 H                     0.297843
      9 H                     0.259972
     10 H                     0.243044
     11 H                     0.289997
     12 H                     0.230469
     13 H                     0.242748
     14 H                     0.249516
     15 H                     0.238349
     16 H                     0.244911
  ----------------------------------------
  Sum of atomic charges =     1.000000

 -----------------------------------------------------------------
                    Cartesian Multipole Moments
 -----------------------------------------------------------------
    Charge (ESU x 10^10)
                 4.8032
    Dipole Moment (Debye)
         X      -9.5460      Y      12.6046      Z       0.9964
       Tot      15.8428
    Quadrupole Moments (Debye-Ang)
        XX      -5.2566     XY     -23.0550     YY      11.0433
        XZ      -6.6504     YZ       7.7183     ZZ     -35.8551
    Octopole Moments (Debye-Ang^2)
       XXX      96.1333    XXY       3.5607    XYY     -13.1150
       YYY     -13.0120    XXZ      39.0076    XYZ     -27.1144
       YYZ      48.9677    XZZ      65.4506    YZZ     -67.1565
       ZZZ      41.9605
    Hexadecapole Moments (Debye-Ang^3)
      XXXX    -532.9271   XXXY     148.7720   XXYY    -124.5249
      XYYY      76.6233   YYYY    -371.3713   XXXZ    -145.0421
      XXYZ      78.0599   XYYZ    -122.4311   YYYZ     127.8999
      XXZZ    -189.2523   XYZZ     120.1260   YYZZ    -237.8478
      XZZZ     -51.6995   YZZZ     -32.9577   ZZZZ    -313.7665
 -----------------------------------------------------------------
Archival summary:
1\1\nid00531\SP\ProcedureUnspecified\BasisUnspecified\3310(1+,1)\meili\MonSep2703:23:012021MonSep2703:23:012021\0\\#,ProcedureUnspecified,BasisUnspecified,\\1,1\N\H,1,1.02049\C,1,1.32812,2,114.901\N,3,1.31692,1,123.655,2,177.649,0\H,4,1.00553,3,119.842,1,0.407966,0\H,4,1.00838,3,120.376,1,179.527,0\N,3,1.32103,1,116.966,2,-1.57535,0\H,7,1.00674,3,121.829,1,-179.804,0\H,7,1.01864,3,116.842,1,1.79342,0\C,1,1.45327,2,117.8,3,177.971,0\H,10,1.09161,1,108.547,2,-16.8451,0\H,10,1.09166,1,109.252,2,-133.664,0\C,10,1.52423,1,113.723,2,103.896,0\H,13,1.08747,10,109.367,1,-64.2456,0\H,13,1.09016,10,110.086,1,55.2268,0\H,13,1.1,10,107.952,1,174.291,0\\\@

 Total job time:  22469.78s(wall), 44586.64s(cpu) 
 Mon Sep 27 03:23:03 2021

        *************************************************************
        *                                                           *
        *  Thank you very much for using Q-Chem.  Have a nice day.  *
        *                                                           *
        *************************************************************


Done Job For Fragment 1
calling putenv with: QCSCRATCH=/global/cscratch1/sd/meili 
calling putenv with: QCLOCALSCR=/tmp 
calling putenv with: QCTHREADS=32 
Doing General SCFMI
 Exchange:     0.1670 Hartree-Fock + 1.0000 wB97X-V + LR-HF
 Correlation:  1.0000 wB97X-V
 Using Euler-Maclaurin-Lebedev (99,590) quadrature formula
 Nonlocal Correlation:  VV10 with C = 0.0100 and b = 6.00 and scale = 1.00000
 Grid used for NLC:  SG-1 standard quadrature
performing fock build before subrot guess so that all methods have access
Printing subrot_rss_gen Method Specification:
Occupied Subspace Method is 0
Virtual Subspace Method is 0
Energy of the unrelaxed supersystem initial determinant -555.999342363828
performing fock build before subrot guess so that all methods have access
Printing subrot_rss_gen Method Specification:
Occupied Subspace Method is 0
Virtual Subspace Method is 0
Energy of the unrelaxed supersystem initial determinant w/ solvent -556.111422079429
write pseudocanon occs and virts to disk
write pseudocanon orbital energies to disk
Tolerance of ortho_decomp_scf: 1.00e-06
GDM subspace size: 20
Beginning the Orthogonal Decomposition of the Initial Supersystem Wavefunction
    1    -555.9835166575      1.62e-02     ortho_decomp Preconditoned Steepest Descent
    2    -555.9846475962      4.10e-04     ortho_decomp BFGS Step
    3    -555.9846510849      2.94e-05     ortho_decomp BFGS Step
    4    -555.9846510910      1.22e-06     ortho_decomp BFGS Step
    5    -555.9846510910      4.26e-08     ortho_decomp 00000 Convergence criterion met
 Hartree-Fock
 Hartree-Fock
 Hartree-Fock
Doing General SCFMI
 Exchange:     0.1670 Hartree-Fock + 1.0000 wB97X-V + LR-HF
 Correlation:  1.0000 wB97X-V
 Using Euler-Maclaurin-Lebedev (99,590) quadrature formula
 Nonlocal Correlation:  VV10 with C = 0.0100 and b = 6.00 and scale = 1.00000
 Grid used for NLC:  SG-1 standard quadrature
performing fock build at end of subrot_r(subrot) constructor so that all methods have access
<S^2> of initial wavefunction before polarization iterations 0.0000000000
Beginning iterations for the determination of the polarized wavefunction
Energy prior to optimization (guess energy) = -556.111422079429
Begin Timing: Total SCF Calculation
begin iterations for algorithm: DIIS         
the SCF tolerance is set to 1.00e-08
    1    -556.1114220794      3.08e-05     00000 
    2    -556.1115050869      1.26e-05     00000 
    3    -556.1115144483      6.50e-06     00000 
    4    -556.1115173146      1.76e-06     00000 
    5    -556.1115175941      1.03e-06     00000 
    6    -556.1115176853      3.57e-07     00000 
    7    -556.1115176987      1.72e-07     00000 
    8    -556.1115177008      7.69e-08     00000 
    9    -556.1115177011      3.23e-08     00000 
   10    -556.1115177011      1.50e-08     00000 
   11    -556.1115177011      5.53e-09     00000 Convergence criterion met
write pseudocanon occs and virts to disk
write pseudocanon orbital energies to disk
Timing for Total SCF: 8079.00s (wall), 16037.03s (cpu)
<S^2> of polarized wavefunction after polarization iterations 0.0000000000
relaxing scfmi constraint to allow all rotations in the entire AO span
Doing General SCFMI
 Exchange:     0.1670 Hartree-Fock + 1.0000 wB97X-V + LR-HF
 Correlation:  1.0000 wB97X-V
 Using Euler-Maclaurin-Lebedev (99,590) quadrature formula
 Nonlocal Correlation:  VV10 with C = 0.0100 and b = 6.00 and scale = 1.00000
 Grid used for NLC:  SG-1 standard quadrature
performing fock build at end of subrot_r(subrot) constructor so that all methods have access
<S^2> of polarized wavefunction before ct-allowed iterations 0.0000000000
Beginning iterations for the determination of the CT-Allowed wavefunction
Energy prior to optimization (guess energy) = -556.111517701122
Begin Timing: Total SCF Calculation
begin iterations for algorithm: DIIS         
the SCF tolerance is set to 1.00e-08
    1    -556.1115177011      5.31e-05     00000 
    2    -556.1120926183      5.45e-06     00000 
    3    -556.1121102670      9.83e-07     00000 
    4    -556.1121109232      4.40e-07     00000 
    5    -556.1121109720      1.15e-07     00000 
    6    -556.1121109782      4.19e-08     00000 
    7    -556.1121109787      1.23e-08     00000 
    8    -556.1121109788      3.81e-09     00000 Convergence criterion met
write pseudocanon occs and virts to disk
write pseudocanon orbital energies to disk
Timing for Total SCF: 5699.00s (wall), 11353.19s (cpu)
<S^2> of ct_allowed wavefunction after ct-allowed iterations 0.0000000000

================================
        Results of EDA2         
================================
Basic EDA Quantities
--------------------
Fragment Energies (Ha):
1 -271.5796539626
2 -284.5204533104
--------------------
  E_prp (kJ/mol) = 0.0000
  E_sol (kJ/mol) = 8.4653
  E_frz (kJ/mol) = -14.0716
  E_pol (kJ/mol) = -0.2511
  E_vct (kJ/mol) = -1.5577
  E_int (kJ/mol) = -7.4150
--------------------


Initial Wavefunction Decomposition
--------------------
  --------------------
  Orthogonal Fragment Subspace Decomposition:
  --------------------
     E_elec   (ELEC)   (kJ/mol) = -21.2717
     E_pauli  (PAULI)  (kJ/mol) = 18.9465
     E_disp   (DISP)   (kJ/mol) = -11.7463
     --------------------
     Terms summing to E_pauli:
     --------------------
        E_kep_pauli       (kJ/mol) = 24.5008
        E_disp_free_pauli (kJ/mol) = -5.5544
  --------------------
  Classical Frozen Decomposition:
  --------------------
     E_cls_elec  (CLS ELEC)  (kJ/mol) = -14.2736
     E_cls_pauli (CLS PAULI) (kJ/mol) = 0.2021
    [E_mod_pauli (MOD PAULI) (kJ/mol) = 11.9483 (CLS PAULI - DISP from orthogonal decomposition) ]
  --------------------
--------------------

Simplified EDA Summary (kJ/mol)
--------------------
 PREPARATION     0.0000
 SOLVATION       8.4653
 FROZEN          -2.3253      (does not include dispersion)
[PAULI           18.9465]     (if this is negligible, then frozen describes electrostatics)
 DISPERSION      -11.7463
 POLARIZATION    -0.2511
 CHARGE TRANSFER -1.5577
 TOTAL           -7.4150     (PRP + SOL + FRZ + DISP + POL + CT)
--------------------
 
 --------------------------------------------------------------
 
                    Orbital Energies (a.u.)
 --------------------------------------------------------------
 
 Alpha MOs
 -- Occupied --
-14.4527 -14.4496 -14.4442 -10.4221 -10.3068 -10.2773 -10.2694 -10.2682
-10.2662 -10.2658 -10.2630 -10.2551 -10.2514  -1.1735  -1.0579  -1.0421
 -0.9952  -0.9026  -0.8950  -0.8785  -0.8073  -0.7910  -0.7497  -0.7263
 -0.7181  -0.7022  -0.6809  -0.6248  -0.6228  -0.6079  -0.5969  -0.5751
 -0.5705  -0.5622  -0.5499  -0.5302  -0.5293  -0.5054  -0.5009  -0.4823
 -0.4814  -0.4701  -0.4534  -0.4385  -0.4338  -0.3993  -0.3728  -0.3489
 -0.3331
 -- Virtual --
  0.0559   0.0653   0.0682   0.0704   0.0788   0.0802   0.0929   0.0963
  0.1053   0.1086   0.1137   0.1158   0.1173   0.1307   0.1332   0.1393
  0.1451   0.1568   0.1595   0.1656   0.1696   0.1752   0.1819   0.1847
  0.1972   0.2009   0.2040   0.2072   0.2110   0.2117   0.2136   0.2220
  0.2259   0.2279   0.2369   0.2396   0.2484   0.2522   0.2574   0.2592
  0.2608   0.2656   0.2681   0.2722   0.2737   0.2790   0.2831   0.2865
  0.2902   0.2926   0.2943   0.2969   0.3009   0.3033   0.3096   0.3175
  0.3195   0.3254   0.3266   0.3304   0.3312   0.3347   0.3386   0.3429
  0.3445   0.3493   0.3502   0.3564   0.3579   0.3659   0.3664   0.3699
  0.3742   0.3778   0.3788   0.3818   0.3840   0.3905   0.3939   0.3951
  0.3968   0.3988   0.4025   0.4095   0.4124   0.4146   0.4201   0.4218
  0.4268   0.4290   0.4321   0.4366   0.4393   0.4416   0.4486   0.4527
  0.4536   0.4571   0.4590   0.4633   0.4647   0.4703   0.4721   0.4754
  0.4787   0.4822   0.4859   0.4922   0.4951   0.4979   0.5046   0.5064
  0.5097   0.5135   0.5161   0.5179   0.5202   0.5261   0.5275   0.5302
  0.5392   0.5407   0.5454   0.5477   0.5523   0.5567   0.5631   0.5668
  0.5696   0.5706   0.5756   0.5815   0.5869   0.5905   0.5926   0.5958
  0.6056   0.6093   0.6140   0.6203   0.6218   0.6262   0.6274   0.6318
  0.6353   0.6401   0.6456   0.6570   0.6665   0.6672   0.6734   0.6754
  0.6794   0.6842   0.6871   0.6912   0.6979   0.7030   0.7063   0.7105
  0.7140   0.7178   0.7251   0.7299   0.7373   0.7406   0.7497   0.7564
  0.7620   0.7627   0.7669   0.7717   0.7735   0.7789   0.7852   0.7895
  0.7911   0.7930   0.7973   0.8012   0.8063   0.8095   0.8149   0.8167
  0.8203   0.8263   0.8332   0.8390   0.8405   0.8448   0.8478   0.8489
  0.8541   0.8561   0.8564   0.8645   0.8696   0.8754   0.8796   0.8828
  0.8861   0.8902   0.8960   0.9010   0.9082   0.9168   0.9249   0.9263
  0.9326   0.9423   0.9461   0.9510   0.9634   0.9643   0.9790   0.9867
  0.9911   0.9985   1.0037   1.0208   1.0263   1.0307   1.0355   1.0515
  1.0569   1.0694   1.0792   1.0848   1.0948   1.1051   1.1082   1.1123
  1.1172   1.1286   1.1325   1.1399   1.1497   1.1573   1.1644   1.1698
  1.1750   1.1985   1.2098   1.2107   1.2232   1.2469   1.2565   1.2577
  1.2685   1.2955   1.3123   1.3202   1.3281   1.3420   1.3510   1.3560
  1.3603   1.3708   1.3842   1.3923   1.3981   1.4275   1.4342   1.4499
  1.4597   1.4688   1.4836   1.4898   1.4954   1.4979   1.5162   1.5274
  1.5414   1.5450   1.5533   1.5737   1.5860   1.6017   1.6078   1.6204
  1.6320   1.6414   1.6499   1.6793   1.6893   1.6942   1.7155   1.7477
  1.7838   1.7877   1.7919   1.8101   1.8147   1.8169   1.8248   1.8333
  1.8455   1.8828   1.9007   1.9112   1.9208   1.9251   1.9290   1.9406
  1.9456   1.9492   1.9602   1.9634   1.9681   1.9753   1.9806   1.9872
  1.9996   2.0036   2.0108   2.0253   2.0334   2.0349   2.0412   2.0487
  2.0515   2.0664   2.0791   2.0860   2.1062   2.1116   2.1351   2.1412
  2.1534   2.1603   2.1799   2.1990   2.2037   2.2147   2.2180   2.2261
  2.2472   2.2515   2.2655   2.2730   2.2794   2.2878   2.3069   2.3186
  2.3236   2.3266   2.3530   2.3623   2.3712   2.3897   2.4091   2.4159
  2.4252   2.4306   2.4392   2.4649   2.5045   2.5054   2.5190   2.5318
  2.5527   2.5600   2.5738   2.5789   2.5837   2.6044   2.6066   2.6228
  2.6293   2.6410   2.6503   2.6678   2.6722   2.6908   2.6968   2.6977
  2.7102   2.7190   2.7236   2.7375   2.7505   2.7626   2.7810   2.7904
  2.8143   2.8189   2.8261   2.8358   2.8394   2.8602   2.8648   2.8776
  2.8801   2.8985   2.9084   2.9208   2.9236   2.9338   2.9408   2.9530
  2.9627   2.9665   2.9754   2.9840   2.9898   3.0049   3.0133   3.0302
  3.0320   3.0458   3.0526   3.0711   3.0849   3.0961   3.1043   3.1188
  3.1374   3.1509   3.1635   3.1718   3.1883   3.2097   3.2229   3.2318
  3.2338   3.2415   3.2473   3.2612   3.2742   3.2805   3.2907   3.3027
  3.3173   3.3286   3.3333   3.3406   3.3502   3.3655   3.3787   3.3824
  3.3926   3.3990   3.4078   3.4266   3.4380   3.4471   3.4546   3.4710
  3.4730   3.4814   3.4903   3.4956   3.5064   3.5128   3.5223   3.5295
  3.5404   3.5457   3.5528   3.5552   3.5599   3.5731   3.5796   3.5877
  3.5952   3.6090   3.6185   3.6227   3.6236   3.6305   3.6431   3.6659
  3.6706   3.6828   3.7081   3.7133   3.7267   3.7334   3.7361   3.7771
  3.8073   3.8262   3.8535   3.8724   3.8943   3.9100   3.9246   3.9747
  3.9755   3.9847   3.9994   4.0165   4.0225   4.0530   4.0787   4.0851
  4.1075   4.1274   4.1507   4.1707   4.2173   4.2319   4.2560   4.2773
  4.2880   4.2917   4.3174   4.3240   4.3363   4.3412   4.3438   4.3533
  4.3717   4.3767   4.3826   4.3931   4.4242   4.4368   4.4412   4.4537
  4.4650   4.5148   4.5211   4.5529   4.5944   4.6221   4.6343   4.6475
  4.6553   4.6897   4.7688   4.7870   4.8369   4.8446   4.8660   4.8897
  4.9119   4.9156   4.9217   4.9522   4.9732   5.0316   5.0355   5.0549
  5.0609   5.0747   5.0965   5.1325   5.1479   5.1580   5.1811   5.1962
  5.2545   5.2748   5.2943   5.3400   5.3775   5.3822   5.3848   5.4152
  5.4453   5.4703   5.4913   5.5091   5.5176   5.5374   5.5651   5.6083
  5.6821   5.6876   5.7457   5.8016   5.8167   5.8339   5.9521   6.1722
  6.2398   6.4088   6.5203  22.6428  22.6625  22.7134  22.9277  22.9348
 22.9511  23.0500  23.1046  23.4378  23.6844  32.3746  32.5374  32.9931
 --------------------------------------------------------------
 
          Ground-State Mulliken Net Atomic Charges

     Atom                 Charge (a.u.)
  ----------------------------------------
      1 C                    -1.184109
      2 C                    -0.442129
      3 C                    -0.509649
      4 C                    -0.455947
      5 C                    -0.467499
      6 C                    -0.454559
      7 C                     0.693716
      8 H                     0.403759
      9 H                     0.379610
     10 H                     0.360969
     11 H                     0.427586
     12 H                     0.401959
     13 H                     0.311753
     14 H                     0.291497
     15 H                     0.252763
     16 C                    -0.324096
     17 C                    -0.964022
     18 C                     0.442674
     19 N                    -0.066631
     20 N                    -0.255133
     21 N                    -0.315045
     22 H                     0.259847
     23 H                     0.151238
     24 H                     0.253599
     25 H                     0.256967
     26 H                     0.303111
     27 H                     0.223483
     28 H                     0.248083
     29 H                     0.246453
     30 H                     0.239148
     31 H                     0.290605
  ----------------------------------------
  Sum of atomic charges =     1.000000

 -----------------------------------------------------------------
                    Cartesian Multipole Moments
 -----------------------------------------------------------------
    Charge (ESU x 10^10)
                 4.8032
    Dipole Moment (Debye)
         X      -9.0018      Y      12.6820      Z       0.8629
       Tot      15.5760
    Quadrupole Moments (Debye-Ang)
        XX     -42.3601     XY     -21.8532     YY     -30.0322
        XZ      -9.1712     YZ      11.9500     ZZ     -77.8377
    Octopole Moments (Debye-Ang^2)
       XXX    -116.8359    XXY      79.0550    XYY     -95.2891
       YYY     221.9225    XXZ      23.3640    XYZ     -15.9997
       YYZ      21.2398    XZZ     -13.4580    YZZ      16.5195
       ZZZ       6.3454
    Hexadecapole Moments (Debye-Ang^3)
      XXXX   -1857.1562   XXXY     498.3221   XXYY    -543.9465
      XYYY     474.5352   YYYY   -1512.9547   XXXZ    -146.1150
      XXYZ     106.6735   XYYZ    -151.4973   YYYZ     211.9554
      XXZZ    -458.6424   XYZZ     249.1514   YYZZ    -476.6695
      XZZZ     -55.9731   YZZZ       3.1444   ZZZZ    -543.8321
 -----------------------------------------------------------------
Archival summary:
1\1\nid00531\SP\ProcedureUnspecified\BasisUnspecified\31018(1+,1)\meili\MonSep2710:35:072021MonSep2710:35:072021\0\\#,ProcedureUnspecified,BasisUnspecified,\\1,1\N\H,1,1.02049\C,1,1.32812,2,114.901\N,3,1.31692,1,123.655,2,177.649,0\H,4,1.00553,3,119.842,1,0.407966,0\H,4,1.00838,3,120.376,1,179.527,0\N,3,1.32103,1,116.966,2,-1.57535,0\H,7,1.00674,3,121.829,1,-179.804,0\H,7,1.01864,3,116.842,1,1.79342,0\C,1,1.45327,2,117.8,3,177.971,0\H,10,1.09161,1,108.547,2,-16.8451,0\H,10,1.09166,1,109.252,2,-133.664,0\C,10,1.52423,1,113.723,2,103.896,0\H,13,1.08747,10,109.367,1,-64.2456,0\H,13,1.09016,10,110.086,1,55.2268,0\H,13,1.1,10,107.952,1,174.291,0\C,12,2.73972,10,140.843,1,113.536,0\H,17,1.08053,12,79.8599,10,-81.9193,0\C,17,1.39226,12,100.791,10,158.585,0\H,19,1.08174,17,119.915,12,84.5037,0\C,17,1.39377,12,89.9896,10,39.1112,0\H,21,1.08225,17,119.26,12,-78.6511,0\C,21,1.39612,17,121.35,12,102,0\H,23,1.08008,21,120.58,17,179.333,0\C,23,1.37709,21,119.133,17,-0.313823,0\H,25,1.07862,23,119.519,21,-178.531,0\C,25,1.38929,23,120.55,21,0.586014,0\C,27,1.49986,25,120.589,23,178.46,0\H,28,1.07835,27,107.175,25,39.4886,0\H,28,1.0837,27,109.495,25,156.493,0\H,28,1.1,27,114.091,25,-80.6417,0\\\@

 Total job time:  76976.94s(wall), 51627.11s(cpu) 
 Mon Sep 27 10:35:10 2021

        *************************************************************
        *                                                           *
        *  Thank you very much for using Q-Chem.  Have a nice day.  *
        *                                                           *
        *************************************************************


