
Running Job 1 of 1 SSI-099ARG-149ASN-1_SMD_TZVPD.in
qchem SSI-099ARG-149ASN-1_SMD_TZVPD.in_47924.0 /tmp/qchem47924/ 0
/global/common/cori/software/qchem/5.2/exe/qcprog.exe_s SSI-099ARG-149ASN-1_SMD_TZVPD.in_47924.0 /tmp/qchem47924/
                  Welcome to Q-Chem
     A Quantum Leap Into The Future Of Chemistry


 Q-Chem 5.2, Q-Chem, Inc., Pleasanton, CA (2019)

 License issued to: National Energy Research Scientific Computing Center

 Yihan Shao,  Zhengting Gan,  E. Epifanovsky,  A. T. B. Gilbert,  M. Wormit,  
 J. Kussmann,  A. W. Lange,  A. Behn,  Jia Deng,  Xintian Feng,  D. Ghosh,  
 M. Goldey,  P. R. Horn,  L. D. Jacobson,  I. Kaliman,  T. Kus,  A. Landau,  
 Jie Liu,  E. I. Proynov,  R. M. Richard,  R. P. Steele,  E. J. Sundstrom,  
 H. L. Woodcock III,  P. M. Zimmerman,  D. Zuev,  B. Albrecht,  E. Alguire,  
 S. A. Baeppler,  D. Barton,  Z. Benda,  Y. A. Bernard,  E. J. Berquist,  
 K. B. Bravaya,  H. Burton,  D. Casanova,  Chun-Min Chang,  Yunqing Chen,  
 A. Chien,  K. D. Closser,  M. P. Coons,  S. Coriani,  S. Dasgupta,  
 A. L. Dempwolff,  M. Diedenhofen,  Hainam Do,  R. G. Edgar,  Po-Tung Fang,  
 S. Faraji,  S. Fatehi,  Qingguo Feng,  K. D. Fenk,  J. Fosso-Tande,  
 J. Gayvert,  Qinghui Ge,  A. Ghysels,  G. Gidofalvi,  J. Gomes,  
 J. Gonthier,  A. Gunina,  D. Hait,  M. W. D. Hanson-Heine,  
 P. H. P. Harbach,  A. W. Hauser,  M. F. Herbst,  J. E. Herr,  
 E. G. Hohenstein,  Z. C. Holden,  Kerwin Hui,  B. C. Huynh,  T.-C. Jagau,  
 Hyunjun Ji,  B. Kaduk,  K. Khistyaev,  Jaehoon Kim,  P. Klunzinger,  K. Koh,  
 D. Kosenkov,  L. Koulias,  T. Kowalczyk,  C. M. Krauter,  A. Kunitsa,  
 Ka Un Lao,  A. Laurent,  K. V. Lawler,  Joonho Lee,  D. Lefrancois,  
 S. Lehtola,  D. S. Levine,  Yi-Pei Li,  You-Sheng Lin,  Fenglai Liu,  
 E. Livshits,  A. Luenser,  P. Manohar,  E. Mansoor,  S. F. Manzer,  
 Shan-Ping Mao,  Yuezhi Mao,  N. Mardirossian,  A. V. Marenich,  
 T. Markovich,  L. A. Martinez-Martinez,  S. A. Maurer,  N. J. Mayhall,  
 S. C. McKenzie,  J.-M. Mewes,  P. Morgante,  A. F. Morrison,  
 J. W. Mullinax,  K. Nanda,  T. S. Nguyen-Beck,  R. Olivares-Amaya,  
 J. A. Parkhill,  Zheng Pei,  T. M. Perrine,  F. Plasser,  P. Pokhilko,  
 S. Prager,  A. Prociuk,  E. Ramos,  D. R. Rehn,  F. Rob,  M. Scheurer,  
 M. Schneider,  N. Sergueev,  S. M. Sharada,  S. Sharma,  D. W. Small,  
 T. Stauch,  T. Stein,  Yu-Chuan Su,  A. J. W. Thom,  A. Tkatchenko,  
 T. Tsuchimochi,  N. M. Tubman,  L. Vogt,  M. L. Vidal,  O. Vydrov,  
 M. A. Watson,  J. Wenzel,  M. de Wergifosse,  T. A. Wesolowski,  A. White,  
 J. Witte,  A. Yamada,  Jun Yang,  K. Yao,  S. Yeganeh,  S. R. Yost,  
 Zhi-Qiang You,  A. Zech,  Igor Ying Zhang,  Xing Zhang,  Yan Zhao,  
 Ying Zhu,  B. R. Brooks,  G. K. L. Chan,  C. J. Cramer,  M. S. Gordon,  
 W. J. Hehre,  A. Klamt,  M. W. Schmidt,  C. D. Sherrill,  D. G. Truhlar,  
 A. Aspuru-Guzik,  R. Baer,  A. T. Bell,  N. A. Besley,  Jeng-Da Chai,  
 A. E. DePrince, III,  R. A. DiStasio Jr.,  A. Dreuw,  B. D. Dunietz,  
 T. R. Furlani,  Chao-Ping Hsu,  Yousung Jung,  Jing Kong,  D. S. Lambrecht,  
 WanZhen Liang,  C. Ochsenfeld,  V. A. Rassolov,  L. V. Slipchenko,  
 J. E. Subotnik,  T. Van Voorhis,  J. M. Herbert,  A. I. Krylov,  
 P. M. W. Gill,  M. Head-Gordon

 Contributors to earlier versions of Q-Chem not listed above: 
 R. D. Adamson,  B. Austin,  J. Baker,  G. J. O. Beran,  K. Brandhorst,  
 S. T. Brown,  E. F. C. Byrd,  A. K. Chakraborty,  C.-L. Cheng,  
 Siu Hung Chien,  D. M. Chipman,  D. L. Crittenden,  H. Dachsel,  
 R. J. Doerksen,  A. D. Dutoi,  L. Fusti-Molnar,  W. A. Goddard III,  
 A. Golubeva-Zadorozhnaya,  S. R. Gwaltney,  G. Hawkins,  A. Heyden,  
 S. Hirata,  G. Kedziora,  F. J. Keil,  C. Kelley,  Jihan Kim,  R. A. King,  
 R. Z. Khaliullin,  P. P. Korambath,  W. Kurlancheek,  A. M. Lee,  M. S. Lee,  
 S. V. Levchenko,  Ching Yeh Lin,  D. Liotard,  R. C. Lochan,  I. Lotan,  
 P. E. Maslen,  N. Nair,  D. P. O'Neill,  D. Neuhauser,  E. Neuscamman,  
 C. M. Oana,  R. Olson,  B. Peters,  R. Peverati,  P. A. Pieniazek,  
 Y. M. Rhee,  J. Ritchie,  M. A. Rohrdanz,  E. Rosta,  N. J. Russ,  
 H. F. Schaefer III,  N. E. Schultz,  N. Shenvi,  A. C. Simmonett,  A. Sodt,  
 D. Stuck,  K. S. Thanthiriwatte,  V. Vanovschi,  Tao Wang,  A. Warshel,  
 C. F. Williams,  Q. Wu,  X. Xu,  W. Zhang

 Please cite Q-Chem as follows:
 Y. Shao et al., Mol. Phys. 113, 184-215 (2015)
 DOI: 10.1080/00268976.2014.952696

 Q-Chem 5.2.0 for Intel X86 EM64T Linux

 Parts of Q-Chem use Armadillo 8.300.2 (Tropical Shenanigans).
 http://arma.sourceforge.net/

 Q-Chem begins on Sun Sep 26 12:48:40 2021  

Host: cori01
0

     Scratch files written to /tmp/qchem47924//
 May1019 |scratch|qcdevops|jenkins|workspace|build_RNUM -1
Processing $rem in /global/common/cori/software/qchem/5.2/config/preferences:
	 MEM_TOTAL  96000 
NAlpha2: 72
NElect   72
Mult     1
Symmetry turned off for PCM/SM12/SMD calculation

 Q-Chem warning in module libgen/rem_setup.C, line 2803:

 Neither GIA nor STOLL is specified by user. Use STOLL as the default


Checking the input file for inconsistencies... 	...done.

--------------------------------------------------------------
User input:
--------------------------------------------------------------
$comment
SSI-099ARG-149ASN-1.pdb
$end

$molecule
1 1
--
1 1
C   -2.081772871402    1.456784099475    0.166653673498
C   -0.893772871402    0.083784099475    1.875653673498
N    0.252227128598    0.183784099475    1.237653673498
N   -1.995772871402    0.649784099475    1.388653673498
N   -0.947772871402   -0.582215900525    2.995653673498
H    0.358227128598    0.741784099475    0.419653673498
H    1.100227128598   -0.235215900525    1.649653673498
H   -2.840772871402    0.538784099475    1.939653673498
H   -1.815772871402   -1.014215900525    3.224653673498
H   -0.083772871402   -0.992215900525    3.373653673498
H   -1.137772871402    1.453784099475   -0.378346326502
H   -2.286772871402    2.497784099475    0.432653673498
H   -2.857142871402    1.078464099475   -0.515756326502
--
0 1
C    0.402227128598   -0.073215900525   -2.899346326502
C    1.439227128598   -0.511215900525   -1.884346326502
O    1.659227128598   -1.699215900525   -1.694346326502
N    2.094227128598    0.458784099475   -1.246346326502
H    2.726227128598    0.192784099475   -0.498346326502
H    1.918227128598    1.427784099475   -1.477346326502
H   -0.272772871402    0.655784099475   -2.456346326502
H   -0.200772871402   -0.945215900525   -3.157346326502
H    0.859137128598    0.316264099475   -3.821046326502
$end

$rem
JOBTYPE			EDA
EDA2			1
method			wB97X-V
BASIS			def2-TZVPD
XC_GRID			000099000590
NL_GRID			1
UNRESTRICTED		FALSE
MAX_SCF_CYCLES		200
SYMMETRY		FALSE
SYM_IGNORE		TRUE
MEM_STATIC		2000
BASIS_LIN_DEP_THRESH 	6
THRESH 			14
SCF_CONVERGENCE 	8
SCF_PRINT_FRGM 		TRUE
SOLVENT_METHOD          SMD
$end

$SMX
SOLVENT			WATER
$END
--------------------------------------------------------------
 ----------------------------------------------------------------
             Standard Nuclear Orientation (Angstroms)
    I     Atom           X                Y                Z
 ----------------------------------------------------------------
    1      C      -2.0817728714     1.4567840995     0.1666536735
    2      C      -0.8937728714     0.0837840995     1.8756536735
    3      N       0.2522271286     0.1837840995     1.2376536735
    4      N      -1.9957728714     0.6497840995     1.3886536735
    5      N      -0.9477728714    -0.5822159005     2.9956536735
    6      H       0.3582271286     0.7417840995     0.4196536735
    7      H       1.1002271286    -0.2352159005     1.6496536735
    8      H      -2.8407728714     0.5387840995     1.9396536735
    9      H      -1.8157728714    -1.0142159005     3.2246536735
   10      H      -0.0837728714    -0.9922159005     3.3736536735
   11      H      -1.1377728714     1.4537840995    -0.3783463265
   12      H      -2.2867728714     2.4977840995     0.4326536735
   13      H      -2.8571428714     1.0784640995    -0.5157563265
   14      C       0.4022271286    -0.0732159005    -2.8993463265
   15      C       1.4392271286    -0.5112159005    -1.8843463265
   16      O       1.6592271286    -1.6992159005    -1.6943463265
   17      N       2.0942271286     0.4587840995    -1.2463463265
   18      H       2.7262271286     0.1927840995    -0.4983463265
   19      H       1.9182271286     1.4277840995    -1.4773463265
   20      H      -0.2727728714     0.6557840995    -2.4563463265
   21      H      -0.2007728714    -0.9452159005    -3.1573463265
   22      H       0.8591371286     0.3162640995    -3.8210463265
 ----------------------------------------------------------------
 Nuclear Repulsion Energy =         468.48907656 hartrees
 There are       36 alpha and       36 beta electrons
 Requested basis set is def2-TZVPD
 There are 183 shells and 453 basis functions

 Total QAlloc Memory Limit  96000 MB
 Mega-Array Size      1956 MB
 MEM_STATIC part      2000 MB
 
 Citation of the SMD model:
 Marenich, A.V.; Cramer, C.J.; Truhlar, D.G.
 J. Phys. Chem. B 2009, 113, 6378-6396.
 iSolventCode=           1
 Solvent: water                                                           
 
 vradii
            1           2           3           4           5           6
    1   1.8500000   1.8500000   1.8900000   1.8900000   1.8900000   1.2000000
            7           8           9          10          11          12
    1   1.2000000   1.2000000   1.2000000   1.2000000   1.2000000   1.2000000
           13          14          15          16          17          18
    1   1.2000000   1.8500000   1.8500000   1.5200000   1.8900000   1.2000000
           19          20          21          22
    1   1.2000000   1.2000000   1.2000000   1.2000000
 Changing PCM_VDW_RADII to SMD_RADIUS
 Discretize the solute cavity surface with Lebedev spheres
	Using 110 Lebedev grid points for each H atom
	Using 194 Lebedev grid points for other atoms
	Atomic van der Waals radii will be scaled by 1.20
 Remove points where switching function is < 1.0e-08
 Keep 1610 surface tesserae and discard 1566 interior tesserae
 Molecular Surface Area = 193.328 Angst**2
 A cutoff of  1.0D-14 yielded  15154 shell pairs
 There are     92972 function pairs (    115774 Cartesian)
 Smallest overlap matrix eigenvalue = 6.42E-06

 Scale SEOQF with 1.000000e-01/1.000000e-01/1.000000e-01

 Standard Electronic Orientation quadrupole field applied
 Nucleus-field energy     =    -0.0000000191 hartrees

 -----------------------------------------------------------------------
  General SCF calculation program by
  Eric Jon Sundstrom, Paul Horn, Yuezhi Mao, Dmitri Zuev, Alec White,
  David Stuck, Shaama M.S., Shane Yost, Joonho Lee, David Small,
  Daniel Levine, Susi Lehtola, Hugh Burton, Evgeny Epifanovsky
 -----------------------------------------------------------------------
================================================================
                 ALMO-EDA with the EDA2 driver                  
================================================================
 The second-generation ALMO-EDA (for DFT):                      
 P. R. Horn, Y. Mao and M. Head-Gordon, PCCP, 18, 23067 (2016)  
 Decomposition of the frozen energy:                            
 P. R. Horn, Y. Mao and M. Head-Gordon, JCP, 144, 114107 (2016) 
 FERF model for polarization:                                   
 P. R. Horn and M. Head-Gordon, JCP, 143, 114111 (2015)         
Using eda2 option set 1
Option set summary: Frozen orbital wavefunction, initial wavefunction decomposition, and nDQ polarization.
--------------------------------
Printing EDA Options
--------------------------------
eda_child_super_basis      0
fragmo_guess_mode          0
child_mp                   1
child_mp_orders            232
cls_elec                   1
cls_disp                   0
scfmi_mode                 1
scfmi_occs                 0
scfmi_virts                0
frz_relax                  0
frz_relax_method           0
dc_pen_start               0
dc_pen_conv                0
dc_pen_increment           0
dc_pen_steps               0
dc_pen_thresh_factor       0
dc_pen_pre_newton_thresh   0
frz_ortho_decomp           1
frz_ortho_decomp_conv      6
frgm_method                2
scfmi_freeze_ss            0
separate_rehyb             0
plot_diff_den              0
eda_nocv                   0
eda_vct_relax              1
disp_free_x                0
disp_free_c                0
eda_bsse                   0
eda_pct_a                  0
eda_covp                   0
--------------------------------
Attempting to make child job directory: /tmp/qchem47924//Frg1/
Attempting to make child job directory: /tmp/qchem47924//Frg2/
Creating input file /tmp/qchem47924/Frg1.input
using default PutDataFrgm: nothing
calling putenv with: QCSCRATCH=/tmp/qchem47924/ 
calling putenv with: QCLOCALSCR=/tmp/qchem47924/ 
Spawning Job For Fragment 0
                  Welcome to Q-Chem
     A Quantum Leap Into The Future Of Chemistry


 Q-Chem 5.2, Q-Chem, Inc., Pleasanton, CA (2019)

 License issued to: National Energy Research Scientific Computing Center

 Yihan Shao,  Zhengting Gan,  E. Epifanovsky,  A. T. B. Gilbert,  M. Wormit,  
 J. Kussmann,  A. W. Lange,  A. Behn,  Jia Deng,  Xintian Feng,  D. Ghosh,  
 M. Goldey,  P. R. Horn,  L. D. Jacobson,  I. Kaliman,  T. Kus,  A. Landau,  
 Jie Liu,  E. I. Proynov,  R. M. Richard,  R. P. Steele,  E. J. Sundstrom,  
 H. L. Woodcock III,  P. M. Zimmerman,  D. Zuev,  B. Albrecht,  E. Alguire,  
 S. A. Baeppler,  D. Barton,  Z. Benda,  Y. A. Bernard,  E. J. Berquist,  
 K. B. Bravaya,  H. Burton,  D. Casanova,  Chun-Min Chang,  Yunqing Chen,  
 A. Chien,  K. D. Closser,  M. P. Coons,  S. Coriani,  S. Dasgupta,  
 A. L. Dempwolff,  M. Diedenhofen,  Hainam Do,  R. G. Edgar,  Po-Tung Fang,  
 S. Faraji,  S. Fatehi,  Qingguo Feng,  K. D. Fenk,  J. Fosso-Tande,  
 J. Gayvert,  Qinghui Ge,  A. Ghysels,  G. Gidofalvi,  J. Gomes,  
 J. Gonthier,  A. Gunina,  D. Hait,  M. W. D. Hanson-Heine,  
 P. H. P. Harbach,  A. W. Hauser,  M. F. Herbst,  J. E. Herr,  
 E. G. Hohenstein,  Z. C. Holden,  Kerwin Hui,  B. C. Huynh,  T.-C. Jagau,  
 Hyunjun Ji,  B. Kaduk,  K. Khistyaev,  Jaehoon Kim,  P. Klunzinger,  K. Koh,  
 D. Kosenkov,  L. Koulias,  T. Kowalczyk,  C. M. Krauter,  A. Kunitsa,  
 Ka Un Lao,  A. Laurent,  K. V. Lawler,  Joonho Lee,  D. Lefrancois,  
 S. Lehtola,  D. S. Levine,  Yi-Pei Li,  You-Sheng Lin,  Fenglai Liu,  
 E. Livshits,  A. Luenser,  P. Manohar,  E. Mansoor,  S. F. Manzer,  
 Shan-Ping Mao,  Yuezhi Mao,  N. Mardirossian,  A. V. Marenich,  
 T. Markovich,  L. A. Martinez-Martinez,  S. A. Maurer,  N. J. Mayhall,  
 S. C. McKenzie,  J.-M. Mewes,  P. Morgante,  A. F. Morrison,  
 J. W. Mullinax,  K. Nanda,  T. S. Nguyen-Beck,  R. Olivares-Amaya,  
 J. A. Parkhill,  Zheng Pei,  T. M. Perrine,  F. Plasser,  P. Pokhilko,  
 S. Prager,  A. Prociuk,  E. Ramos,  D. R. Rehn,  F. Rob,  M. Scheurer,  
 M. Schneider,  N. Sergueev,  S. M. Sharada,  S. Sharma,  D. W. Small,  
 T. Stauch,  T. Stein,  Yu-Chuan Su,  A. J. W. Thom,  A. Tkatchenko,  
 T. Tsuchimochi,  N. M. Tubman,  L. Vogt,  M. L. Vidal,  O. Vydrov,  
 M. A. Watson,  J. Wenzel,  M. de Wergifosse,  T. A. Wesolowski,  A. White,  
 J. Witte,  A. Yamada,  Jun Yang,  K. Yao,  S. Yeganeh,  S. R. Yost,  
 Zhi-Qiang You,  A. Zech,  Igor Ying Zhang,  Xing Zhang,  Yan Zhao,  
 Ying Zhu,  B. R. Brooks,  G. K. L. Chan,  C. J. Cramer,  M. S. Gordon,  
 W. J. Hehre,  A. Klamt,  M. W. Schmidt,  C. D. Sherrill,  D. G. Truhlar,  
 A. Aspuru-Guzik,  R. Baer,  A. T. Bell,  N. A. Besley,  Jeng-Da Chai,  
 A. E. DePrince, III,  R. A. DiStasio Jr.,  A. Dreuw,  B. D. Dunietz,  
 T. R. Furlani,  Chao-Ping Hsu,  Yousung Jung,  Jing Kong,  D. S. Lambrecht,  
 WanZhen Liang,  C. Ochsenfeld,  V. A. Rassolov,  L. V. Slipchenko,  
 J. E. Subotnik,  T. Van Voorhis,  J. M. Herbert,  A. I. Krylov,  
 P. M. W. Gill,  M. Head-Gordon

 Contributors to earlier versions of Q-Chem not listed above: 
 R. D. Adamson,  B. Austin,  J. Baker,  G. J. O. Beran,  K. Brandhorst,  
 S. T. Brown,  E. F. C. Byrd,  A. K. Chakraborty,  C.-L. Cheng,  
 Siu Hung Chien,  D. M. Chipman,  D. L. Crittenden,  H. Dachsel,  
 R. J. Doerksen,  A. D. Dutoi,  L. Fusti-Molnar,  W. A. Goddard III,  
 A. Golubeva-Zadorozhnaya,  S. R. Gwaltney,  G. Hawkins,  A. Heyden,  
 S. Hirata,  G. Kedziora,  F. J. Keil,  C. Kelley,  Jihan Kim,  R. A. King,  
 R. Z. Khaliullin,  P. P. Korambath,  W. Kurlancheek,  A. M. Lee,  M. S. Lee,  
 S. V. Levchenko,  Ching Yeh Lin,  D. Liotard,  R. C. Lochan,  I. Lotan,  
 P. E. Maslen,  N. Nair,  D. P. O'Neill,  D. Neuhauser,  E. Neuscamman,  
 C. M. Oana,  R. Olson,  B. Peters,  R. Peverati,  P. A. Pieniazek,  
 Y. M. Rhee,  J. Ritchie,  M. A. Rohrdanz,  E. Rosta,  N. J. Russ,  
 H. F. Schaefer III,  N. E. Schultz,  N. Shenvi,  A. C. Simmonett,  A. Sodt,  
 D. Stuck,  K. S. Thanthiriwatte,  V. Vanovschi,  Tao Wang,  A. Warshel,  
 C. F. Williams,  Q. Wu,  X. Xu,  W. Zhang

 Please cite Q-Chem as follows:
 Y. Shao et al., Mol. Phys. 113, 184-215 (2015)
 DOI: 10.1080/00268976.2014.952696

 Q-Chem 5.2.0 for Intel X86 EM64T Linux

 Parts of Q-Chem use Armadillo 8.300.2 (Tropical Shenanigans).
 http://arma.sourceforge.net/

 Q-Chem begins on Sun Sep 26 12:48:44 2021  

Host: cori01
0

     Scratch files written to /tmp/qchem47924//Frg1//
 May1019 |scratch|qcdevops|jenkins|workspace|build_RNUM -1
Processing $rem in /global/common/cori/software/qchem/5.2/config/preferences:
	 MEM_TOTAL  96000 
NAlpha2: 40
NElect   40
Mult     1
Symmetry turned off for PCM/SM12/SMD calculation

Checking the input file for inconsistencies... 	...done.

--------------------------------------------------------------
User input:
--------------------------------------------------------------
$molecule
1 1
 6	-2.0817728714	1.4567840995	0.1666536735
 6	-0.8937728714	0.0837840995	1.8756536735
 7	0.2522271286	0.1837840995	1.2376536735
 7	-1.9957728714	0.6497840995	1.3886536735
 7	-0.9477728714	-0.5822159005	2.9956536735
 1	0.3582271286	0.7417840995	0.4196536735
 1	1.1002271286	-0.2352159005	1.6496536735
 1	-2.8407728714	0.5387840995	1.9396536735
 1	-1.8157728714	-1.0142159005	3.2246536735
 1	-0.0837728714	-0.9922159005	3.3736536735
 1	-1.1377728714	1.4537840995	-0.3783463265
 1	-2.2867728714	2.4977840995	0.4326536735
 1	-2.8571428714	1.0784640995	-0.5157563265
$end
$rem
EDA2		1
METHOD		WB97X-V
BASIS		DEF2-TZVPD
XC_GRID		000099000590
NL_GRID		1
UNRESTRICTED		FALSE
MAX_SCF_CYCLES		200
SYMMETRY		FALSE
SYM_IGNORE		TRUE
BASIS_LIN_DEP_THRESH		6
THRESH		14
SCF_CONVERGENCE		8
SCF_PRINT_FRGM		TRUE
SOLVENT_METHOD		SMD
!required keywords
JOBTYPE		SP
SYM_IGNORE		TRUE
SUBSYSTEM		TRUE
GEN_SCFMAN		TRUE
CHILD_INSTRUCTION		2
SYM_IGNORE		TRUE
SCFMI		0
RI_K 0		
PARI_K 0		
MIN_PARI_K 0		
IARI_K 0		
OCC_RI_K 0		
PURECART		1111
MEM_STATIC		2000
MEM_TOTAL		96000
GUI		0
CHILD_MP		1
CHILD_MP_ORDERS		232
FRZ_RELAX		0
FRZ_RELAX_METHOD		0
EDA_CLS_ELEC		1
EDA_CLS_DISP		0
FRZ_ORTHO_DECOMP		1
EDA2		FALSE
FRGM_METHOD		FALSE
CIS_N_ROOTS  0
LOCAL_CIS    0
CIS_RLX_DNS  1
$end
$smx
SOLVENT			WATER
$end
--------------------------------------------------------------
 ----------------------------------------------------------------
             Standard Nuclear Orientation (Angstroms)
    I     Atom           X                Y                Z
 ----------------------------------------------------------------
    1      C      -2.0817728714     1.4567840995     0.1666536735
    2      C      -0.8937728714     0.0837840995     1.8756536735
    3      N       0.2522271286     0.1837840995     1.2376536735
    4      N      -1.9957728714     0.6497840995     1.3886536735
    5      N      -0.9477728714    -0.5822159005     2.9956536735
    6      H       0.3582271286     0.7417840995     0.4196536735
    7      H       1.1002271286    -0.2352159005     1.6496536735
    8      H      -2.8407728714     0.5387840995     1.9396536735
    9      H      -1.8157728714    -1.0142159005     3.2246536735
   10      H      -0.0837728714    -0.9922159005     3.3736536735
   11      H      -1.1377728714     1.4537840995    -0.3783463265
   12      H      -2.2867728714     2.4977840995     0.4326536735
   13      H      -2.8571428714     1.0784640995    -0.5157563265
 ----------------------------------------------------------------
 Nuclear Repulsion Energy =         194.34203360 hartrees
 There are       20 alpha and       20 beta electrons
 Requested basis set is def2-TZVPD
 There are 105 shells and 257 basis functions

 Total QAlloc Memory Limit  96000 MB
 Mega-Array Size      1956 MB
 MEM_STATIC part      2000 MB
 
 Citation of the SMD model:
 Marenich, A.V.; Cramer, C.J.; Truhlar, D.G.
 J. Phys. Chem. B 2009, 113, 6378-6396.
 iSolventCode=           1
 Solvent: water                                                           
 
 vradii
            1           2           3           4           5           6
    1   1.8500000   1.8500000   1.8900000   1.8900000   1.8900000   1.2000000
            7           8           9          10          11          12
    1   1.2000000   1.2000000   1.2000000   1.2000000   1.2000000   1.2000000
           13
    1   1.2000000
 Changing PCM_VDW_RADII to SMD_RADIUS
 Discretize the solute cavity surface with Lebedev spheres
	Using 110 Lebedev grid points for each H atom
	Using 194 Lebedev grid points for other atoms
	Atomic van der Waals radii will be scaled by 1.20
 Remove points where switching function is < 1.0e-08
 Keep 914 surface tesserae and discard 936 interior tesserae
 Molecular Surface Area = 113.307 Angst**2

                       Distance Matrix (Angstroms)
             C (  1)   C (  2)   N (  3)   N (  4)   N (  5)   H (  6)
   C (  2)  2.493422
   N (  3)  2.866204  1.315431
   N (  4)  1.466945  1.331138  2.300752
   N (  5)  3.666977  1.304175  2.262149  2.280039
   H (  6)  2.555158  2.029878  0.995853  2.547301  3.177167
   H (  7)  3.897086  2.031963  1.031702  3.230567  2.475162  1.737237
   H (  8)  2.135962  2.000482  3.191470  1.014863  2.440333  3.547564
   H (  9)  3.940553  1.968626  3.108054  2.484390  0.996237  3.959525
   H ( 10)  4.502716  2.014418  2.461375  3.208135  1.028338  3.453728
   H ( 11)  1.090032  2.648953  2.481221  2.122468  3.945285  1.838957
   H ( 12)  1.093829  3.138486  3.528334  2.100886  4.224724  3.174859
   H ( 13)  1.100004  3.250085  3.680092  2.133659  4.328227  3.365553
             H (  7)   H (  8)   H (  9)   H ( 10)   H ( 11)   H ( 12)
   H (  8)  4.026743
   H (  9)  3.404486  2.261340
   H ( 10)  2.224203  3.464299  1.738536
   H ( 11)  3.460368  3.018370  4.419538  4.601232
   H ( 12)  4.519087  2.532913  4.511236  5.067819  1.751530
   H ( 13)  4.698461  2.514073  4.410717  5.206420  1.765214  1.799798

 
 A cutoff of  1.0D-14 yielded   5441 shell pairs
 There are     33171 function pairs (     41505 Cartesian)
 Smallest overlap matrix eigenvalue = 1.50E-05

 Scale SEOQF with 1.000000e-01/1.000000e-01/1.000000e-01

 Standard Electronic Orientation quadrupole field applied
 Nucleus-field energy     =    -0.0000000092 hartrees
 Guess from superposition of atomic densities
 Warning:  Energy on first SCF cycle will be non-variational
 SAD guess density has 40.388232 electrons

 -----------------------------------------------------------------------
  General SCF calculation program by
  Eric Jon Sundstrom, Paul Horn, Yuezhi Mao, Dmitri Zuev, Alec White,
  David Stuck, Shaama M.S., Shane Yost, Joonho Lee, David Small,
  Daniel Levine, Susi Lehtola, Hugh Burton, Evgeny Epifanovsky
 -----------------------------------------------------------------------
 Exchange:     0.1670 Hartree-Fock + 1.0000 wB97X-V + LR-HF
 Correlation:  1.0000 wB97X-V
 Using Euler-Maclaurin-Lebedev (99,590) quadrature formula
 Nonlocal Correlation:  VV10 with C = 0.0100 and b = 6.00 and scale = 1.00000
 Grid used for NLC:  SG-1 standard quadrature
Energy prior to optimization (guess energy) = -244.718797205667
Begin Timing: Total SCF Calculation
begin iterations for algorithm: DIIS         
the SCF tolerance is set to 1.00e-08
    1    -244.7187972057      7.94e-03     00000 
    2    -244.9587401585      6.24e-03     00000 
    3    -245.2000241852      3.35e-04     00000 
    4    -245.2010190180      1.78e-04     00000 
    5    -245.2012693162      4.95e-05     00000 
    6    -245.2012917837      1.95e-05     00000 
    7    -245.2012952030      3.89e-06     00000 
    8    -245.2012954763      1.09e-06     00000 
    9    -245.2012954981      5.17e-07     00000 
   10    -245.2012955019      1.49e-07     00000 
   11    -245.2012955023      6.31e-08     00000 
   12    -245.2012955024      1.69e-08     00000 
   13    -245.2012955024      2.77e-09     00000 Convergence criterion met
Timing for Total SCF: 753.00s (wall), 1485.37s (cpu)
(3)  G-ENP(liq) elect-nuc-pol free energy of system     -245.201295502 a.u.
(4)  G-CDS(liq) cavity-dispersion-solvent structure 
     free energy                                                2.8486 kcal/mol
(6)  G-S(liq) free energy of system                     -245.196755938 a.u.
E_pcm = -0.1088732832
E_cds = 0.0045395648
Multipole orders to be included
        2
        3
computing dipole RHS
computing quadrupole RHS
total number of RHS in solve_reponses: 8
RHS batch sizes
        8
Beginning Block Conjugate Gradient Iterations. Batch Number: 0
computing hessian-vector products by finite difference
              1      4.91e-01     00000 Conjugate Gradient Iteration
computing hessian-vector products by finite difference
              2      1.91e-01     00000 Conjugate Gradient Iteration
computing hessian-vector products by finite difference
              3      5.18e-02     00000 Conjugate Gradient Iteration
computing hessian-vector products by finite difference
              4      1.34e-02     00000 Conjugate Gradient Iteration
computing hessian-vector products by finite difference
              5      1.89e-03     00000 Conjugate Gradient Iteration
computing hessian-vector products by finite difference
              6      3.00e-04     00000 Conjugate Gradient Iteration
computing hessian-vector products by finite difference
              7      4.51e-05     00000 Conjugate Gradient Iteration
computing hessian-vector products by finite difference
              8      6.53e-06     00000 Conjugate Gradient Iteration
computing hessian-vector products by finite difference
              9      9.67e-07     00000 Conjugate Gradient Iteration
computing hessian-vector products by finite difference
             10      1.19e-07     00000 Conjugate Gradient Iteration
computing hessian-vector products by finite difference
             11      1.57e-08     00000 Conjugate Gradient Iteration
computing hessian-vector products by finite difference
             12      1.90e-09     00000 CG Converged
batch 0 complete
Done Calculating Responses
TESTING ORTHOGONALIZATION OF MULTIPOLE BASIS
Multipole virts passed orthogonality test
Virts Per Order
           60
          100
 
 --------------------------------------------------------------
 
                    Orbital Energies (a.u.)
 --------------------------------------------------------------
 
 Alpha MOs
 -- Occupied --
-14.4555 -14.4481 -14.4443 -10.4211 -10.3063  -1.1758  -1.0552  -1.0443
 -0.8522  -0.7654  -0.7223  -0.6873  -0.6237  -0.6084  -0.5861  -0.5710
 -0.5272  -0.5053  -0.4021  -0.3760
 -- Virtual --
  0.0586   0.0853   0.0991   0.1009   0.1242   0.1291   0.1394   0.1508
  0.1732   0.1832   0.1909   0.1979   0.2021   0.2128   0.2223   0.2339
  0.2428   0.2462   0.2480   0.2693   0.2814   0.2917   0.3049   0.3091
  0.3130   0.3141   0.3165   0.3260   0.3350   0.3496   0.3527   0.3631
  0.3685   0.3707   0.3789   0.3880   0.4108   0.4175   0.4223   0.4305
  0.4386   0.4467   0.4570   0.4710   0.4764   0.4842   0.4926   0.5060
  0.5126   0.5176   0.5251   0.5283   0.5361   0.5439   0.5514   0.5566
  0.5620   0.5734   0.5865   0.5966   0.6001   0.6343   0.6382   0.6539
  0.6619   0.6793   0.6980   0.7056   0.7191   0.7240   0.7462   0.7686
  0.7994   0.8088   0.8117   0.8189   0.8338   0.8417   0.8574   0.8633
  0.8801   0.8834   0.8972   0.9312   0.9409   0.9588   0.9823   0.9978
  1.0184   1.0559   1.0664   1.0874   1.1064   1.1138   1.1226   1.1557
  1.1712   1.2011   1.2296   1.2438   1.2810   1.3413   1.3815   1.4338
  1.4400   1.4417   1.4877   1.5045   1.5704   1.6077   1.6444   1.6580
  1.6948   1.7169   1.7485   1.7603   1.8119   1.8396   1.8744   1.8863
  1.9018   1.9161   1.9536   1.9758   2.0014   2.0223   2.0349   2.0672
  2.0868   2.1021   2.1139   2.1995   2.2302   2.2319   2.2490   2.2764
  2.3307   2.3742   2.3795   2.4138   2.4508   2.4947   2.5105   2.5464
  2.5883   2.6010   2.6058   2.6402   2.6440   2.6768   2.7148   2.7319
  2.7413   2.8342   2.8401   2.8668   2.8946   2.9215   2.9339   2.9668
  3.0583   3.1050   3.1345   3.1522   3.1616   3.2192   3.2305   3.2469
  3.2818   3.2925   3.3005   3.3289   3.3632   3.3757   3.4431   3.4625
  3.4798   3.5022   3.5242   3.5729   3.6439   3.6895   3.7212   3.7357
  3.7718   3.8923   3.9045   3.9358   3.9723   4.0891   4.1364   4.2156
  4.2720   4.2939   4.3549   4.4218   4.5248   4.5603   4.5835   4.6321
  4.6673   4.8233   4.8592   4.8946   4.9183   4.9877   5.0011   5.0489
  5.0973   5.1219   5.1475   5.1867   5.2019   5.2381   5.2828   5.3214
  5.3799   5.3979   5.4698   5.4763   5.4916   5.5566   5.5981   5.6474
  5.6953   5.7426   5.8094   5.9257   6.1462   6.1970   6.3450   6.5027
 22.6429  23.6847  32.3412  32.4512  32.8265
 --------------------------------------------------------------
 
          Ground-State Mulliken Net Atomic Charges

     Atom                 Charge (a.u.)
  ----------------------------------------
      1 C                    -0.745843
      2 C                     0.444742
      3 N                    -0.269360
      4 N                    -0.124456
      5 N                    -0.316099
      6 H                     0.153320
      7 H                     0.259187
      8 H                     0.250390
      9 H                     0.270163
     10 H                     0.277853
     11 H                     0.293349
     12 H                     0.251443
     13 H                     0.255311
  ----------------------------------------
  Sum of atomic charges =     1.000000

 -----------------------------------------------------------------
                    Cartesian Multipole Moments
 -----------------------------------------------------------------
    Charge (ESU x 10^10)
                 4.8032
    Dipole Moment (Debye)
         X      -4.3344      Y       0.2768      Z       8.2519
       Tot       9.3251
    Quadrupole Moments (Debye-Ang)
        XX     -12.1066     XY      -2.6443     YY     -25.5524
        XZ      -7.6643     YZ      -7.7078     ZZ      -7.6042
    Octopole Moments (Debye-Ang^2)
       XXX      62.2920    XXY      -6.4415    XYY      27.4093
       YYY     -32.6385    XXZ     -12.5012    XYZ       3.0441
       YYZ     -37.5484    XZZ      13.1988    YZZ     -39.0261
       ZZZ     -70.1351
    Hexadecapole Moments (Debye-Ang^3)
      XXXX    -305.5522   XXXY      59.1052   XXYY     -82.6403
      XYYY      69.0641   YYYY    -152.6301   XXXZ      50.0841
      XXYZ      -4.4523   XYYZ      32.6101   YYYZ       5.8889
      XXZZ     -92.0598   XYZZ      42.8245   YYZZ    -105.2598
      XZZZ      69.4123   YZZZ     -81.1588   ZZZZ    -429.7967
 -----------------------------------------------------------------
Archival summary:
1\1\nid00508\SP\ProcedureUnspecified\BasisUnspecified\328(1+,1)\meili\SunSep2616:21:242021SunSep2616:21:242021\0\\#,ProcedureUnspecified,BasisUnspecified,\\1,1\C\N,1,1.30417\H,2,0.996237,1,117.06\H,2,1.02834,1,118.979,3,153.152,0\N,1,1.31543,2,119.433,3,-151.246,0\H,5,0.995853,1,122.257,2,-174.974,0\H,5,1.0317,1,119.44,2,-2.31455,0\N,1,1.33114,2,119.805,3,28.5242,0\H,8,1.01486,1,116.37,2,0.825098,0\C,8,1.46695,1,125.959,2,178.193,0\H,10,1.09003,8,111.359,1,6.44617,0\H,10,1.09383,8,109.388,1,-111.184,0\H,10,1.1,8,111.648,1,126.513,0\\\@

 Total job time:  12761.59s(wall), 25305.24s(cpu) 
 Sun Sep 26 16:21:25 2021

        *************************************************************
        *                                                           *
        *  Thank you very much for using Q-Chem.  Have a nice day.  *
        *                                                           *
        *************************************************************


Done Job For Fragment 0
calling putenv with: QCSCRATCH=/global/cscratch1/sd/meili 
calling putenv with: QCLOCALSCR=/tmp 
calling putenv with: QCTHREADS=32 
Creating input file /tmp/qchem47924/Frg2.input
using default PutDataFrgm: nothing
calling putenv with: QCSCRATCH=/tmp/qchem47924/ 
calling putenv with: QCLOCALSCR=/tmp/qchem47924/ 
Spawning Job For Fragment 1
                  Welcome to Q-Chem
     A Quantum Leap Into The Future Of Chemistry


 Q-Chem 5.2, Q-Chem, Inc., Pleasanton, CA (2019)

 License issued to: National Energy Research Scientific Computing Center

 Yihan Shao,  Zhengting Gan,  E. Epifanovsky,  A. T. B. Gilbert,  M. Wormit,  
 J. Kussmann,  A. W. Lange,  A. Behn,  Jia Deng,  Xintian Feng,  D. Ghosh,  
 M. Goldey,  P. R. Horn,  L. D. Jacobson,  I. Kaliman,  T. Kus,  A. Landau,  
 Jie Liu,  E. I. Proynov,  R. M. Richard,  R. P. Steele,  E. J. Sundstrom,  
 H. L. Woodcock III,  P. M. Zimmerman,  D. Zuev,  B. Albrecht,  E. Alguire,  
 S. A. Baeppler,  D. Barton,  Z. Benda,  Y. A. Bernard,  E. J. Berquist,  
 K. B. Bravaya,  H. Burton,  D. Casanova,  Chun-Min Chang,  Yunqing Chen,  
 A. Chien,  K. D. Closser,  M. P. Coons,  S. Coriani,  S. Dasgupta,  
 A. L. Dempwolff,  M. Diedenhofen,  Hainam Do,  R. G. Edgar,  Po-Tung Fang,  
 S. Faraji,  S. Fatehi,  Qingguo Feng,  K. D. Fenk,  J. Fosso-Tande,  
 J. Gayvert,  Qinghui Ge,  A. Ghysels,  G. Gidofalvi,  J. Gomes,  
 J. Gonthier,  A. Gunina,  D. Hait,  M. W. D. Hanson-Heine,  
 P. H. P. Harbach,  A. W. Hauser,  M. F. Herbst,  J. E. Herr,  
 E. G. Hohenstein,  Z. C. Holden,  Kerwin Hui,  B. C. Huynh,  T.-C. Jagau,  
 Hyunjun Ji,  B. Kaduk,  K. Khistyaev,  Jaehoon Kim,  P. Klunzinger,  K. Koh,  
 D. Kosenkov,  L. Koulias,  T. Kowalczyk,  C. M. Krauter,  A. Kunitsa,  
 Ka Un Lao,  A. Laurent,  K. V. Lawler,  Joonho Lee,  D. Lefrancois,  
 S. Lehtola,  D. S. Levine,  Yi-Pei Li,  You-Sheng Lin,  Fenglai Liu,  
 E. Livshits,  A. Luenser,  P. Manohar,  E. Mansoor,  S. F. Manzer,  
 Shan-Ping Mao,  Yuezhi Mao,  N. Mardirossian,  A. V. Marenich,  
 T. Markovich,  L. A. Martinez-Martinez,  S. A. Maurer,  N. J. Mayhall,  
 S. C. McKenzie,  J.-M. Mewes,  P. Morgante,  A. F. Morrison,  
 J. W. Mullinax,  K. Nanda,  T. S. Nguyen-Beck,  R. Olivares-Amaya,  
 J. A. Parkhill,  Zheng Pei,  T. M. Perrine,  F. Plasser,  P. Pokhilko,  
 S. Prager,  A. Prociuk,  E. Ramos,  D. R. Rehn,  F. Rob,  M. Scheurer,  
 M. Schneider,  N. Sergueev,  S. M. Sharada,  S. Sharma,  D. W. Small,  
 T. Stauch,  T. Stein,  Yu-Chuan Su,  A. J. W. Thom,  A. Tkatchenko,  
 T. Tsuchimochi,  N. M. Tubman,  L. Vogt,  M. L. Vidal,  O. Vydrov,  
 M. A. Watson,  J. Wenzel,  M. de Wergifosse,  T. A. Wesolowski,  A. White,  
 J. Witte,  A. Yamada,  Jun Yang,  K. Yao,  S. Yeganeh,  S. R. Yost,  
 Zhi-Qiang You,  A. Zech,  Igor Ying Zhang,  Xing Zhang,  Yan Zhao,  
 Ying Zhu,  B. R. Brooks,  G. K. L. Chan,  C. J. Cramer,  M. S. Gordon,  
 W. J. Hehre,  A. Klamt,  M. W. Schmidt,  C. D. Sherrill,  D. G. Truhlar,  
 A. Aspuru-Guzik,  R. Baer,  A. T. Bell,  N. A. Besley,  Jeng-Da Chai,  
 A. E. DePrince, III,  R. A. DiStasio Jr.,  A. Dreuw,  B. D. Dunietz,  
 T. R. Furlani,  Chao-Ping Hsu,  Yousung Jung,  Jing Kong,  D. S. Lambrecht,  
 WanZhen Liang,  C. Ochsenfeld,  V. A. Rassolov,  L. V. Slipchenko,  
 J. E. Subotnik,  T. Van Voorhis,  J. M. Herbert,  A. I. Krylov,  
 P. M. W. Gill,  M. Head-Gordon

 Contributors to earlier versions of Q-Chem not listed above: 
 R. D. Adamson,  B. Austin,  J. Baker,  G. J. O. Beran,  K. Brandhorst,  
 S. T. Brown,  E. F. C. Byrd,  A. K. Chakraborty,  C.-L. Cheng,  
 Siu Hung Chien,  D. M. Chipman,  D. L. Crittenden,  H. Dachsel,  
 R. J. Doerksen,  A. D. Dutoi,  L. Fusti-Molnar,  W. A. Goddard III,  
 A. Golubeva-Zadorozhnaya,  S. R. Gwaltney,  G. Hawkins,  A. Heyden,  
 S. Hirata,  G. Kedziora,  F. J. Keil,  C. Kelley,  Jihan Kim,  R. A. King,  
 R. Z. Khaliullin,  P. P. Korambath,  W. Kurlancheek,  A. M. Lee,  M. S. Lee,  
 S. V. Levchenko,  Ching Yeh Lin,  D. Liotard,  R. C. Lochan,  I. Lotan,  
 P. E. Maslen,  N. Nair,  D. P. O'Neill,  D. Neuhauser,  E. Neuscamman,  
 C. M. Oana,  R. Olson,  B. Peters,  R. Peverati,  P. A. Pieniazek,  
 Y. M. Rhee,  J. Ritchie,  M. A. Rohrdanz,  E. Rosta,  N. J. Russ,  
 H. F. Schaefer III,  N. E. Schultz,  N. Shenvi,  A. C. Simmonett,  A. Sodt,  
 D. Stuck,  K. S. Thanthiriwatte,  V. Vanovschi,  Tao Wang,  A. Warshel,  
 C. F. Williams,  Q. Wu,  X. Xu,  W. Zhang

 Please cite Q-Chem as follows:
 Y. Shao et al., Mol. Phys. 113, 184-215 (2015)
 DOI: 10.1080/00268976.2014.952696

 Q-Chem 5.2.0 for Intel X86 EM64T Linux

 Parts of Q-Chem use Armadillo 8.300.2 (Tropical Shenanigans).
 http://arma.sourceforge.net/

 Q-Chem begins on Sun Sep 26 16:21:27 2021  

Host: cori01
0

     Scratch files written to /tmp/qchem47924//Frg2//
 May1019 |scratch|qcdevops|jenkins|workspace|build_RNUM -1
Processing $rem in /global/common/cori/software/qchem/5.2/config/preferences:
	 MEM_TOTAL  96000 
NAlpha2: 32
NElect   32
Mult     1
Symmetry turned off for PCM/SM12/SMD calculation

Checking the input file for inconsistencies... 	...done.

--------------------------------------------------------------
User input:
--------------------------------------------------------------
$molecule
0 1
 6	0.4022271286	-0.0732159005	-2.8993463265
 6	1.4392271286	-0.5112159005	-1.8843463265
 8	1.6592271286	-1.6992159005	-1.6943463265
 7	2.0942271286	0.4587840995	-1.2463463265
 1	2.7262271286	0.1927840995	-0.4983463265
 1	1.9182271286	1.4277840995	-1.4773463265
 1	-0.2727728714	0.6557840995	-2.4563463265
 1	-0.2007728714	-0.9452159005	-3.1573463265
 1	0.8591371286	0.3162640995	-3.8210463265
$end
$rem
EDA2		1
METHOD		WB97X-V
BASIS		DEF2-TZVPD
XC_GRID		000099000590
NL_GRID		1
UNRESTRICTED		FALSE
MAX_SCF_CYCLES		200
SYMMETRY		FALSE
SYM_IGNORE		TRUE
BASIS_LIN_DEP_THRESH		6
THRESH		14
SCF_CONVERGENCE		8
SCF_PRINT_FRGM		TRUE
SOLVENT_METHOD		SMD
!required keywords
JOBTYPE		SP
SYM_IGNORE		TRUE
SUBSYSTEM		TRUE
GEN_SCFMAN		TRUE
CHILD_INSTRUCTION		2
SYM_IGNORE		TRUE
SCFMI		0
RI_K 0		
PARI_K 0		
MIN_PARI_K 0		
IARI_K 0		
OCC_RI_K 0		
PURECART		1111
MEM_STATIC		2000
MEM_TOTAL		96000
GUI		0
CHILD_MP		1
CHILD_MP_ORDERS		232
FRZ_RELAX		0
FRZ_RELAX_METHOD		0
EDA_CLS_ELEC		1
EDA_CLS_DISP		0
FRZ_ORTHO_DECOMP		1
EDA2		FALSE
FRGM_METHOD		FALSE
CIS_N_ROOTS  0
LOCAL_CIS    0
CIS_RLX_DNS  1
$end
$smx
SOLVENT			WATER
$end
--------------------------------------------------------------
 ----------------------------------------------------------------
             Standard Nuclear Orientation (Angstroms)
    I     Atom           X                Y                Z
 ----------------------------------------------------------------
    1      C       0.4022271286    -0.0732159005    -2.8993463265
    2      C       1.4392271286    -0.5112159005    -1.8843463265
    3      O       1.6592271286    -1.6992159005    -1.6943463265
    4      N       2.0942271286     0.4587840995    -1.2463463265
    5      H       2.7262271286     0.1927840995    -0.4983463265
    6      H       1.9182271286     1.4277840995    -1.4773463265
    7      H      -0.2727728714     0.6557840995    -2.4563463265
    8      H      -0.2007728714    -0.9452159005    -3.1573463265
    9      H       0.8591371286     0.3162640995    -3.8210463265
 ----------------------------------------------------------------
 Nuclear Repulsion Energy =         122.26026156 hartrees
 There are       16 alpha and       16 beta electrons
 Requested basis set is def2-TZVPD
 There are 78 shells and 196 basis functions

 Total QAlloc Memory Limit  96000 MB
 Mega-Array Size      1956 MB
 MEM_STATIC part      2000 MB
 
 Citation of the SMD model:
 Marenich, A.V.; Cramer, C.J.; Truhlar, D.G.
 J. Phys. Chem. B 2009, 113, 6378-6396.
 iSolventCode=           1
 Solvent: water                                                           
 
 vradii
            1           2           3           4           5           6
    1   1.8500000   1.8500000   1.5200000   1.8900000   1.2000000   1.2000000
            7           8           9
    1   1.2000000   1.2000000   1.2000000
 Changing PCM_VDW_RADII to SMD_RADIUS
 Discretize the solute cavity surface with Lebedev spheres
	Using 110 Lebedev grid points for each H atom
	Using 194 Lebedev grid points for other atoms
	Atomic van der Waals radii will be scaled by 1.20
 Remove points where switching function is < 1.0e-08
 Keep 729 surface tesserae and discard 597 interior tesserae
 Molecular Surface Area = 90.240 Angst**2

                       Distance Matrix (Angstroms)
             C (  1)   C (  2)   O (  3)   N (  4)   H (  5)   H (  6)
   C (  2)  1.515730
   O (  3)  2.382425  1.223047
   N (  4)  2.424520  1.333030  2.246529
   H (  5)  3.352094  2.018163  2.479631  1.014733
   H (  6)  2.563853  2.038335  3.145203  1.011582  1.771025
   H (  7)  1.087803  2.149422  3.139951  2.665633  3.611389  2.520894
   H (  8)  1.091126  2.120963  2.483643  3.300025  4.114931  3.597734
   H (  9)  1.099997  2.184499  3.037294  2.859168  3.813346  2.801799
             H (  7)   H (  8)
   H (  8)  1.749224
   H (  9)  1.805242  1.776299
 
 A cutoff of  1.0D-14 yielded   3054 shell pairs
 There are     19544 function pairs (     24702 Cartesian)
 Smallest overlap matrix eigenvalue = 1.04E-05

 Scale SEOQF with 1.000000e-01/1.000000e-01/1.000000e-01

 Standard Electronic Orientation quadrupole field applied
 Nucleus-field energy     =    -0.0000000099 hartrees
 Guess from superposition of atomic densities
 Warning:  Energy on first SCF cycle will be non-variational
 SAD guess density has 31.604610 electrons

 -----------------------------------------------------------------------
  General SCF calculation program by
  Eric Jon Sundstrom, Paul Horn, Yuezhi Mao, Dmitri Zuev, Alec White,
  David Stuck, Shaama M.S., Shane Yost, Joonho Lee, David Small,
  Daniel Levine, Susi Lehtola, Hugh Burton, Evgeny Epifanovsky
 -----------------------------------------------------------------------
 Exchange:     0.1670 Hartree-Fock + 1.0000 wB97X-V + LR-HF
 Correlation:  1.0000 wB97X-V
 Using Euler-Maclaurin-Lebedev (99,590) quadrature formula
 Nonlocal Correlation:  VV10 with C = 0.0100 and b = 6.00 and scale = 1.00000
 Grid used for NLC:  SG-1 standard quadrature
Energy prior to optimization (guess energy) = -208.708821461251
Begin Timing: Total SCF Calculation
begin iterations for algorithm: DIIS         
the SCF tolerance is set to 1.00e-08
    1    -208.7088214613      1.25e-02     00000 
    2    -208.3595882724      1.52e-02     00000 
    3    -209.2369778954      2.30e-03     00000 
    4    -209.2546511297      7.55e-04     00000 
    5    -209.2576016504      1.97e-04     00000 
    6    -209.2578659393      6.66e-05     00000 
    7    -209.2579058801      1.99e-05     00000 
    8    -209.2579107633      5.73e-06     00000 
    9    -209.2579114782      1.94e-06     00000 
   10    -209.2579115262      3.06e-07     00000 
   11    -209.2579115273      1.35e-07     00000 
   12    -209.2579115274      2.08e-08     00000 
   13    -209.2579115274      4.88e-09     00000 Convergence criterion met
Timing for Total SCF: 346.00s (wall), 683.09s (cpu)
(3)  G-ENP(liq) elect-nuc-pol free energy of system     -209.257911527 a.u.
(4)  G-CDS(liq) cavity-dispersion-solvent structure 
     free energy                                                3.5140 kcal/mol
(6)  G-S(liq) free energy of system                     -209.252311541 a.u.
E_pcm = -0.0285675518
E_cds = 0.0055999860
Multipole orders to be included
        2
        3
computing dipole RHS
computing quadrupole RHS
total number of RHS in solve_reponses: 8
RHS batch sizes
        8
Beginning Block Conjugate Gradient Iterations. Batch Number: 0
computing hessian-vector products by finite difference
              1      7.18e-01     00000 Conjugate Gradient Iteration
computing hessian-vector products by finite difference
              2      2.29e-01     00000 Conjugate Gradient Iteration
computing hessian-vector products by finite difference
              3      6.19e-02     00000 Conjugate Gradient Iteration
computing hessian-vector products by finite difference
              4      1.57e-02     00000 Conjugate Gradient Iteration
computing hessian-vector products by finite difference
              5      2.21e-03     00000 Conjugate Gradient Iteration
computing hessian-vector products by finite difference
              6      5.15e-04     00000 Conjugate Gradient Iteration
computing hessian-vector products by finite difference
              7      7.10e-05     00000 Conjugate Gradient Iteration
computing hessian-vector products by finite difference
              8      8.23e-06     00000 Conjugate Gradient Iteration
computing hessian-vector products by finite difference
              9      1.33e-06     00000 Conjugate Gradient Iteration
computing hessian-vector products by finite difference
             10      1.42e-07     00000 Conjugate Gradient Iteration
computing hessian-vector products by finite difference
             11      1.83e-08     00000 Conjugate Gradient Iteration
computing hessian-vector products by finite difference
             12      4.95e-09     00000 CG Converged
batch 0 complete
Done Calculating Responses
TESTING ORTHOGONALIZATION OF MULTIPOLE BASIS
Multipole virts passed orthogonality test
Virts Per Order
        48
        80
 
 --------------------------------------------------------------
 
                    Orbital Energies (a.u.)
 --------------------------------------------------------------
 
 Alpha MOs
 -- Occupied --
-19.1851 -14.4260 -10.3774 -10.2609  -1.1791  -1.0396  -0.8613  -0.7046
 -0.6507  -0.5916  -0.5655  -0.5216  -0.4933  -0.4801  -0.3835  -0.3756
 -- Virtual --
  0.0641   0.0963   0.0965   0.1035   0.1291   0.1338   0.1401   0.1495
  0.1723   0.1899   0.2039   0.2163   0.2330   0.2451   0.2486   0.2578
  0.2607   0.2812   0.3113   0.3173   0.3299   0.3380   0.3462   0.3558
  0.3599   0.3729   0.3808   0.3823   0.3965   0.4054   0.4191   0.4242
  0.4245   0.4518   0.4611   0.4793   0.4858   0.4873   0.4937   0.4987
  0.5309   0.5368   0.5408   0.5692   0.5834   0.5909   0.6267   0.6373
  0.6500   0.6558   0.6682   0.6772   0.7061   0.7139   0.7285   0.7566
  0.7830   0.7951   0.7994   0.8125   0.8173   0.8412   0.8571   0.8701
  0.9230   0.9515   0.9831   0.9901   1.0089   1.0408   1.0632   1.1027
  1.1223   1.1811   1.2282   1.2522   1.2906   1.3128   1.3297   1.3977
  1.4777   1.5037   1.5127   1.6179   1.6798   1.7347   1.7460   1.8073
  1.8382   1.8754   1.8888   1.9249   1.9382   1.9418   1.9992   2.0227
  2.0624   2.0933   2.1505   2.1974   2.2497   2.2565   2.3004   2.3380
  2.3477   2.3980   2.4477   2.5001   2.5298   2.5907   2.6249   2.6275
  2.6774   2.7257   2.7605   2.8159   2.8566   2.9224   2.9402   2.9802
  3.0354   3.1051   3.1481   3.1591   3.2008   3.2393   3.2767   3.2924
  3.3021   3.3357   3.3572   3.4236   3.4703   3.5116   3.5530   3.5879
  3.6259   3.6401   3.7284   3.7572   3.8899   3.9339   4.0238   4.0485
  4.0997   4.1857   4.3098   4.3654   4.5514   4.5882   4.6232   4.6461
  4.7976   4.8866   4.9017   4.9355   5.1498   5.1703   5.2558   5.3476
  5.3810   5.3850   5.4205   5.4772   5.5255   5.7731   5.9084   6.1354
  6.2660   6.5323   6.6301   6.7346   6.8284   6.9714   7.2282   7.3179
 22.6101  23.5702  32.4143  44.2982
 --------------------------------------------------------------
 
          Ground-State Mulliken Net Atomic Charges

     Atom                 Charge (a.u.)
  ----------------------------------------
      1 C                    -0.653127
      2 C                     0.446383
      3 O                    -0.681231
      4 N                    -0.315458
      5 H                     0.259456
      6 H                     0.240201
      7 H                     0.250247
      8 H                     0.218136
      9 H                     0.235394
  ----------------------------------------
  Sum of atomic charges =     0.000000

 -----------------------------------------------------------------
                    Cartesian Multipole Moments
 -----------------------------------------------------------------
    Charge (ESU x 10^10)
                 0.0000
    Dipole Moment (Debye)
         X      -0.2893      Y       5.8192      Z      -0.0648
       Tot       5.8268
    Quadrupole Moments (Debye-Ang)
        XX     -23.5996     XY      10.3154     YY     -31.4735
        XZ       3.0451     YZ      -9.3978     ZZ     -21.8492
    Octopole Moments (Debye-Ang^2)
       XXX     -93.5758    XXY      28.1979    XYY     -44.8098
       YYY      52.4677    XXZ      56.8963    XYZ     -16.5729
       YYZ      60.3922    XZZ     -36.5967    YZZ      25.5395
       ZZZ     131.7309
    Hexadecapole Moments (Debye-Ang^3)
      XXXX    -350.9840   XXXY      74.3308   XXYY    -107.6473
      XYYY      80.8032   YYYY    -184.8229   XXXZ     183.1689
      XXYZ     -46.3097   XYYZ      74.1358   YYYZ     -95.0672
      XXZZ    -189.7366   XYZZ      42.8973   YYZZ    -160.9693
      XZZZ     156.6003   YZZZ     -85.8378   ZZZZ    -619.5667
 -----------------------------------------------------------------
Archival summary:
1\1\nid00508\SP\ProcedureUnspecified\BasisUnspecified\1125\meili\SunSep2618:03:452021SunSep2618:03:452021\0\\#,ProcedureUnspecified,BasisUnspecified,\\0,1\C\O,1,1.22305\N,1,1.33303,2,122.962\H,3,1.01158,1,120.149,2,176.232,0\H,3,1.01473,1,117.91,2,-7.04319,0\C,1,1.51573,2,120.516,3,178.836,0\H,6,1.0878,1,110.211,2,130.392,0\H,6,1.09113,1,107.788,2,14.1937,0\H,6,1.1,1,112.286,2,-105.037,0\\\@

 Total job time:  6140.25s(wall), 12120.46s(cpu) 
 Sun Sep 26 18:03:47 2021

        *************************************************************
        *                                                           *
        *  Thank you very much for using Q-Chem.  Have a nice day.  *
        *                                                           *
        *************************************************************


Done Job For Fragment 1
calling putenv with: QCSCRATCH=/global/cscratch1/sd/meili 
calling putenv with: QCLOCALSCR=/tmp 
calling putenv with: QCTHREADS=32 
Doing General SCFMI
 Exchange:     0.1670 Hartree-Fock + 1.0000 wB97X-V + LR-HF
 Correlation:  1.0000 wB97X-V
 Using Euler-Maclaurin-Lebedev (99,590) quadrature formula
 Nonlocal Correlation:  VV10 with C = 0.0100 and b = 6.00 and scale = 1.00000
 Grid used for NLC:  SG-1 standard quadrature
performing fock build before subrot guess so that all methods have access
Printing subrot_rss_gen Method Specification:
Occupied Subspace Method is 0
Virtual Subspace Method is 0
Energy of the unrelaxed supersystem initial determinant -454.315858583999
performing fock build before subrot guess so that all methods have access
Printing subrot_rss_gen Method Specification:
Occupied Subspace Method is 0
Virtual Subspace Method is 0
Energy of the unrelaxed supersystem initial determinant w/ solvent -454.459686929938
write pseudocanon occs and virts to disk
write pseudocanon orbital energies to disk
Tolerance of ortho_decomp_scf: 1.00e-06
GDM subspace size: 20
Beginning the Orthogonal Decomposition of the Initial Supersystem Wavefunction
    1    -454.3035997025      3.45e-02     ortho_decomp Preconditoned Steepest Descent
    2    -454.3056174609      7.70e-04     ortho_decomp BFGS Step
    3    -454.3056227083      5.61e-05     ortho_decomp BFGS Step
    4    -454.3056227178      2.19e-06     ortho_decomp BFGS Step
    5    -454.3056227178      7.84e-08     ortho_decomp 00000 Convergence criterion met
 Hartree-Fock
 Hartree-Fock
 Hartree-Fock
Doing General SCFMI
 Exchange:     0.1670 Hartree-Fock + 1.0000 wB97X-V + LR-HF
 Correlation:  1.0000 wB97X-V
 Using Euler-Maclaurin-Lebedev (99,590) quadrature formula
 Nonlocal Correlation:  VV10 with C = 0.0100 and b = 6.00 and scale = 1.00000
 Grid used for NLC:  SG-1 standard quadrature
performing fock build at end of subrot_r(subrot) constructor so that all methods have access
<S^2> of initial wavefunction before polarization iterations 0.0000000000
Beginning iterations for the determination of the polarized wavefunction
Energy prior to optimization (guess energy) = -454.459686929939
Begin Timing: Total SCF Calculation
begin iterations for algorithm: DIIS         
the SCF tolerance is set to 1.00e-08
    1    -454.4596869299      7.76e-05     00000 
    2    -454.4600006924      2.93e-05     00000 
    3    -454.4600279965      1.72e-05     00000 
    4    -454.4600363864      6.18e-06     00000 
    5    -454.4600376788      2.62e-06     00000 
    6    -454.4600379680      1.37e-06     00000 
    7    -454.4600380351      4.33e-07     00000 
    8    -454.4600380418      1.59e-07     00000 
    9    -454.4600380429      5.70e-08     00000 
   10    -454.4600380430      3.14e-08     00000 
   11    -454.4600380430      1.05e-08     00000 
   12    -454.4600380430      5.49e-09     00000 Convergence criterion met
write pseudocanon occs and virts to disk
write pseudocanon orbital energies to disk
Timing for Total SCF: 3038.00s (wall), 6030.84s (cpu)
<S^2> of polarized wavefunction after polarization iterations 0.0000000000
relaxing scfmi constraint to allow all rotations in the entire AO span
Doing General SCFMI
 Exchange:     0.1670 Hartree-Fock + 1.0000 wB97X-V + LR-HF
 Correlation:  1.0000 wB97X-V
 Using Euler-Maclaurin-Lebedev (99,590) quadrature formula
 Nonlocal Correlation:  VV10 with C = 0.0100 and b = 6.00 and scale = 1.00000
 Grid used for NLC:  SG-1 standard quadrature
performing fock build at end of subrot_r(subrot) constructor so that all methods have access
<S^2> of polarized wavefunction before ct-allowed iterations 0.0000000000
Beginning iterations for the determination of the CT-Allowed wavefunction
Energy prior to optimization (guess energy) = -454.460038042992
Begin Timing: Total SCF Calculation
begin iterations for algorithm: DIIS         
the SCF tolerance is set to 1.00e-08
    1    -454.4600380430      9.88e-05     00000 
    2    -454.4611317455      1.19e-05     00000 
    3    -454.4611674234      2.54e-06     00000 
    4    -454.4611685849      1.96e-06     00000 
    5    -454.4611689307      3.35e-07     00000 
    6    -454.4611689502      2.13e-07     00000 
    7    -454.4611689551      4.88e-08     00000 
    8    -454.4611689555      1.66e-08     00000 
    9    -454.4611689556      5.54e-09     00000 Convergence criterion met
write pseudocanon occs and virts to disk
write pseudocanon orbital energies to disk
Timing for Total SCF: 2228.00s (wall), 4423.01s (cpu)
<S^2> of ct_allowed wavefunction after ct-allowed iterations 0.0000000000

================================
        Results of EDA2         
================================
Basic EDA Quantities
--------------------
Fragment Energies (Ha):
1 -245.1967559376
2 -209.2523115414
--------------------
  E_prp (kJ/mol) = 0.0000
  E_sol (kJ/mol) = -18.3107
  E_frz (kJ/mol) = 15.5106
  E_pol (kJ/mol) = -0.9219
  E_vct (kJ/mol) = -2.9692
  E_int (kJ/mol) = -6.6912
--------------------


Initial Wavefunction Decomposition
--------------------
  --------------------
  Orthogonal Fragment Subspace Decomposition:
  --------------------
     E_elec   (ELEC)   (kJ/mol) = -4.7202
     E_pauli  (PAULI)  (kJ/mol) = 33.6973
     E_disp   (DISP)   (kJ/mol) = -13.4666
     --------------------
     Terms summing to E_pauli:
     --------------------
        E_kep_pauli       (kJ/mol) = 42.3852
        E_disp_free_pauli (kJ/mol) = -8.6879
  --------------------
  Classical Frozen Decomposition:
  --------------------
     E_cls_elec  (CLS ELEC)  (kJ/mol) = 7.6315
     E_cls_pauli (CLS PAULI) (kJ/mol) = 7.8791
    [E_mod_pauli (MOD PAULI) (kJ/mol) = 21.3456 (CLS PAULI - DISP from orthogonal decomposition) ]
  --------------------
--------------------

Simplified EDA Summary (kJ/mol)
--------------------
 PREPARATION     0.0000
 SOLVATION       -18.3107
 FROZEN          28.9772      (does not include dispersion)
[PAULI           33.6973]     (if this is negligible, then frozen describes electrostatics)
 DISPERSION      -13.4666
 POLARIZATION    -0.9219
 CHARGE TRANSFER -2.9692
 TOTAL           -6.6912     (PRP + SOL + FRZ + DISP + POL + CT)
--------------------
 
 --------------------------------------------------------------
 
                    Orbital Energies (a.u.)
 --------------------------------------------------------------
 
 Alpha MOs
 -- Occupied --
-19.1886 -14.4555 -14.4472 -14.4442 -14.4302 -10.4208 -10.3808 -10.3064
-10.2630  -1.1825  -1.1756  -1.0551  -1.0469  -1.0417  -0.8639  -0.8522
 -0.7659  -0.7225  -0.7087  -0.6875  -0.6549  -0.6242  -0.6083  -0.5945
 -0.5877  -0.5711  -0.5667  -0.5273  -0.5248  -0.5069  -0.4946  -0.4816
 -0.4018  -0.3883  -0.3785  -0.3759
 -- Virtual --
  0.0542   0.0733   0.0796   0.0903   0.0958   0.1020   0.1059   0.1180
  0.1189   0.1241   0.1360   0.1416   0.1442   0.1498   0.1583   0.1688
  0.1767   0.1843   0.1920   0.1949   0.2008   0.2078   0.2127   0.2206
  0.2250   0.2284   0.2335   0.2446   0.2489   0.2512   0.2630   0.2743
  0.2779   0.2837   0.2876   0.2912   0.2985   0.3044   0.3076   0.3132
  0.3136   0.3226   0.3256   0.3282   0.3377   0.3387   0.3407   0.3488
  0.3523   0.3565   0.3613   0.3632   0.3669   0.3720   0.3768   0.3832
  0.3892   0.3945   0.3961   0.4045   0.4103   0.4127   0.4219   0.4271
  0.4312   0.4378   0.4471   0.4492   0.4519   0.4618   0.4638   0.4694
  0.4748   0.4797   0.4838   0.4894   0.4952   0.4991   0.5014   0.5099
  0.5163   0.5209   0.5240   0.5311   0.5320   0.5348   0.5411   0.5488
  0.5516   0.5544   0.5630   0.5710   0.5727   0.5760   0.5843   0.5885
  0.5994   0.6043   0.6115   0.6203   0.6239   0.6396   0.6428   0.6496
  0.6574   0.6655   0.6676   0.6750   0.6786   0.6858   0.6919   0.7020
  0.7076   0.7176   0.7305   0.7326   0.7425   0.7525   0.7550   0.7621
  0.7652   0.7726   0.7864   0.7875   0.7944   0.8001   0.8115   0.8159
  0.8205   0.8260   0.8310   0.8525   0.8561   0.8642   0.8734   0.8774
  0.8828   0.8880   0.8947   0.8980   0.9094   0.9239   0.9289   0.9416
  0.9493   0.9509   0.9648   0.9812   0.9844   0.9941   1.0052   1.0232
  1.0337   1.0453   1.0567   1.0618   1.0744   1.0941   1.1062   1.1124
  1.1256   1.1311   1.1484   1.1592   1.1626   1.1735   1.1953   1.2003
  1.2209   1.2294   1.2396   1.2453   1.2701   1.2834   1.2969   1.3220
  1.3448   1.3557   1.3625   1.3801   1.3892   1.4180   1.4338   1.4637
  1.4752   1.4858   1.5166   1.5185   1.5409   1.5483   1.5738   1.6173
  1.6401   1.6786   1.6889   1.6960   1.7113   1.7326   1.7441   1.7707
  1.7771   1.7885   1.8257   1.8495   1.8611   1.8654   1.8767   1.9050
  1.9159   1.9318   1.9384   1.9463   1.9520   1.9658   1.9752   1.9926
  2.0033   2.0188   2.0277   2.0560   2.0802   2.0848   2.0901   2.0974
  2.1024   2.1239   2.1288   2.1477   2.1625   2.2042   2.2327   2.2521
  2.2687   2.2778   2.2869   2.2952   2.3070   2.3183   2.3294   2.3746
  2.3810   2.3936   2.4059   2.4195   2.4432   2.4642   2.4779   2.5082
  2.5383   2.5397   2.5622   2.5734   2.6061   2.6115   2.6231   2.6410
  2.6560   2.6783   2.6904   2.6946   2.7026   2.7156   2.7281   2.7481
  2.7628   2.7805   2.7908   2.8229   2.8453   2.8728   2.8753   2.8886
  2.9117   2.9188   2.9469   2.9589   2.9793   2.9902   3.0146   3.0424
  3.0649   3.0951   3.1355   3.1398   3.1500   3.1617   3.1717   3.1949
  3.2076   3.2438   3.2537   3.2682   3.2809   3.2832   3.3047   3.3077
  3.3156   3.3343   3.3418   3.3524   3.3594   3.3709   3.3866   3.3979
  3.4136   3.4487   3.4622   3.4829   3.4885   3.4988   3.5205   3.5376
  3.5592   3.6020   3.6091   3.6339   3.6615   3.6690   3.6853   3.7035
  3.7448   3.7517   3.7603   3.7849   3.8030   3.8984   3.9195   3.9254
  3.9510   3.9648   3.9856   4.0444   4.0768   4.1081   4.1257   4.1529
  4.1953   4.2281   4.2824   4.3054   4.3270   4.3858   4.3958   4.4339
  4.5313   4.5759   4.5820   4.5876   4.6057   4.6380   4.6428   4.6647
  4.6989   4.8084   4.8372   4.8810   4.9057   4.9130   4.9326   4.9401
  4.9628   5.0178   5.0232   5.0563   5.1294   5.1511   5.1638   5.1737
  5.1916   5.2101   5.2221   5.2484   5.2656   5.2946   5.3343   5.3555
  5.3897   5.4051   5.4121   5.4187   5.4567   5.4785   5.4927   5.4996
  5.5127   5.5502   5.5900   5.6131   5.6640   5.7488   5.7534   5.7792
  5.8295   5.9160   5.9394   6.1434   6.1585   6.2117   6.2753   6.3738
  6.5101   6.5376   6.6605   6.7457   6.8316   6.9959   7.2393   7.3248
 22.6421  22.6689  23.5938  23.7148  32.4014  32.4842  32.5173  32.8719
 44.3966
 --------------------------------------------------------------
 
          Ground-State Mulliken Net Atomic Charges

     Atom                 Charge (a.u.)
  ----------------------------------------
      1 C                    -0.582445
      2 C                     0.438628
      3 N                    -0.240782
      4 N                    -0.112773
      5 N                    -0.315032
      6 H                     0.127836
      7 H                     0.263527
      8 H                     0.238743
      9 H                     0.276616
     10 H                     0.281136
     11 H                     0.140893
     12 H                     0.214633
     13 H                     0.258724
     14 C                    -0.618512
     15 C                     0.566976
     16 O                    -0.701228
     17 N                    -0.377132
     18 H                     0.262594
     19 H                     0.249443
     20 H                     0.140904
     21 H                     0.224122
     22 H                     0.263129
  ----------------------------------------
  Sum of atomic charges =     1.000000

 -----------------------------------------------------------------
                    Cartesian Multipole Moments
 -----------------------------------------------------------------
    Charge (ESU x 10^10)
                 4.8032
    Dipole Moment (Debye)
         X      -4.5693      Y       6.0247      Z       8.0638
       Tot      11.0544
    Quadrupole Moments (Debye-Ang)
        XX     -35.5036     XY       7.5705     YY     -56.9295
        XZ      -4.7994     YZ     -17.0170     ZZ     -29.1242
    Octopole Moments (Debye-Ang^2)
       XXX     -30.5584    XXY      21.5887    XYY     -17.1634
       YYY      19.5535    XXZ      43.8542    XYZ     -13.3907
       YYZ      22.5330    XZZ     -22.9107    YZZ     -13.6970
       ZZZ      60.2708
    Hexadecapole Moments (Debye-Ang^3)
      XXXX    -654.4091   XXXY     133.1784   XXYY    -189.8110
      XYYY     149.4780   YYYY    -336.9203   XXXZ     231.9739
      XXYZ     -50.5193   XYYZ     106.2674   YYYZ     -88.7634
      XXZZ    -280.7319   XYZZ      85.3959   YYZZ    -265.5957
      XZZZ     224.8635   YZZZ    -166.5729   ZZZZ   -1045.6132
 -----------------------------------------------------------------
Archival summary:
1\1\nid00508\SP\ProcedureUnspecified\BasisUnspecified\14413(1+,1)\meili\SunSep2620:40:252021SunSep2620:40:252021\0\\#,ProcedureUnspecified,BasisUnspecified,\\1,1\N\H,1,0.995853\H,1,1.0317,2,117.911\C,1,1.31543,2,122.257,3,172.766,0\N,4,1.30417,1,119.433,2,-174.974,0\H,5,0.996237,4,117.06,1,-151.246,0\H,5,1.02834,4,118.979,1,1.90567,0\N,4,1.33114,1,120.761,2,5.25807,0\H,8,1.01486,4,116.37,1,-179.408,0\C,8,1.46695,4,125.959,1,-2.04022,0\H,10,1.09003,8,111.359,4,6.44617,0\H,10,1.09383,8,109.388,4,-111.184,0\H,10,1.1,8,111.648,4,126.513,0\H,11,2.38812,10,138.561,8,113.599,0\C,14,1.0878,11,143.423,10,-110.921,0\H,15,1.09113,14,106.795,11,94.0796,0\H,15,1.1,14,111.204,11,-147.929,0\C,15,1.51573,14,110.211,11,-22.7385,0\O,18,1.22305,15,120.516,14,130.392,0\N,18,1.33303,15,116.513,14,-50.6992,0\H,20,1.01158,18,120.149,15,-2.64737,0\H,20,1.01473,18,117.91,15,174.077,0\\\@

 Total job time:  28308.16s(wall), 18682.12s(cpu) 
 Sun Sep 26 20:40:28 2021

        *************************************************************
        *                                                           *
        *  Thank you very much for using Q-Chem.  Have a nice day.  *
        *                                                           *
        *************************************************************


