
Running Job 1 of 1 SSI-048HIE-099HIE-2_PCM_TZVPD.in
qchem SSI-048HIE-099HIE-2_PCM_TZVPD.in_8742.0 /tmp/qchem8742/ 0
/global/common/cori/software/qchem/5.2/exe/qcprog.exe_s SSI-048HIE-099HIE-2_PCM_TZVPD.in_8742.0 /tmp/qchem8742/
                  Welcome to Q-Chem
     A Quantum Leap Into The Future Of Chemistry


 Q-Chem 5.2, Q-Chem, Inc., Pleasanton, CA (2019)

 License issued to: National Energy Research Scientific Computing Center

 Yihan Shao,  Zhengting Gan,  E. Epifanovsky,  A. T. B. Gilbert,  M. Wormit,  
 J. Kussmann,  A. W. Lange,  A. Behn,  Jia Deng,  Xintian Feng,  D. Ghosh,  
 M. Goldey,  P. R. Horn,  L. D. Jacobson,  I. Kaliman,  T. Kus,  A. Landau,  
 Jie Liu,  E. I. Proynov,  R. M. Richard,  R. P. Steele,  E. J. Sundstrom,  
 H. L. Woodcock III,  P. M. Zimmerman,  D. Zuev,  B. Albrecht,  E. Alguire,  
 S. A. Baeppler,  D. Barton,  Z. Benda,  Y. A. Bernard,  E. J. Berquist,  
 K. B. Bravaya,  H. Burton,  D. Casanova,  Chun-Min Chang,  Yunqing Chen,  
 A. Chien,  K. D. Closser,  M. P. Coons,  S. Coriani,  S. Dasgupta,  
 A. L. Dempwolff,  M. Diedenhofen,  Hainam Do,  R. G. Edgar,  Po-Tung Fang,  
 S. Faraji,  S. Fatehi,  Qingguo Feng,  K. D. Fenk,  J. Fosso-Tande,  
 J. Gayvert,  Qinghui Ge,  A. Ghysels,  G. Gidofalvi,  J. Gomes,  
 J. Gonthier,  A. Gunina,  D. Hait,  M. W. D. Hanson-Heine,  
 P. H. P. Harbach,  A. W. Hauser,  M. F. Herbst,  J. E. Herr,  
 E. G. Hohenstein,  Z. C. Holden,  Kerwin Hui,  B. C. Huynh,  T.-C. Jagau,  
 Hyunjun Ji,  B. Kaduk,  K. Khistyaev,  Jaehoon Kim,  P. Klunzinger,  K. Koh,  
 D. Kosenkov,  L. Koulias,  T. Kowalczyk,  C. M. Krauter,  A. Kunitsa,  
 Ka Un Lao,  A. Laurent,  K. V. Lawler,  Joonho Lee,  D. Lefrancois,  
 S. Lehtola,  D. S. Levine,  Yi-Pei Li,  You-Sheng Lin,  Fenglai Liu,  
 E. Livshits,  A. Luenser,  P. Manohar,  E. Mansoor,  S. F. Manzer,  
 Shan-Ping Mao,  Yuezhi Mao,  N. Mardirossian,  A. V. Marenich,  
 T. Markovich,  L. A. Martinez-Martinez,  S. A. Maurer,  N. J. Mayhall,  
 S. C. McKenzie,  J.-M. Mewes,  P. Morgante,  A. F. Morrison,  
 J. W. Mullinax,  K. Nanda,  T. S. Nguyen-Beck,  R. Olivares-Amaya,  
 J. A. Parkhill,  Zheng Pei,  T. M. Perrine,  F. Plasser,  P. Pokhilko,  
 S. Prager,  A. Prociuk,  E. Ramos,  D. R. Rehn,  F. Rob,  M. Scheurer,  
 M. Schneider,  N. Sergueev,  S. M. Sharada,  S. Sharma,  D. W. Small,  
 T. Stauch,  T. Stein,  Yu-Chuan Su,  A. J. W. Thom,  A. Tkatchenko,  
 T. Tsuchimochi,  N. M. Tubman,  L. Vogt,  M. L. Vidal,  O. Vydrov,  
 M. A. Watson,  J. Wenzel,  M. de Wergifosse,  T. A. Wesolowski,  A. White,  
 J. Witte,  A. Yamada,  Jun Yang,  K. Yao,  S. Yeganeh,  S. R. Yost,  
 Zhi-Qiang You,  A. Zech,  Igor Ying Zhang,  Xing Zhang,  Yan Zhao,  
 Ying Zhu,  B. R. Brooks,  G. K. L. Chan,  C. J. Cramer,  M. S. Gordon,  
 W. J. Hehre,  A. Klamt,  M. W. Schmidt,  C. D. Sherrill,  D. G. Truhlar,  
 A. Aspuru-Guzik,  R. Baer,  A. T. Bell,  N. A. Besley,  Jeng-Da Chai,  
 A. E. DePrince, III,  R. A. DiStasio Jr.,  A. Dreuw,  B. D. Dunietz,  
 T. R. Furlani,  Chao-Ping Hsu,  Yousung Jung,  Jing Kong,  D. S. Lambrecht,  
 WanZhen Liang,  C. Ochsenfeld,  V. A. Rassolov,  L. V. Slipchenko,  
 J. E. Subotnik,  T. Van Voorhis,  J. M. Herbert,  A. I. Krylov,  
 P. M. W. Gill,  M. Head-Gordon

 Contributors to earlier versions of Q-Chem not listed above: 
 R. D. Adamson,  B. Austin,  J. Baker,  G. J. O. Beran,  K. Brandhorst,  
 S. T. Brown,  E. F. C. Byrd,  A. K. Chakraborty,  C.-L. Cheng,  
 Siu Hung Chien,  D. M. Chipman,  D. L. Crittenden,  H. Dachsel,  
 R. J. Doerksen,  A. D. Dutoi,  L. Fusti-Molnar,  W. A. Goddard III,  
 A. Golubeva-Zadorozhnaya,  S. R. Gwaltney,  G. Hawkins,  A. Heyden,  
 S. Hirata,  G. Kedziora,  F. J. Keil,  C. Kelley,  Jihan Kim,  R. A. King,  
 R. Z. Khaliullin,  P. P. Korambath,  W. Kurlancheek,  A. M. Lee,  M. S. Lee,  
 S. V. Levchenko,  Ching Yeh Lin,  D. Liotard,  R. C. Lochan,  I. Lotan,  
 P. E. Maslen,  N. Nair,  D. P. O'Neill,  D. Neuhauser,  E. Neuscamman,  
 C. M. Oana,  R. Olson,  B. Peters,  R. Peverati,  P. A. Pieniazek,  
 Y. M. Rhee,  J. Ritchie,  M. A. Rohrdanz,  E. Rosta,  N. J. Russ,  
 H. F. Schaefer III,  N. E. Schultz,  N. Shenvi,  A. C. Simmonett,  A. Sodt,  
 D. Stuck,  K. S. Thanthiriwatte,  V. Vanovschi,  Tao Wang,  A. Warshel,  
 C. F. Williams,  Q. Wu,  X. Xu,  W. Zhang

 Please cite Q-Chem as follows:
 Y. Shao et al., Mol. Phys. 113, 184-215 (2015)
 DOI: 10.1080/00268976.2014.952696

 Q-Chem 5.2.0 for Intel X86 EM64T Linux

 Parts of Q-Chem use Armadillo 8.300.2 (Tropical Shenanigans).
 http://arma.sourceforge.net/

 Q-Chem begins on Sun Sep 26 08:20:59 2021  

Host: cori01
0

     Scratch files written to /tmp/qchem8742//
 May1019 |scratch|qcdevops|jenkins|workspace|build_RNUM -1
Processing $rem in /global/common/cori/software/qchem/5.2/config/preferences:
	 MEM_TOTAL  96000 
NAlpha2: 88
NElect   88
Mult     1
Symmetry turned off for PCM/SM12/SMD calculation

 Q-Chem warning in module libgen/rem_setup.C, line 2803:

 Neither GIA nor STOLL is specified by user. Use STOLL as the default


Checking the input file for inconsistencies... 	...done.

--------------------------------------------------------------
User input:
--------------------------------------------------------------
$comment
SSI-048HIE-099HIE-2.pdb
$end

$molecule
0 1
--
0 1
C   -2.594102519652   -1.408593088626   -0.678056788492
C   -1.191102519652    0.753406911374   -0.511056788492
C   -2.358102519652    0.067406911374   -0.618056788492
C   -2.838102519652    2.209406911374   -0.488056788492
N   -1.512102519652    2.088406911374   -0.441056788492
N   -3.379102519652    0.994406911374   -0.547056788492
H   -0.214102519652    0.338406911374   -0.512056788492
H   -0.854102519652    2.861406911374   -0.338056788492
H   -2.091102519652   -1.801593088626   -1.562056788492
H   -3.663102519652   -1.605593088626   -0.780056788492
H   -3.386102519652    3.144406911374   -0.432056788492
H   -2.196252519652   -1.917633088626    0.212223211508
--
0 1
C    2.717897480348    1.399406911374    0.608943211508
C    2.455897480348   -0.085593088626    0.646943211508
C    1.690897480348   -1.990593088626   -0.148056788492
C    2.807897480348   -1.068593088626    1.522943211508
N    1.788897480348   -0.682593088626   -0.404056788492
N    2.296897480348   -2.258593088626    1.010943211508
H    1.233897480348   -2.725593088626   -0.800056788492
H    2.233897480348    1.796406911374   -0.282056788492
H    3.778897480348    1.597406911374    0.499943211508
H    2.404897480348   -3.195593088626    1.400943211508
H    3.385897480348   -0.945593088626    2.422943211508
H    2.328167480348    1.959146911374    1.471963211508
$end

$rem
JOBTYPE			EDA
EDA2			1
method			wB97X-V
BASIS			def2-TZVPD
XC_GRID			000099000590
NL_GRID			1
UNRESTRICTED		FALSE
MAX_SCF_CYCLES		200
SYMMETRY		FALSE
SYM_IGNORE		TRUE
MEM_STATIC		2000
BASIS_LIN_DEP_THRESH 	6
THRESH 			14
SCF_CONVERGENCE 	8
SCF_PRINT_FRGM 		TRUE
SOLVENT_METHOD          PCM
$end

$PCM
THEORY                  CPCM
METHOD                  SWIG
SOLVER                  INVERSION
RADII                   UFF
HPOINTS                 302
HEAVYPOINTS             302
PRINTLEVEL              0
$END

$SOLVENT
DIELECTRIC              78.390000 ! water
$END
--------------------------------------------------------------
 ----------------------------------------------------------------
             Standard Nuclear Orientation (Angstroms)
    I     Atom           X                Y                Z
 ----------------------------------------------------------------
    1      C      -2.5941025197    -1.4085930886    -0.6780567885
    2      C      -1.1911025197     0.7534069114    -0.5110567885
    3      C      -2.3581025197     0.0674069114    -0.6180567885
    4      C      -2.8381025197     2.2094069114    -0.4880567885
    5      N      -1.5121025197     2.0884069114    -0.4410567885
    6      N      -3.3791025197     0.9944069114    -0.5470567885
    7      H      -0.2141025197     0.3384069114    -0.5120567885
    8      H      -0.8541025197     2.8614069114    -0.3380567885
    9      H      -2.0911025197    -1.8015930886    -1.5620567885
   10      H      -3.6631025197    -1.6055930886    -0.7800567885
   11      H      -3.3861025197     3.1444069114    -0.4320567885
   12      H      -2.1962525197    -1.9176330886     0.2122232115
   13      C       2.7178974803     1.3994069114     0.6089432115
   14      C       2.4558974803    -0.0855930886     0.6469432115
   15      C       1.6908974803    -1.9905930886    -0.1480567885
   16      C       2.8078974803    -1.0685930886     1.5229432115
   17      N       1.7888974803    -0.6825930886    -0.4040567885
   18      N       2.2968974803    -2.2585930886     1.0109432115
   19      H       1.2338974803    -2.7255930886    -0.8000567885
   20      H       2.2338974803     1.7964069114    -0.2820567885
   21      H       3.7788974803     1.5974069114     0.4999432115
   22      H       2.4048974803    -3.1955930886     1.4009432115
   23      H       3.3858974803    -0.9455930886     2.4229432115
   24      H       2.3281674803     1.9591469114     1.4719632115
 ----------------------------------------------------------------
 Nuclear Repulsion Energy =         646.66363521 hartrees
 There are       44 alpha and       44 beta electrons
 Requested basis set is def2-TZVPD
 There are 216 shells and 552 basis functions

 Total QAlloc Memory Limit  96000 MB
 Mega-Array Size      1956 MB
 MEM_STATIC part      2000 MB
 Discretize the solute cavity surface with Lebedev spheres
	Using 302 Lebedev grid points for each H atom
	Using 302 Lebedev grid points for other atoms
	Atomic van der Waals radii will be scaled by 1.20
 Remove points where switching function is < 1.0e-08
 Keep 2910 surface tesserae and discard 4338 interior tesserae
 Molecular Surface Area = 285.497 Angst**2
 A cutoff of  1.0D-14 yielded  20319 shell pairs
 There are    132907 function pairs (    168588 Cartesian)
 Smallest overlap matrix eigenvalue = 7.54E-07
 Linear dependence detected in AO basis
 Tighter screening thresholds may be required for diffuse basis sets
 Use S2THRESH > 14 and THRESH = 14 in case of SCF convergence issues
 Number of orthogonalized atomic orbitals = 551
 Maximum deviation from orthogonality = 1.182E-10

 Scale SEOQF with 1.000000e-01/1.000000e-01/1.000000e-01

 Standard Electronic Orientation quadrupole field applied
 Nucleus-field energy     =     0.0000000281 hartrees

 -----------------------------------------------------------------------
  General SCF calculation program by
  Eric Jon Sundstrom, Paul Horn, Yuezhi Mao, Dmitri Zuev, Alec White,
  David Stuck, Shaama M.S., Shane Yost, Joonho Lee, David Small,
  Daniel Levine, Susi Lehtola, Hugh Burton, Evgeny Epifanovsky
 -----------------------------------------------------------------------
================================================================
                 ALMO-EDA with the EDA2 driver                  
================================================================
 The second-generation ALMO-EDA (for DFT):                      
 P. R. Horn, Y. Mao and M. Head-Gordon, PCCP, 18, 23067 (2016)  
 Decomposition of the frozen energy:                            
 P. R. Horn, Y. Mao and M. Head-Gordon, JCP, 144, 114107 (2016) 
 FERF model for polarization:                                   
 P. R. Horn and M. Head-Gordon, JCP, 143, 114111 (2015)         
Using eda2 option set 1
Option set summary: Frozen orbital wavefunction, initial wavefunction decomposition, and nDQ polarization.
--------------------------------
Printing EDA Options
--------------------------------
eda_child_super_basis      0
fragmo_guess_mode          0
child_mp                   1
child_mp_orders            232
cls_elec                   1
cls_disp                   0
scfmi_mode                 1
scfmi_occs                 0
scfmi_virts                0
frz_relax                  0
frz_relax_method           0
dc_pen_start               0
dc_pen_conv                0
dc_pen_increment           0
dc_pen_steps               0
dc_pen_thresh_factor       0
dc_pen_pre_newton_thresh   0
frz_ortho_decomp           1
frz_ortho_decomp_conv      6
frgm_method                2
scfmi_freeze_ss            0
separate_rehyb             0
plot_diff_den              0
eda_nocv                   0
eda_vct_relax              1
disp_free_x                0
disp_free_c                0
eda_bsse                   0
eda_pct_a                  0
eda_covp                   0
--------------------------------
Attempting to make child job directory: /tmp/qchem8742//Frg1/
Attempting to make child job directory: /tmp/qchem8742//Frg2/
Creating input file /tmp/qchem8742/Frg1.input
using default PutDataFrgm: nothing
calling putenv with: QCSCRATCH=/tmp/qchem8742/ 
calling putenv with: QCLOCALSCR=/tmp/qchem8742/ 
Spawning Job For Fragment 0
                  Welcome to Q-Chem
     A Quantum Leap Into The Future Of Chemistry


 Q-Chem 5.2, Q-Chem, Inc., Pleasanton, CA (2019)

 License issued to: National Energy Research Scientific Computing Center

 Yihan Shao,  Zhengting Gan,  E. Epifanovsky,  A. T. B. Gilbert,  M. Wormit,  
 J. Kussmann,  A. W. Lange,  A. Behn,  Jia Deng,  Xintian Feng,  D. Ghosh,  
 M. Goldey,  P. R. Horn,  L. D. Jacobson,  I. Kaliman,  T. Kus,  A. Landau,  
 Jie Liu,  E. I. Proynov,  R. M. Richard,  R. P. Steele,  E. J. Sundstrom,  
 H. L. Woodcock III,  P. M. Zimmerman,  D. Zuev,  B. Albrecht,  E. Alguire,  
 S. A. Baeppler,  D. Barton,  Z. Benda,  Y. A. Bernard,  E. J. Berquist,  
 K. B. Bravaya,  H. Burton,  D. Casanova,  Chun-Min Chang,  Yunqing Chen,  
 A. Chien,  K. D. Closser,  M. P. Coons,  S. Coriani,  S. Dasgupta,  
 A. L. Dempwolff,  M. Diedenhofen,  Hainam Do,  R. G. Edgar,  Po-Tung Fang,  
 S. Faraji,  S. Fatehi,  Qingguo Feng,  K. D. Fenk,  J. Fosso-Tande,  
 J. Gayvert,  Qinghui Ge,  A. Ghysels,  G. Gidofalvi,  J. Gomes,  
 J. Gonthier,  A. Gunina,  D. Hait,  M. W. D. Hanson-Heine,  
 P. H. P. Harbach,  A. W. Hauser,  M. F. Herbst,  J. E. Herr,  
 E. G. Hohenstein,  Z. C. Holden,  Kerwin Hui,  B. C. Huynh,  T.-C. Jagau,  
 Hyunjun Ji,  B. Kaduk,  K. Khistyaev,  Jaehoon Kim,  P. Klunzinger,  K. Koh,  
 D. Kosenkov,  L. Koulias,  T. Kowalczyk,  C. M. Krauter,  A. Kunitsa,  
 Ka Un Lao,  A. Laurent,  K. V. Lawler,  Joonho Lee,  D. Lefrancois,  
 S. Lehtola,  D. S. Levine,  Yi-Pei Li,  You-Sheng Lin,  Fenglai Liu,  
 E. Livshits,  A. Luenser,  P. Manohar,  E. Mansoor,  S. F. Manzer,  
 Shan-Ping Mao,  Yuezhi Mao,  N. Mardirossian,  A. V. Marenich,  
 T. Markovich,  L. A. Martinez-Martinez,  S. A. Maurer,  N. J. Mayhall,  
 S. C. McKenzie,  J.-M. Mewes,  P. Morgante,  A. F. Morrison,  
 J. W. Mullinax,  K. Nanda,  T. S. Nguyen-Beck,  R. Olivares-Amaya,  
 J. A. Parkhill,  Zheng Pei,  T. M. Perrine,  F. Plasser,  P. Pokhilko,  
 S. Prager,  A. Prociuk,  E. Ramos,  D. R. Rehn,  F. Rob,  M. Scheurer,  
 M. Schneider,  N. Sergueev,  S. M. Sharada,  S. Sharma,  D. W. Small,  
 T. Stauch,  T. Stein,  Yu-Chuan Su,  A. J. W. Thom,  A. Tkatchenko,  
 T. Tsuchimochi,  N. M. Tubman,  L. Vogt,  M. L. Vidal,  O. Vydrov,  
 M. A. Watson,  J. Wenzel,  M. de Wergifosse,  T. A. Wesolowski,  A. White,  
 J. Witte,  A. Yamada,  Jun Yang,  K. Yao,  S. Yeganeh,  S. R. Yost,  
 Zhi-Qiang You,  A. Zech,  Igor Ying Zhang,  Xing Zhang,  Yan Zhao,  
 Ying Zhu,  B. R. Brooks,  G. K. L. Chan,  C. J. Cramer,  M. S. Gordon,  
 W. J. Hehre,  A. Klamt,  M. W. Schmidt,  C. D. Sherrill,  D. G. Truhlar,  
 A. Aspuru-Guzik,  R. Baer,  A. T. Bell,  N. A. Besley,  Jeng-Da Chai,  
 A. E. DePrince, III,  R. A. DiStasio Jr.,  A. Dreuw,  B. D. Dunietz,  
 T. R. Furlani,  Chao-Ping Hsu,  Yousung Jung,  Jing Kong,  D. S. Lambrecht,  
 WanZhen Liang,  C. Ochsenfeld,  V. A. Rassolov,  L. V. Slipchenko,  
 J. E. Subotnik,  T. Van Voorhis,  J. M. Herbert,  A. I. Krylov,  
 P. M. W. Gill,  M. Head-Gordon

 Contributors to earlier versions of Q-Chem not listed above: 
 R. D. Adamson,  B. Austin,  J. Baker,  G. J. O. Beran,  K. Brandhorst,  
 S. T. Brown,  E. F. C. Byrd,  A. K. Chakraborty,  C.-L. Cheng,  
 Siu Hung Chien,  D. M. Chipman,  D. L. Crittenden,  H. Dachsel,  
 R. J. Doerksen,  A. D. Dutoi,  L. Fusti-Molnar,  W. A. Goddard III,  
 A. Golubeva-Zadorozhnaya,  S. R. Gwaltney,  G. Hawkins,  A. Heyden,  
 S. Hirata,  G. Kedziora,  F. J. Keil,  C. Kelley,  Jihan Kim,  R. A. King,  
 R. Z. Khaliullin,  P. P. Korambath,  W. Kurlancheek,  A. M. Lee,  M. S. Lee,  
 S. V. Levchenko,  Ching Yeh Lin,  D. Liotard,  R. C. Lochan,  I. Lotan,  
 P. E. Maslen,  N. Nair,  D. P. O'Neill,  D. Neuhauser,  E. Neuscamman,  
 C. M. Oana,  R. Olson,  B. Peters,  R. Peverati,  P. A. Pieniazek,  
 Y. M. Rhee,  J. Ritchie,  M. A. Rohrdanz,  E. Rosta,  N. J. Russ,  
 H. F. Schaefer III,  N. E. Schultz,  N. Shenvi,  A. C. Simmonett,  A. Sodt,  
 D. Stuck,  K. S. Thanthiriwatte,  V. Vanovschi,  Tao Wang,  A. Warshel,  
 C. F. Williams,  Q. Wu,  X. Xu,  W. Zhang

 Please cite Q-Chem as follows:
 Y. Shao et al., Mol. Phys. 113, 184-215 (2015)
 DOI: 10.1080/00268976.2014.952696

 Q-Chem 5.2.0 for Intel X86 EM64T Linux

 Parts of Q-Chem use Armadillo 8.300.2 (Tropical Shenanigans).
 http://arma.sourceforge.net/

 Q-Chem begins on Sun Sep 26 08:21:04 2021  

Host: cori01
0

     Scratch files written to /tmp/qchem8742//Frg1//
 May1019 |scratch|qcdevops|jenkins|workspace|build_RNUM -1
Processing $rem in /global/common/cori/software/qchem/5.2/config/preferences:
	 MEM_TOTAL  96000 
NAlpha2: 44
NElect   44
Mult     1
Symmetry turned off for PCM/SM12/SMD calculation

Checking the input file for inconsistencies... 	...done.

--------------------------------------------------------------
User input:
--------------------------------------------------------------
$molecule
0 1
 6	-2.5941025197	-1.4085930886	-0.6780567885
 6	-1.1911025197	0.7534069114	-0.5110567885
 6	-2.3581025197	0.0674069114	-0.6180567885
 6	-2.8381025197	2.2094069114	-0.4880567885
 7	-1.5121025197	2.0884069114	-0.4410567885
 7	-3.3791025197	0.9944069114	-0.5470567885
 1	-0.2141025197	0.3384069114	-0.5120567885
 1	-0.8541025197	2.8614069114	-0.3380567885
 1	-2.0911025197	-1.8015930886	-1.5620567885
 1	-3.6631025197	-1.6055930886	-0.7800567885
 1	-3.3861025197	3.1444069114	-0.4320567885
 1	-2.1962525197	-1.9176330886	0.2122232115
$end
$rem
EDA2		1
METHOD		WB97X-V
BASIS		DEF2-TZVPD
XC_GRID		000099000590
NL_GRID		1
UNRESTRICTED		FALSE
MAX_SCF_CYCLES		200
SYMMETRY		FALSE
SYM_IGNORE		TRUE
BASIS_LIN_DEP_THRESH		6
THRESH		14
SCF_CONVERGENCE		8
SCF_PRINT_FRGM		TRUE
SOLVENT_METHOD		PCM
!required keywords
JOBTYPE		SP
SYM_IGNORE		TRUE
SUBSYSTEM		TRUE
GEN_SCFMAN		TRUE
CHILD_INSTRUCTION		2
SYM_IGNORE		TRUE
SCFMI		0
RI_K 0		
PARI_K 0		
MIN_PARI_K 0		
IARI_K 0		
OCC_RI_K 0		
PURECART		1111
MEM_STATIC		2000
MEM_TOTAL		96000
GUI		0
CHILD_MP		1
CHILD_MP_ORDERS		232
FRZ_RELAX		0
FRZ_RELAX_METHOD		0
EDA_CLS_ELEC		1
EDA_CLS_DISP		0
FRZ_ORTHO_DECOMP		1
EDA2		FALSE
FRGM_METHOD		FALSE
CIS_N_ROOTS  0
LOCAL_CIS    0
CIS_RLX_DNS  1
$end
$pcm
THEORY                  CPCM
METHOD                  SWIG
SOLVER                  INVERSION
RADII                   UFF
HPOINTS                 302
HEAVYPOINTS             302
PRINTLEVEL              0
$end
$solvent
DIELECTRIC              78.390000 ! water
$end
--------------------------------------------------------------
 ----------------------------------------------------------------
             Standard Nuclear Orientation (Angstroms)
    I     Atom           X                Y                Z
 ----------------------------------------------------------------
    1      C      -2.5941025197    -1.4085930886    -0.6780567885
    2      C      -1.1911025197     0.7534069114    -0.5110567885
    3      C      -2.3581025197     0.0674069114    -0.6180567885
    4      C      -2.8381025197     2.2094069114    -0.4880567885
    5      N      -1.5121025197     2.0884069114    -0.4410567885
    6      N      -3.3791025197     0.9944069114    -0.5470567885
    7      H      -0.2141025197     0.3384069114    -0.5120567885
    8      H      -0.8541025197     2.8614069114    -0.3380567885
    9      H      -2.0911025197    -1.8015930886    -1.5620567885
   10      H      -3.6631025197    -1.6055930886    -0.7800567885
   11      H      -3.3861025197     3.1444069114    -0.4320567885
   12      H      -2.1962525197    -1.9176330886     0.2122232115
 ----------------------------------------------------------------
 Nuclear Repulsion Energy =         224.71223649 hartrees
 There are       22 alpha and       22 beta electrons
 Requested basis set is def2-TZVPD
 There are 108 shells and 276 basis functions

 Total QAlloc Memory Limit  96000 MB
 Mega-Array Size      1956 MB
 MEM_STATIC part      2000 MB
 Discretize the solute cavity surface with Lebedev spheres
	Using 302 Lebedev grid points for each H atom
	Using 302 Lebedev grid points for other atoms
	Atomic van der Waals radii will be scaled by 1.20
 Remove points where switching function is < 1.0e-08
 Keep 1537 surface tesserae and discard 2087 interior tesserae
 Molecular Surface Area = 157.222 Angst**2

                       Distance Matrix (Angstroms)
             C (  1)   C (  2)   C (  3)   C (  4)   N (  5)   N (  6)
   C (  2)  2.582739
   C (  3)  1.495952  1.357915
   C (  4)  3.631193  2.198425  2.198969
   N (  5)  3.668229  1.374833  2.198064  1.332339
   N (  6)  2.531362  2.201527  1.380873  1.331310  2.166509
   H (  7)  2.957020  1.061487  2.163657  3.222824  2.179987  3.232458
   H (  8)  4.623429  2.141766  3.185412  2.093767  1.020344  3.147220
   H (  9)  1.090373  2.905620  2.110826  4.218958  4.089497  3.241417
   H ( 10)  1.091776  3.427539  2.127956  3.914092  4.288048  2.625823
   H ( 11)  4.627914  3.246713  3.249509  1.085203  2.151068  2.153085
   H ( 12)  1.100002  2.944132  2.157764  4.234952  4.116211  3.233515
             H (  7)   H (  8)   H (  9)   H ( 10)   H ( 11)
   H (  8)  2.608717
   H (  9)  3.034012  4.977139
   H ( 10)  3.968194  5.295275  1.766670
   H ( 11)  4.235755  2.549500  5.236109  4.770779
   H ( 12)  3.089210  4.994337  1.781177  1.798232  5.239760
 
 A cutoff of  1.0D-14 yielded   5736 shell pairs
 There are     38184 function pairs (     48966 Cartesian)
 Smallest overlap matrix eigenvalue = 1.80E-06

 Scale SEOQF with 1.000000e-01/1.000000e-01/1.000000e-01

 Standard Electronic Orientation quadrupole field applied
 Nucleus-field energy     =     0.0000000155 hartrees
 Guess from superposition of atomic densities
 Warning:  Energy on first SCF cycle will be non-variational
 SAD guess density has 43.559167 electrons

 -----------------------------------------------------------------------
  General SCF calculation program by
  Eric Jon Sundstrom, Paul Horn, Yuezhi Mao, Dmitri Zuev, Alec White,
  David Stuck, Shaama M.S., Shane Yost, Joonho Lee, David Small,
  Daniel Levine, Susi Lehtola, Hugh Burton, Evgeny Epifanovsky
 -----------------------------------------------------------------------
 Exchange:     0.1670 Hartree-Fock + 1.0000 wB97X-V + LR-HF
 Correlation:  1.0000 wB97X-V
 Using Euler-Maclaurin-Lebedev (99,590) quadrature formula
 Nonlocal Correlation:  VV10 with C = 0.0100 and b = 6.00 and scale = 1.00000
 Grid used for NLC:  SG-1 standard quadrature
Energy prior to optimization (guess energy) = -265.144478234729
Begin Timing: Total SCF Calculation
begin iterations for algorithm: DIIS         
the SCF tolerance is set to 1.00e-08
    1    -265.1444782347      7.19e-03     00000 
    2    -265.1007272352      7.38e-03     00000 
    3    -265.5582160425      7.22e-04     00000 
    4    -265.5617771457      4.14e-04     00000 
    5    -265.5631908259      8.62e-05     00000 
    6    -265.5632775321      3.05e-05     00000 
    7    -265.5632908597      9.50e-06     00000 
    8    -265.5632923615      3.26e-06     00000 
    9    -265.5632925681      1.37e-06     00000 
   10    -265.5632926159      3.79e-07     00000 
   11    -265.5632926210      9.25e-08     00000 
   12    -265.5632926212      5.45e-08     00000 
   13    -265.5632926213      1.05e-08     00000 
   14    -265.5632926213      3.82e-09     00000 Convergence criterion met
Timing for Total SCF: 1030.00s (wall), 2008.39s (cpu)

************** Final PCM Free Energy Summary **************
 G_electrostatic  =      -0.01060252 hartree =      -6.65318335 kcal/mol
 G_cavitation     =       0.00000000 hartree =       0.00000000 kcal/mol
 G_dispersion     =       0.00000000 hartree =       0.00000000 kcal/mol
 G_repulsion      =       0.00000000 hartree =       0.00000000 kcal/mol
 --------------------------------------------------
 Non-electrostatic Free Energy =       0.00000000 hartree =       0.00000000 kcal/mol
 Total                         =      -0.01060252 hartree =      -6.65318335 kcal/mol
 --------------------------------------------------
 SCF Energy (H0 + V/2)                       =    -265.56329262 
 Solute Internal Energy (H0)                 =    -265.55269010 
 Total Free Energy (H0 + V/2 + non-elec)     =    -265.56329262 hartree
                                             = -166643.48126981 kcal/mol
***********************************************************

E_pcm = -0.0106025226
Multipole orders to be included
        2
        3
computing dipole RHS
computing quadrupole RHS
total number of RHS in solve_reponses: 8
RHS batch sizes
        8
Beginning Block Conjugate Gradient Iterations. Batch Number: 0
computing hessian-vector products by finite difference
              1      6.12e-01     00000 Conjugate Gradient Iteration
computing hessian-vector products by finite difference
              2      2.11e-01     00000 Conjugate Gradient Iteration
computing hessian-vector products by finite difference
              3      5.31e-02     00000 Conjugate Gradient Iteration
computing hessian-vector products by finite difference
              4      1.63e-02     00000 Conjugate Gradient Iteration
computing hessian-vector products by finite difference
              5      3.32e-03     00000 Conjugate Gradient Iteration
computing hessian-vector products by finite difference
              6      6.56e-04     00000 Conjugate Gradient Iteration
computing hessian-vector products by finite difference
              7      1.22e-04     00000 Conjugate Gradient Iteration
computing hessian-vector products by finite difference
              8      1.76e-05     00000 Conjugate Gradient Iteration
computing hessian-vector products by finite difference
              9      2.49e-06     00000 Conjugate Gradient Iteration
computing hessian-vector products by finite difference
             10      3.54e-07     00000 Conjugate Gradient Iteration
computing hessian-vector products by finite difference
             11      5.86e-08     00000 Conjugate Gradient Iteration
computing hessian-vector products by finite difference
             12      7.89e-09     00000 CG Converged
batch 0 complete
Done Calculating Responses
TESTING ORTHOGONALIZATION OF MULTIPOLE BASIS
Multipole virts passed orthogonality test
Virts Per Order
           66
          110
 
 --------------------------------------------------------------
 
                    Orbital Energies (a.u.)
 --------------------------------------------------------------
 
 Alpha MOs
 -- Occupied --
-14.4680 -14.3887 -10.3226 -10.2865 -10.2858 -10.2639  -1.1558  -0.9976
 -0.9006  -0.8287  -0.7293  -0.6885  -0.6698  -0.5662  -0.5599  -0.5464
 -0.5150  -0.5004  -0.4822  -0.3816  -0.3744  -0.3234
 -- Virtual --
  0.0645   0.0818   0.0925   0.0992   0.1134   0.1252   0.1324   0.1397
  0.1653   0.1699   0.1775   0.1825   0.1935   0.1970   0.2185   0.2394
  0.2437   0.2526   0.2535   0.2553   0.2640   0.2880   0.2940   0.2985
  0.3032   0.3169   0.3197   0.3224   0.3312   0.3420   0.3448   0.3523
  0.3554   0.3562   0.3779   0.3789   0.3907   0.4036   0.4126   0.4143
  0.4236   0.4269   0.4311   0.4385   0.4610   0.4664   0.4707   0.4731
  0.4865   0.4945   0.4978   0.5031   0.5202   0.5369   0.5480   0.5510
  0.5623   0.5696   0.5834   0.5925   0.6014   0.6106   0.6192   0.6264
  0.6458   0.6509   0.6652   0.6804   0.6918   0.6999   0.7116   0.7237
  0.7303   0.7499   0.7601   0.7671   0.7733   0.7806   0.7853   0.7938
  0.8069   0.8205   0.8245   0.8384   0.8676   0.8769   0.9002   0.9117
  0.9147   0.9317   0.9457   0.9937   0.9948   1.0104   1.0216   1.0449
  1.0499   1.0713   1.0786   1.0926   1.1197   1.1710   1.1904   1.1949
  1.2276   1.2570   1.2633   1.3258   1.3332   1.3556   1.4013   1.4234
  1.4346   1.4531   1.5258   1.5736   1.6107   1.6266   1.6526   1.6744
  1.6946   1.7273   1.8009   1.8248   1.8343   1.8451   1.8514   1.8777
  1.9041   1.9344   1.9411   1.9435   1.9651   1.9844   2.0015   2.0101
  2.0311   2.0552   2.0955   2.1420   2.1907   2.2353   2.2445   2.2632
  2.2738   2.3097   2.3936   2.4036   2.4390   2.4599   2.4769   2.4954
  2.5143   2.5496   2.5782   2.6083   2.6447   2.6754   2.6955   2.7263
  2.7478   2.7719   2.7952   2.8434   2.8637   2.8812   2.9350   2.9776
  3.0075   3.0293   3.0366   3.0459   3.0941   3.1037   3.1403   3.1802
  3.1951   3.2047   3.2294   3.2493   3.2884   3.2897   3.3105   3.3359
  3.3470   3.3720   3.3734   3.4009   3.4201   3.4334   3.4700   3.4884
  3.4958   3.5031   3.5828   3.5902   3.6302   3.6513   3.6686   3.7127
  3.7344   3.7815   3.8252   3.8874   3.9092   3.9537   3.9875   4.0380
  4.0807   4.1059   4.1257   4.2409   4.2858   4.3509   4.4315   4.4666
  4.5172   4.5640   4.6079   4.7640   4.7772   4.7908   4.8412   4.8641
  4.9086   4.9588   5.0314   5.0381   5.0509   5.0915   5.1543   5.2039
  5.2307   5.3025   5.3725   5.4445   5.4840   5.5297   5.5781   5.6034
  5.6685   5.6899   5.7527   5.7905   5.8657   6.0405   6.2204   6.2748
 22.6321  22.8813  23.1202  23.3941  32.6409  32.7666
 --------------------------------------------------------------
 
          Ground-State Mulliken Net Atomic Charges

     Atom                 Charge (a.u.)
  ----------------------------------------
      1 C                    -0.752186
      2 C                    -0.608183
      3 C                     0.597721
      4 C                    -0.225717
      5 N                     0.088823
      6 N                    -0.479089
      7 H                     0.275703
      8 H                     0.180030
      9 H                     0.216823
     10 H                     0.205761
     11 H                     0.291211
     12 H                     0.209103
  ----------------------------------------
  Sum of atomic charges =     0.000000

 -----------------------------------------------------------------
                    Cartesian Multipole Moments
 -----------------------------------------------------------------
    Charge (ESU x 10^10)
                -0.0000
    Dipole Moment (Debye)
         X       3.9964      Y       2.0886      Z       0.2797
       Tot       4.5179
    Quadrupole Moments (Debye-Ang)
        XX     -54.8480     XY       0.0917     YY     -22.6346
        XZ      -2.4475     YZ       0.0353     ZZ     -38.5644
    Octopole Moments (Debye-Ang^2)
       XXX     333.4979    XXY     -31.5911    XYY      61.2973
       YYY     -29.8974    XXZ      30.7471    XYZ      -1.8937
       YYZ      16.1148    XZZ      90.1878    YZZ     -29.3895
       ZZZ      63.3147
    Hexadecapole Moments (Debye-Ang^3)
      XXXX   -1712.1130   XXXY     199.1786   XXYY    -256.9587
      XYYY      76.6888   YYYY    -405.1046   XXXZ    -188.2468
      XXYZ      18.7660   XYYZ     -40.0833   YYYZ      14.2963
      XXZZ    -267.1539   XYZZ      63.3883   YYZZ    -114.9352
      XZZZ    -150.4429   YZZZ      35.5093   ZZZZ    -120.1172
 -----------------------------------------------------------------
Archival summary:
1\1\nid00529\SP\ProcedureUnspecified\BasisUnspecified\246\meili\SunSep2613:03:202021SunSep2613:03:202021\0\\#,ProcedureUnspecified,BasisUnspecified,\\0,1\N\C,1,1.33131\H,2,1.0852,1,125.69\N,2,1.33234,1,108.851,3,176.911,0\H,4,1.02034,2,125.21,1,-176.329,0\C,4,1.37483,2,108.588,1,1.7679,0\H,6,1.06149,4,126.483,2,178.974,0\C,6,1.35792,4,107.092,2,0.715096,0\C,8,1.49595,6,129.582,4,-177.578,0\H,9,1.09037,8,108.383,6,-61.2818,0\H,9,1.09178,8,109.648,6,-179.091,0\H,9,1.1,8,111.535,6,58.4875,0\\\@

 Total job time:  16937.41s(wall), 33591.22s(cpu) 
 Sun Sep 26 13:03:22 2021

        *************************************************************
        *                                                           *
        *  Thank you very much for using Q-Chem.  Have a nice day.  *
        *                                                           *
        *************************************************************


Done Job For Fragment 0
calling putenv with: QCSCRATCH=/global/cscratch1/sd/meili 
calling putenv with: QCLOCALSCR=/tmp 
calling putenv with: QCTHREADS=32 
Creating input file /tmp/qchem8742/Frg2.input
using default PutDataFrgm: nothing
calling putenv with: QCSCRATCH=/tmp/qchem8742/ 
calling putenv with: QCLOCALSCR=/tmp/qchem8742/ 
Spawning Job For Fragment 1
                  Welcome to Q-Chem
     A Quantum Leap Into The Future Of Chemistry


 Q-Chem 5.2, Q-Chem, Inc., Pleasanton, CA (2019)

 License issued to: National Energy Research Scientific Computing Center

 Yihan Shao,  Zhengting Gan,  E. Epifanovsky,  A. T. B. Gilbert,  M. Wormit,  
 J. Kussmann,  A. W. Lange,  A. Behn,  Jia Deng,  Xintian Feng,  D. Ghosh,  
 M. Goldey,  P. R. Horn,  L. D. Jacobson,  I. Kaliman,  T. Kus,  A. Landau,  
 Jie Liu,  E. I. Proynov,  R. M. Richard,  R. P. Steele,  E. J. Sundstrom,  
 H. L. Woodcock III,  P. M. Zimmerman,  D. Zuev,  B. Albrecht,  E. Alguire,  
 S. A. Baeppler,  D. Barton,  Z. Benda,  Y. A. Bernard,  E. J. Berquist,  
 K. B. Bravaya,  H. Burton,  D. Casanova,  Chun-Min Chang,  Yunqing Chen,  
 A. Chien,  K. D. Closser,  M. P. Coons,  S. Coriani,  S. Dasgupta,  
 A. L. Dempwolff,  M. Diedenhofen,  Hainam Do,  R. G. Edgar,  Po-Tung Fang,  
 S. Faraji,  S. Fatehi,  Qingguo Feng,  K. D. Fenk,  J. Fosso-Tande,  
 J. Gayvert,  Qinghui Ge,  A. Ghysels,  G. Gidofalvi,  J. Gomes,  
 J. Gonthier,  A. Gunina,  D. Hait,  M. W. D. Hanson-Heine,  
 P. H. P. Harbach,  A. W. Hauser,  M. F. Herbst,  J. E. Herr,  
 E. G. Hohenstein,  Z. C. Holden,  Kerwin Hui,  B. C. Huynh,  T.-C. Jagau,  
 Hyunjun Ji,  B. Kaduk,  K. Khistyaev,  Jaehoon Kim,  P. Klunzinger,  K. Koh,  
 D. Kosenkov,  L. Koulias,  T. Kowalczyk,  C. M. Krauter,  A. Kunitsa,  
 Ka Un Lao,  A. Laurent,  K. V. Lawler,  Joonho Lee,  D. Lefrancois,  
 S. Lehtola,  D. S. Levine,  Yi-Pei Li,  You-Sheng Lin,  Fenglai Liu,  
 E. Livshits,  A. Luenser,  P. Manohar,  E. Mansoor,  S. F. Manzer,  
 Shan-Ping Mao,  Yuezhi Mao,  N. Mardirossian,  A. V. Marenich,  
 T. Markovich,  L. A. Martinez-Martinez,  S. A. Maurer,  N. J. Mayhall,  
 S. C. McKenzie,  J.-M. Mewes,  P. Morgante,  A. F. Morrison,  
 J. W. Mullinax,  K. Nanda,  T. S. Nguyen-Beck,  R. Olivares-Amaya,  
 J. A. Parkhill,  Zheng Pei,  T. M. Perrine,  F. Plasser,  P. Pokhilko,  
 S. Prager,  A. Prociuk,  E. Ramos,  D. R. Rehn,  F. Rob,  M. Scheurer,  
 M. Schneider,  N. Sergueev,  S. M. Sharada,  S. Sharma,  D. W. Small,  
 T. Stauch,  T. Stein,  Yu-Chuan Su,  A. J. W. Thom,  A. Tkatchenko,  
 T. Tsuchimochi,  N. M. Tubman,  L. Vogt,  M. L. Vidal,  O. Vydrov,  
 M. A. Watson,  J. Wenzel,  M. de Wergifosse,  T. A. Wesolowski,  A. White,  
 J. Witte,  A. Yamada,  Jun Yang,  K. Yao,  S. Yeganeh,  S. R. Yost,  
 Zhi-Qiang You,  A. Zech,  Igor Ying Zhang,  Xing Zhang,  Yan Zhao,  
 Ying Zhu,  B. R. Brooks,  G. K. L. Chan,  C. J. Cramer,  M. S. Gordon,  
 W. J. Hehre,  A. Klamt,  M. W. Schmidt,  C. D. Sherrill,  D. G. Truhlar,  
 A. Aspuru-Guzik,  R. Baer,  A. T. Bell,  N. A. Besley,  Jeng-Da Chai,  
 A. E. DePrince, III,  R. A. DiStasio Jr.,  A. Dreuw,  B. D. Dunietz,  
 T. R. Furlani,  Chao-Ping Hsu,  Yousung Jung,  Jing Kong,  D. S. Lambrecht,  
 WanZhen Liang,  C. Ochsenfeld,  V. A. Rassolov,  L. V. Slipchenko,  
 J. E. Subotnik,  T. Van Voorhis,  J. M. Herbert,  A. I. Krylov,  
 P. M. W. Gill,  M. Head-Gordon

 Contributors to earlier versions of Q-Chem not listed above: 
 R. D. Adamson,  B. Austin,  J. Baker,  G. J. O. Beran,  K. Brandhorst,  
 S. T. Brown,  E. F. C. Byrd,  A. K. Chakraborty,  C.-L. Cheng,  
 Siu Hung Chien,  D. M. Chipman,  D. L. Crittenden,  H. Dachsel,  
 R. J. Doerksen,  A. D. Dutoi,  L. Fusti-Molnar,  W. A. Goddard III,  
 A. Golubeva-Zadorozhnaya,  S. R. Gwaltney,  G. Hawkins,  A. Heyden,  
 S. Hirata,  G. Kedziora,  F. J. Keil,  C. Kelley,  Jihan Kim,  R. A. King,  
 R. Z. Khaliullin,  P. P. Korambath,  W. Kurlancheek,  A. M. Lee,  M. S. Lee,  
 S. V. Levchenko,  Ching Yeh Lin,  D. Liotard,  R. C. Lochan,  I. Lotan,  
 P. E. Maslen,  N. Nair,  D. P. O'Neill,  D. Neuhauser,  E. Neuscamman,  
 C. M. Oana,  R. Olson,  B. Peters,  R. Peverati,  P. A. Pieniazek,  
 Y. M. Rhee,  J. Ritchie,  M. A. Rohrdanz,  E. Rosta,  N. J. Russ,  
 H. F. Schaefer III,  N. E. Schultz,  N. Shenvi,  A. C. Simmonett,  A. Sodt,  
 D. Stuck,  K. S. Thanthiriwatte,  V. Vanovschi,  Tao Wang,  A. Warshel,  
 C. F. Williams,  Q. Wu,  X. Xu,  W. Zhang

 Please cite Q-Chem as follows:
 Y. Shao et al., Mol. Phys. 113, 184-215 (2015)
 DOI: 10.1080/00268976.2014.952696

 Q-Chem 5.2.0 for Intel X86 EM64T Linux

 Parts of Q-Chem use Armadillo 8.300.2 (Tropical Shenanigans).
 http://arma.sourceforge.net/

 Q-Chem begins on Sun Sep 26 13:03:24 2021  

Host: cori01
0

     Scratch files written to /tmp/qchem8742//Frg2//
 May1019 |scratch|qcdevops|jenkins|workspace|build_RNUM -1
Processing $rem in /global/common/cori/software/qchem/5.2/config/preferences:
	 MEM_TOTAL  96000 
NAlpha2: 44
NElect   44
Mult     1
Symmetry turned off for PCM/SM12/SMD calculation

Checking the input file for inconsistencies... 	...done.

--------------------------------------------------------------
User input:
--------------------------------------------------------------
$molecule
0 1
 6	2.7178974803	1.3994069114	0.6089432115
 6	2.4558974803	-0.0855930886	0.6469432115
 6	1.6908974803	-1.9905930886	-0.1480567885
 6	2.8078974803	-1.0685930886	1.5229432115
 7	1.7888974803	-0.6825930886	-0.4040567885
 7	2.2968974803	-2.2585930886	1.0109432115
 1	1.2338974803	-2.7255930886	-0.8000567885
 1	2.2338974803	1.7964069114	-0.2820567885
 1	3.7788974803	1.5974069114	0.4999432115
 1	2.4048974803	-3.1955930886	1.4009432115
 1	3.3858974803	-0.9455930886	2.4229432115
 1	2.3281674803	1.9591469114	1.4719632115
$end
$rem
EDA2		1
METHOD		WB97X-V
BASIS		DEF2-TZVPD
XC_GRID		000099000590
NL_GRID		1
UNRESTRICTED		FALSE
MAX_SCF_CYCLES		200
SYMMETRY		FALSE
SYM_IGNORE		TRUE
BASIS_LIN_DEP_THRESH		6
THRESH		14
SCF_CONVERGENCE		8
SCF_PRINT_FRGM		TRUE
SOLVENT_METHOD		PCM
!required keywords
JOBTYPE		SP
SYM_IGNORE		TRUE
SUBSYSTEM		TRUE
GEN_SCFMAN		TRUE
CHILD_INSTRUCTION		2
SYM_IGNORE		TRUE
SCFMI		0
RI_K 0		
PARI_K 0		
MIN_PARI_K 0		
IARI_K 0		
OCC_RI_K 0		
PURECART		1111
MEM_STATIC		2000
MEM_TOTAL		96000
GUI		0
CHILD_MP		1
CHILD_MP_ORDERS		232
FRZ_RELAX		0
FRZ_RELAX_METHOD		0
EDA_CLS_ELEC		1
EDA_CLS_DISP		0
FRZ_ORTHO_DECOMP		1
EDA2		FALSE
FRGM_METHOD		FALSE
CIS_N_ROOTS  0
LOCAL_CIS    0
CIS_RLX_DNS  1
$end
$pcm
THEORY                  CPCM
METHOD                  SWIG
SOLVER                  INVERSION
RADII                   UFF
HPOINTS                 302
HEAVYPOINTS             302
PRINTLEVEL              0
$end
$solvent
DIELECTRIC              78.390000 ! water
$end
--------------------------------------------------------------
 ----------------------------------------------------------------
             Standard Nuclear Orientation (Angstroms)
    I     Atom           X                Y                Z
 ----------------------------------------------------------------
    1      C       2.7178974803     1.3994069114     0.6089432115
    2      C       2.4558974803    -0.0855930886     0.6469432115
    3      C       1.6908974803    -1.9905930886    -0.1480567885
    4      C       2.8078974803    -1.0685930886     1.5229432115
    5      N       1.7888974803    -0.6825930886    -0.4040567885
    6      N       2.2968974803    -2.2585930886     1.0109432115
    7      H       1.2338974803    -2.7255930886    -0.8000567885
    8      H       2.2338974803     1.7964069114    -0.2820567885
    9      H       3.7788974803     1.5974069114     0.4999432115
   10      H       2.4048974803    -3.1955930886     1.4009432115
   11      H       3.3858974803    -0.9455930886     2.4229432115
   12      H       2.3281674803     1.9591469114     1.4719632115
 ----------------------------------------------------------------
 Nuclear Repulsion Energy =         223.73068458 hartrees
 There are       22 alpha and       22 beta electrons
 Requested basis set is def2-TZVPD
 There are 108 shells and 276 basis functions

 Total QAlloc Memory Limit  96000 MB
 Mega-Array Size      1956 MB
 MEM_STATIC part      2000 MB
 Discretize the solute cavity surface with Lebedev spheres
	Using 302 Lebedev grid points for each H atom
	Using 302 Lebedev grid points for other atoms
	Atomic van der Waals radii will be scaled by 1.20
 Remove points where switching function is < 1.0e-08
 Keep 1542 surface tesserae and discard 2082 interior tesserae
 Molecular Surface Area = 157.636 Angst**2

                       Distance Matrix (Angstroms)
             C (  1)   C (  2)   C (  3)   C (  4)   N (  5)   N (  6)
   C (  2)  1.508414
   C (  3)  3.622137  2.201426
   C (  4)  2.633348  1.362927  2.211338
   N (  5)  2.494781  1.380543  1.336415  2.213749
   N (  6)  3.704026  2.209006  1.335043  1.392611  2.178087
   H (  7)  4.604689  3.249106  1.083595  3.258750  2.153762  2.151227
   H (  8)  1.088920  2.110509  3.828077  3.434491  2.521577  4.256623
   H (  9)  1.084807  2.145793  4.201594  3.016111  3.158436  4.162473
   H ( 10)  4.673249  3.200503  2.088354  2.168276  3.154782  1.020653
   H ( 11)  3.039053  2.181439  3.251936  1.076668  3.257531  2.214415
   H ( 12)  1.100001  2.208605  4.316367  3.065934  3.284669  4.242976
             H (  7)   H (  8)   H (  9)   H ( 10)   H ( 11)
   H (  8)  4.660130
   H (  9)  5.182215  1.743029
   H ( 10)  2.537034  5.270844  5.066806
   H ( 11)  4.264649  4.020285  3.212355  2.658824
   H ( 12)  5.320366  1.764074  1.783339  5.155800  3.234296
 
 A cutoff of  1.0D-14 yielded   5732 shell pairs
 There are     38172 function pairs (     48951 Cartesian)
 Smallest overlap matrix eigenvalue = 1.89E-06

 Scale SEOQF with 1.000000e-01/1.000000e-01/1.000000e-01

 Standard Electronic Orientation quadrupole field applied
 Nucleus-field energy     =     0.0000000126 hartrees
 Guess from superposition of atomic densities
 Warning:  Energy on first SCF cycle will be non-variational
 SAD guess density has 43.559167 electrons

 -----------------------------------------------------------------------
  General SCF calculation program by
  Eric Jon Sundstrom, Paul Horn, Yuezhi Mao, Dmitri Zuev, Alec White,
  David Stuck, Shaama M.S., Shane Yost, Joonho Lee, David Small,
  Daniel Levine, Susi Lehtola, Hugh Burton, Evgeny Epifanovsky
 -----------------------------------------------------------------------
 Exchange:     0.1670 Hartree-Fock + 1.0000 wB97X-V + LR-HF
 Correlation:  1.0000 wB97X-V
 Using Euler-Maclaurin-Lebedev (99,590) quadrature formula
 Nonlocal Correlation:  VV10 with C = 0.0100 and b = 6.00 and scale = 1.00000
 Grid used for NLC:  SG-1 standard quadrature
Energy prior to optimization (guess energy) = -265.144239218102
Begin Timing: Total SCF Calculation
begin iterations for algorithm: DIIS         
the SCF tolerance is set to 1.00e-08
    1    -265.1442392181      7.20e-03     00000 
    2    -265.0959160945      7.41e-03     00000 
    3    -265.5579825693      7.25e-04     00000 
    4    -265.5615369505      4.19e-04     00000 
    5    -265.5629827915      8.67e-05     00000 
    6    -265.5630697714      3.01e-05     00000 
    7    -265.5630827097      9.14e-06     00000 
    8    -265.5630841065      3.09e-06     00000 
    9    -265.5630842937      1.34e-06     00000 
   10    -265.5630843380      3.74e-07     00000 
   11    -265.5630843430      8.64e-08     00000 
   12    -265.5630843432      5.03e-08     00000 
   13    -265.5630843432      1.03e-08     00000 
   14    -265.5630843432      3.89e-09     00000 Convergence criterion met
Timing for Total SCF: 1005.00s (wall), 1996.26s (cpu)

************** Final PCM Free Energy Summary **************
 G_electrostatic  =      -0.01040583 hartree =      -6.52975391 kcal/mol
 G_cavitation     =       0.00000000 hartree =       0.00000000 kcal/mol
 G_dispersion     =       0.00000000 hartree =       0.00000000 kcal/mol
 G_repulsion      =       0.00000000 hartree =       0.00000000 kcal/mol
 --------------------------------------------------
 Non-electrostatic Free Energy =       0.00000000 hartree =       0.00000000 kcal/mol
 Total                         =      -0.01040583 hartree =      -6.52975391 kcal/mol
 --------------------------------------------------
 SCF Energy (H0 + V/2)                       =    -265.56308434 
 Solute Internal Energy (H0)                 =    -265.55267852 
 Total Free Energy (H0 + V/2 + non-elec)     =    -265.56308434 hartree
                                             = -166643.35057335 kcal/mol
***********************************************************

E_pcm = -0.0104058253
Multipole orders to be included
        2
        3
computing dipole RHS
computing quadrupole RHS
total number of RHS in solve_reponses: 8
RHS batch sizes
        8
Beginning Block Conjugate Gradient Iterations. Batch Number: 0
computing hessian-vector products by finite difference
              1      5.90e-01     00000 Conjugate Gradient Iteration
computing hessian-vector products by finite difference
              2      1.91e-01     00000 Conjugate Gradient Iteration
computing hessian-vector products by finite difference
              3      4.43e-02     00000 Conjugate Gradient Iteration
computing hessian-vector products by finite difference
              4      1.18e-02     00000 Conjugate Gradient Iteration
computing hessian-vector products by finite difference
              5      3.12e-03     00000 Conjugate Gradient Iteration
computing hessian-vector products by finite difference
              6      5.77e-04     00000 Conjugate Gradient Iteration
computing hessian-vector products by finite difference
              7      1.12e-04     00000 Conjugate Gradient Iteration
computing hessian-vector products by finite difference
              8      1.71e-05     00000 Conjugate Gradient Iteration
computing hessian-vector products by finite difference
              9      2.50e-06     00000 Conjugate Gradient Iteration
computing hessian-vector products by finite difference
             10      3.93e-07     00000 Conjugate Gradient Iteration
computing hessian-vector products by finite difference
             11      8.31e-08     00000 Conjugate Gradient Iteration
computing hessian-vector products by finite difference
             12      1.88e-08     00000 Conjugate Gradient Iteration
computing hessian-vector products by finite difference
             13      3.43e-09     00000 CG Converged
batch 0 complete
Done Calculating Responses
TESTING ORTHOGONALIZATION OF MULTIPOLE BASIS
Multipole virts passed orthogonality test
Virts Per Order
           66
          110
 
 --------------------------------------------------------------
 
                    Orbital Energies (a.u.)
 --------------------------------------------------------------
 
 Alpha MOs
 -- Occupied --
-14.4698 -14.3891 -10.3243 -10.2925 -10.2897 -10.2634  -1.1520  -0.9972
 -0.8965  -0.8292  -0.7289  -0.6858  -0.6700  -0.5636  -0.5594  -0.5457
 -0.5143  -0.5001  -0.4779  -0.3812  -0.3762  -0.3252
 -- Virtual --
  0.0641   0.0819   0.0928   0.0972   0.1134   0.1248   0.1326   0.1403
  0.1651   0.1681   0.1781   0.1825   0.1940   0.1972   0.2162   0.2367
  0.2417   0.2510   0.2544   0.2568   0.2645   0.2877   0.2929   0.2973
  0.3045   0.3134   0.3183   0.3213   0.3324   0.3408   0.3422   0.3498
  0.3529   0.3576   0.3772   0.3805   0.3865   0.4002   0.4064   0.4151
  0.4180   0.4283   0.4311   0.4406   0.4531   0.4658   0.4692   0.4721
  0.4849   0.4960   0.4983   0.5042   0.5165   0.5328   0.5500   0.5526
  0.5604   0.5682   0.5840   0.5951   0.5998   0.6072   0.6152   0.6227
  0.6471   0.6514   0.6612   0.6795   0.6901   0.6993   0.7061   0.7238
  0.7273   0.7473   0.7576   0.7695   0.7772   0.7798   0.7834   0.7946
  0.8074   0.8173   0.8228   0.8362   0.8653   0.8805   0.8934   0.8970
  0.9126   0.9348   0.9442   0.9881   0.9930   1.0117   1.0245   1.0398
  1.0558   1.0651   1.0735   1.0839   1.1188   1.1665   1.1916   1.1956
  1.2335   1.2533   1.2633   1.3167   1.3373   1.3542   1.3981   1.4238
  1.4447   1.4489   1.5225   1.5585   1.6058   1.6164   1.6489   1.6672
  1.6898   1.7389   1.7964   1.8206   1.8412   1.8481   1.8508   1.8765
  1.8964   1.9210   1.9351   1.9396   1.9635   1.9788   1.9987   2.0045
  2.0229   2.0600   2.0853   2.1495   2.1779   2.2327   2.2398   2.2660
  2.2796   2.3081   2.3897   2.4101   2.4326   2.4431   2.4597   2.4910
  2.5184   2.5483   2.5862   2.6332   2.6508   2.6638   2.6839   2.7113
  2.7384   2.7678   2.7870   2.8344   2.8559   2.8746   2.9291   2.9686
  2.9835   3.0185   3.0333   3.0367   3.0807   3.0878   3.1391   3.1633
  3.1750   3.2002   3.2285   3.2360   3.2946   3.3080   3.3136   3.3314
  3.3590   3.3656   3.3790   3.3911   3.4097   3.4389   3.4463   3.4780
  3.4950   3.5041   3.5805   3.5869   3.6260   3.6406   3.6653   3.7179
  3.7339   3.7759   3.8238   3.8735   3.9086   3.9412   3.9546   4.0377
  4.0737   4.0980   4.1279   4.2276   4.2801   4.3489   4.4176   4.4375
  4.5117   4.5417   4.5992   4.7436   4.7612   4.7856   4.8184   4.8483
  4.9019   4.9484   5.0233   5.0268   5.0361   5.1100   5.1397   5.2032
  5.2192   5.2952   5.3603   5.4097   5.4712   5.5179   5.5652   5.5919
  5.6687   5.6910   5.7552   5.7857   5.8613   6.0346   6.1994   6.2591
 22.6254  22.8400  23.0947  23.3670  32.6247  32.7605
 --------------------------------------------------------------
 
          Ground-State Mulliken Net Atomic Charges

     Atom                 Charge (a.u.)
  ----------------------------------------
      1 C                    -0.754220
      2 C                     0.597560
      3 C                    -0.230465
      4 C                    -0.623521
      5 N                    -0.453516
      6 N                     0.089205
      7 H                     0.293038
      8 H                     0.209553
      9 H                     0.203081
     10 H                     0.183253
     11 H                     0.260983
     12 H                     0.225052
  ----------------------------------------
  Sum of atomic charges =     0.000000

 -----------------------------------------------------------------
                    Cartesian Multipole Moments
 -----------------------------------------------------------------
    Charge (ESU x 10^10)
                -0.0000
    Dipole Moment (Debye)
         X       1.2582      Y      -3.1351      Z       2.8398
       Tot       4.4132
    Quadrupole Moments (Debye-Ang)
        XX     -31.7533     XY      -6.1165     YY     -20.6735
        XZ       8.1108     YZ      -3.6622     ZZ     -34.1501
    Octopole Moments (Debye-Ang^2)
       XXX    -238.7056    XXY      13.9859    XYY     -52.3030
       YYY      25.6423    XXZ       3.2287    XYZ     -12.5622
       YYZ      -6.6341    XZZ     -73.8833    YZZ      17.1961
       ZZZ     -50.1799
    Hexadecapole Moments (Debye-Ang^3)
      XXXX   -1224.7404   XXXY     124.4671   XXYY    -235.4807
      XYYY      35.8326   YYYY    -376.5741   XXXZ    -103.6587
      XXYZ     -22.7299   XYYZ     -16.0842   YYYZ      -4.8399
      XXZZ    -209.5628   XYZZ      23.1708   YYZZ     -96.9540
      XZZZ    -135.5091   YZZZ      27.5756   ZZZZ    -208.1226
 -----------------------------------------------------------------
Archival summary:
1\1\nid00529\SP\ProcedureUnspecified\BasisUnspecified\246\meili\SunSep2618:00:442021SunSep2618:00:442021\0\\#,ProcedureUnspecified,BasisUnspecified,\\0,1\N\C,1,1.33641\H,2,1.08359,1,125.418\N,2,1.33504,1,109.238,3,177.303,0\H,4,1.02065,2,124.336,1,-176.417,0\C,1,1.38054,2,108.231,3,-178.748,0\C,6,1.36293,1,107.59,2,2.36096,0\H,7,1.07667,6,126.407,1,176.538,0\C,6,1.50841,1,119.371,2,179.387,0\H,9,1.08481,6,110.616,1,-111.753,0\H,9,1.08892,6,107.598,1,4.3414,0\H,9,1.1,6,114.813,1,123.826,0\\\@

 Total job time:  17842.35s(wall), 35325.82s(cpu) 
 Sun Sep 26 18:00:46 2021

        *************************************************************
        *                                                           *
        *  Thank you very much for using Q-Chem.  Have a nice day.  *
        *                                                           *
        *************************************************************


Done Job For Fragment 1
calling putenv with: QCSCRATCH=/global/cscratch1/sd/meili 
calling putenv with: QCLOCALSCR=/tmp 
calling putenv with: QCTHREADS=32 
Doing General SCFMI
 Exchange:     0.1670 Hartree-Fock + 1.0000 wB97X-V + LR-HF
 Correlation:  1.0000 wB97X-V
 Using Euler-Maclaurin-Lebedev (99,590) quadrature formula
 Nonlocal Correlation:  VV10 with C = 0.0100 and b = 6.00 and scale = 1.00000
 Grid used for NLC:  SG-1 standard quadrature
performing fock build before subrot guess so that all methods have access
Printing subrot_rss_gen Method Specification:
Occupied Subspace Method is 0
Virtual Subspace Method is 0
Energy of the unrelaxed supersystem initial determinant -531.108561468721
performing fock build before subrot guess so that all methods have access
Printing subrot_rss_gen Method Specification:
Occupied Subspace Method is 0
Virtual Subspace Method is 0
Energy of the unrelaxed supersystem initial determinant w/ solvent -531.126985814715
write pseudocanon occs and virts to disk
write pseudocanon orbital energies to disk
Tolerance of ortho_decomp_scf: 1.00e-06
GDM subspace size: 20
Beginning the Orthogonal Decomposition of the Initial Supersystem Wavefunction
    1    -531.0774429148      4.07e-02     ortho_decomp Preconditoned Steepest Descent
    2    -531.0822543785      1.14e-03     ortho_decomp BFGS Step
    3    -531.0822753041      1.11e-04     ortho_decomp BFGS Step
    4    -531.0822753731      5.92e-06     ortho_decomp BFGS Step
    5    -531.0822753735      2.52e-07     ortho_decomp 00000 Convergence criterion met
 Hartree-Fock
 Hartree-Fock
 Hartree-Fock
Doing General SCFMI
 Exchange:     0.1670 Hartree-Fock + 1.0000 wB97X-V + LR-HF
 Correlation:  1.0000 wB97X-V
 Using Euler-Maclaurin-Lebedev (99,590) quadrature formula
 Nonlocal Correlation:  VV10 with C = 0.0100 and b = 6.00 and scale = 1.00000
 Grid used for NLC:  SG-1 standard quadrature
performing fock build at end of subrot_r(subrot) constructor so that all methods have access
<S^2> of initial wavefunction before polarization iterations 0.0000000000
Beginning iterations for the determination of the polarized wavefunction
Energy prior to optimization (guess energy) = -531.126985814715
Begin Timing: Total SCF Calculation
begin iterations for algorithm: DIIS         
the SCF tolerance is set to 1.00e-08
    1    -531.1269858147      9.07e-05     00000 
    2    -531.1276773289      3.65e-05     00000 
    3    -531.1277427848      2.43e-05     00000 
    4    -531.1277703623      5.89e-06     00000 
    5    -531.1277730435      3.53e-06     00000 
    6    -531.1277739098      1.27e-06     00000 
    7    -531.1277740975      5.30e-07     00000 
    8    -531.1277741190      2.06e-07     00000 
    9    -531.1277741211      8.96e-08     00000 
   10    -531.1277741214      4.40e-08     00000 
   11    -531.1277741215      1.90e-08     00000 
   12    -531.1277741215      8.82e-09     00000 Convergence criterion met
write pseudocanon occs and virts to disk
write pseudocanon orbital energies to disk
Timing for Total SCF: 6073.00s (wall), 12065.88s (cpu)
<S^2> of polarized wavefunction after polarization iterations 0.0000000000
relaxing scfmi constraint to allow all rotations in the entire AO span
Doing General SCFMI
 Exchange:     0.1670 Hartree-Fock + 1.0000 wB97X-V + LR-HF
 Correlation:  1.0000 wB97X-V
 Using Euler-Maclaurin-Lebedev (99,590) quadrature formula
 Nonlocal Correlation:  VV10 with C = 0.0100 and b = 6.00 and scale = 1.00000
 Grid used for NLC:  SG-1 standard quadrature
performing fock build at end of subrot_r(subrot) constructor so that all methods have access
<S^2> of polarized wavefunction before ct-allowed iterations 0.0000000000
Beginning iterations for the determination of the CT-Allowed wavefunction
Energy prior to optimization (guess energy) = -531.127774121465
Begin Timing: Total SCF Calculation
begin iterations for algorithm: DIIS         
the SCF tolerance is set to 1.00e-08
    1    -531.1277741215      9.52e-05     00000 
    2    -531.1294295035      1.32e-05     00000 
    3    -531.1294933492      3.77e-06     00000 
    4    -531.1294954343      2.96e-06     00000 
    5    -531.1294966430      4.36e-07     00000 
    6    -531.1294966780      2.05e-07     00000 
    7    -531.1294966878      5.06e-08     00000 
    8    -531.1294966886      2.26e-08     00000 
    9    -531.1294966887      6.45e-09     00000 Convergence criterion met
write pseudocanon occs and virts to disk
write pseudocanon orbital energies to disk
Timing for Total SCF: 4287.00s (wall), 8529.22s (cpu)
<S^2> of ct_allowed wavefunction after ct-allowed iterations 0.0000000000

================================
        Results of EDA2         
================================
Basic EDA Quantities
--------------------
Fragment Energies (Ha):
1 -265.5632926213
2 -265.5630843432
--------------------
  E_prp (kJ/mol) = -0.0000
  E_sol (kJ/mol) = 6.7844
  E_frz (kJ/mol) = -8.3829
  E_pol (kJ/mol) = -2.0697
  E_vct (kJ/mol) = -4.5227
  E_int (kJ/mol) = -8.1909
--------------------


Initial Wavefunction Decomposition
--------------------
  --------------------
  Orthogonal Fragment Subspace Decomposition:
  --------------------
     E_elec   (ELEC)   (kJ/mol) = -42.7463
     E_pauli  (PAULI)  (kJ/mol) = 48.8936
     E_disp   (DISP)   (kJ/mol) = -14.5302
     --------------------
     Terms summing to E_pauli:
     --------------------
        E_kep_pauli       (kJ/mol) = 60.6320
        E_disp_free_pauli (kJ/mol) = -11.7384
  --------------------
  Classical Frozen Decomposition:
  --------------------
     E_cls_elec  (CLS ELEC)  (kJ/mol) = -23.4573
     E_cls_pauli (CLS PAULI) (kJ/mol) = 15.0743
    [E_mod_pauli (MOD PAULI) (kJ/mol) = 29.6046 (CLS PAULI - DISP from orthogonal decomposition) ]
  --------------------
--------------------

Simplified EDA Summary (kJ/mol)
--------------------
 PREPARATION     -0.0000
 SOLVATION       6.7844
 FROZEN          6.1473      (does not include dispersion)
[PAULI           48.8936]     (if this is negligible, then frozen describes electrostatics)
 DISPERSION      -14.5302
 POLARIZATION    -2.0697
 CHARGE TRANSFER -4.5227
 TOTAL           -8.1909     (PRP + SOL + FRZ + DISP + POL + CT)
--------------------
 
 --------------------------------------------------------------
 
                    Orbital Energies (a.u.)
 --------------------------------------------------------------
 
 Alpha MOs
 -- Occupied --
-14.4715 -14.4639 -14.3906 -14.3857 -10.3264 -10.3189 -10.2942 -10.2916
-10.2810 -10.2759 -10.2652 -10.2621  -1.1539  -1.1516  -0.9997  -0.9939
 -0.8984  -0.8962  -0.8309  -0.8251  -0.7312  -0.7254  -0.6886  -0.6823
 -0.6716  -0.6656  -0.5678  -0.5626  -0.5614  -0.5566  -0.5474  -0.5367
 -0.5159  -0.5127  -0.5019  -0.4973  -0.4801  -0.4795  -0.3838  -0.3818
 -0.3768  -0.3681  -0.3268  -0.3183
 -- Virtual --
  0.0584   0.0715   0.0750   0.0891   0.0901   0.0963   0.1003   0.1060
  0.1102   0.1190   0.1240   0.1280   0.1328   0.1467   0.1493   0.1538
  0.1581   0.1617   0.1713   0.1728   0.1791   0.1828   0.1922   0.1980
  0.2077   0.2098   0.2164   0.2252   0.2312   0.2354   0.2387   0.2445
  0.2507   0.2540   0.2625   0.2675   0.2699   0.2743   0.2795   0.2888
  0.2903   0.2927   0.2979   0.2991   0.3034   0.3081   0.3113   0.3147
  0.3185   0.3219   0.3238   0.3260   0.3311   0.3357   0.3404   0.3472
  0.3499   0.3526   0.3582   0.3604   0.3648   0.3732   0.3749   0.3788
  0.3834   0.3899   0.3906   0.3933   0.3996   0.4025   0.4090   0.4138
  0.4146   0.4176   0.4207   0.4274   0.4288   0.4335   0.4364   0.4441
  0.4488   0.4524   0.4590   0.4616   0.4654   0.4719   0.4753   0.4800
  0.4824   0.4883   0.4934   0.4994   0.5035   0.5066   0.5134   0.5152
  0.5178   0.5273   0.5401   0.5427   0.5466   0.5533   0.5567   0.5614
  0.5629   0.5681   0.5771   0.5818   0.5855   0.5895   0.5958   0.5972
  0.5992   0.6066   0.6111   0.6173   0.6240   0.6296   0.6367   0.6462
  0.6488   0.6508   0.6565   0.6671   0.6699   0.6744   0.6789   0.6857
  0.6923   0.6958   0.7029   0.7082   0.7119   0.7194   0.7224   0.7231
  0.7281   0.7309   0.7419   0.7461   0.7555   0.7657   0.7696   0.7719
  0.7794   0.7827   0.7857   0.7901   0.7968   0.7982   0.8062   0.8103
  0.8184   0.8229   0.8250   0.8281   0.8288   0.8396   0.8469   0.8477
  0.8560   0.8613   0.8689   0.8735   0.8814   0.8896   0.8978   0.9070
  0.9205   0.9339   0.9405   0.9452   0.9461   0.9622   0.9752   0.9793
  0.9838   1.0009   1.0071   1.0094   1.0153   1.0213   1.0264   1.0321
  1.0421   1.0440   1.0567   1.0626   1.0664   1.0816   1.0926   1.0994
  1.1039   1.1117   1.1200   1.1334   1.1554   1.1650   1.1798   1.1849
  1.1971   1.2064   1.2124   1.2227   1.2399   1.2476   1.2642   1.2691
  1.2831   1.2965   1.2985   1.3294   1.3332   1.3450   1.3616   1.3673
  1.3739   1.3836   1.3985   1.4126   1.4341   1.4418   1.4540   1.4701
  1.4808   1.4872   1.5176   1.5419   1.5596   1.5808   1.6118   1.6249
  1.6428   1.6586   1.6646   1.6850   1.6999   1.7029   1.7060   1.7282
  1.7588   1.7655   1.7835   1.8212   1.8339   1.8385   1.8487   1.8529
  1.8607   1.8680   1.8784   1.8892   1.9024   1.9135   1.9302   1.9329
  1.9349   1.9413   1.9561   1.9645   1.9715   1.9777   1.9822   1.9868
  1.9963   2.0052   2.0170   2.0277   2.0440   2.0549   2.0675   2.0798
  2.0963   2.1116   2.1186   2.1268   2.1576   2.1730   2.2030   2.2123
  2.2195   2.2477   2.2518   2.2625   2.2843   2.2919   2.2978   2.3013
  2.3225   2.3498   2.3628   2.4097   2.4162   2.4231   2.4348   2.4618
  2.4652   2.4718   2.4869   2.4993   2.5122   2.5318   2.5343   2.5510
  2.5733   2.5892   2.6028   2.6074   2.6217   2.6505   2.6579   2.6669
  2.6935   2.7045   2.7067   2.7111   2.7202   2.7388   2.7530   2.7727
  2.7943   2.8034   2.8209   2.8261   2.8456   2.8631   2.8747   2.8840
  2.8997   2.9056   2.9113   2.9522   2.9625   2.9786   3.0015   3.0090
  3.0257   3.0337   3.0397   3.0483   3.0562   3.0812   3.0933   3.1023
  3.1095   3.1294   3.1419   3.1570   3.1762   3.1814   3.1920   3.2114
  3.2124   3.2286   3.2358   3.2462   3.2523   3.2711   3.2953   3.3048
  3.3146   3.3256   3.3325   3.3408   3.3473   3.3529   3.3646   3.3675
  3.3778   3.3889   3.3957   3.4068   3.4176   3.4208   3.4307   3.4357
  3.4477   3.4532   3.4740   3.4799   3.4920   3.4992   3.5146   3.5172
  3.5372   3.5382   3.5674   3.5963   3.5977   3.6126   3.6173   3.6578
  3.6605   3.6709   3.6836   3.6928   3.7027   3.7229   3.7427   3.7517
  3.7691   3.7950   3.8095   3.8341   3.8499   3.8846   3.8992   3.9199
  3.9419   3.9535   3.9675   3.9705   4.0064   4.0489   4.0597   4.1008
  4.1042   4.1126   4.1180   4.1391   4.1462   4.2386   4.2561   4.2903
  4.3236   4.3546   4.3801   4.4338   4.4397   4.4556   4.4902   4.5330
  4.5365   4.5535   4.5749   4.6042   4.6386   4.7660   4.7731   4.7753
  4.7866   4.7945   4.8120   4.8260   4.8563   4.8709   4.8744   4.9123
  4.9492   4.9633   4.9776   5.0355   5.0390   5.0467   5.0506   5.0609
  5.0763   5.1120   5.1196   5.1474   5.1746   5.2217   5.2379   5.2448
  5.2552   5.3108   5.3374   5.3778   5.3845   5.4191   5.4671   5.4816
  5.4970   5.5258   5.5390   5.5731   5.5950   5.6128   5.6244   5.6789
  5.6939   5.7032   5.7268   5.7865   5.7973   5.8083   5.8218   5.8792
  5.8929   6.0503   6.0629   6.2053   6.2383   6.2649   6.2924  22.6474
 22.6623  22.8761  22.9417  23.1222  23.1539  23.3906  23.4331  32.6492
 32.7142  32.8161  32.8320
 --------------------------------------------------------------
 
          Ground-State Mulliken Net Atomic Charges

     Atom                 Charge (a.u.)
  ----------------------------------------
      1 C                    -0.610063
      2 C                    -0.870678
      3 C                     0.285332
      4 C                    -0.232480
      5 N                     0.132609
      6 N                    -0.500988
      7 H                     0.733472
      8 H                     0.189294
      9 H                     0.197149
     10 H                     0.183888
     11 H                     0.275601
     12 H                     0.189304
     13 C                    -0.835566
     14 C                     0.697234
     15 C                    -0.255833
     16 C                    -0.653148
     17 N                    -0.428645
     18 N                     0.080371
     19 H                     0.298906
     20 H                     0.201302
     21 H                     0.244442
     22 H                     0.178885
     23 H                     0.270757
     24 H                     0.228854
  ----------------------------------------
  Sum of atomic charges =     0.000000

 -----------------------------------------------------------------
                    Cartesian Multipole Moments
 -----------------------------------------------------------------
    Charge (ESU x 10^10)
                 0.0000
    Dipole Moment (Debye)
         X       5.7549      Y      -1.2453      Z       3.1631
       Tot       6.6839
    Quadrupole Moments (Debye-Ang)
        XX     -87.3332     XY      -5.7363     YY     -43.7134
        XZ       5.6117     YZ      -3.6117     ZZ     -72.6589
    Octopole Moments (Debye-Ang^2)
       XXX     101.1123    XXY     -19.0087    XYY      11.2979
       YYY      -6.0187    XXZ      35.1847    XYZ     -14.7314
       YYZ       9.9537    XZZ      17.2587    YZZ     -12.4655
       ZZZ      13.5339
    Hexadecapole Moments (Debye-Ang^3)
      XXXX   -2948.2144   XXXY     327.9104   XXYY    -495.8517
      XYYY     114.6176   YYYY    -785.6149   XXXZ    -292.4535
      XXYZ      -3.7769   XYYZ     -56.4680   YYYZ       9.7062
      XXZZ    -477.0995   XYZZ      86.6248   YYZZ    -212.1449
      XZZZ    -285.9093   YZZZ      62.9536   ZZZZ    -327.9468
 -----------------------------------------------------------------
Archival summary:
1\1\nid00529\SP\ProcedureUnspecified\BasisUnspecified\4812\meili\SunSep2623:07:572021SunSep2623:07:572021\0\\#,ProcedureUnspecified,BasisUnspecified,\\0,1\N\C,1,1.33641\H,2,1.08359,1,125.418\N,2,1.33504,1,109.238,3,177.303,0\H,4,1.02065,2,124.336,1,-176.417,0\C,1,1.38054,2,108.231,3,-178.748,0\C,6,1.36293,1,107.59,2,2.36096,0\H,7,1.07667,6,126.407,1,176.538,0\C,6,1.50841,1,119.371,2,179.387,0\H,9,1.08481,6,110.616,1,-111.753,0\H,9,1.08892,6,107.598,1,4.3414,0\H,9,1.1,6,114.813,1,123.826,0\H,1,2.2508,2,112.824,3,64.6745,0\C,13,1.06149,1,175.12,2,24.1843,0\C,14,1.35792,13,126.4,1,-40.764,0\N,14,1.37483,13,126.483,1,141.303,0\H,16,1.02034,14,126.172,13,-2.95165,0\C,16,1.33234,14,108.588,13,178.974,0\H,18,1.0852,16,125.38,14,178.691,0\N,18,1.33131,16,108.851,14,1.7679,0\C,15,1.49595,14,129.582,13,4.16148,0\H,21,1.09037,15,108.383,14,-61.2818,0\H,21,1.09178,15,109.648,14,-179.091,0\H,21,1.1,15,111.535,14,58.4875,0\\\@

 Total job time:  53219.92s(wall), 36596.75s(cpu) 
 Sun Sep 26 23:07:59 2021

        *************************************************************
        *                                                           *
        *  Thank you very much for using Q-Chem.  Have a nice day.  *
        *                                                           *
        *************************************************************


