
Running Job 1 of 1 SSI-013GLU-056GLN-1_PCM_TZVPD.in
qchem SSI-013GLU-056GLN-1_PCM_TZVPD.in_34206.0 /tmp/qchem34206/ 0
/global/common/cori/software/qchem/5.2/exe/qcprog.exe_s SSI-013GLU-056GLN-1_PCM_TZVPD.in_34206.0 /tmp/qchem34206/
                  Welcome to Q-Chem
     A Quantum Leap Into The Future Of Chemistry


 Q-Chem 5.2, Q-Chem, Inc., Pleasanton, CA (2019)

 License issued to: National Energy Research Scientific Computing Center

 Yihan Shao,  Zhengting Gan,  E. Epifanovsky,  A. T. B. Gilbert,  M. Wormit,  
 J. Kussmann,  A. W. Lange,  A. Behn,  Jia Deng,  Xintian Feng,  D. Ghosh,  
 M. Goldey,  P. R. Horn,  L. D. Jacobson,  I. Kaliman,  T. Kus,  A. Landau,  
 Jie Liu,  E. I. Proynov,  R. M. Richard,  R. P. Steele,  E. J. Sundstrom,  
 H. L. Woodcock III,  P. M. Zimmerman,  D. Zuev,  B. Albrecht,  E. Alguire,  
 S. A. Baeppler,  D. Barton,  Z. Benda,  Y. A. Bernard,  E. J. Berquist,  
 K. B. Bravaya,  H. Burton,  D. Casanova,  Chun-Min Chang,  Yunqing Chen,  
 A. Chien,  K. D. Closser,  M. P. Coons,  S. Coriani,  S. Dasgupta,  
 A. L. Dempwolff,  M. Diedenhofen,  Hainam Do,  R. G. Edgar,  Po-Tung Fang,  
 S. Faraji,  S. Fatehi,  Qingguo Feng,  K. D. Fenk,  J. Fosso-Tande,  
 J. Gayvert,  Qinghui Ge,  A. Ghysels,  G. Gidofalvi,  J. Gomes,  
 J. Gonthier,  A. Gunina,  D. Hait,  M. W. D. Hanson-Heine,  
 P. H. P. Harbach,  A. W. Hauser,  M. F. Herbst,  J. E. Herr,  
 E. G. Hohenstein,  Z. C. Holden,  Kerwin Hui,  B. C. Huynh,  T.-C. Jagau,  
 Hyunjun Ji,  B. Kaduk,  K. Khistyaev,  Jaehoon Kim,  P. Klunzinger,  K. Koh,  
 D. Kosenkov,  L. Koulias,  T. Kowalczyk,  C. M. Krauter,  A. Kunitsa,  
 Ka Un Lao,  A. Laurent,  K. V. Lawler,  Joonho Lee,  D. Lefrancois,  
 S. Lehtola,  D. S. Levine,  Yi-Pei Li,  You-Sheng Lin,  Fenglai Liu,  
 E. Livshits,  A. Luenser,  P. Manohar,  E. Mansoor,  S. F. Manzer,  
 Shan-Ping Mao,  Yuezhi Mao,  N. Mardirossian,  A. V. Marenich,  
 T. Markovich,  L. A. Martinez-Martinez,  S. A. Maurer,  N. J. Mayhall,  
 S. C. McKenzie,  J.-M. Mewes,  P. Morgante,  A. F. Morrison,  
 J. W. Mullinax,  K. Nanda,  T. S. Nguyen-Beck,  R. Olivares-Amaya,  
 J. A. Parkhill,  Zheng Pei,  T. M. Perrine,  F. Plasser,  P. Pokhilko,  
 S. Prager,  A. Prociuk,  E. Ramos,  D. R. Rehn,  F. Rob,  M. Scheurer,  
 M. Schneider,  N. Sergueev,  S. M. Sharada,  S. Sharma,  D. W. Small,  
 T. Stauch,  T. Stein,  Yu-Chuan Su,  A. J. W. Thom,  A. Tkatchenko,  
 T. Tsuchimochi,  N. M. Tubman,  L. Vogt,  M. L. Vidal,  O. Vydrov,  
 M. A. Watson,  J. Wenzel,  M. de Wergifosse,  T. A. Wesolowski,  A. White,  
 J. Witte,  A. Yamada,  Jun Yang,  K. Yao,  S. Yeganeh,  S. R. Yost,  
 Zhi-Qiang You,  A. Zech,  Igor Ying Zhang,  Xing Zhang,  Yan Zhao,  
 Ying Zhu,  B. R. Brooks,  G. K. L. Chan,  C. J. Cramer,  M. S. Gordon,  
 W. J. Hehre,  A. Klamt,  M. W. Schmidt,  C. D. Sherrill,  D. G. Truhlar,  
 A. Aspuru-Guzik,  R. Baer,  A. T. Bell,  N. A. Besley,  Jeng-Da Chai,  
 A. E. DePrince, III,  R. A. DiStasio Jr.,  A. Dreuw,  B. D. Dunietz,  
 T. R. Furlani,  Chao-Ping Hsu,  Yousung Jung,  Jing Kong,  D. S. Lambrecht,  
 WanZhen Liang,  C. Ochsenfeld,  V. A. Rassolov,  L. V. Slipchenko,  
 J. E. Subotnik,  T. Van Voorhis,  J. M. Herbert,  A. I. Krylov,  
 P. M. W. Gill,  M. Head-Gordon

 Contributors to earlier versions of Q-Chem not listed above: 
 R. D. Adamson,  B. Austin,  J. Baker,  G. J. O. Beran,  K. Brandhorst,  
 S. T. Brown,  E. F. C. Byrd,  A. K. Chakraborty,  C.-L. Cheng,  
 Siu Hung Chien,  D. M. Chipman,  D. L. Crittenden,  H. Dachsel,  
 R. J. Doerksen,  A. D. Dutoi,  L. Fusti-Molnar,  W. A. Goddard III,  
 A. Golubeva-Zadorozhnaya,  S. R. Gwaltney,  G. Hawkins,  A. Heyden,  
 S. Hirata,  G. Kedziora,  F. J. Keil,  C. Kelley,  Jihan Kim,  R. A. King,  
 R. Z. Khaliullin,  P. P. Korambath,  W. Kurlancheek,  A. M. Lee,  M. S. Lee,  
 S. V. Levchenko,  Ching Yeh Lin,  D. Liotard,  R. C. Lochan,  I. Lotan,  
 P. E. Maslen,  N. Nair,  D. P. O'Neill,  D. Neuhauser,  E. Neuscamman,  
 C. M. Oana,  R. Olson,  B. Peters,  R. Peverati,  P. A. Pieniazek,  
 Y. M. Rhee,  J. Ritchie,  M. A. Rohrdanz,  E. Rosta,  N. J. Russ,  
 H. F. Schaefer III,  N. E. Schultz,  N. Shenvi,  A. C. Simmonett,  A. Sodt,  
 D. Stuck,  K. S. Thanthiriwatte,  V. Vanovschi,  Tao Wang,  A. Warshel,  
 C. F. Williams,  Q. Wu,  X. Xu,  W. Zhang

 Please cite Q-Chem as follows:
 Y. Shao et al., Mol. Phys. 113, 184-215 (2015)
 DOI: 10.1080/00268976.2014.952696

 Q-Chem 5.2.0 for Intel X86 EM64T Linux

 Parts of Q-Chem use Armadillo 8.300.2 (Tropical Shenanigans).
 http://arma.sourceforge.net/

 Q-Chem begins on Sun Sep 26 03:03:27 2021  

Host: cori01
0

     Scratch files written to /tmp/qchem34206//
 May1019 |scratch|qcdevops|jenkins|workspace|build_RNUM -1
Processing $rem in /global/common/cori/software/qchem/5.2/config/preferences:
	 MEM_TOTAL  96000 
NAlpha2: 72
NElect   72
Mult     1
Symmetry turned off for PCM/SM12/SMD calculation

 Q-Chem warning in module libgen/rem_setup.C, line 2803:

 Neither GIA nor STOLL is specified by user. Use STOLL as the default


Checking the input file for inconsistencies... 	...done.

--------------------------------------------------------------
User input:
--------------------------------------------------------------
$comment
SSI-013GLU-056GLN-1.pdb
$end

$molecule
-1 1
--
-1 1
C    1.962045889924   -2.149787360644   -1.971142477804
C    2.187045889924   -1.099787360644   -0.893142477804
O    1.220045889924   -0.841787360644   -0.138142477804
O    3.330045889924   -0.631787360644   -0.716142477804
H    1.022045889924   -1.936787360644   -2.483142477804
H    1.847045889924   -3.126787360644   -1.507142477804
H    2.748389789924   -2.168613360644   -2.740112477804
--
0 1
C   -1.319954110076    0.340212639356    1.529857522196
C   -2.285954110076    0.662212639356    2.653857522196
C   -1.671954110076    1.067212639356    0.246857522196
O   -2.774954110076    1.588212639356    0.081857522196
N   -0.738954110076    1.095212639356   -0.685142477804
H   -0.313954110076    0.621212639356    1.839857522196
H   -1.320954110076   -0.727787360644    1.323857522196
H   -3.311954110076    0.610212639356    2.291857522196
H   -2.095954110076    1.688212639356    2.974857522196
H   -0.924954110076    1.545212639356   -1.566142477804
H    0.090045889924    0.513212639356   -0.529142477804
H   -2.205115110076   -0.005437360644    3.524327522196
$end

$rem
JOBTYPE			EDA
EDA2			1
method			wB97X-V
BASIS			def2-TZVPD
XC_GRID			000099000590
NL_GRID			1
UNRESTRICTED		FALSE
MAX_SCF_CYCLES		200
SYMMETRY		FALSE
SYM_IGNORE		TRUE
MEM_STATIC		2000
BASIS_LIN_DEP_THRESH 	6
THRESH 			14
SCF_CONVERGENCE 	8
SCF_PRINT_FRGM 		TRUE
SOLVENT_METHOD          PCM
$end

$PCM
THEORY                  CPCM
METHOD                  SWIG
SOLVER                  INVERSION
RADII                   UFF
HPOINTS                 302
HEAVYPOINTS             302
PRINTLEVEL              0
$END

$SOLVENT
DIELECTRIC              78.390000 ! water
$END
--------------------------------------------------------------
 ----------------------------------------------------------------
             Standard Nuclear Orientation (Angstroms)
    I     Atom           X                Y                Z
 ----------------------------------------------------------------
    1      C       1.9620458899    -2.1497873606    -1.9711424778
    2      C       2.1870458899    -1.0997873606    -0.8931424778
    3      O       1.2200458899    -0.8417873606    -0.1381424778
    4      O       3.3300458899    -0.6317873606    -0.7161424778
    5      H       1.0220458899    -1.9367873606    -2.4831424778
    6      H       1.8470458899    -3.1267873606    -1.5071424778
    7      H       2.7483897899    -2.1686133606    -2.7401124778
    8      C      -1.3199541101     0.3402126394     1.5298575222
    9      C      -2.2859541101     0.6622126394     2.6538575222
   10      C      -1.6719541101     1.0672126394     0.2468575222
   11      O      -2.7749541101     1.5882126394     0.0818575222
   12      N      -0.7389541101     1.0952126394    -0.6851424778
   13      H      -0.3139541101     0.6212126394     1.8398575222
   14      H      -1.3209541101    -0.7277873606     1.3238575222
   15      H      -3.3119541101     0.6102126394     2.2918575222
   16      H      -2.0959541101     1.6882126394     2.9748575222
   17      H      -0.9249541101     1.5452126394    -1.5661424778
   18      H       0.0900458899     0.5132126394    -0.5291424778
   19      H      -2.2051151101    -0.0054373606     3.5243275222
 ----------------------------------------------------------------
 Nuclear Repulsion Energy =         432.03861287 hartrees
 There are       36 alpha and       36 beta electrons
 Requested basis set is def2-TZVPD
 There are 170 shells and 432 basis functions

 Total QAlloc Memory Limit  96000 MB
 Mega-Array Size      1956 MB
 MEM_STATIC part      2000 MB
 Discretize the solute cavity surface with Lebedev spheres
	Using 302 Lebedev grid points for each H atom
	Using 302 Lebedev grid points for other atoms
	Atomic van der Waals radii will be scaled by 1.20
 Remove points where switching function is < 1.0e-08
 Keep 2288 surface tesserae and discard 3450 interior tesserae
 Molecular Surface Area = 239.869 Angst**2
 A cutoff of  1.0D-14 yielded  12802 shell pairs
 There are     82870 function pairs (    104206 Cartesian)
 Smallest overlap matrix eigenvalue = 4.54E-06

 Scale SEOQF with 1.000000e-01/1.000000e-01/1.000000e-01

 Standard Electronic Orientation quadrupole field applied
 Nucleus-field energy     =     0.0000000035 hartrees

 -----------------------------------------------------------------------
  General SCF calculation program by
  Eric Jon Sundstrom, Paul Horn, Yuezhi Mao, Dmitri Zuev, Alec White,
  David Stuck, Shaama M.S., Shane Yost, Joonho Lee, David Small,
  Daniel Levine, Susi Lehtola, Hugh Burton, Evgeny Epifanovsky
 -----------------------------------------------------------------------
================================================================
                 ALMO-EDA with the EDA2 driver                  
================================================================
 The second-generation ALMO-EDA (for DFT):                      
 P. R. Horn, Y. Mao and M. Head-Gordon, PCCP, 18, 23067 (2016)  
 Decomposition of the frozen energy:                            
 P. R. Horn, Y. Mao and M. Head-Gordon, JCP, 144, 114107 (2016) 
 FERF model for polarization:                                   
 P. R. Horn and M. Head-Gordon, JCP, 143, 114111 (2015)         
Using eda2 option set 1
Option set summary: Frozen orbital wavefunction, initial wavefunction decomposition, and nDQ polarization.
--------------------------------
Printing EDA Options
--------------------------------
eda_child_super_basis      0
fragmo_guess_mode          0
child_mp                   1
child_mp_orders            232
cls_elec                   1
cls_disp                   0
scfmi_mode                 1
scfmi_occs                 0
scfmi_virts                0
frz_relax                  0
frz_relax_method           0
dc_pen_start               0
dc_pen_conv                0
dc_pen_increment           0
dc_pen_steps               0
dc_pen_thresh_factor       0
dc_pen_pre_newton_thresh   0
frz_ortho_decomp           1
frz_ortho_decomp_conv      6
frgm_method                2
scfmi_freeze_ss            0
separate_rehyb             0
plot_diff_den              0
eda_nocv                   0
eda_vct_relax              1
disp_free_x                0
disp_free_c                0
eda_bsse                   0
eda_pct_a                  0
eda_covp                   0
--------------------------------
Attempting to make child job directory: /tmp/qchem34206//Frg1/
Attempting to make child job directory: /tmp/qchem34206//Frg2/
Creating input file /tmp/qchem34206/Frg1.input
using default PutDataFrgm: nothing
calling putenv with: QCSCRATCH=/tmp/qchem34206/ 
calling putenv with: QCLOCALSCR=/tmp/qchem34206/ 
Spawning Job For Fragment 0
                  Welcome to Q-Chem
     A Quantum Leap Into The Future Of Chemistry


 Q-Chem 5.2, Q-Chem, Inc., Pleasanton, CA (2019)

 License issued to: National Energy Research Scientific Computing Center

 Yihan Shao,  Zhengting Gan,  E. Epifanovsky,  A. T. B. Gilbert,  M. Wormit,  
 J. Kussmann,  A. W. Lange,  A. Behn,  Jia Deng,  Xintian Feng,  D. Ghosh,  
 M. Goldey,  P. R. Horn,  L. D. Jacobson,  I. Kaliman,  T. Kus,  A. Landau,  
 Jie Liu,  E. I. Proynov,  R. M. Richard,  R. P. Steele,  E. J. Sundstrom,  
 H. L. Woodcock III,  P. M. Zimmerman,  D. Zuev,  B. Albrecht,  E. Alguire,  
 S. A. Baeppler,  D. Barton,  Z. Benda,  Y. A. Bernard,  E. J. Berquist,  
 K. B. Bravaya,  H. Burton,  D. Casanova,  Chun-Min Chang,  Yunqing Chen,  
 A. Chien,  K. D. Closser,  M. P. Coons,  S. Coriani,  S. Dasgupta,  
 A. L. Dempwolff,  M. Diedenhofen,  Hainam Do,  R. G. Edgar,  Po-Tung Fang,  
 S. Faraji,  S. Fatehi,  Qingguo Feng,  K. D. Fenk,  J. Fosso-Tande,  
 J. Gayvert,  Qinghui Ge,  A. Ghysels,  G. Gidofalvi,  J. Gomes,  
 J. Gonthier,  A. Gunina,  D. Hait,  M. W. D. Hanson-Heine,  
 P. H. P. Harbach,  A. W. Hauser,  M. F. Herbst,  J. E. Herr,  
 E. G. Hohenstein,  Z. C. Holden,  Kerwin Hui,  B. C. Huynh,  T.-C. Jagau,  
 Hyunjun Ji,  B. Kaduk,  K. Khistyaev,  Jaehoon Kim,  P. Klunzinger,  K. Koh,  
 D. Kosenkov,  L. Koulias,  T. Kowalczyk,  C. M. Krauter,  A. Kunitsa,  
 Ka Un Lao,  A. Laurent,  K. V. Lawler,  Joonho Lee,  D. Lefrancois,  
 S. Lehtola,  D. S. Levine,  Yi-Pei Li,  You-Sheng Lin,  Fenglai Liu,  
 E. Livshits,  A. Luenser,  P. Manohar,  E. Mansoor,  S. F. Manzer,  
 Shan-Ping Mao,  Yuezhi Mao,  N. Mardirossian,  A. V. Marenich,  
 T. Markovich,  L. A. Martinez-Martinez,  S. A. Maurer,  N. J. Mayhall,  
 S. C. McKenzie,  J.-M. Mewes,  P. Morgante,  A. F. Morrison,  
 J. W. Mullinax,  K. Nanda,  T. S. Nguyen-Beck,  R. Olivares-Amaya,  
 J. A. Parkhill,  Zheng Pei,  T. M. Perrine,  F. Plasser,  P. Pokhilko,  
 S. Prager,  A. Prociuk,  E. Ramos,  D. R. Rehn,  F. Rob,  M. Scheurer,  
 M. Schneider,  N. Sergueev,  S. M. Sharada,  S. Sharma,  D. W. Small,  
 T. Stauch,  T. Stein,  Yu-Chuan Su,  A. J. W. Thom,  A. Tkatchenko,  
 T. Tsuchimochi,  N. M. Tubman,  L. Vogt,  M. L. Vidal,  O. Vydrov,  
 M. A. Watson,  J. Wenzel,  M. de Wergifosse,  T. A. Wesolowski,  A. White,  
 J. Witte,  A. Yamada,  Jun Yang,  K. Yao,  S. Yeganeh,  S. R. Yost,  
 Zhi-Qiang You,  A. Zech,  Igor Ying Zhang,  Xing Zhang,  Yan Zhao,  
 Ying Zhu,  B. R. Brooks,  G. K. L. Chan,  C. J. Cramer,  M. S. Gordon,  
 W. J. Hehre,  A. Klamt,  M. W. Schmidt,  C. D. Sherrill,  D. G. Truhlar,  
 A. Aspuru-Guzik,  R. Baer,  A. T. Bell,  N. A. Besley,  Jeng-Da Chai,  
 A. E. DePrince, III,  R. A. DiStasio Jr.,  A. Dreuw,  B. D. Dunietz,  
 T. R. Furlani,  Chao-Ping Hsu,  Yousung Jung,  Jing Kong,  D. S. Lambrecht,  
 WanZhen Liang,  C. Ochsenfeld,  V. A. Rassolov,  L. V. Slipchenko,  
 J. E. Subotnik,  T. Van Voorhis,  J. M. Herbert,  A. I. Krylov,  
 P. M. W. Gill,  M. Head-Gordon

 Contributors to earlier versions of Q-Chem not listed above: 
 R. D. Adamson,  B. Austin,  J. Baker,  G. J. O. Beran,  K. Brandhorst,  
 S. T. Brown,  E. F. C. Byrd,  A. K. Chakraborty,  C.-L. Cheng,  
 Siu Hung Chien,  D. M. Chipman,  D. L. Crittenden,  H. Dachsel,  
 R. J. Doerksen,  A. D. Dutoi,  L. Fusti-Molnar,  W. A. Goddard III,  
 A. Golubeva-Zadorozhnaya,  S. R. Gwaltney,  G. Hawkins,  A. Heyden,  
 S. Hirata,  G. Kedziora,  F. J. Keil,  C. Kelley,  Jihan Kim,  R. A. King,  
 R. Z. Khaliullin,  P. P. Korambath,  W. Kurlancheek,  A. M. Lee,  M. S. Lee,  
 S. V. Levchenko,  Ching Yeh Lin,  D. Liotard,  R. C. Lochan,  I. Lotan,  
 P. E. Maslen,  N. Nair,  D. P. O'Neill,  D. Neuhauser,  E. Neuscamman,  
 C. M. Oana,  R. Olson,  B. Peters,  R. Peverati,  P. A. Pieniazek,  
 Y. M. Rhee,  J. Ritchie,  M. A. Rohrdanz,  E. Rosta,  N. J. Russ,  
 H. F. Schaefer III,  N. E. Schultz,  N. Shenvi,  A. C. Simmonett,  A. Sodt,  
 D. Stuck,  K. S. Thanthiriwatte,  V. Vanovschi,  Tao Wang,  A. Warshel,  
 C. F. Williams,  Q. Wu,  X. Xu,  W. Zhang

 Please cite Q-Chem as follows:
 Y. Shao et al., Mol. Phys. 113, 184-215 (2015)
 DOI: 10.1080/00268976.2014.952696

 Q-Chem 5.2.0 for Intel X86 EM64T Linux

 Parts of Q-Chem use Armadillo 8.300.2 (Tropical Shenanigans).
 http://arma.sourceforge.net/

 Q-Chem begins on Sun Sep 26 03:03:31 2021  

Host: cori01
0

     Scratch files written to /tmp/qchem34206//Frg1//
 May1019 |scratch|qcdevops|jenkins|workspace|build_RNUM -1
Processing $rem in /global/common/cori/software/qchem/5.2/config/preferences:
	 MEM_TOTAL  96000 
NAlpha2: 32
NElect   32
Mult     1
Symmetry turned off for PCM/SM12/SMD calculation

Checking the input file for inconsistencies... 	...done.

--------------------------------------------------------------
User input:
--------------------------------------------------------------
$molecule
-1 1
 6	1.9620458899	-2.1497873606	-1.9711424778
 6	2.1870458899	-1.0997873606	-0.8931424778
 8	1.2200458899	-0.8417873606	-0.1381424778
 8	3.3300458899	-0.6317873606	-0.7161424778
 1	1.0220458899	-1.9367873606	-2.4831424778
 1	1.8470458899	-3.1267873606	-1.5071424778
 1	2.7483897899	-2.1686133606	-2.7401124778
$end
$rem
EDA2		1
METHOD		WB97X-V
BASIS		DEF2-TZVPD
XC_GRID		000099000590
NL_GRID		1
UNRESTRICTED		FALSE
MAX_SCF_CYCLES		200
SYMMETRY		FALSE
SYM_IGNORE		TRUE
BASIS_LIN_DEP_THRESH		6
THRESH		14
SCF_CONVERGENCE		8
SCF_PRINT_FRGM		TRUE
SOLVENT_METHOD		PCM
!required keywords
JOBTYPE		SP
SYM_IGNORE		TRUE
SUBSYSTEM		TRUE
GEN_SCFMAN		TRUE
CHILD_INSTRUCTION		2
SYM_IGNORE		TRUE
SCFMI		0
RI_K 0		
PARI_K 0		
MIN_PARI_K 0		
IARI_K 0		
OCC_RI_K 0		
PURECART		1111
MEM_STATIC		2000
MEM_TOTAL		96000
GUI		0
CHILD_MP		1
CHILD_MP_ORDERS		232
FRZ_RELAX		0
FRZ_RELAX_METHOD		0
EDA_CLS_ELEC		1
EDA_CLS_DISP		0
FRZ_ORTHO_DECOMP		1
EDA2		FALSE
FRGM_METHOD		FALSE
CIS_N_ROOTS  0
LOCAL_CIS    0
CIS_RLX_DNS  1
$end
$pcm
THEORY                  CPCM
METHOD                  SWIG
SOLVER                  INVERSION
RADII                   UFF
HPOINTS                 302
HEAVYPOINTS             302
PRINTLEVEL              0
$end
$solvent
DIELECTRIC              78.390000 ! water
$end
--------------------------------------------------------------
 ----------------------------------------------------------------
             Standard Nuclear Orientation (Angstroms)
    I     Atom           X                Y                Z
 ----------------------------------------------------------------
    1      C       1.9620458899    -2.1497873606    -1.9711424778
    2      C       2.1870458899    -1.0997873606    -0.8931424778
    3      O       1.2200458899    -0.8417873606    -0.1381424778
    4      O       3.3300458899    -0.6317873606    -0.7161424778
    5      H       1.0220458899    -1.9367873606    -2.4831424778
    6      H       1.8470458899    -3.1267873606    -1.5071424778
    7      H       2.7483897899    -2.1686133606    -2.7401124778
 ----------------------------------------------------------------
 Nuclear Repulsion Energy =         112.68928111 hartrees
 There are       16 alpha and       16 beta electrons
 Requested basis set is def2-TZVPD
 There are 69 shells and 181 basis functions

 Total QAlloc Memory Limit  96000 MB
 Mega-Array Size      1956 MB
 MEM_STATIC part      2000 MB
 Discretize the solute cavity surface with Lebedev spheres
	Using 302 Lebedev grid points for each H atom
	Using 302 Lebedev grid points for other atoms
	Atomic van der Waals radii will be scaled by 1.20
 Remove points where switching function is < 1.0e-08
 Keep 1010 surface tesserae and discard 1104 interior tesserae
 Molecular Surface Area = 120.154 Angst**2

                       Distance Matrix (Angstroms)
             C (  1)   C (  2)   O (  3)   O (  4)   H (  5)   H (  6)
   C (  2)  1.521581
   O (  3)  2.370932  1.253666
   O (  4)  2.398077  1.247719  2.197791
   H (  5)  1.091381  2.141470  2.595622  3.186248
   H (  6)  1.087681  2.145070  2.736515  3.008321  1.746225
   H (  7)  1.100003  2.206534  3.296445  2.607031  1.760693  1.802979

 
 A cutoff of  1.0D-14 yielded   2391 shell pairs
 There are     16695 function pairs (     21491 Cartesian)
 Smallest overlap matrix eigenvalue = 1.69E-05

 Scale SEOQF with 1.000000e-01/1.000000e-01/1.000000e-01

 Standard Electronic Orientation quadrupole field applied
 Nucleus-field energy     =     0.0000000051 hartrees
 Guess from superposition of atomic densities
 Warning:  Energy on first SCF cycle will be non-variational
 SAD guess density has 30.625312 electrons

 -----------------------------------------------------------------------
  General SCF calculation program by
  Eric Jon Sundstrom, Paul Horn, Yuezhi Mao, Dmitri Zuev, Alec White,
  David Stuck, Shaama M.S., Shane Yost, Joonho Lee, David Small,
  Daniel Levine, Susi Lehtola, Hugh Burton, Evgeny Epifanovsky
 -----------------------------------------------------------------------
 Exchange:     0.1670 Hartree-Fock + 1.0000 wB97X-V + LR-HF
 Correlation:  1.0000 wB97X-V
 Using Euler-Maclaurin-Lebedev (99,590) quadrature formula
 Nonlocal Correlation:  VV10 with C = 0.0100 and b = 6.00 and scale = 1.00000
 Grid used for NLC:  SG-1 standard quadrature
Energy prior to optimization (guess energy) = -227.762777573319
Begin Timing: Total SCF Calculation
begin iterations for algorithm: DIIS         
the SCF tolerance is set to 1.00e-08
    1    -227.7627775733      1.66e-02     00000 
    2    -225.5950420890      2.54e-02     00000 
    3    -228.5765162523      4.13e-03     00000 
    4    -228.6356057793      1.36e-03     00000 
    5    -228.6416705540      1.88e-04     00000 
    6    -228.6419163394      6.32e-05     00000 
    7    -228.6419349685      2.88e-05     00000 
    8    -228.6419379238      1.62e-05     00000 
    9    -228.6419390756      2.90e-06     00000 
   10    -228.6419391788      4.02e-07     00000 
   11    -228.6419391816      1.47e-07     00000 
   12    -228.6419391819      4.97e-08     00000 
   13    -228.6419391819      2.02e-08     00000 
   14    -228.6419391819      3.12e-09     00000 Convergence criterion met
Timing for Total SCF: 306.00s (wall), 601.64s (cpu)

************** Final PCM Free Energy Summary **************
 G_electrostatic  =      -0.10180566 hartree =     -63.88401709 kcal/mol
 G_cavitation     =       0.00000000 hartree =       0.00000000 kcal/mol
 G_dispersion     =       0.00000000 hartree =       0.00000000 kcal/mol
 G_repulsion      =       0.00000000 hartree =       0.00000000 kcal/mol
 --------------------------------------------------
 Non-electrostatic Free Energy =       0.00000000 hartree =       0.00000000 kcal/mol
 Total                         =      -0.10180566 hartree =     -63.88401709 kcal/mol
 --------------------------------------------------
 SCF Energy (H0 + V/2)                       =    -228.64193918 
 Solute Internal Energy (H0)                 =    -228.54013352 
 Total Free Energy (H0 + V/2 + non-elec)     =    -228.64193918 hartree
                                             = -143474.98230444 kcal/mol
***********************************************************

E_pcm = -0.1018056620
Multipole orders to be included
        2
        3
computing dipole RHS
computing quadrupole RHS
total number of RHS in solve_reponses: 8
RHS batch sizes
        8
Beginning Block Conjugate Gradient Iterations. Batch Number: 0
computing hessian-vector products by finite difference
              1      7.24e-01     00000 Conjugate Gradient Iteration
computing hessian-vector products by finite difference
              2      2.58e-01     00000 Conjugate Gradient Iteration
computing hessian-vector products by finite difference
              3      6.90e-02     00000 Conjugate Gradient Iteration
computing hessian-vector products by finite difference
              4      1.86e-02     00000 Conjugate Gradient Iteration
computing hessian-vector products by finite difference
              5      3.28e-03     00000 Conjugate Gradient Iteration
computing hessian-vector products by finite difference
              6      7.94e-04     00000 Conjugate Gradient Iteration
computing hessian-vector products by finite difference
              7      1.30e-04     00000 Conjugate Gradient Iteration
computing hessian-vector products by finite difference
              8      1.60e-05     00000 Conjugate Gradient Iteration
computing hessian-vector products by finite difference
              9      2.52e-06     00000 Conjugate Gradient Iteration
computing hessian-vector products by finite difference
             10      2.88e-07     00000 Conjugate Gradient Iteration
computing hessian-vector products by finite difference
             11      6.40e-08     00000 Conjugate Gradient Iteration
computing hessian-vector products by finite difference
             12      1.22e-08     00000 Conjugate Gradient Iteration
computing hessian-vector products by finite difference
             13      1.90e-09     00000 CG Converged
batch 0 complete
Done Calculating Responses
TESTING ORTHOGONALIZATION OF MULTIPOLE BASIS
Multipole virts passed orthogonality test
Virts Per Order
        48
        80
 
 --------------------------------------------------------------
 
                    Orbital Energies (a.u.)
 --------------------------------------------------------------
 
 Alpha MOs
 -- Occupied --
-19.1230 -19.1203 -10.3249 -10.2392  -1.1326  -1.0316  -0.8287  -0.5932
 -0.5299  -0.5174  -0.5152  -0.4625  -0.4428  -0.3291  -0.3260  -0.3087
 -- Virtual --
  0.0631   0.0953   0.0958   0.1052   0.1304   0.1403   0.1419   0.1455
  0.1699   0.1900   0.1992   0.2233   0.2305   0.2376   0.2635   0.2674
  0.2982   0.3118   0.3348   0.3466   0.3544   0.3628   0.3723   0.3816
  0.3924   0.4051   0.4253   0.4264   0.4332   0.4619   0.4725   0.4768
  0.4909   0.4988   0.5040   0.5233   0.5624   0.5796   0.5997   0.6110
  0.6258   0.6388   0.6490   0.6640   0.6692   0.6830   0.6995   0.7109
  0.7206   0.7412   0.7807   0.7998   0.8125   0.8189   0.8448   0.8584
  0.8703   0.9811   0.9895   1.0048   1.0074   1.0487   1.0615   1.1238
  1.1605   1.2130   1.2590   1.2822   1.2873   1.3150   1.3570   1.3843
  1.4495   1.5655   1.6041   1.7442   1.8272   1.8689   1.8754   1.9254
  1.9304   1.9543   1.9652   1.9742   2.0261   2.1184   2.1365   2.1790
  2.2055   2.2391   2.3122   2.3490   2.4198   2.4321   2.4882   2.5121
  2.5812   2.6046   2.6152   2.6858   2.7987   2.8163   2.8703   2.9199
  2.9541   3.0227   3.0458   3.1643   3.2191   3.2534   3.2820   3.3160
  3.3454   3.3533   3.3900   3.4138   3.4294   3.5312   3.5759   3.5896
  3.6142   3.6826   3.7186   3.7314   3.7773   3.8888   3.9533   4.0501
  4.0916   4.1998   4.3586   4.5623   4.6365   4.6621   4.8056   4.8224
  4.9854   5.3338   5.3615   5.3684   5.3795   5.5070   5.7149   5.7735
  5.8227   6.0275   6.2475   6.3428   6.3606   6.6264   6.6320   6.7220
  6.7471   6.7620   6.9502   6.9813   7.0490   7.2495   7.3590   7.3884
  7.4184  22.6003  23.7416  44.2218  44.3541
 --------------------------------------------------------------
 
          Ground-State Mulliken Net Atomic Charges

     Atom                 Charge (a.u.)
  ----------------------------------------
      1 C                    -0.407173
      2 C                     0.292405
      3 O                    -0.680443
      4 O                    -0.669141
      5 H                     0.158376
      6 H                     0.136356
      7 H                     0.169621
  ----------------------------------------
  Sum of atomic charges =    -1.000000

 -----------------------------------------------------------------
                    Cartesian Multipole Moments
 -----------------------------------------------------------------
    Charge (ESU x 10^10)
                -4.8032
    Dipole Moment (Debye)
         X     -11.1503      Y       2.4687      Z       0.8218
       Tot      11.4498
    Quadrupole Moments (Debye-Ang)
        XX     -61.2768     XY       4.8821     YY     -26.8094
        XZ       4.6535     YZ      -0.1762     ZZ     -26.3472
    Octopole Moments (Debye-Ang^2)
       XXX    -292.1333    XXY      49.3077    XYY     -56.8419
       YYY      95.4490    XXZ      46.6852    XYZ      -1.9631
       YYZ      26.3372    XZZ     -59.3974    YZZ      32.9616
       ZZZ      77.4444
    Hexadecapole Moments (Debye-Ang^3)
      XXXX   -1299.6330   XXXY     264.8318   XXYY    -207.0541
      XYYY     193.2465   YYYY    -335.4786   XXXZ     255.7583
      XXYZ     -54.2275   XYYZ      59.0327   YYYZ    -134.5659
      XXZZ    -203.1708   XYZZ      67.4827   YYZZ    -107.8365
      XZZZ     172.9256   YZZZ    -133.3955   ZZZZ    -275.3291
 -----------------------------------------------------------------
Archival summary:
1\1\nid00524\SP\ProcedureUnspecified\BasisUnspecified\223(1-,1)\meili\SunSep2604:31:302021SunSep2604:31:302021\0\\#,ProcedureUnspecified,BasisUnspecified,\\-1,1\C\O,1,1.24772\O,1,1.25367,2,122.955\C,1,1.52158,2,119.657,3,-173.022,0\H,4,1.08768,1,109.466,2,104.733,0\H,4,1.09138,1,108.969,2,-139.137,0\H,4,1.1,1,113.664,2,-20.014,0\\\@

 Total job time:  5280.22s(wall), 10315.11s(cpu) 
 Sun Sep 26 04:31:31 2021

        *************************************************************
        *                                                           *
        *  Thank you very much for using Q-Chem.  Have a nice day.  *
        *                                                           *
        *************************************************************


Done Job For Fragment 0
calling putenv with: QCSCRATCH=/global/cscratch1/sd/meili 
calling putenv with: QCLOCALSCR=/tmp 
calling putenv with: QCTHREADS=32 
Creating input file /tmp/qchem34206/Frg2.input
using default PutDataFrgm: nothing
calling putenv with: QCSCRATCH=/tmp/qchem34206/ 
calling putenv with: QCLOCALSCR=/tmp/qchem34206/ 
Spawning Job For Fragment 1
                  Welcome to Q-Chem
     A Quantum Leap Into The Future Of Chemistry


 Q-Chem 5.2, Q-Chem, Inc., Pleasanton, CA (2019)

 License issued to: National Energy Research Scientific Computing Center

 Yihan Shao,  Zhengting Gan,  E. Epifanovsky,  A. T. B. Gilbert,  M. Wormit,  
 J. Kussmann,  A. W. Lange,  A. Behn,  Jia Deng,  Xintian Feng,  D. Ghosh,  
 M. Goldey,  P. R. Horn,  L. D. Jacobson,  I. Kaliman,  T. Kus,  A. Landau,  
 Jie Liu,  E. I. Proynov,  R. M. Richard,  R. P. Steele,  E. J. Sundstrom,  
 H. L. Woodcock III,  P. M. Zimmerman,  D. Zuev,  B. Albrecht,  E. Alguire,  
 S. A. Baeppler,  D. Barton,  Z. Benda,  Y. A. Bernard,  E. J. Berquist,  
 K. B. Bravaya,  H. Burton,  D. Casanova,  Chun-Min Chang,  Yunqing Chen,  
 A. Chien,  K. D. Closser,  M. P. Coons,  S. Coriani,  S. Dasgupta,  
 A. L. Dempwolff,  M. Diedenhofen,  Hainam Do,  R. G. Edgar,  Po-Tung Fang,  
 S. Faraji,  S. Fatehi,  Qingguo Feng,  K. D. Fenk,  J. Fosso-Tande,  
 J. Gayvert,  Qinghui Ge,  A. Ghysels,  G. Gidofalvi,  J. Gomes,  
 J. Gonthier,  A. Gunina,  D. Hait,  M. W. D. Hanson-Heine,  
 P. H. P. Harbach,  A. W. Hauser,  M. F. Herbst,  J. E. Herr,  
 E. G. Hohenstein,  Z. C. Holden,  Kerwin Hui,  B. C. Huynh,  T.-C. Jagau,  
 Hyunjun Ji,  B. Kaduk,  K. Khistyaev,  Jaehoon Kim,  P. Klunzinger,  K. Koh,  
 D. Kosenkov,  L. Koulias,  T. Kowalczyk,  C. M. Krauter,  A. Kunitsa,  
 Ka Un Lao,  A. Laurent,  K. V. Lawler,  Joonho Lee,  D. Lefrancois,  
 S. Lehtola,  D. S. Levine,  Yi-Pei Li,  You-Sheng Lin,  Fenglai Liu,  
 E. Livshits,  A. Luenser,  P. Manohar,  E. Mansoor,  S. F. Manzer,  
 Shan-Ping Mao,  Yuezhi Mao,  N. Mardirossian,  A. V. Marenich,  
 T. Markovich,  L. A. Martinez-Martinez,  S. A. Maurer,  N. J. Mayhall,  
 S. C. McKenzie,  J.-M. Mewes,  P. Morgante,  A. F. Morrison,  
 J. W. Mullinax,  K. Nanda,  T. S. Nguyen-Beck,  R. Olivares-Amaya,  
 J. A. Parkhill,  Zheng Pei,  T. M. Perrine,  F. Plasser,  P. Pokhilko,  
 S. Prager,  A. Prociuk,  E. Ramos,  D. R. Rehn,  F. Rob,  M. Scheurer,  
 M. Schneider,  N. Sergueev,  S. M. Sharada,  S. Sharma,  D. W. Small,  
 T. Stauch,  T. Stein,  Yu-Chuan Su,  A. J. W. Thom,  A. Tkatchenko,  
 T. Tsuchimochi,  N. M. Tubman,  L. Vogt,  M. L. Vidal,  O. Vydrov,  
 M. A. Watson,  J. Wenzel,  M. de Wergifosse,  T. A. Wesolowski,  A. White,  
 J. Witte,  A. Yamada,  Jun Yang,  K. Yao,  S. Yeganeh,  S. R. Yost,  
 Zhi-Qiang You,  A. Zech,  Igor Ying Zhang,  Xing Zhang,  Yan Zhao,  
 Ying Zhu,  B. R. Brooks,  G. K. L. Chan,  C. J. Cramer,  M. S. Gordon,  
 W. J. Hehre,  A. Klamt,  M. W. Schmidt,  C. D. Sherrill,  D. G. Truhlar,  
 A. Aspuru-Guzik,  R. Baer,  A. T. Bell,  N. A. Besley,  Jeng-Da Chai,  
 A. E. DePrince, III,  R. A. DiStasio Jr.,  A. Dreuw,  B. D. Dunietz,  
 T. R. Furlani,  Chao-Ping Hsu,  Yousung Jung,  Jing Kong,  D. S. Lambrecht,  
 WanZhen Liang,  C. Ochsenfeld,  V. A. Rassolov,  L. V. Slipchenko,  
 J. E. Subotnik,  T. Van Voorhis,  J. M. Herbert,  A. I. Krylov,  
 P. M. W. Gill,  M. Head-Gordon

 Contributors to earlier versions of Q-Chem not listed above: 
 R. D. Adamson,  B. Austin,  J. Baker,  G. J. O. Beran,  K. Brandhorst,  
 S. T. Brown,  E. F. C. Byrd,  A. K. Chakraborty,  C.-L. Cheng,  
 Siu Hung Chien,  D. M. Chipman,  D. L. Crittenden,  H. Dachsel,  
 R. J. Doerksen,  A. D. Dutoi,  L. Fusti-Molnar,  W. A. Goddard III,  
 A. Golubeva-Zadorozhnaya,  S. R. Gwaltney,  G. Hawkins,  A. Heyden,  
 S. Hirata,  G. Kedziora,  F. J. Keil,  C. Kelley,  Jihan Kim,  R. A. King,  
 R. Z. Khaliullin,  P. P. Korambath,  W. Kurlancheek,  A. M. Lee,  M. S. Lee,  
 S. V. Levchenko,  Ching Yeh Lin,  D. Liotard,  R. C. Lochan,  I. Lotan,  
 P. E. Maslen,  N. Nair,  D. P. O'Neill,  D. Neuhauser,  E. Neuscamman,  
 C. M. Oana,  R. Olson,  B. Peters,  R. Peverati,  P. A. Pieniazek,  
 Y. M. Rhee,  J. Ritchie,  M. A. Rohrdanz,  E. Rosta,  N. J. Russ,  
 H. F. Schaefer III,  N. E. Schultz,  N. Shenvi,  A. C. Simmonett,  A. Sodt,  
 D. Stuck,  K. S. Thanthiriwatte,  V. Vanovschi,  Tao Wang,  A. Warshel,  
 C. F. Williams,  Q. Wu,  X. Xu,  W. Zhang

 Please cite Q-Chem as follows:
 Y. Shao et al., Mol. Phys. 113, 184-215 (2015)
 DOI: 10.1080/00268976.2014.952696

 Q-Chem 5.2.0 for Intel X86 EM64T Linux

 Parts of Q-Chem use Armadillo 8.300.2 (Tropical Shenanigans).
 http://arma.sourceforge.net/

 Q-Chem begins on Sun Sep 26 04:31:33 2021  

Host: cori01
0

     Scratch files written to /tmp/qchem34206//Frg2//
 May1019 |scratch|qcdevops|jenkins|workspace|build_RNUM -1
Processing $rem in /global/common/cori/software/qchem/5.2/config/preferences:
	 MEM_TOTAL  96000 
NAlpha2: 40
NElect   40
Mult     1
Symmetry turned off for PCM/SM12/SMD calculation

Checking the input file for inconsistencies... 	...done.

--------------------------------------------------------------
User input:
--------------------------------------------------------------
$molecule
0 1
 6	-1.3199541101	0.3402126394	1.5298575222
 6	-2.2859541101	0.6622126394	2.6538575222
 6	-1.6719541101	1.0672126394	0.2468575222
 8	-2.7749541101	1.5882126394	0.0818575222
 7	-0.7389541101	1.0952126394	-0.6851424778
 1	-0.3139541101	0.6212126394	1.8398575222
 1	-1.3209541101	-0.7277873606	1.3238575222
 1	-3.3119541101	0.6102126394	2.2918575222
 1	-2.0959541101	1.6882126394	2.9748575222
 1	-0.9249541101	1.5452126394	-1.5661424778
 1	0.0900458899	0.5132126394	-0.5291424778
 1	-2.2051151101	-0.0054373606	3.5243275222
$end
$rem
EDA2		1
METHOD		WB97X-V
BASIS		DEF2-TZVPD
XC_GRID		000099000590
NL_GRID		1
UNRESTRICTED		FALSE
MAX_SCF_CYCLES		200
SYMMETRY		FALSE
SYM_IGNORE		TRUE
BASIS_LIN_DEP_THRESH		6
THRESH		14
SCF_CONVERGENCE		8
SCF_PRINT_FRGM		TRUE
SOLVENT_METHOD		PCM
!required keywords
JOBTYPE		SP
SYM_IGNORE		TRUE
SUBSYSTEM		TRUE
GEN_SCFMAN		TRUE
CHILD_INSTRUCTION		2
SYM_IGNORE		TRUE
SCFMI		0
RI_K 0		
PARI_K 0		
MIN_PARI_K 0		
IARI_K 0		
OCC_RI_K 0		
PURECART		1111
MEM_STATIC		2000
MEM_TOTAL		96000
GUI		0
CHILD_MP		1
CHILD_MP_ORDERS		232
FRZ_RELAX		0
FRZ_RELAX_METHOD		0
EDA_CLS_ELEC		1
EDA_CLS_DISP		0
FRZ_ORTHO_DECOMP		1
EDA2		FALSE
FRGM_METHOD		FALSE
CIS_N_ROOTS  0
LOCAL_CIS    0
CIS_RLX_DNS  1
$end
$pcm
THEORY                  CPCM
METHOD                  SWIG
SOLVER                  INVERSION
RADII                   UFF
HPOINTS                 302
HEAVYPOINTS             302
PRINTLEVEL              0
$end
$solvent
DIELECTRIC              78.390000 ! water
$end
--------------------------------------------------------------
 ----------------------------------------------------------------
             Standard Nuclear Orientation (Angstroms)
    I     Atom           X                Y                Z
 ----------------------------------------------------------------
    1      C      -1.3199541101     0.3402126394     1.5298575222
    2      C      -2.2859541101     0.6622126394     2.6538575222
    3      C      -1.6719541101     1.0672126394     0.2468575222
    4      O      -2.7749541101     1.5882126394     0.0818575222
    5      N      -0.7389541101     1.0952126394    -0.6851424778
    6      H      -0.3139541101     0.6212126394     1.8398575222
    7      H      -1.3209541101    -0.7277873606     1.3238575222
    8      H      -3.3119541101     0.6102126394     2.2918575222
    9      H      -2.0959541101     1.6882126394     2.9748575222
   10      H      -0.9249541101     1.5452126394    -1.5661424778
   11      H       0.0900458899     0.5132126394    -0.5291424778
   12      H      -2.2051151101    -0.0054373606     3.5243275222
 ----------------------------------------------------------------
 Nuclear Repulsion Energy =         180.25205643 hartrees
 There are       20 alpha and       20 beta electrons
 Requested basis set is def2-TZVPD
 There are 101 shells and 251 basis functions

 Total QAlloc Memory Limit  96000 MB
 Mega-Array Size      1956 MB
 MEM_STATIC part      2000 MB
 Discretize the solute cavity surface with Lebedev spheres
	Using 302 Lebedev grid points for each H atom
	Using 302 Lebedev grid points for other atoms
	Atomic van der Waals radii will be scaled by 1.20
 Remove points where switching function is < 1.0e-08
 Keep 1487 surface tesserae and discard 2137 interior tesserae
 Molecular Surface Area = 151.164 Angst**2

                       Distance Matrix (Angstroms)
             C (  1)   C (  2)   C (  3)   O (  4)   N (  5)   H (  6)
   C (  2)  1.516646
   C (  3)  1.516088  2.516877
   O (  4)  2.402339  2.777009  1.230965
   N (  5)  2.411185  3.705350  1.319052  2.230837
   H (  6)  1.089540  2.133790  2.140264  3.175244  2.604021
   H (  7)  1.087686  2.152260  2.122535  3.003421  2.774551  1.760712
   H (  8)  2.149793  1.089231  2.660916  2.475672  3.964604  3.031902
   H (  9)  2.123041  1.091704  2.829735  2.973296  3.948253  2.366905
   H ( 10)  3.345634  4.521107  2.018282  2.477953  1.006607  3.581610
   H ( 11)  2.501502  3.974804  2.003431  3.120444  1.024842  2.405627
   H ( 12)  2.209275  1.100004  3.489505  3.836018  4.591372  2.608950
             H (  7)   H (  8)   H (  9)   H ( 10)   H ( 11)
   H (  8)  2.586764
   H (  9)  3.027124  1.762733
   H ( 10)  3.698033  4.632079  4.691734
   H ( 11)  2.639055  4.420526  4.293860  1.780623
   H ( 12)  2.479032  1.767229  1.783896  5.473227  4.686937
 
 A cutoff of  1.0D-14 yielded   5037 shell pairs
 There are     31639 function pairs (     39781 Cartesian)
 Smallest overlap matrix eigenvalue = 5.37E-06

 Scale SEOQF with 1.000000e-01/1.000000e-01/1.000000e-01

 Standard Electronic Orientation quadrupole field applied
 Nucleus-field energy     =    -0.0000000016 hartrees
 Guess from superposition of atomic densities
 Warning:  Energy on first SCF cycle will be non-variational
 SAD guess density has 39.592240 electrons

 -----------------------------------------------------------------------
  General SCF calculation program by
  Eric Jon Sundstrom, Paul Horn, Yuezhi Mao, Dmitri Zuev, Alec White,
  David Stuck, Shaama M.S., Shane Yost, Joonho Lee, David Small,
  Daniel Levine, Susi Lehtola, Hugh Burton, Evgeny Epifanovsky
 -----------------------------------------------------------------------
 Exchange:     0.1670 Hartree-Fock + 1.0000 wB97X-V + LR-HF
 Correlation:  1.0000 wB97X-V
 Using Euler-Maclaurin-Lebedev (99,590) quadrature formula
 Nonlocal Correlation:  VV10 with C = 0.0100 and b = 6.00 and scale = 1.00000
 Grid used for NLC:  SG-1 standard quadrature
Energy prior to optimization (guess energy) = -248.011517362665
Begin Timing: Total SCF Calculation
begin iterations for algorithm: DIIS         
the SCF tolerance is set to 1.00e-08
    1    -248.0115173627      9.85e-03     00000 
    2    -247.5900753112      1.23e-02     00000 
    3    -248.5354512712      2.03e-03     00000 
    4    -248.5573366583      6.75e-04     00000 
    5    -248.5603121788      1.01e-04     00000 
    6    -248.5604208060      4.35e-05     00000 
    7    -248.5604419067      9.93e-06     00000 
    8    -248.5604433783      1.76e-06     00000 
    9    -248.5604434778      4.73e-07     00000 
   10    -248.5604434823      1.54e-07     00000 
   11    -248.5604434826      5.42e-08     00000 
   12    -248.5604434827      1.64e-08     00000 
   13    -248.5604434827      4.40e-09     00000 Convergence criterion met
Timing for Total SCF: 773.00s (wall), 1531.11s (cpu)

************** Final PCM Free Energy Summary **************
 G_electrostatic  =      -0.01120700 hartree =      -7.03249983 kcal/mol
 G_cavitation     =       0.00000000 hartree =       0.00000000 kcal/mol
 G_dispersion     =       0.00000000 hartree =       0.00000000 kcal/mol
 G_repulsion      =       0.00000000 hartree =       0.00000000 kcal/mol
 --------------------------------------------------
 Non-electrostatic Free Energy =       0.00000000 hartree =       0.00000000 kcal/mol
 Total                         =      -0.01120700 hartree =      -7.03249983 kcal/mol
 --------------------------------------------------
 SCF Energy (H0 + V/2)                       =    -248.56044348 
 Solute Internal Energy (H0)                 =    -248.54923648 
 Total Free Energy (H0 + V/2 + non-elec)     =    -248.56044348 hartree
                                             = -155974.03240136 kcal/mol
***********************************************************

E_pcm = -0.0112070019
Multipole orders to be included
        2
        3
computing dipole RHS
computing quadrupole RHS
total number of RHS in solve_reponses: 8
RHS batch sizes
        8
Beginning Block Conjugate Gradient Iterations. Batch Number: 0
computing hessian-vector products by finite difference
              1      6.08e-01     00000 Conjugate Gradient Iteration
computing hessian-vector products by finite difference
              2      2.05e-01     00000 Conjugate Gradient Iteration
computing hessian-vector products by finite difference
              3      5.08e-02     00000 Conjugate Gradient Iteration
computing hessian-vector products by finite difference
              4      1.28e-02     00000 Conjugate Gradient Iteration
computing hessian-vector products by finite difference
              5      2.09e-03     00000 Conjugate Gradient Iteration
computing hessian-vector products by finite difference
              6      4.33e-04     00000 Conjugate Gradient Iteration
computing hessian-vector products by finite difference
              7      7.29e-05     00000 Conjugate Gradient Iteration
computing hessian-vector products by finite difference
              8      9.62e-06     00000 Conjugate Gradient Iteration
computing hessian-vector products by finite difference
              9      1.65e-06     00000 Conjugate Gradient Iteration
computing hessian-vector products by finite difference
             10      3.51e-07     00000 Conjugate Gradient Iteration
computing hessian-vector products by finite difference
             11      5.87e-08     00000 Conjugate Gradient Iteration
computing hessian-vector products by finite difference
             12      8.38e-09     00000 CG Converged
batch 0 complete
Done Calculating Responses
TESTING ORTHOGONALIZATION OF MULTIPOLE BASIS
Multipole virts passed orthogonality test
Virts Per Order
           60
          100
 
 --------------------------------------------------------------
 
                    Orbital Energies (a.u.)
 --------------------------------------------------------------
 
 Alpha MOs
 -- Occupied --
-19.1771 -14.4334 -10.3721 -10.2750 -10.2561  -1.1709  -1.0463  -0.9119
 -0.7825  -0.6963  -0.6562  -0.6020  -0.5880  -0.5317  -0.5119  -0.4832
 -0.4613  -0.4496  -0.3818  -0.3667
 -- Virtual --
  0.0591   0.0816   0.0873   0.0943   0.1161   0.1233   0.1275   0.1321
  0.1517   0.1680   0.1835   0.1911   0.1988   0.2100   0.2136   0.2262
  0.2337   0.2422   0.2578   0.2685   0.2745   0.2895   0.2921   0.3034
  0.3139   0.3233   0.3277   0.3411   0.3434   0.3506   0.3593   0.3620
  0.3737   0.3827   0.3873   0.3985   0.4019   0.4045   0.4188   0.4252
  0.4353   0.4377   0.4530   0.4584   0.4718   0.4779   0.4824   0.4969
  0.5038   0.5129   0.5209   0.5285   0.5339   0.5443   0.5521   0.5619
  0.5893   0.5974   0.6071   0.6320   0.6354   0.6429   0.6653   0.6706
  0.6754   0.7030   0.7117   0.7278   0.7353   0.7610   0.7637   0.7649
  0.7760   0.7845   0.7895   0.8085   0.8113   0.8291   0.8431   0.8495
  0.8707   0.8781   0.8811   0.9020   0.9356   0.9515   0.9853   1.0087
  1.0221   1.0343   1.0541   1.0761   1.1179   1.1233   1.1339   1.1722
  1.2051   1.2700   1.2916   1.3046   1.3502   1.3563   1.3789   1.3847
  1.4453   1.4703   1.4982   1.5462   1.5597   1.6338   1.6983   1.7723
  1.8016   1.8313   1.8618   1.8956   1.9028   1.9166   1.9383   1.9591
  1.9734   1.9892   1.9968   2.0192   2.0215   2.0503   2.0885   2.1357
  2.1652   2.1983   2.2364   2.2546   2.3093   2.3212   2.3456   2.3745
  2.4011   2.4664   2.4784   2.5144   2.5276   2.5634   2.5885   2.6228
  2.6572   2.6828   2.7272   2.7440   2.7775   2.8001   2.8133   2.8504
  2.8764   2.9130   2.9369   2.9639   3.0032   3.0350   3.0938   3.1077
  3.1686   3.2137   3.2418   3.2751   3.2936   3.3003   3.3281   3.3306
  3.3529   3.3958   3.4005   3.4550   3.4682   3.4851   3.5064   3.5533
  3.6030   3.6096   3.6257   3.6565   3.7155   3.7275   3.7555   3.7709
  3.9101   3.9728   3.9913   4.0607   4.0748   4.0979   4.1546   4.2308
  4.3193   4.3670   4.4691   4.5503   4.5865   4.6209   4.6608   4.7376
  4.7648   4.8727   4.8953   4.9086   4.9833   5.0627   5.1912   5.1988
  5.2595   5.3521   5.3954   5.4150   5.4512   5.5181   5.5823   5.7811
  5.9389   6.1285   6.2736   6.5331   6.6604   6.7664   6.8572   6.9964
  7.2636   7.3402  22.6425  22.7916  23.6450  32.4394  44.3381
 --------------------------------------------------------------
 
          Ground-State Mulliken Net Atomic Charges

     Atom                 Charge (a.u.)
  ----------------------------------------
      1 C                    -0.065518
      2 C                    -0.869202
      3 C                     0.228698
      4 O                    -0.587001
      5 N                    -0.259104
      6 H                     0.236732
      7 H                     0.236434
      8 H                     0.208939
      9 H                     0.208389
     10 H                     0.225897
     11 H                     0.208499
     12 H                     0.227238
  ----------------------------------------
  Sum of atomic charges =     0.000000

 -----------------------------------------------------------------
                    Cartesian Multipole Moments
 -----------------------------------------------------------------
    Charge (ESU x 10^10)
                -0.0000
    Dipole Moment (Debye)
         X       4.5785      Y      -2.0799      Z      -0.3562
       Tot       5.0413
    Quadrupole Moments (Debye-Ang)
        XX     -47.6985     XY       9.0895     YY     -35.7315
        XZ      -0.3210     YZ      -1.9171     ZZ     -27.4723
    Octopole Moments (Debye-Ang^2)
       XXX     218.3721    XXY     -59.5654    XYY      70.5516
       YYY     -95.1830    XXZ     -27.3186    XYZ       2.5687
       YYZ     -29.8829    XZZ      51.9841    YZZ     -23.9929
       ZZZ     -84.9014
    Hexadecapole Moments (Debye-Ang^3)
      XXXX    -894.2589   XXXY     259.0122   XXYY    -216.0321
      XYYY     191.6836   YYYY    -257.2441   XXXZ     182.1814
      XXYZ     -17.5305   XYYZ      63.3672   YYYZ     -43.4599
      XXZZ    -205.1961   XYZZ      53.2292   YYZZ    -112.6593
      XZZZ     183.2490   YZZZ     -52.5658   ZZZZ    -482.5740
 -----------------------------------------------------------------
Archival summary:
1\1\nid00524\SP\ProcedureUnspecified\BasisUnspecified\1137\meili\SunSep2608:22:112021SunSep2608:22:112021\0\\#,ProcedureUnspecified,BasisUnspecified,\\0,1\C\O,1,1.23097\N,1,1.31905,2,122.012\H,3,1.00661,1,119.814,2,-0.621372,0\H,3,1.02484,1,116.908,2,-170.46,0\C,1,1.51609,2,121.63,3,-179.139,0\H,6,1.08769,1,108.081,2,106.259,0\H,6,1.08954,1,109.359,2,-136.477,0\C,6,1.51665,1,112.178,2,-15.6579,0\H,9,1.08923,6,110.091,1,45.7609,0\H,9,1.0917,6,107.854,1,-71.6727,0\H,9,1.1,6,114.255,1,167.023,0\\\@

 Total job time:  13840.02s(wall), 27399.86s(cpu) 
 Sun Sep 26 08:22:13 2021

        *************************************************************
        *                                                           *
        *  Thank you very much for using Q-Chem.  Have a nice day.  *
        *                                                           *
        *************************************************************


Done Job For Fragment 1
calling putenv with: QCSCRATCH=/global/cscratch1/sd/meili 
calling putenv with: QCLOCALSCR=/tmp 
calling putenv with: QCTHREADS=32 
Doing General SCFMI
 Exchange:     0.1670 Hartree-Fock + 1.0000 wB97X-V + LR-HF
 Correlation:  1.0000 wB97X-V
 Using Euler-Maclaurin-Lebedev (99,590) quadrature formula
 Nonlocal Correlation:  VV10 with C = 0.0100 and b = 6.00 and scale = 1.00000
 Grid used for NLC:  SG-1 standard quadrature
performing fock build before subrot guess so that all methods have access
Printing subrot_rss_gen Method Specification:
Occupied Subspace Method is 0
Virtual Subspace Method is 0
Energy of the unrelaxed supersystem initial determinant -477.113933619759
performing fock build before subrot guess so that all methods have access
Printing subrot_rss_gen Method Specification:
Occupied Subspace Method is 0
Virtual Subspace Method is 0
Energy of the unrelaxed supersystem initial determinant w/ solvent -477.204015225766
write pseudocanon occs and virts to disk
write pseudocanon orbital energies to disk
Tolerance of ortho_decomp_scf: 1.00e-06
GDM subspace size: 20
Beginning the Orthogonal Decomposition of the Initial Supersystem Wavefunction
    1    -477.0201607406      9.41e-02     ortho_decomp Preconditoned Steepest Descent
    2    -477.0333093624      2.41e-03     ortho_decomp BFGS Step
    3    -477.0333606005      2.26e-04     ortho_decomp BFGS Step
    4    -477.0333607307      1.02e-05     ortho_decomp BFGS Step
    5    -477.0333607312      3.57e-07     ortho_decomp 00000 Convergence criterion met
 Hartree-Fock
 Hartree-Fock
 Hartree-Fock
Doing General SCFMI
 Exchange:     0.1670 Hartree-Fock + 1.0000 wB97X-V + LR-HF
 Correlation:  1.0000 wB97X-V
 Using Euler-Maclaurin-Lebedev (99,590) quadrature formula
 Nonlocal Correlation:  VV10 with C = 0.0100 and b = 6.00 and scale = 1.00000
 Grid used for NLC:  SG-1 standard quadrature
performing fock build at end of subrot_r(subrot) constructor so that all methods have access
<S^2> of initial wavefunction before polarization iterations 0.0000000000
Beginning iterations for the determination of the polarized wavefunction
Energy prior to optimization (guess energy) = -477.204015225766
Begin Timing: Total SCF Calculation
begin iterations for algorithm: DIIS         
the SCF tolerance is set to 1.00e-08
    1    -477.2040152258      2.60e-04     00000 
    2    -477.2075347126      1.10e-04     00000 
    3    -477.2078957742      8.41e-05     00000 
    4    -477.2080775248      2.50e-05     00000 
    5    -477.2081062582      1.06e-05     00000 
    6    -477.2081136540      5.33e-06     00000 
    7    -477.2081153792      2.59e-06     00000 
    8    -477.2081156659      9.92e-07     00000 
    9    -477.2081157145      4.34e-07     00000 
   10    -477.2081157209      1.72e-07     00000 
   11    -477.2081157222      7.58e-08     00000 
   12    -477.2081157224      3.35e-08     00000 
   13    -477.2081157224      1.22e-08     00000 
   14    -477.2081157224      5.18e-09     00000 Convergence criterion met
write pseudocanon occs and virts to disk
write pseudocanon orbital energies to disk
Timing for Total SCF: 3279.00s (wall), 6523.60s (cpu)
<S^2> of polarized wavefunction after polarization iterations 0.0000000000
relaxing scfmi constraint to allow all rotations in the entire AO span
Doing General SCFMI
 Exchange:     0.1670 Hartree-Fock + 1.0000 wB97X-V + LR-HF
 Correlation:  1.0000 wB97X-V
 Using Euler-Maclaurin-Lebedev (99,590) quadrature formula
 Nonlocal Correlation:  VV10 with C = 0.0100 and b = 6.00 and scale = 1.00000
 Grid used for NLC:  SG-1 standard quadrature
performing fock build at end of subrot_r(subrot) constructor so that all methods have access
<S^2> of polarized wavefunction before ct-allowed iterations 0.0000000000
Beginning iterations for the determination of the CT-Allowed wavefunction
Energy prior to optimization (guess energy) = -477.208115722409
Begin Timing: Total SCF Calculation
begin iterations for algorithm: DIIS         
the SCF tolerance is set to 1.00e-08
    1    -477.2081157224      2.20e-04     00000 
    2    -477.2136332448      3.63e-05     00000 
    3    -477.2138666295      1.90e-05     00000 
    4    -477.2138891281      8.39e-06     00000 
    5    -477.2138952930      2.41e-06     00000 
    6    -477.2138957810      7.45e-07     00000 
    7    -477.2138958645      3.46e-07     00000 
    8    -477.2138958800      8.48e-08     00000 
    9    -477.2138958816      4.00e-08     00000 
   10    -477.2138958819      1.73e-08     00000 
   11    -477.2138958819      5.35e-09     00000 Convergence criterion met
write pseudocanon occs and virts to disk
write pseudocanon orbital energies to disk
Timing for Total SCF: 2532.00s (wall), 5033.62s (cpu)
<S^2> of ct_allowed wavefunction after ct-allowed iterations 0.0000000000

================================
        Results of EDA2         
================================
Basic EDA Quantities
--------------------
Fragment Energies (Ha):
1 -228.6419391819
2 -248.5604434827
--------------------
  E_prp (kJ/mol) = 0.0000
  E_sol (kJ/mol) = 60.2062
  E_frz (kJ/mol) = -64.4925
  E_pol (kJ/mol) = -10.7660
  E_vct (kJ/mol) = -15.1760
  E_int (kJ/mol) = -30.2283
--------------------


Initial Wavefunction Decomposition
--------------------
  --------------------
  Orthogonal Fragment Subspace Decomposition:
  --------------------
     E_elec   (ELEC)   (kJ/mol) = -166.8208
     E_pauli  (PAULI)  (kJ/mol) = 120.8713
     E_disp   (DISP)   (kJ/mol) = -18.5431
     --------------------
     Terms summing to E_pauli:
     --------------------
        E_kep_pauli       (kJ/mol) = 147.0541
        E_disp_free_pauli (kJ/mol) = -26.1827
  --------------------
  Classical Frozen Decomposition:
  --------------------
     E_cls_elec  (CLS ELEC)  (kJ/mol) = -118.2339
     E_cls_pauli (CLS PAULI) (kJ/mol) = 53.7413
    [E_mod_pauli (MOD PAULI) (kJ/mol) = 72.2844 (CLS PAULI - DISP from orthogonal decomposition) ]
  --------------------
--------------------

Simplified EDA Summary (kJ/mol)
--------------------
 PREPARATION     0.0000
 SOLVATION       60.2062
 FROZEN          -45.9495      (does not include dispersion)
[PAULI           120.8713]     (if this is negligible, then frozen describes electrostatics)
 DISPERSION      -18.5431
 POLARIZATION    -10.7660
 CHARGE TRANSFER -15.1760
 TOTAL           -30.2283     (PRP + SOL + FRZ + DISP + POL + CT)
--------------------
 
 --------------------------------------------------------------
 
                    Orbital Energies (a.u.)
 --------------------------------------------------------------
 
 Alpha MOs
 -- Occupied --
-19.1636 -19.1306 -19.1300 -14.4040 -10.3566 -10.3336 -10.2620 -10.2493
-10.2429  -1.1566  -1.1425  -1.0431  -1.0231  -0.9008  -0.8333  -0.7706
 -0.6783  -0.6389  -0.5993  -0.5878  -0.5762  -0.5368  -0.5282  -0.5227
 -0.5147  -0.4998  -0.4729  -0.4698  -0.4504  -0.4470  -0.4395  -0.3648
 -0.3554  -0.3378  -0.3341  -0.3173
 -- Virtual --
  0.0565   0.0704   0.0830   0.0872   0.0965   0.1037   0.1063   0.1195
  0.1270   0.1296   0.1314   0.1363   0.1446   0.1550   0.1641   0.1678
  0.1745   0.1766   0.1915   0.1958   0.2029   0.2121   0.2207   0.2249
  0.2293   0.2337   0.2410   0.2485   0.2584   0.2616   0.2651   0.2771
  0.2782   0.2805   0.2902   0.2930   0.3017   0.3116   0.3159   0.3216
  0.3309   0.3320   0.3383   0.3404   0.3520   0.3548   0.3588   0.3630
  0.3668   0.3742   0.3783   0.3815   0.3823   0.3916   0.3976   0.4001
  0.4046   0.4136   0.4164   0.4223   0.4246   0.4273   0.4345   0.4382
  0.4442   0.4501   0.4566   0.4613   0.4640   0.4717   0.4804   0.4892
  0.4918   0.4958   0.5044   0.5061   0.5112   0.5162   0.5191   0.5311
  0.5348   0.5455   0.5518   0.5566   0.5587   0.5647   0.5763   0.5815
  0.5878   0.5972   0.6067   0.6087   0.6181   0.6201   0.6326   0.6384
  0.6483   0.6530   0.6607   0.6673   0.6696   0.6793   0.6838   0.6981
  0.7018   0.7078   0.7162   0.7231   0.7290   0.7302   0.7406   0.7491
  0.7563   0.7643   0.7699   0.7787   0.7830   0.7920   0.7946   0.8040
  0.8077   0.8158   0.8186   0.8269   0.8313   0.8359   0.8418   0.8480
  0.8569   0.8651   0.8691   0.8771   0.8911   0.9009   0.9182   0.9262
  0.9311   0.9500   0.9658   0.9741   1.0013   1.0078   1.0099   1.0359
  1.0374   1.0583   1.0674   1.0714   1.0793   1.1092   1.1170   1.1305
  1.1418   1.1515   1.1652   1.1707   1.1785   1.1982   1.2065   1.2090
  1.2379   1.2534   1.2813   1.3071   1.3129   1.3240   1.3418   1.3527
  1.3591   1.3688   1.3847   1.4008   1.4126   1.4272   1.4377   1.4772
  1.4903   1.4944   1.5314   1.5369   1.6004   1.6038   1.6270   1.6683
  1.6877   1.7567   1.7855   1.8152   1.8346   1.8708   1.8817   1.8953
  1.9064   1.9168   1.9313   1.9465   1.9524   1.9564   1.9713   1.9837
  1.9862   1.9957   2.0030   2.0086   2.0180   2.0321   2.0532   2.0565
  2.0694   2.0749   2.1179   2.1341   2.1377   2.1886   2.1932   2.2123
  2.2215   2.2357   2.2579   2.2753   2.2810   2.2886   2.3281   2.3497
  2.3622   2.4118   2.4158   2.4419   2.4656   2.4831   2.4922   2.5147
  2.5229   2.5391   2.5731   2.5857   2.5940   2.6142   2.6244   2.6412
  2.6444   2.6635   2.6873   2.7046   2.7320   2.7399   2.7578   2.7746
  2.8146   2.8347   2.8439   2.8526   2.8632   2.8846   2.9071   2.9239
  2.9383   2.9499   2.9721   2.9776   2.9903   3.0495   3.0619   3.0917
  3.1239   3.1400   3.1715   3.1770   3.2140   3.2406   3.2527   3.2690
  3.2904   3.3058   3.3231   3.3291   3.3370   3.3514   3.3586   3.3621
  3.3627   3.3836   3.3972   3.4150   3.4212   3.4368   3.4530   3.4694
  3.4918   3.5084   3.5212   3.5342   3.5699   3.5839   3.5977   3.6330
  3.6471   3.6540   3.6729   3.6856   3.6981   3.7213   3.7375   3.7436
  3.7652   3.7753   3.7795   3.7919   3.8263   3.9140   3.9359   3.9565
  4.0019   4.0333   4.0664   4.0917   4.0950   4.1129   4.1223   4.1836
  4.2068   4.2727   4.3520   4.3800   4.4046   4.5016   4.5663   4.5969
  4.6071   4.6485   4.6554   4.6789   4.6810   4.7701   4.7863   4.8285
  4.8949   4.9200   4.9454   4.9612   5.0029   5.0249   5.0918   5.2179
  5.2456   5.2868   5.3371   5.3579   5.3728   5.3767   5.4072   5.4375
  5.4708   5.5018   5.5156   5.5803   5.6232   5.7228   5.7755   5.7978
  5.8310   5.9720   6.0402   6.1770   6.2761   6.2911   6.3688   6.4143
  6.5533   6.6615   6.6754   6.6877   6.7565   6.7647   6.7918   6.8093
  6.8753   6.9610   7.0219   7.0268   7.1091   7.2691   7.2924   7.3622
  7.3687   7.3995   7.4677  22.6171  22.6620  22.8804  23.6884  23.7873
 32.5679  44.3459  44.4099  44.4275
 --------------------------------------------------------------
 
          Ground-State Mulliken Net Atomic Charges

     Atom                 Charge (a.u.)
  ----------------------------------------
      1 C                    -0.439680
      2 C                     0.332172
      3 O                    -0.735351
      4 O                    -0.668075
      5 H                     0.162123
      6 H                     0.149420
      7 H                     0.186002
      8 C                     0.175823
      9 C                    -0.988018
     10 C                     0.079788
     11 O                    -0.616788
     12 N                    -0.124380
     13 H                     0.196861
     14 H                     0.186812
     15 H                     0.225168
     16 H                     0.226619
     17 H                     0.211242
     18 H                     0.213119
     19 H                     0.227142
  ----------------------------------------
  Sum of atomic charges =    -1.000000

 -----------------------------------------------------------------
                    Cartesian Multipole Moments
 -----------------------------------------------------------------
    Charge (ESU x 10^10)
                -4.8032
    Dipole Moment (Debye)
         X      -5.3587      Y      -0.3797      Z       0.2329
       Tot       5.3772
    Quadrupole Moments (Debye-Ang)
        XX    -109.5516     XY      14.4927     YY     -62.9730
        XZ       4.4492     YZ      -1.7286     ZZ     -54.5546
    Octopole Moments (Debye-Ang^2)
       XXX     -60.9809    XXY     -14.6668    XYY      17.3436
       YYY      -4.1032    XXZ      16.3100    XYZ       1.3843
       YYZ      -4.3504    XZZ      -3.3453    YZZ       6.7246
       ZZZ     -11.3796
    Hexadecapole Moments (Debye-Ang^3)
      XXXX   -2194.5648   XXXY     527.3311   XXYY    -425.2873
      XYYY     386.2994   YYYY    -593.6919   XXXZ     438.8035
      XXYZ     -70.8168   XYYZ     121.1924   YYYZ    -175.1478
      XXZZ    -412.2725   XYZZ     121.1484   YYZZ    -220.8829
      XZZZ     360.4692   YZZZ    -184.6601   ZZZZ    -767.4656
 -----------------------------------------------------------------
Archival summary:
1\1\nid00524\SP\ProcedureUnspecified\BasisUnspecified\31510(1-,1)\meili\SunSep2610:59:432021SunSep2610:59:432021\0\\#,ProcedureUnspecified,BasisUnspecified,\\-1,1\O\C,1,1.25367\O,2,1.24772,1,122.955\C,2,1.52158,1,117.041,3,173.192,0\H,4,1.08768,2,109.466,1,-68.6952,0\H,4,1.09138,2,108.969,1,47.4354,0\H,4,1.1,2,113.664,1,166.558,0\H,1,1.80715,2,120.419,3,93.7117,0\N,8,1.02484,1,164.696,2,134.942,0\H,9,1.00661,8,122.45,1,-123.386,0\C,9,1.31905,8,116.908,1,46.1633,0\O,11,1.23097,9,122.012,8,-170.46,0\C,11,1.51609,9,116.353,8,8.72208,0\H,13,1.08769,11,108.081,9,-72.9269,0\H,13,1.08954,11,109.359,9,44.3373,0\C,13,1.51665,11,112.178,9,165.156,0\H,16,1.08923,13,110.091,11,45.7609,0\H,16,1.0917,13,107.854,11,-71.6727,0\H,16,1.1,13,114.255,11,167.023,0\\\@

 Total job time:  28579.25s(wall), 18811.51s(cpu) 
 Sun Sep 26 10:59:46 2021

        *************************************************************
        *                                                           *
        *  Thank you very much for using Q-Chem.  Have a nice day.  *
        *                                                           *
        *************************************************************


