                  Welcome to Q-Chem
     A Quantum Leap Into The Future Of Chemistry


 Q-Chem 5.2 (devel), Q-Chem, Inc., Pleasanton, CA (2019)

 Yihan Shao,  Zhengting Gan,  E. Epifanovsky,  A. T. B. Gilbert,  M. Wormit,  
 J. Kussmann,  A. W. Lange,  A. Behn,  Jia Deng,  Xintian Feng,  D. Ghosh,  
 M. Goldey,  P. R. Horn,  L. D. Jacobson,  I. Kaliman,  T. Kus,  A. Landau,  
 Jie Liu,  E. I. Proynov,  R. M. Richard,  R. P. Steele,  E. J. Sundstrom,  
 H. L. Woodcock III,  P. M. Zimmerman,  D. Zuev,  B. Albrecht,  E. Alguire,  
 S. A. Baeppler,  D. Barton,  Z. Benda,  Y. A. Bernard,  E. J. Berquist,  
 K. B. Bravaya,  H. Burton,  D. Casanova,  Chun-Min Chang,  Yunqing Chen,  
 A. Chien,  K. D. Closser,  M. P. Coons,  S. Coriani,  S. Dasgupta,  
 A. L. Dempwolff,  M. Diedenhofen,  Hainam Do,  R. G. Edgar,  Po-Tung Fang,  
 S. Faraji,  S. Fatehi,  Qingguo Feng,  K. D. Fenk,  J. Fosso-Tande,  
 J. Gayvert,  Qinghui Ge,  A. Ghysels,  G. Gidofalvi,  J. Gomes,  
 J. Gonthier,  A. Gunina,  D. Hait,  M. W. D. Hanson-Heine,  
 P. H. P. Harbach,  A. W. Hauser,  M. F. Herbst,  J. E. Herr,  
 E. G. Hohenstein,  Z. C. Holden,  Kerwin Hui,  B. C. Huynh,  T.-C. Jagau,  
 Hyunjun Ji,  B. Kaduk,  K. Khistyaev,  Jaehoon Kim,  P. Klunzinger,  K. Koh,  
 D. Kosenkov,  L. Koulias,  T. Kowalczyk,  C. M. Krauter,  A. Kunitsa,  
 Ka Un Lao,  A. Laurent,  K. V. Lawler,  Joonho Lee,  D. Lefrancois,  
 S. Lehtola,  D. S. Levine,  Yi-Pei Li,  You-Sheng Lin,  Fenglai Liu,  
 E. Livshits,  A. Luenser,  P. Manohar,  E. Mansoor,  S. F. Manzer,  
 Shan-Ping Mao,  Yuezhi Mao,  N. Mardirossian,  A. V. Marenich,  
 T. Markovich,  L. A. Martinez-Martinez,  S. A. Maurer,  N. J. Mayhall,  
 S. C. McKenzie,  J.-M. Mewes,  P. Morgante,  A. F. Morrison,  
 J. W. Mullinax,  K. Nanda,  T. S. Nguyen-Beck,  R. Olivares-Amaya,  
 J. A. Parkhill,  Zheng Pei,  T. M. Perrine,  F. Plasser,  P. Pokhilko,  
 S. Prager,  A. Prociuk,  E. Ramos,  D. R. Rehn,  F. Rob,  M. Scheurer,  
 M. Schneider,  N. Sergueev,  S. M. Sharada,  S. Sharma,  D. W. Small,  
 T. Stauch,  T. Stein,  Yu-Chuan Su,  A. J. W. Thom,  A. Tkatchenko,  
 T. Tsuchimochi,  N. M. Tubman,  L. Vogt,  M. L. Vidal,  O. Vydrov,  
 M. A. Watson,  J. Wenzel,  M. de Wergifosse,  T. A. Wesolowski,  A. White,  
 J. Witte,  A. Yamada,  Jun Yang,  K. Yao,  S. Yeganeh,  S. R. Yost,  
 Zhi-Qiang You,  A. Zech,  Igor Ying Zhang,  Xing Zhang,  Yan Zhao,  
 Ying Zhu,  B. R. Brooks,  G. K. L. Chan,  C. J. Cramer,  M. S. Gordon,  
 W. J. Hehre,  A. Klamt,  M. W. Schmidt,  C. D. Sherrill,  D. G. Truhlar,  
 A. Aspuru-Guzik,  R. Baer,  A. T. Bell,  N. A. Besley,  Jeng-Da Chai,  
 A. E. DePrince, III,  R. A. DiStasio Jr.,  A. Dreuw,  B. D. Dunietz,  
 T. R. Furlani,  Chao-Ping Hsu,  Yousung Jung,  Jing Kong,  D. S. Lambrecht,  
 WanZhen Liang,  C. Ochsenfeld,  V. A. Rassolov,  L. V. Slipchenko,  
 J. E. Subotnik,  T. Van Voorhis,  J. M. Herbert,  A. I. Krylov,  
 P. M. W. Gill,  M. Head-Gordon

 Contributors to earlier versions of Q-Chem not listed above: 
 R. D. Adamson,  B. Austin,  J. Baker,  G. J. O. Beran,  K. Brandhorst,  
 S. T. Brown,  E. F. C. Byrd,  A. K. Chakraborty,  C.-L. Cheng,  
 Siu Hung Chien,  D. M. Chipman,  D. L. Crittenden,  H. Dachsel,  
 R. J. Doerksen,  A. D. Dutoi,  L. Fusti-Molnar,  W. A. Goddard III,  
 A. Golubeva-Zadorozhnaya,  S. R. Gwaltney,  G. Hawkins,  A. Heyden,  
 S. Hirata,  G. Kedziora,  F. J. Keil,  C. Kelley,  Jihan Kim,  R. A. King,  
 R. Z. Khaliullin,  P. P. Korambath,  W. Kurlancheek,  A. M. Lee,  M. S. Lee,  
 S. V. Levchenko,  Ching Yeh Lin,  D. Liotard,  R. C. Lochan,  I. Lotan,  
 P. E. Maslen,  N. Nair,  D. P. O'Neill,  D. Neuhauser,  E. Neuscamman,  
 C. M. Oana,  R. Olson,  B. Peters,  R. Peverati,  P. A. Pieniazek,  
 Y. M. Rhee,  J. Ritchie,  M. A. Rohrdanz,  E. Rosta,  N. J. Russ,  
 H. F. Schaefer III,  N. E. Schultz,  N. Shenvi,  A. C. Simmonett,  A. Sodt,  
 D. Stuck,  K. S. Thanthiriwatte,  V. Vanovschi,  Tao Wang,  A. Warshel,  
 C. F. Williams,  Q. Wu,  X. Xu,  W. Zhang

 Please cite Q-Chem as follows:
 Y. Shao et al., Mol. Phys. 113, 184-215 (2015)
 DOI: 10.1080/00268976.2014.952696

 Q-Chem 5.2.1 for Intel X86 EM64T Linux

 Parts of Q-Chem use Armadillo 8.300.2 (Tropical Shenanigans).
 http://arma.sourceforge.net/

 Q-Chem begins on Wed Sep 29 12:14:45 2021  

compute-0-11.local
Host: 0

     Scratch files written to /home/meili/scratch/qchem25905//
NAlpha2: 128
NElect   128
Mult     1
Symmetry turned off for PCM/SM12/SMD calculation

 Q-Chem warning in module libgen/rem_setup.C, line 2813:

 Neither GIA nor STOLL is specified by user. Use STOLL as the default


Checking the input file for inconsistencies... 	...done.

--------------------------------------------------------------
User input:
--------------------------------------------------------------
$comment
SSI-062TYR-095TRP-1.pdb
$end

$molecule
0 1
--
0 1
C    4.285721080157    2.794589174911   -1.032401124656
C    0.653721080157    1.761589174911   -1.484401124656
C    1.853721080157    2.161589174911   -0.912401124656
C    0.574721080157    1.583589174911   -2.865401124656
C    2.985721080157    2.380589174911   -1.690401124656
C    1.691721080157    1.796589174911   -3.671401124656
C    2.894721080157    2.187589174911   -3.069401124656
O   -0.632278919843    1.235589174911   -3.359401124656
H   -0.203278919843    1.577589174911   -0.866401124656
H    1.904721080157    2.304589174911    0.157598875344
H   -1.288278919843    1.167589174911   -2.666401124656
H    1.610721080157    1.675589174911   -4.739401124656
H    4.041721080157    3.580589174911   -0.320401124656
H    4.950721080157    3.232589174911   -1.778401124656
H    3.766721080157    2.352589174911   -3.688401124656
H    4.803621080157    1.982184174911   -0.501571124656
--
0 1
C   -1.928278919843   -2.564410825089    4.644598875344
C   -0.737278919843   -1.606410825089    1.224598875344
C   -1.773278919843   -1.634410825089    2.200598875344
C   -1.212278919843   -2.224410825089    3.385598875344
C    0.085721080157   -2.502410825089    3.112598875344
C   -2.172278919843   -0.611410825089   -0.377401124656
C   -0.915278919843   -1.071410825089   -0.038401124656
C   -3.236278919843   -0.620410825089    0.550598875344
C   -3.048278919843   -1.165410825089    1.838598875344
N    0.374721080157   -2.120410825089    1.827598875344
H   -2.347278919843   -0.229410825089   -1.373401124656
H   -0.102278919843   -1.059410825089   -0.749401124656
H   -4.209278919843   -0.251410825089    0.260598875344
H   -3.865278919843   -1.206410825089    2.514598875344
H    1.269721080157   -2.269410825089    1.365598875344
H    0.778721080157   -2.983410825089    3.796598875344
H   -2.518278919843   -1.716410825089    4.981598875344
H   -1.200278919843   -2.802410825089    5.421598875344
H   -2.594428919843   -3.426110825089    4.490598875344
$end

$rem
JOBTYPE			EDA
EDA2			1
method			wB97X-V
BASIS			def2-TZVPD
XC_GRID			000099000590
NL_GRID			1
UNRESTRICTED		FALSE
MAX_SCF_CYCLES		200
SYMMETRY		FALSE
SYM_IGNORE		TRUE
MEM_STATIC		2000
BASIS_LIN_DEP_THRESH 	6
THRESH 			14
SCF_CONVERGENCE 	8
SCF_PRINT_FRGM 		TRUE
SOLVENT_METHOD          SMD
$end

$SMX
SOLVENT			WATER
$END
--------------------------------------------------------------
 ----------------------------------------------------------------
             Standard Nuclear Orientation (Angstroms)
    I     Atom           X                Y                Z
 ----------------------------------------------------------------
    1      C       4.2857210802     2.7945891749    -1.0324011247
    2      C       0.6537210802     1.7615891749    -1.4844011247
    3      C       1.8537210802     2.1615891749    -0.9124011247
    4      C       0.5747210802     1.5835891749    -2.8654011247
    5      C       2.9857210802     2.3805891749    -1.6904011247
    6      C       1.6917210802     1.7965891749    -3.6714011247
    7      C       2.8947210802     2.1875891749    -3.0694011247
    8      O      -0.6322789198     1.2355891749    -3.3594011247
    9      H      -0.2032789198     1.5775891749    -0.8664011247
   10      H       1.9047210802     2.3045891749     0.1575988753
   11      H      -1.2882789198     1.1675891749    -2.6664011247
   12      H       1.6107210802     1.6755891749    -4.7394011247
   13      H       4.0417210802     3.5805891749    -0.3204011247
   14      H       4.9507210802     3.2325891749    -1.7784011247
   15      H       3.7667210802     2.3525891749    -3.6884011247
   16      H       4.8036210802     1.9821841749    -0.5015711247
   17      C      -1.9282789198    -2.5644108251     4.6445988753
   18      C      -0.7372789198    -1.6064108251     1.2245988753
   19      C      -1.7732789198    -1.6344108251     2.2005988753
   20      C      -1.2122789198    -2.2244108251     3.3855988753
   21      C       0.0857210802    -2.5024108251     3.1125988753
   22      C      -2.1722789198    -0.6114108251    -0.3774011247
   23      C      -0.9152789198    -1.0714108251    -0.0384011247
   24      C      -3.2362789198    -0.6204108251     0.5505988753
   25      C      -3.0482789198    -1.1654108251     1.8385988753
   26      N       0.3747210802    -2.1204108251     1.8275988753
   27      H      -2.3472789198    -0.2294108251    -1.3734011247
   28      H      -0.1022789198    -1.0594108251    -0.7494011247
   29      H      -4.2092789198    -0.2514108251     0.2605988753
   30      H      -3.8652789198    -1.2064108251     2.5145988753
   31      H       1.2697210802    -2.2694108251     1.3655988753
   32      H       0.7787210802    -2.9834108251     3.7965988753
   33      H      -2.5182789198    -1.7164108251     4.9815988753
   34      H      -1.2002789198    -2.8024108251     5.4215988753
   35      H      -2.5944289198    -3.4261108251     4.4905988753
 ----------------------------------------------------------------
 Nuclear Repulsion Energy =        1163.89827223 hartrees
 There are       64 alpha and       64 beta electrons
 Requested basis set is def2-TZVPD
 There are 320 shells and 822 basis functions

 Total QAlloc Memory Limit   2000 MB
 Mega-Array Size      1956 MB
 MEM_STATIC part      2000 MB

 Citation of the SMD model:
 Marenich, A.V.; Cramer, C.J.; Truhlar, D.G.
 J. Phys. Chem. B 2009, 113, 6378-6396.
 iSolventCode=           1
 Solvent: water                                                           

 vradii
            1           2           3           4           5           6
    1   1.8500000   1.8500000   1.8500000   1.8500000   1.8500000   1.8500000
            7           8           9          10          11          12
    1   1.8500000   1.5200000   1.2000000   1.2000000   1.2000000   1.2000000
           13          14          15          16          17          18
    1   1.2000000   1.2000000   1.2000000   1.2000000   1.8500000   1.8500000
           19          20          21          22          23          24
    1   1.8500000   1.8500000   1.8500000   1.8500000   1.8500000   1.8500000
           25          26          27          28          29          30
    1   1.8500000   1.8900000   1.2000000   1.2000000   1.2000000   1.2000000
           31          32          33          34          35
    1   1.2000000   1.2000000   1.2000000   1.2000000   1.2000000
 Changing PCM_VDW_RADII to SMD_RADIUS
 Discretize the solute cavity surface with Lebedev spheres
	Using 110 Lebedev grid points for each H atom
	Using 194 Lebedev grid points for other atoms
	Atomic van der Waals radii will be scaled by 1.20
 Remove points where switching function is < 1.0e-08
 Keep 2549 surface tesserae and discard 2813 interior tesserae
 Molecular Surface Area = 300.759 Angst**2
 A cutoff of  1.0D-14 yielded  40512 shell pairs
 There are    266516 function pairs (    337570 Cartesian)
 Smallest overlap matrix eigenvalue = 4.22E-07
 Linear dependence detected in AO basis
 Tighter screening thresholds may be required for diffuse basis sets
 Use S2THRESH > 14 and THRESH = 14 in case of SCF convergence issues
 Number of orthogonalized atomic orbitals = 816
 Maximum deviation from orthogonality = 1.686E-10

 Scale SEOQF with 1.000000e-01/1.000000e-01/1.000000e-02

 Standard Electronic Orientation quadrupole field applied
 Nucleus-field energy     =     0.0000000470 hartrees

 -----------------------------------------------------------------------
  General SCF calculation program by
  Eric Jon Sundstrom, Paul Horn, Yuezhi Mao, Dmitri Zuev, Alec White,
  David Stuck, Shaama M.S., Shane Yost, Joonho Lee, David Small,
  Daniel Levine, Susi Lehtola, Hugh Burton, Evgeny Epifanovsky,
  Bang C. Huynh
 -----------------------------------------------------------------------
================================================================
                 ALMO-EDA with the EDA2 driver                  
================================================================
 The second-generation ALMO-EDA (for DFT):                      
 P. R. Horn, Y. Mao and M. Head-Gordon, PCCP, 18, 23067 (2016)  
 Decomposition of the frozen energy:                            
 P. R. Horn, Y. Mao and M. Head-Gordon, JCP, 144, 114107 (2016) 
 FERF model for polarization:                                   
 P. R. Horn and M. Head-Gordon, JCP, 143, 114111 (2015)         
Using eda2 option set 1
Option set summary: Frozen orbital wavefunction, initial wavefunction decomposition, and nDQ polarization.
--------------------------------
Printing EDA Options
--------------------------------
eda_child_super_basis      0
fragmo_guess_mode          0
child_mp                   1
child_mp_orders            232
cls_elec                   1
cls_disp                   0
scfmi_mode                 1
scfmi_occs                 0
scfmi_virts                0
frz_relax                  0
frz_relax_method           0
dc_pen_start               0
dc_pen_conv                0
dc_pen_increment           0
dc_pen_steps               0
dc_pen_thresh_factor       0
dc_pen_pre_newton_thresh   0
frz_ortho_decomp           1
frz_ortho_decomp_conv      6
frgm_method                2
scfmi_freeze_ss            0
separate_rehyb             0
plot_diff_den              0
eda_nocv                   0
eda_vct_relax              1
disp_free_x                0
disp_free_c                0
eda_bsse                   0
eda_pct_a                  0
eda_covp                   0
--------------------------------
Attempting to make child job directory: /home/meili/scratch/qchem25905//Frg1/
Attempting to make child job directory: /home/meili/scratch/qchem25905//Frg2/
Creating input file /home/meili/scratch/qchem25905/Frg1.input
using default PutDataFrgm: nothing
calling putenv with: QCSCRATCH=/home/meili/scratch/qchem25905/ 
Spawning Job For Fragment 0
                  Welcome to Q-Chem
     A Quantum Leap Into The Future Of Chemistry


 Q-Chem 5.2 (devel), Q-Chem, Inc., Pleasanton, CA (2019)

 Yihan Shao,  Zhengting Gan,  E. Epifanovsky,  A. T. B. Gilbert,  M. Wormit,  
 J. Kussmann,  A. W. Lange,  A. Behn,  Jia Deng,  Xintian Feng,  D. Ghosh,  
 M. Goldey,  P. R. Horn,  L. D. Jacobson,  I. Kaliman,  T. Kus,  A. Landau,  
 Jie Liu,  E. I. Proynov,  R. M. Richard,  R. P. Steele,  E. J. Sundstrom,  
 H. L. Woodcock III,  P. M. Zimmerman,  D. Zuev,  B. Albrecht,  E. Alguire,  
 S. A. Baeppler,  D. Barton,  Z. Benda,  Y. A. Bernard,  E. J. Berquist,  
 K. B. Bravaya,  H. Burton,  D. Casanova,  Chun-Min Chang,  Yunqing Chen,  
 A. Chien,  K. D. Closser,  M. P. Coons,  S. Coriani,  S. Dasgupta,  
 A. L. Dempwolff,  M. Diedenhofen,  Hainam Do,  R. G. Edgar,  Po-Tung Fang,  
 S. Faraji,  S. Fatehi,  Qingguo Feng,  K. D. Fenk,  J. Fosso-Tande,  
 J. Gayvert,  Qinghui Ge,  A. Ghysels,  G. Gidofalvi,  J. Gomes,  
 J. Gonthier,  A. Gunina,  D. Hait,  M. W. D. Hanson-Heine,  
 P. H. P. Harbach,  A. W. Hauser,  M. F. Herbst,  J. E. Herr,  
 E. G. Hohenstein,  Z. C. Holden,  Kerwin Hui,  B. C. Huynh,  T.-C. Jagau,  
 Hyunjun Ji,  B. Kaduk,  K. Khistyaev,  Jaehoon Kim,  P. Klunzinger,  K. Koh,  
 D. Kosenkov,  L. Koulias,  T. Kowalczyk,  C. M. Krauter,  A. Kunitsa,  
 Ka Un Lao,  A. Laurent,  K. V. Lawler,  Joonho Lee,  D. Lefrancois,  
 S. Lehtola,  D. S. Levine,  Yi-Pei Li,  You-Sheng Lin,  Fenglai Liu,  
 E. Livshits,  A. Luenser,  P. Manohar,  E. Mansoor,  S. F. Manzer,  
 Shan-Ping Mao,  Yuezhi Mao,  N. Mardirossian,  A. V. Marenich,  
 T. Markovich,  L. A. Martinez-Martinez,  S. A. Maurer,  N. J. Mayhall,  
 S. C. McKenzie,  J.-M. Mewes,  P. Morgante,  A. F. Morrison,  
 J. W. Mullinax,  K. Nanda,  T. S. Nguyen-Beck,  R. Olivares-Amaya,  
 J. A. Parkhill,  Zheng Pei,  T. M. Perrine,  F. Plasser,  P. Pokhilko,  
 S. Prager,  A. Prociuk,  E. Ramos,  D. R. Rehn,  F. Rob,  M. Scheurer,  
 M. Schneider,  N. Sergueev,  S. M. Sharada,  S. Sharma,  D. W. Small,  
 T. Stauch,  T. Stein,  Yu-Chuan Su,  A. J. W. Thom,  A. Tkatchenko,  
 T. Tsuchimochi,  N. M. Tubman,  L. Vogt,  M. L. Vidal,  O. Vydrov,  
 M. A. Watson,  J. Wenzel,  M. de Wergifosse,  T. A. Wesolowski,  A. White,  
 J. Witte,  A. Yamada,  Jun Yang,  K. Yao,  S. Yeganeh,  S. R. Yost,  
 Zhi-Qiang You,  A. Zech,  Igor Ying Zhang,  Xing Zhang,  Yan Zhao,  
 Ying Zhu,  B. R. Brooks,  G. K. L. Chan,  C. J. Cramer,  M. S. Gordon,  
 W. J. Hehre,  A. Klamt,  M. W. Schmidt,  C. D. Sherrill,  D. G. Truhlar,  
 A. Aspuru-Guzik,  R. Baer,  A. T. Bell,  N. A. Besley,  Jeng-Da Chai,  
 A. E. DePrince, III,  R. A. DiStasio Jr.,  A. Dreuw,  B. D. Dunietz,  
 T. R. Furlani,  Chao-Ping Hsu,  Yousung Jung,  Jing Kong,  D. S. Lambrecht,  
 WanZhen Liang,  C. Ochsenfeld,  V. A. Rassolov,  L. V. Slipchenko,  
 J. E. Subotnik,  T. Van Voorhis,  J. M. Herbert,  A. I. Krylov,  
 P. M. W. Gill,  M. Head-Gordon

 Contributors to earlier versions of Q-Chem not listed above: 
 R. D. Adamson,  B. Austin,  J. Baker,  G. J. O. Beran,  K. Brandhorst,  
 S. T. Brown,  E. F. C. Byrd,  A. K. Chakraborty,  C.-L. Cheng,  
 Siu Hung Chien,  D. M. Chipman,  D. L. Crittenden,  H. Dachsel,  
 R. J. Doerksen,  A. D. Dutoi,  L. Fusti-Molnar,  W. A. Goddard III,  
 A. Golubeva-Zadorozhnaya,  S. R. Gwaltney,  G. Hawkins,  A. Heyden,  
 S. Hirata,  G. Kedziora,  F. J. Keil,  C. Kelley,  Jihan Kim,  R. A. King,  
 R. Z. Khaliullin,  P. P. Korambath,  W. Kurlancheek,  A. M. Lee,  M. S. Lee,  
 S. V. Levchenko,  Ching Yeh Lin,  D. Liotard,  R. C. Lochan,  I. Lotan,  
 P. E. Maslen,  N. Nair,  D. P. O'Neill,  D. Neuhauser,  E. Neuscamman,  
 C. M. Oana,  R. Olson,  B. Peters,  R. Peverati,  P. A. Pieniazek,  
 Y. M. Rhee,  J. Ritchie,  M. A. Rohrdanz,  E. Rosta,  N. J. Russ,  
 H. F. Schaefer III,  N. E. Schultz,  N. Shenvi,  A. C. Simmonett,  A. Sodt,  
 D. Stuck,  K. S. Thanthiriwatte,  V. Vanovschi,  Tao Wang,  A. Warshel,  
 C. F. Williams,  Q. Wu,  X. Xu,  W. Zhang

 Please cite Q-Chem as follows:
 Y. Shao et al., Mol. Phys. 113, 184-215 (2015)
 DOI: 10.1080/00268976.2014.952696

 Q-Chem 5.2.1 for Intel X86 EM64T Linux

 Parts of Q-Chem use Armadillo 8.300.2 (Tropical Shenanigans).
 http://arma.sourceforge.net/

 Q-Chem begins on Wed Sep 29 12:14:53 2021  

compute-0-11.local
Host: 0

     Scratch files written to /home/meili/scratch/qchem25905//Frg1//
NAlpha2: 58
NElect   58
Mult     1
Symmetry turned off for PCM/SM12/SMD calculation

Checking the input file for inconsistencies... 	...done.

--------------------------------------------------------------
User input:
--------------------------------------------------------------
$molecule
0 1
 6	4.2857210802	2.7945891749	-1.0324011247
 6	0.6537210802	1.7615891749	-1.4844011247
 6	1.8537210802	2.1615891749	-0.9124011247
 6	0.5747210802	1.5835891749	-2.8654011247
 6	2.9857210802	2.3805891749	-1.6904011247
 6	1.6917210802	1.7965891749	-3.6714011247
 6	2.8947210802	2.1875891749	-3.0694011247
 8	-0.6322789198	1.2355891749	-3.3594011247
 1	-0.2032789198	1.5775891749	-0.8664011247
 1	1.9047210802	2.3045891749	0.1575988753
 1	-1.2882789198	1.1675891749	-2.6664011247
 1	1.6107210802	1.6755891749	-4.7394011247
 1	4.0417210802	3.5805891749	-0.3204011247
 1	4.9507210802	3.2325891749	-1.7784011247
 1	3.7667210802	2.3525891749	-3.6884011247
 1	4.8036210802	1.9821841749	-0.5015711247
$end
$rem
EDA2		1
METHOD		WB97X-V
BASIS		DEF2-TZVPD
XC_GRID		000099000590
NL_GRID		1
UNRESTRICTED		FALSE
MAX_SCF_CYCLES		200
SYMMETRY		FALSE
SYM_IGNORE		TRUE
BASIS_LIN_DEP_THRESH		6
THRESH		14
SCF_CONVERGENCE		8
SCF_PRINT_FRGM		TRUE
SOLVENT_METHOD		SMD
!required keywords
JOBTYPE		SP
SYM_IGNORE		TRUE
SUBSYSTEM		TRUE
GEN_SCFMAN		TRUE
CHILD_INSTRUCTION		2
SYM_IGNORE		TRUE
SCFMI		0
RI_K 0		
PARI_K 0		
MIN_PARI_K 0		
IARI_K 0		
OCC_RI_K 0		
PURECART		1111
MEM_STATIC		2000
MEM_TOTAL		2000
GUI		0
CHILD_MP		1
CHILD_MP_ORDERS		232
FRZ_RELAX		0
FRZ_RELAX_METHOD		0
EDA_CLS_ELEC		1
EDA_CLS_DISP		0
FRZ_ORTHO_DECOMP		1
EDA2		FALSE
FRGM_METHOD		FALSE
CIS_N_ROOTS  0
LOCAL_CIS    0
CIS_RLX_DNS  1
$end
$smx
SOLVENT			WATER
$end
--------------------------------------------------------------
 ----------------------------------------------------------------
             Standard Nuclear Orientation (Angstroms)
    I     Atom           X                Y                Z
 ----------------------------------------------------------------
    1      C       4.2857210802     2.7945891749    -1.0324011247
    2      C       0.6537210802     1.7615891749    -1.4844011247
    3      C       1.8537210802     2.1615891749    -0.9124011247
    4      C       0.5747210802     1.5835891749    -2.8654011247
    5      C       2.9857210802     2.3805891749    -1.6904011247
    6      C       1.6917210802     1.7965891749    -3.6714011247
    7      C       2.8947210802     2.1875891749    -3.0694011247
    8      O      -0.6322789198     1.2355891749    -3.3594011247
    9      H      -0.2032789198     1.5775891749    -0.8664011247
   10      H       1.9047210802     2.3045891749     0.1575988753
   11      H      -1.2882789198     1.1675891749    -2.6664011247
   12      H       1.6107210802     1.6755891749    -4.7394011247
   13      H       4.0417210802     3.5805891749    -0.3204011247
   14      H       4.9507210802     3.2325891749    -1.7784011247
   15      H       3.7667210802     2.3525891749    -3.6884011247
   16      H       4.8036210802     1.9821841749    -0.5015711247
 ----------------------------------------------------------------
 Nuclear Repulsion Energy =         343.45555924 hartrees
 There are       29 alpha and       29 beta electrons
 Requested basis set is def2-TZVPD
 There are 145 shells and 371 basis functions

 Total QAlloc Memory Limit   2000 MB
 Mega-Array Size      1956 MB
 MEM_STATIC part      2000 MB

 Citation of the SMD model:
 Marenich, A.V.; Cramer, C.J.; Truhlar, D.G.
 J. Phys. Chem. B 2009, 113, 6378-6396.
 iSolventCode=           1
 Solvent: water                                                           

 vradii
            1           2           3           4           5           6
    1   1.8500000   1.8500000   1.8500000   1.8500000   1.8500000   1.8500000
            7           8           9          10          11          12
    1   1.8500000   1.5200000   1.2000000   1.2000000   1.2000000   1.2000000
           13          14          15          16
    1   1.2000000   1.2000000   1.2000000   1.2000000
 Changing PCM_VDW_RADII to SMD_RADIUS
 Discretize the solute cavity surface with Lebedev spheres
	Using 110 Lebedev grid points for each H atom
	Using 194 Lebedev grid points for other atoms
	Atomic van der Waals radii will be scaled by 1.20
 Remove points where switching function is < 1.0e-08
 Keep 1177 surface tesserae and discard 1255 interior tesserae
 Molecular Surface Area = 141.176 Angst**2
 A cutoff of  1.0D-14 yielded  10048 shell pairs
 There are     67114 function pairs (     85817 Cartesian)
 Smallest overlap matrix eigenvalue = 5.48E-07
 Linear dependence detected in AO basis
 Tighter screening thresholds may be required for diffuse basis sets
 Use S2THRESH > 14 and THRESH = 14 in case of SCF convergence issues
 Number of orthogonalized atomic orbitals = 370
 Maximum deviation from orthogonality = 2.345E-10

 Scale SEOQF with 1.000000e-01/1.000000e-01/1.000000e-01

 Standard Electronic Orientation quadrupole field applied
 Nucleus-field energy     =    -0.0000000092 hartrees
 Guess from superposition of atomic densities
 Warning:  Energy on first SCF cycle will be non-variational
 SAD guess density has 58.000000 electrons

 -----------------------------------------------------------------------
  General SCF calculation program by
  Eric Jon Sundstrom, Paul Horn, Yuezhi Mao, Dmitri Zuev, Alec White,
  David Stuck, Shaama M.S., Shane Yost, Joonho Lee, David Small,
  Daniel Levine, Susi Lehtola, Hugh Burton, Evgeny Epifanovsky,
  Bang C. Huynh
 -----------------------------------------------------------------------
 Exchange:     0.1670 Hartree-Fock + 1.0000 wB97X-V + LR-HF
 Correlation:  1.0000 wB97X-V
 Using Euler-Maclaurin-Lebedev (99,590) quadrature formula
 Nonlocal Correlation:  VV10 with C = 0.0100 and b = 6.00 and scale = 1.00000
 Grid used for NLC:  SG-1 standard quadrature
Energy prior to optimization (guess energy) = -346.730202489953
Begin Timing: Total SCF Calculation
begin iterations for algorithm: DIIS         
the SCF tolerance is set to 1.00e-08
    1    -346.7302024900      2.20e-03     00000 
    2    -346.7824827338      1.72e-03     00000 
    3    -346.8217394476      3.04e-04     00000 
    4    -346.8235259470      1.32e-04     00000 
    5    -346.8239293364      3.78e-05     00000 
    6    -346.8239614289      1.22e-05     00000 
    7    -346.8239649594      5.52e-06     00000 
    8    -346.8239657243      1.25e-06     00000 
    9    -346.8239658146      5.49e-07     00000 
   10    -346.8239658329      2.84e-07     00000 
   11    -346.8239658379      7.65e-08     00000 
   12    -346.8239658386      2.92e-08     00000 
   13    -346.8239658386      1.13e-08     00000 
   14    -346.8239658386      3.69e-09     00000 Convergence criterion met
Timing for Total SCF: 820.00s (wall), 5263.12s (cpu)
(3)  G-ENP(liq) elect-nuc-pol free energy of system     -346.823965839 a.u.
(4)  G-CDS(liq) cavity-dispersion-solvent structure 
     free energy                                                3.8521 kcal/mol
(6)  G-S(liq) free energy of system                     -346.817827168 a.u.
E_pcm = -0.0174136527
E_cds = 0.0061386702
Multipole orders to be included
        2
        3
computing dipole RHS
computing quadrupole RHS
total number of RHS in solve_reponses: 8
RHS batch sizes
        8
Beginning Block Conjugate Gradient Iterations. Batch Number: 0
computing hessian-vector products by finite difference
              1      6.45e-01     00000 Conjugate Gradient Iteration
computing hessian-vector products by finite difference
              2      2.02e-01     00000 Conjugate Gradient Iteration
computing hessian-vector products by finite difference
              3      5.32e-02     00000 Conjugate Gradient Iteration
computing hessian-vector products by finite difference
              4      1.69e-02     00000 Conjugate Gradient Iteration
computing hessian-vector products by finite difference
              5      4.88e-03     00000 Conjugate Gradient Iteration
computing hessian-vector products by finite difference
              6      1.85e-03     00000 Conjugate Gradient Iteration
computing hessian-vector products by finite difference
              7      4.28e-04     00000 Conjugate Gradient Iteration
computing hessian-vector products by finite difference
              8      8.65e-05     00000 Conjugate Gradient Iteration
computing hessian-vector products by finite difference
              9      1.64e-05     00000 Conjugate Gradient Iteration
computing hessian-vector products by finite difference
             10      2.32e-06     00000 Conjugate Gradient Iteration
computing hessian-vector products by finite difference
             11      3.24e-07     00000 Conjugate Gradient Iteration
computing hessian-vector products by finite difference
             12      5.65e-08     00000 Conjugate Gradient Iteration
computing hessian-vector products by finite difference
             13      9.33e-09     00000 CG Converged
batch 0 complete
Done Calculating Responses
TESTING ORTHOGONALIZATION OF MULTIPOLE BASIS
Multipole virts passed orthogonality test
Virts Per Order
           87
          145

 --------------------------------------------------------------

                    Orbital Energies (a.u.)
 --------------------------------------------------------------

 Alpha MOs
 -- Occupied --
-19.2392 -10.3307 -10.2708 -10.2701 -10.2676 -10.2665 -10.2631 -10.2532
 -1.1967  -0.9899  -0.8948  -0.8785  -0.8037  -0.7430  -0.7106  -0.6614
 -0.5992  -0.5756  -0.5435  -0.5383  -0.5276  -0.5171  -0.5054  -0.4706
 -0.4490  -0.4400  -0.4331  -0.3490  -0.3085
 -- Virtual --
  0.0634   0.0637   0.0744   0.0829   0.0888   0.0998   0.1141   0.1159
  0.1185   0.1370   0.1507   0.1571   0.1602   0.1777   0.1818   0.1975
  0.2069   0.2114   0.2214   0.2298   0.2421   0.2460   0.2553   0.2599
  0.2675   0.2736   0.2794   0.2816   0.2880   0.3002   0.3016   0.3063
  0.3113   0.3134   0.3166   0.3311   0.3386   0.3458   0.3509   0.3560
  0.3606   0.3625   0.3683   0.3791   0.3809   0.3844   0.3867   0.3988
  0.4001   0.4037   0.4053   0.4108   0.4190   0.4260   0.4313   0.4373
  0.4407   0.4582   0.4609   0.4638   0.4789   0.4791   0.4829   0.4894
  0.4935   0.4965   0.5041   0.5099   0.5187   0.5222   0.5350   0.5430
  0.5478   0.5523   0.5546   0.5553   0.5677   0.5693   0.5835   0.5985
  0.6062   0.6141   0.6204   0.6359   0.6438   0.6624   0.6655   0.6740
  0.6810   0.6865   0.6935   0.6988   0.7061   0.7083   0.7217   0.7320
  0.7356   0.7460   0.7499   0.7548   0.7649   0.7734   0.7859   0.7889
  0.7935   0.7940   0.8027   0.8037   0.8101   0.8175   0.8334   0.8427
  0.8478   0.8548   0.8574   0.8611   0.8688   0.8815   0.8887   0.8953
  0.9105   0.9158   0.9360   0.9532   0.9637   0.9840   0.9930   1.0152
  1.0249   1.0396   1.0463   1.0527   1.0627   1.0736   1.0803   1.0977
  1.1055   1.1242   1.1393   1.1736   1.2024   1.2335   1.2742   1.2993
  1.3076   1.3180   1.3317   1.3612   1.3759   1.3868   1.3958   1.4356
  1.4648   1.4710   1.4796   1.4903   1.5329   1.5722   1.6126   1.6262
  1.6391   1.6478   1.6839   1.6853   1.7064   1.7396   1.7800   1.8092
  1.8165   1.8336   1.8470   1.8656   1.8736   1.8885   1.9261   1.9313
  1.9463   1.9573   1.9824   1.9948   2.0023   2.0357   2.0400   2.0563
  2.0643   2.0787   2.0944   2.1183   2.1267   2.1539   2.2043   2.2120
  2.2252   2.2443   2.2778   2.2886   2.3241   2.3292   2.3413   2.3734
  2.4032   2.4123   2.4379   2.4731   2.4911   2.4932   2.5306   2.5667
  2.5816   2.6070   2.6276   2.6414   2.6597   2.6794   2.6927   2.7536
  2.7622   2.7689   2.7811   2.8113   2.8240   2.8367   2.8727   2.8800
  2.9171   2.9331   2.9441   2.9560   2.9716   2.9784   2.9861   3.0119
  3.0197   3.0544   3.0755   3.0898   3.1109   3.1396   3.1505   3.1681
  3.1915   3.2050   3.2230   3.2327   3.2454   3.2593   3.2981   3.3002
  3.3196   3.3523   3.3849   3.3963   3.4033   3.4193   3.4580   3.4613
  3.4687   3.4844   3.4972   3.5231   3.5338   3.5352   3.5507   3.5518
  3.5539   3.5631   3.5861   3.5933   3.6028   3.6301   3.6548   3.6705
  3.6956   3.7162   3.7336   3.7572   3.7992   3.8239   3.8461   3.9040
  3.9452   3.9665   3.9759   4.0014   4.0438   4.0873   4.1538   4.2022
  4.2562   4.2789   4.2915   4.3146   4.3259   4.3360   4.3454   4.3595
  4.3762   4.4014   4.4232   4.4539   4.5162   4.5468   4.5953   4.6171
  4.7385   4.7524   4.8032   4.8129   4.8693   4.9286   5.0283   5.0608
  5.0875   5.1377   5.1754   5.3040   5.3430   5.4122   5.4545   5.5374
  5.6265   5.6597   5.7230   5.7742   5.9735   6.2264   6.5158   6.6114
  6.6363   6.8831   7.0443   7.3018   7.4659  22.6687  22.6998  22.9423
 22.9939  23.0482  23.2046  23.5291  44.4340
 --------------------------------------------------------------

          Ground-State Mulliken Net Atomic Charges

     Atom                 Charge (a.u.)
  ----------------------------------------
      1 C                    -1.046763
      2 C                    -0.303552
      3 C                    -0.638382
      4 C                     0.681477
      5 C                     0.441538
      6 C                    -0.857528
      7 C                    -0.446704
      8 O                    -0.538626
      9 H                     0.382324
     10 H                     0.394080
     11 H                     0.316771
     12 H                     0.404165
     13 H                     0.277847
     14 H                     0.300191
     15 H                     0.382564
     16 H                     0.250600
  ----------------------------------------
  Sum of atomic charges =     0.000000

 -----------------------------------------------------------------
                    Cartesian Multipole Moments
 -----------------------------------------------------------------
    Charge (ESU x 10^10)
                -0.0000
    Dipole Moment (Debye)
         X      -0.3262      Y       0.2213      Z       2.0504
       Tot       2.0879
    Quadrupole Moments (Debye-Ang)
        XX     -40.5957     XY       2.2694     YY     -50.3257
        XZ      -1.0934     YZ       2.6912     ZZ     -54.9895
    Octopole Moments (Debye-Ang^2)
       XXX    -246.2380    XXY     -76.3978    XYY     -84.3480
       YYY    -305.6959    XXZ      89.3921    XYZ      -6.7898
       YYZ     118.6568    XZZ     -69.7436    YZZ    -102.6240
       ZZZ     339.1785
    Hexadecapole Moments (Debye-Ang^3)
      XXXX   -1657.7875   XXXY    -574.1378   XXYY    -468.9546
      XYYY    -648.3787   YYYY   -1368.2696   XXXZ     428.7125
      XXYZ     146.8546   XYYZ     153.6979   YYYZ     648.0891
      XXZZ    -536.8866   XYZZ    -170.3681   YYZZ    -551.4409
      XZZZ     366.9875   YZZZ     600.6371   ZZZZ   -1866.4870
 -----------------------------------------------------------------
Archival summary:
1\1\compute-0-11.local\SP\ProcedureUnspecified\BasisUnspecified\178\meili\WedSep2916:13:492021WedSep2916:13:492021\0\\#,ProcedureUnspecified,BasisUnspecified,\\0,1\C\O,1,1.34981\H,2,0.956666,1,111.493\C,1,1.39381,2,122.982,3,-177.628,0\H,4,1.07788,1,119.709,2,-0.491086,0\C,1,1.39466,2,116.484,3,0.65144,0\H,6,1.07249,1,120.227,2,2.89282,0\C,6,1.38823,1,119.587,2,-177.949,0\H,8,1.08072,6,119.135,1,179.539,0\C,8,1.39092,6,121.225,1,-0.441592,0\C,10,1.39541,8,118.549,6,-0.0969432,0\H,11,1.08202,10,119.453,8,-179.924,0\C,10,1.51471,8,119.903,6,-179,0\H,13,1.08824,10,106.81,8,-45.7654,0\H,13,1.09114,10,109.62,8,-161.473,0\H,13,1.1,10,114.321,8,74.7066,0\\\@

 Total job time:  14335.75s(wall), 92825.87s(cpu) 
 Wed Sep 29 16:13:49 2021

        *************************************************************
        *                                                           *
        *  Thank you very much for using Q-Chem.  Have a nice day.  *
        *                                                           *
        *************************************************************


Done Job For Fragment 0
calling putenv with: QCSCRATCH=/home/meili/scratch 
calling putenv with: QCTHREADS=8 
Creating input file /home/meili/scratch/qchem25905/Frg2.input
using default PutDataFrgm: nothing
calling putenv with: QCSCRATCH=/home/meili/scratch/qchem25905/ 
Spawning Job For Fragment 1
                  Welcome to Q-Chem
     A Quantum Leap Into The Future Of Chemistry


 Q-Chem 5.2 (devel), Q-Chem, Inc., Pleasanton, CA (2019)

 Yihan Shao,  Zhengting Gan,  E. Epifanovsky,  A. T. B. Gilbert,  M. Wormit,  
 J. Kussmann,  A. W. Lange,  A. Behn,  Jia Deng,  Xintian Feng,  D. Ghosh,  
 M. Goldey,  P. R. Horn,  L. D. Jacobson,  I. Kaliman,  T. Kus,  A. Landau,  
 Jie Liu,  E. I. Proynov,  R. M. Richard,  R. P. Steele,  E. J. Sundstrom,  
 H. L. Woodcock III,  P. M. Zimmerman,  D. Zuev,  B. Albrecht,  E. Alguire,  
 S. A. Baeppler,  D. Barton,  Z. Benda,  Y. A. Bernard,  E. J. Berquist,  
 K. B. Bravaya,  H. Burton,  D. Casanova,  Chun-Min Chang,  Yunqing Chen,  
 A. Chien,  K. D. Closser,  M. P. Coons,  S. Coriani,  S. Dasgupta,  
 A. L. Dempwolff,  M. Diedenhofen,  Hainam Do,  R. G. Edgar,  Po-Tung Fang,  
 S. Faraji,  S. Fatehi,  Qingguo Feng,  K. D. Fenk,  J. Fosso-Tande,  
 J. Gayvert,  Qinghui Ge,  A. Ghysels,  G. Gidofalvi,  J. Gomes,  
 J. Gonthier,  A. Gunina,  D. Hait,  M. W. D. Hanson-Heine,  
 P. H. P. Harbach,  A. W. Hauser,  M. F. Herbst,  J. E. Herr,  
 E. G. Hohenstein,  Z. C. Holden,  Kerwin Hui,  B. C. Huynh,  T.-C. Jagau,  
 Hyunjun Ji,  B. Kaduk,  K. Khistyaev,  Jaehoon Kim,  P. Klunzinger,  K. Koh,  
 D. Kosenkov,  L. Koulias,  T. Kowalczyk,  C. M. Krauter,  A. Kunitsa,  
 Ka Un Lao,  A. Laurent,  K. V. Lawler,  Joonho Lee,  D. Lefrancois,  
 S. Lehtola,  D. S. Levine,  Yi-Pei Li,  You-Sheng Lin,  Fenglai Liu,  
 E. Livshits,  A. Luenser,  P. Manohar,  E. Mansoor,  S. F. Manzer,  
 Shan-Ping Mao,  Yuezhi Mao,  N. Mardirossian,  A. V. Marenich,  
 T. Markovich,  L. A. Martinez-Martinez,  S. A. Maurer,  N. J. Mayhall,  
 S. C. McKenzie,  J.-M. Mewes,  P. Morgante,  A. F. Morrison,  
 J. W. Mullinax,  K. Nanda,  T. S. Nguyen-Beck,  R. Olivares-Amaya,  
 J. A. Parkhill,  Zheng Pei,  T. M. Perrine,  F. Plasser,  P. Pokhilko,  
 S. Prager,  A. Prociuk,  E. Ramos,  D. R. Rehn,  F. Rob,  M. Scheurer,  
 M. Schneider,  N. Sergueev,  S. M. Sharada,  S. Sharma,  D. W. Small,  
 T. Stauch,  T. Stein,  Yu-Chuan Su,  A. J. W. Thom,  A. Tkatchenko,  
 T. Tsuchimochi,  N. M. Tubman,  L. Vogt,  M. L. Vidal,  O. Vydrov,  
 M. A. Watson,  J. Wenzel,  M. de Wergifosse,  T. A. Wesolowski,  A. White,  
 J. Witte,  A. Yamada,  Jun Yang,  K. Yao,  S. Yeganeh,  S. R. Yost,  
 Zhi-Qiang You,  A. Zech,  Igor Ying Zhang,  Xing Zhang,  Yan Zhao,  
 Ying Zhu,  B. R. Brooks,  G. K. L. Chan,  C. J. Cramer,  M. S. Gordon,  
 W. J. Hehre,  A. Klamt,  M. W. Schmidt,  C. D. Sherrill,  D. G. Truhlar,  
 A. Aspuru-Guzik,  R. Baer,  A. T. Bell,  N. A. Besley,  Jeng-Da Chai,  
 A. E. DePrince, III,  R. A. DiStasio Jr.,  A. Dreuw,  B. D. Dunietz,  
 T. R. Furlani,  Chao-Ping Hsu,  Yousung Jung,  Jing Kong,  D. S. Lambrecht,  
 WanZhen Liang,  C. Ochsenfeld,  V. A. Rassolov,  L. V. Slipchenko,  
 J. E. Subotnik,  T. Van Voorhis,  J. M. Herbert,  A. I. Krylov,  
 P. M. W. Gill,  M. Head-Gordon

 Contributors to earlier versions of Q-Chem not listed above: 
 R. D. Adamson,  B. Austin,  J. Baker,  G. J. O. Beran,  K. Brandhorst,  
 S. T. Brown,  E. F. C. Byrd,  A. K. Chakraborty,  C.-L. Cheng,  
 Siu Hung Chien,  D. M. Chipman,  D. L. Crittenden,  H. Dachsel,  
 R. J. Doerksen,  A. D. Dutoi,  L. Fusti-Molnar,  W. A. Goddard III,  
 A. Golubeva-Zadorozhnaya,  S. R. Gwaltney,  G. Hawkins,  A. Heyden,  
 S. Hirata,  G. Kedziora,  F. J. Keil,  C. Kelley,  Jihan Kim,  R. A. King,  
 R. Z. Khaliullin,  P. P. Korambath,  W. Kurlancheek,  A. M. Lee,  M. S. Lee,  
 S. V. Levchenko,  Ching Yeh Lin,  D. Liotard,  R. C. Lochan,  I. Lotan,  
 P. E. Maslen,  N. Nair,  D. P. O'Neill,  D. Neuhauser,  E. Neuscamman,  
 C. M. Oana,  R. Olson,  B. Peters,  R. Peverati,  P. A. Pieniazek,  
 Y. M. Rhee,  J. Ritchie,  M. A. Rohrdanz,  E. Rosta,  N. J. Russ,  
 H. F. Schaefer III,  N. E. Schultz,  N. Shenvi,  A. C. Simmonett,  A. Sodt,  
 D. Stuck,  K. S. Thanthiriwatte,  V. Vanovschi,  Tao Wang,  A. Warshel,  
 C. F. Williams,  Q. Wu,  X. Xu,  W. Zhang

 Please cite Q-Chem as follows:
 Y. Shao et al., Mol. Phys. 113, 184-215 (2015)
 DOI: 10.1080/00268976.2014.952696

 Q-Chem 5.2.1 for Intel X86 EM64T Linux

 Parts of Q-Chem use Armadillo 8.300.2 (Tropical Shenanigans).
 http://arma.sourceforge.net/

 Q-Chem begins on Wed Sep 29 16:13:50 2021  

compute-0-11.local
Host: 0

     Scratch files written to /home/meili/scratch/qchem25905//Frg2//
NAlpha2: 70
NElect   70
Mult     1
Symmetry turned off for PCM/SM12/SMD calculation

Checking the input file for inconsistencies... 	...done.

--------------------------------------------------------------
User input:
--------------------------------------------------------------
$molecule
0 1
 6	-1.9282789198	-2.5644108251	4.6445988753
 6	-0.7372789198	-1.6064108251	1.2245988753
 6	-1.7732789198	-1.6344108251	2.2005988753
 6	-1.2122789198	-2.2244108251	3.3855988753
 6	0.0857210802	-2.5024108251	3.1125988753
 6	-2.1722789198	-0.6114108251	-0.3774011247
 6	-0.9152789198	-1.0714108251	-0.0384011247
 6	-3.2362789198	-0.6204108251	0.5505988753
 6	-3.0482789198	-1.1654108251	1.8385988753
 7	0.3747210802	-2.1204108251	1.8275988753
 1	-2.3472789198	-0.2294108251	-1.3734011247
 1	-0.1022789198	-1.0594108251	-0.7494011247
 1	-4.2092789198	-0.2514108251	0.2605988753
 1	-3.8652789198	-1.2064108251	2.5145988753
 1	1.2697210802	-2.2694108251	1.3655988753
 1	0.7787210802	-2.9834108251	3.7965988753
 1	-2.5182789198	-1.7164108251	4.9815988753
 1	-1.2002789198	-2.8024108251	5.4215988753
 1	-2.5944289198	-3.4261108251	4.4905988753
$end
$rem
EDA2		1
METHOD		WB97X-V
BASIS		DEF2-TZVPD
XC_GRID		000099000590
NL_GRID		1
UNRESTRICTED		FALSE
MAX_SCF_CYCLES		200
SYMMETRY		FALSE
SYM_IGNORE		TRUE
BASIS_LIN_DEP_THRESH		6
THRESH		14
SCF_CONVERGENCE		8
SCF_PRINT_FRGM		TRUE
SOLVENT_METHOD		SMD
!required keywords
JOBTYPE		SP
SYM_IGNORE		TRUE
SUBSYSTEM		TRUE
GEN_SCFMAN		TRUE
CHILD_INSTRUCTION		2
SYM_IGNORE		TRUE
SCFMI		0
RI_K 0		
PARI_K 0		
MIN_PARI_K 0		
IARI_K 0		
OCC_RI_K 0		
PURECART		1111
MEM_STATIC		2000
MEM_TOTAL		2000
GUI		0
CHILD_MP		1
CHILD_MP_ORDERS		232
FRZ_RELAX		0
FRZ_RELAX_METHOD		0
EDA_CLS_ELEC		1
EDA_CLS_DISP		0
FRZ_ORTHO_DECOMP		1
EDA2		FALSE
FRGM_METHOD		FALSE
CIS_N_ROOTS  0
LOCAL_CIS    0
CIS_RLX_DNS  1
$end
$smx
SOLVENT			WATER
$end
--------------------------------------------------------------
 ----------------------------------------------------------------
             Standard Nuclear Orientation (Angstroms)
    I     Atom           X                Y                Z
 ----------------------------------------------------------------
    1      C      -1.9282789198    -2.5644108251     4.6445988753
    2      C      -0.7372789198    -1.6064108251     1.2245988753
    3      C      -1.7732789198    -1.6344108251     2.2005988753
    4      C      -1.2122789198    -2.2244108251     3.3855988753
    5      C       0.0857210802    -2.5024108251     3.1125988753
    6      C      -2.1722789198    -0.6114108251    -0.3774011247
    7      C      -0.9152789198    -1.0714108251    -0.0384011247
    8      C      -3.2362789198    -0.6204108251     0.5505988753
    9      C      -3.0482789198    -1.1654108251     1.8385988753
   10      N       0.3747210802    -2.1204108251     1.8275988753
   11      H      -2.3472789198    -0.2294108251    -1.3734011247
   12      H      -0.1022789198    -1.0594108251    -0.7494011247
   13      H      -4.2092789198    -0.2514108251     0.2605988753
   14      H      -3.8652789198    -1.2064108251     2.5145988753
   15      H       1.2697210802    -2.2694108251     1.3655988753
   16      H       0.7787210802    -2.9834108251     3.7965988753
   17      H      -2.5182789198    -1.7164108251     4.9815988753
   18      H      -1.2002789198    -2.8024108251     5.4215988753
   19      H      -2.5944289198    -3.4261108251     4.4905988753
 ----------------------------------------------------------------
 Nuclear Repulsion Energy =         484.88877207 hartrees
 There are       35 alpha and       35 beta electrons
 Requested basis set is def2-TZVPD
 There are 175 shells and 451 basis functions

 Total QAlloc Memory Limit   2000 MB
 Mega-Array Size      1956 MB
 MEM_STATIC part      2000 MB

 Citation of the SMD model:
 Marenich, A.V.; Cramer, C.J.; Truhlar, D.G.
 J. Phys. Chem. B 2009, 113, 6378-6396.
 iSolventCode=           1
 Solvent: water                                                           

 vradii
            1           2           3           4           5           6
    1   1.8500000   1.8500000   1.8500000   1.8500000   1.8500000   1.8500000
            7           8           9          10          11          12
    1   1.8500000   1.8500000   1.8500000   1.8900000   1.2000000   1.2000000
           13          14          15          16          17          18
    1   1.2000000   1.2000000   1.2000000   1.2000000   1.2000000   1.2000000
           19
    1   1.2000000
 Changing PCM_VDW_RADII to SMD_RADIUS
 Discretize the solute cavity surface with Lebedev spheres
	Using 110 Lebedev grid points for each H atom
	Using 194 Lebedev grid points for other atoms
	Atomic van der Waals radii will be scaled by 1.20
 Remove points where switching function is < 1.0e-08
 Keep 1372 surface tesserae and discard 1558 interior tesserae
 Molecular Surface Area = 164.677 Angst**2
 A cutoff of  1.0D-14 yielded  14469 shell pairs
 There are     98237 function pairs (    126407 Cartesian)
 Smallest overlap matrix eigenvalue = 5.90E-07
 Linear dependence detected in AO basis
 Tighter screening thresholds may be required for diffuse basis sets
 Use S2THRESH > 14 and THRESH = 14 in case of SCF convergence issues
 Number of orthogonalized atomic orbitals = 449
 Maximum deviation from orthogonality = 2.937E-10

 Scale SEOQF with 1.000000e-01/1.000000e-01/1.000000e-02

 Standard Electronic Orientation quadrupole field applied
 Nucleus-field energy     =     0.0000000209 hartrees
 Guess from superposition of atomic densities
 Warning:  Energy on first SCF cycle will be non-variational
 SAD guess density has 70.000000 electrons

 -----------------------------------------------------------------------
  General SCF calculation program by
  Eric Jon Sundstrom, Paul Horn, Yuezhi Mao, Dmitri Zuev, Alec White,
  David Stuck, Shaama M.S., Shane Yost, Joonho Lee, David Small,
  Daniel Levine, Susi Lehtola, Hugh Burton, Evgeny Epifanovsky,
  Bang C. Huynh
 -----------------------------------------------------------------------
 Exchange:     0.1670 Hartree-Fock + 1.0000 wB97X-V + LR-HF
 Correlation:  1.0000 wB97X-V
 Using Euler-Maclaurin-Lebedev (99,590) quadrature formula
 Nonlocal Correlation:  VV10 with C = 0.0100 and b = 6.00 and scale = 1.00000
 Grid used for NLC:  SG-1 standard quadrature
Energy prior to optimization (guess energy) = -403.080998548407
Begin Timing: Total SCF Calculation
begin iterations for algorithm: DIIS         
the SCF tolerance is set to 1.00e-08
    1    -403.0809985484      1.66e-03     00000 
    2    -403.1343395231      1.19e-03     00000 
    3    -403.1736584913      2.46e-04     00000 
    4    -403.1755234634      1.17e-04     00000 
    5    -403.1759748537      3.88e-05     00000 
    6    -403.1760231578      1.20e-05     00000 
    7    -403.1760275892      4.33e-06     00000 
    8    -403.1760285242      9.46e-07     00000 
    9    -403.1760286213      4.20e-07     00000 
   10    -403.1760286406      2.20e-07     00000 
   11    -403.1760286457      7.04e-08     00000 
   12    -403.1760286466      3.05e-08     00000 
   13    -403.1760286467      1.15e-08     00000 
   14    -403.1760286467      3.73e-09     00000 Convergence criterion met
Timing for Total SCF: 1488.00s (wall), 9842.66s (cpu)
(3)  G-ENP(liq) elect-nuc-pol free energy of system     -403.176028647 a.u.
(4)  G-CDS(liq) cavity-dispersion-solvent structure 
     free energy                                                3.8220 kcal/mol
(6)  G-S(liq) free energy of system                     -403.169937861 a.u.
E_pcm = -0.0163474635
E_cds = 0.0060907856
Multipole orders to be included
        2
        3
computing dipole RHS
computing quadrupole RHS
total number of RHS in solve_reponses: 8
RHS batch sizes
        8
Beginning Block Conjugate Gradient Iterations. Batch Number: 0
computing hessian-vector products by finite difference
              1      6.83e-01     00000 Conjugate Gradient Iteration
computing hessian-vector products by finite difference
              2      2.20e-01     00000 Conjugate Gradient Iteration
computing hessian-vector products by finite difference
              3      6.62e-02     00000 Conjugate Gradient Iteration
computing hessian-vector products by finite difference
              4      2.61e-02     00000 Conjugate Gradient Iteration
computing hessian-vector products by finite difference
              5      8.39e-03     00000 Conjugate Gradient Iteration
computing hessian-vector products by finite difference
              6      2.43e-03     00000 Conjugate Gradient Iteration
computing hessian-vector products by finite difference
              7      5.02e-04     00000 Conjugate Gradient Iteration
computing hessian-vector products by finite difference
              8      1.06e-04     00000 Conjugate Gradient Iteration
computing hessian-vector products by finite difference
              9      2.37e-05     00000 Conjugate Gradient Iteration
computing hessian-vector products by finite difference
             10      5.48e-06     00000 Conjugate Gradient Iteration
computing hessian-vector products by finite difference
             11      1.25e-06     00000 Conjugate Gradient Iteration
computing hessian-vector products by finite difference
             12      2.63e-07     00000 Conjugate Gradient Iteration
computing hessian-vector products by finite difference
             13      6.90e-08     00000 Conjugate Gradient Iteration
computing hessian-vector products by finite difference
             14      1.17e-08     00000 Conjugate Gradient Iteration
computing hessian-vector products by finite difference
             15      1.91e-09     00000 CG Converged
batch 0 complete
Done Calculating Responses
TESTING ORTHOGONALIZATION OF MULTIPOLE BASIS
Multipole virts passed orthogonality test
Virts Per Order
          105
          175

 --------------------------------------------------------------

                    Orbital Energies (a.u.)
 --------------------------------------------------------------

 Alpha MOs
 -- Occupied --
-14.4422 -10.2978 -10.2891 -10.2688 -10.2667 -10.2656 -10.2648 -10.2639
-10.2557 -10.2528  -1.1126  -0.9742  -0.9285  -0.8650  -0.8579  -0.8114
 -0.7423  -0.7096  -0.6722  -0.6452  -0.5969  -0.5782  -0.5527  -0.5446
 -0.5341  -0.5116  -0.5071  -0.4882  -0.4769  -0.4511  -0.4489  -0.4273
 -0.3758  -0.3133  -0.2889
 -- Virtual --
  0.0557   0.0640   0.0799   0.0825   0.0912   0.1020   0.1038   0.1106
  0.1320   0.1365   0.1409   0.1502   0.1551   0.1670   0.1763   0.1815
  0.1903   0.1993   0.2063   0.2131   0.2147   0.2234   0.2285   0.2420
  0.2517   0.2586   0.2619   0.2635   0.2676   0.2779   0.2794   0.2801
  0.2856   0.2896   0.2934   0.2983   0.3061   0.3138   0.3148   0.3205
  0.3321   0.3345   0.3393   0.3432   0.3475   0.3496   0.3530   0.3560
  0.3595   0.3626   0.3747   0.3804   0.3819   0.3886   0.3913   0.3960
  0.4049   0.4111   0.4149   0.4170   0.4215   0.4243   0.4301   0.4379
  0.4423   0.4513   0.4561   0.4594   0.4600   0.4639   0.4689   0.4774
  0.4885   0.4916   0.4923   0.5027   0.5068   0.5110   0.5227   0.5232
  0.5349   0.5392   0.5444   0.5490   0.5520   0.5564   0.5607   0.5659
  0.5741   0.5795   0.5854   0.5908   0.6027   0.6107   0.6139   0.6234
  0.6325   0.6455   0.6482   0.6543   0.6563   0.6598   0.6705   0.6856
  0.6880   0.6911   0.6961   0.7046   0.7078   0.7178   0.7200   0.7295
  0.7347   0.7421   0.7443   0.7492   0.7610   0.7650   0.7726   0.7769
  0.7794   0.7842   0.7855   0.7938   0.7946   0.8051   0.8086   0.8142
  0.8160   0.8270   0.8356   0.8395   0.8428   0.8509   0.8539   0.8616
  0.8638   0.8721   0.8817   0.8950   0.9046   0.9159   0.9180   0.9334
  0.9410   0.9488   0.9719   0.9785   0.9931   1.0059   1.0161   1.0232
  1.0356   1.0417   1.0477   1.0581   1.0660   1.0732   1.0878   1.1002
  1.1125   1.1199   1.1373   1.1437   1.1587   1.1697   1.1863   1.2106
  1.2259   1.2375   1.2588   1.2757   1.2949   1.2996   1.3205   1.3390
  1.3503   1.3804   1.3914   1.4002   1.4141   1.4299   1.4511   1.4629
  1.4892   1.5227   1.5398   1.5574   1.5721   1.5837   1.6135   1.6169
  1.6318   1.6544   1.6640   1.6954   1.7064   1.7294   1.7442   1.7646
  1.7696   1.7931   1.8224   1.8364   1.8478   1.8615   1.8715   1.8849
  1.8904   1.9070   1.9183   1.9349   1.9521   1.9545   1.9725   1.9824
  1.9986   2.0040   2.0067   2.0155   2.0289   2.0375   2.0612   2.0741
  2.0905   2.0990   2.1257   2.1344   2.1733   2.1915   2.1982   2.2081
  2.2362   2.2685   2.2990   2.3029   2.3144   2.3361   2.3441   2.3684
  2.4015   2.4075   2.4286   2.4483   2.4567   2.4961   2.5160   2.5264
  2.5445   2.5796   2.5927   2.5994   2.6256   2.6314   2.6561   2.6700
  2.6915   2.6967   2.7247   2.7578   2.7706   2.7750   2.7882   2.7935
  2.8101   2.8254   2.8273   2.8555   2.8592   2.8846   2.9017   2.9065
  2.9166   2.9328   2.9449   2.9643   2.9732   2.9972   3.0208   3.0259
  3.0345   3.0502   3.0734   3.0793   3.1122   3.1177   3.1316   3.1387
  3.1532   3.1778   3.1888   3.2165   3.2220   3.2349   3.2495   3.2798
  3.2877   3.2946   3.3110   3.3148   3.3380   3.3495   3.3698   3.3797
  3.3951   3.4030   3.4219   3.4314   3.4461   3.4539   3.4553   3.4686
  3.4804   3.4858   3.5084   3.5161   3.5192   3.5339   3.5427   3.5560
  3.5807   3.5928   3.5957   3.6166   3.6363   3.6394   3.6606   3.6683
  3.6821   3.7050   3.7086   3.7222   3.7354   3.7488   3.7598   3.7858
  3.7920   3.8186   3.8885   3.9014   3.9137   3.9369   3.9479   3.9739
  4.0419   4.0503   4.0565   4.1224   4.1543   4.1689   4.1884   4.2137
  4.2419   4.2476   4.2673   4.2759   4.3047   4.3156   4.3357   4.3662
  4.3758   4.4068   4.4203   4.4467   4.4547   4.4910   4.5072   4.5430
  4.6196   4.6386   4.6536   4.6791   4.7502   4.7675   4.8334   4.8396
  4.9293   4.9366   4.9717   4.9897   4.9913   5.0343   5.0644   5.0779
  5.1290   5.1299   5.1588   5.2099   5.2234   5.2652   5.3766   5.4182
  5.4523   5.4993   5.5526   5.6015   5.6591   5.7071   5.8153   5.8296
  5.9506   5.9906   6.2812   6.3475  22.6803  22.7587  22.9149  22.9514
 22.9827  23.1824  23.2715  23.4795  23.7977  32.8530
 --------------------------------------------------------------

          Ground-State Mulliken Net Atomic Charges

     Atom                 Charge (a.u.)
  ----------------------------------------
      1 C                    -0.916760
      2 C                    -0.072807
      3 C                     0.687404
      4 C                     0.580051
      5 C                    -0.939154
      6 C                    -0.444566
      7 C                    -0.842618
      8 C                    -0.793392
      9 C                    -0.380643
     10 N                     0.110931
     11 H                     0.401526
     12 H                     0.394009
     13 H                     0.404163
     14 H                     0.445419
     15 H                     0.229266
     16 H                     0.316340
     17 H                     0.286984
     18 H                     0.305879
     19 H                     0.227969
  ----------------------------------------
  Sum of atomic charges =     0.000000

 -----------------------------------------------------------------
                    Cartesian Multipole Moments
 -----------------------------------------------------------------
    Charge (ESU x 10^10)
                 0.0000
    Dipole Moment (Debye)
         X       2.8347      Y      -1.2222      Z       0.2002
       Tot       3.0934
    Quadrupole Moments (Debye-Ang)
        XX     -55.5449     XY      -7.3520     YY     -58.3775
        XZ       2.7272     YZ      -5.9356     ZZ     -53.2261
    Octopole Moments (Debye-Ang^2)
       XXX     252.7499    XXY      94.6675    XYY     111.0654
       YYY     288.7758    XXZ    -100.9278    XYZ      -5.0137
       YYZ     -96.1584    XZZ      87.2117    YZZ      71.5642
       ZZZ    -307.9768
    Hexadecapole Moments (Debye-Ang^3)
      XXXX   -1294.5695   XXXY    -358.2608   XXYY    -441.4785
      XYYY    -389.4140   YYYY   -1220.0901   XXXZ     415.3083
      XXYZ     214.1262   XYYZ     173.3341   YYYZ     698.2004
      XXZZ    -565.1469   XYZZ    -124.7377   YYZZ    -510.6656
      XZZZ     444.8531   YZZZ     621.5762   ZZZZ   -2137.8865
 -----------------------------------------------------------------
Archival summary:
1\1\compute-0-11.local\SP\ProcedureUnspecified\BasisUnspecified\199\meili\ThuSep3000:26:532021ThuSep3000:26:532021\0\\#,ProcedureUnspecified,BasisUnspecified,\\0,1\C\C,1,1.40593\H,2,1.0612,1,121.418\C,2,1.41114,1,118.991,3,179.517,0\H,4,1.08027,2,119.798,1,-179.679,0\C,4,1.41186,2,120.132,1,3.13907,0\H,6,1.081,4,119.069,2,177.339,0\C,6,1.38079,4,121.504,2,-3.04251,0\H,8,1.08011,6,121.326,4,-179.744,0\C,8,1.38314,6,118.047,4,3.0839,0\N,10,1.36541,8,130.82,6,-179.49,0\H,11,1.01817,10,124.791,8,-6.4173,0\C,11,1.37138,10,110.307,8,178.222,0\H,13,1.08603,11,125.383,10,177.018,0\C,13,1.35522,11,109.479,10,-1.12055,0\C,15,1.48773,13,125.771,11,176.06,0\H,16,1.08663,15,110.207,13,135.243,0\H,16,1.09103,15,109.354,13,16.4739,0\H,16,1.1,15,110.61,13,-104.128,0\\\@

 Total job time:  29583.15s(wall), 194882.83s(cpu) 
 Thu Sep 30 00:26:53 2021

        *************************************************************
        *                                                           *
        *  Thank you very much for using Q-Chem.  Have a nice day.  *
        *                                                           *
        *************************************************************


Done Job For Fragment 1
calling putenv with: QCSCRATCH=/home/meili/scratch 
calling putenv with: QCTHREADS=8 
Doing General SCFMI
 Exchange:     0.1670 Hartree-Fock + 1.0000 wB97X-V + LR-HF
 Correlation:  1.0000 wB97X-V
 Using Euler-Maclaurin-Lebedev (99,590) quadrature formula
 Nonlocal Correlation:  VV10 with C = 0.0100 and b = 6.00 and scale = 1.00000
 Grid used for NLC:  SG-1 standard quadrature
performing fock build before subrot guess so that all methods have access
Printing subrot_rss_gen Method Specification:
Occupied Subspace Method is 0
Virtual Subspace Method is 0
Energy of the unrelaxed supersystem initial determinant -749.968997396258
performing fock build before subrot guess so that all methods have access
Printing subrot_rss_gen Method Specification:
Occupied Subspace Method is 0
Virtual Subspace Method is 0
Energy of the unrelaxed supersystem initial determinant w/ solvent -750.001295054396
write pseudocanon occs and virts to disk
write pseudocanon orbital energies to disk
Tolerance of ortho_decomp_scf: 1.00e-06
GDM subspace size: 20
Beginning the Orthogonal Decomposition of the Initial Supersystem Wavefunction
    1    -749.9525265131      1.37e-02     ortho_decomp Preconditoned Steepest Descent
    2    -749.9539369338      3.64e-04     ortho_decomp BFGS Step
    3    -749.9539414980      2.46e-05     ortho_decomp BFGS Step
    4    -749.9539415048      1.01e-06     ortho_decomp BFGS Step
    5    -749.9539415048      3.61e-08     ortho_decomp 00000 Convergence criterion met
 Hartree-Fock
 Hartree-Fock
 Hartree-Fock
Doing General SCFMI
 Exchange:     0.1670 Hartree-Fock + 1.0000 wB97X-V + LR-HF
 Correlation:  1.0000 wB97X-V
 Using Euler-Maclaurin-Lebedev (99,590) quadrature formula
 Nonlocal Correlation:  VV10 with C = 0.0100 and b = 6.00 and scale = 1.00000
 Grid used for NLC:  SG-1 standard quadrature
performing fock build at end of subrot_r(subrot) constructor so that all methods have access
<S^2> of initial wavefunction before polarization iterations 0.0000000000
Beginning iterations for the determination of the polarized wavefunction
Energy prior to optimization (guess energy) = -750.001295054397
Begin Timing: Total SCF Calculation
begin iterations for algorithm: DIIS         
the SCF tolerance is set to 1.00e-08
    1    -750.0012950544      2.86e-05     00000 
    2    -750.0014352623      1.30e-05     00000 
    3    -750.0014540462      7.21e-06     00000 
    4    -750.0014609125      1.90e-06     00000 
    5    -750.0014616394      1.02e-06     00000 
    6    -750.0014618062      3.68e-07     00000 
    7    -750.0014618247      1.72e-07     00000 
    8    -750.0014618280      5.89e-08     00000 
    9    -750.0014618283      2.20e-08     00000 
   10    -750.0014618284      9.18e-09     00000 Convergence criterion met
write pseudocanon occs and virts to disk
write pseudocanon orbital energies to disk
Timing for Total SCF: 5580.00s (wall), 37437.03s (cpu)
<S^2> of polarized wavefunction after polarization iterations 0.0000000000
relaxing scfmi constraint to allow all rotations in the entire AO span
Doing General SCFMI
 Exchange:     0.1670 Hartree-Fock + 1.0000 wB97X-V + LR-HF
 Correlation:  1.0000 wB97X-V
 Using Euler-Maclaurin-Lebedev (99,590) quadrature formula
 Nonlocal Correlation:  VV10 with C = 0.0100 and b = 6.00 and scale = 1.00000
 Grid used for NLC:  SG-1 standard quadrature
performing fock build at end of subrot_r(subrot) constructor so that all methods have access
<S^2> of polarized wavefunction before ct-allowed iterations 0.0000000000
Beginning iterations for the determination of the CT-Allowed wavefunction
Energy prior to optimization (guess energy) = -750.001461828362
Begin Timing: Total SCF Calculation
begin iterations for algorithm: DIIS         
the SCF tolerance is set to 1.00e-08
    1    -750.0014618284      4.60e-05     00000 
    2    -750.0022318839      5.03e-06     00000 
    3    -750.0022554161      7.95e-07     00000 
    4    -750.0022562051      3.32e-07     00000 
    5    -750.0022562529      1.31e-07     00000 
    6    -750.0022562645      3.39e-08     00000 
    7    -750.0022562651      1.44e-08     00000 
    8    -750.0022562653      4.36e-09     00000 Convergence criterion met
write pseudocanon occs and virts to disk
write pseudocanon orbital energies to disk
Timing for Total SCF: 4506.00s (wall), 29992.15s (cpu)
<S^2> of ct_allowed wavefunction after ct-allowed iterations 0.0000000000

================================
        Results of EDA2         
================================
Basic EDA Quantities
--------------------
Fragment Energies (Ha):
1 -346.8178271684
2 -403.1699378611
--------------------
  E_prp (kJ/mol) = 0.0000
  E_sol (kJ/mol) = 1.4274
  E_frz (kJ/mol) = -7.2570
  E_pol (kJ/mol) = -0.4379
  E_vct (kJ/mol) = -2.0858
  E_int (kJ/mol) = -8.3534
--------------------


Initial Wavefunction Decomposition
--------------------
  --------------------
  Orthogonal Fragment Subspace Decomposition:
  --------------------
     E_elec   (ELEC)   (kJ/mol) = -19.0649
     E_pauli  (PAULI)  (kJ/mol) = 25.1659
     E_disp   (DISP)   (kJ/mol) = -13.3580
     --------------------
     Terms summing to E_pauli:
     --------------------
        E_kep_pauli       (kJ/mol) = 32.2727
        E_disp_free_pauli (kJ/mol) = -7.1068
  --------------------
  Classical Frozen Decomposition:
  --------------------
     E_cls_elec  (CLS ELEC)  (kJ/mol) = -9.3738
     E_cls_pauli (CLS PAULI) (kJ/mol) = 2.1168
    [E_mod_pauli (MOD PAULI) (kJ/mol) = 15.4748 (CLS PAULI - DISP from orthogonal decomposition) ]
  --------------------
--------------------

Simplified EDA Summary (kJ/mol)
--------------------
 PREPARATION     0.0000
 SOLVATION       1.4274
 FROZEN          6.1010      (does not include dispersion)
[PAULI           25.1659]     (if this is negligible, then frozen describes electrostatics)
 DISPERSION      -13.3580
 POLARIZATION    -0.4379
 CHARGE TRANSFER -2.0858
 TOTAL           -8.3534     (PRP + SOL + FRZ + DISP + POL + CT)
--------------------

 --------------------------------------------------------------

                    Orbital Energies (a.u.)
 --------------------------------------------------------------

 Alpha MOs
 -- Occupied --
-19.2392 -14.4423 -10.3304 -10.2980 -10.2893 -10.2706 -10.2699 -10.2689
-10.2676 -10.2668 -10.2662 -10.2661 -10.2651 -10.2643 -10.2622 -10.2558
-10.2532 -10.2529  -1.1967  -1.1128  -0.9897  -0.9744  -0.9286  -0.8947
 -0.8783  -0.8652  -0.8582  -0.8116  -0.8037  -0.7434  -0.7421  -0.7117
 -0.7089  -0.6724  -0.6614  -0.6455  -0.5994  -0.5970  -0.5792  -0.5750
 -0.5528  -0.5466  -0.5428  -0.5374  -0.5341  -0.5272  -0.5169  -0.5117
 -0.5071  -0.5054  -0.4884  -0.4776  -0.4702  -0.4518  -0.4508  -0.4468
 -0.4399  -0.4327  -0.4274  -0.3757  -0.3485  -0.3135  -0.3083  -0.2888
 -- Virtual --
  0.0530   0.0590   0.0646   0.0690   0.0714   0.0789   0.0852   0.0858
  0.0895   0.0951   0.1009   0.1036   0.1045   0.1155   0.1196   0.1295
  0.1330   0.1352   0.1396   0.1426   0.1497   0.1516   0.1573   0.1623
  0.1656   0.1697   0.1744   0.1753   0.1793   0.1877   0.1922   0.1954
  0.2035   0.2056   0.2088   0.2128   0.2150   0.2226   0.2242   0.2345
  0.2382   0.2401   0.2453   0.2474   0.2501   0.2545   0.2559   0.2600
  0.2637   0.2661   0.2693   0.2705   0.2726   0.2758   0.2786   0.2813
  0.2844   0.2882   0.2900   0.2928   0.3000   0.3033   0.3041   0.3053
  0.3121   0.3154   0.3159   0.3201   0.3213   0.3239   0.3273   0.3293
  0.3320   0.3338   0.3373   0.3394   0.3426   0.3456   0.3518   0.3527
  0.3549   0.3589   0.3606   0.3618   0.3642   0.3688   0.3714   0.3750
  0.3786   0.3797   0.3833   0.3842   0.3866   0.3888   0.3912   0.3925
  0.3981   0.4008   0.4033   0.4046   0.4081   0.4125   0.4143   0.4169
  0.4176   0.4203   0.4217   0.4341   0.4355   0.4367   0.4387   0.4401
  0.4427   0.4473   0.4487   0.4533   0.4566   0.4591   0.4606   0.4645
  0.4688   0.4698   0.4724   0.4740   0.4790   0.4807   0.4827   0.4854
  0.4882   0.4911   0.4937   0.4956   0.5028   0.5035   0.5085   0.5120
  0.5155   0.5165   0.5191   0.5221   0.5242   0.5285   0.5324   0.5362
  0.5396   0.5443   0.5461   0.5473   0.5540   0.5562   0.5571   0.5617
  0.5636   0.5685   0.5717   0.5731   0.5748   0.5815   0.5869   0.5877
  0.5948   0.5968   0.6035   0.6084   0.6105   0.6152   0.6174   0.6249
  0.6279   0.6292   0.6311   0.6369   0.6435   0.6460   0.6518   0.6560
  0.6578   0.6624   0.6668   0.6718   0.6764   0.6794   0.6846   0.6869
  0.6907   0.6943   0.6992   0.6998   0.7051   0.7074   0.7097   0.7154
  0.7159   0.7217   0.7243   0.7277   0.7327   0.7352   0.7365   0.7440
  0.7463   0.7489   0.7501   0.7573   0.7609   0.7651   0.7666   0.7699
  0.7744   0.7756   0.7784   0.7800   0.7829   0.7839   0.7873   0.7937
  0.7943   0.7967   0.7996   0.8025   0.8067   0.8098   0.8112   0.8147
  0.8197   0.8230   0.8246   0.8291   0.8313   0.8342   0.8359   0.8396
  0.8449   0.8499   0.8516   0.8567   0.8590   0.8622   0.8685   0.8702
  0.8720   0.8747   0.8812   0.8845   0.8904   0.8920   0.8958   0.8991
  0.9099   0.9130   0.9168   0.9171   0.9190   0.9220   0.9294   0.9369
  0.9381   0.9433   0.9532   0.9560   0.9634   0.9670   0.9690   0.9775
  0.9819   0.9850   0.9972   0.9997   1.0086   1.0105   1.0168   1.0210
  1.0231   1.0322   1.0393   1.0432   1.0515   1.0542   1.0603   1.0621
  1.0666   1.0727   1.0812   1.0887   1.0938   1.0994   1.1044   1.1096
  1.1177   1.1218   1.1301   1.1310   1.1393   1.1500   1.1506   1.1587
  1.1611   1.1708   1.1765   1.1869   1.1980   1.2091   1.2172   1.2211
  1.2332   1.2447   1.2519   1.2618   1.2702   1.2896   1.2953   1.3109
  1.3234   1.3240   1.3268   1.3289   1.3497   1.3546   1.3649   1.3798
  1.3802   1.3841   1.3928   1.4087   1.4143   1.4161   1.4282   1.4419
  1.4450   1.4525   1.4610   1.4657   1.4873   1.4912   1.5020   1.5069
  1.5137   1.5179   1.5308   1.5486   1.5592   1.5687   1.5754   1.5893
  1.6050   1.6097   1.6221   1.6347   1.6446   1.6471   1.6601   1.6677
  1.6690   1.6849   1.6942   1.7038   1.7076   1.7183   1.7287   1.7451
  1.7568   1.7774   1.7810   1.7899   1.8124   1.8188   1.8325   1.8342
  1.8461   1.8478   1.8541   1.8687   1.8714   1.8825   1.8930   1.9036
  1.9057   1.9096   1.9102   1.9257   1.9334   1.9432   1.9485   1.9590
  1.9677   1.9744   1.9753   1.9837   1.9858   1.9939   1.9979   2.0002
  2.0146   2.0200   2.0216   2.0299   2.0444   2.0492   2.0521   2.0586
  2.0651   2.0714   2.0770   2.0899   2.1019   2.1166   2.1207   2.1243
  2.1308   2.1367   2.1461   2.1528   2.1685   2.1790   2.1896   2.2043
  2.2118   2.2181   2.2244   2.2369   2.2412   2.2574   2.2793   2.2844
  2.2915   2.2988   2.3042   2.3130   2.3270   2.3335   2.3435   2.3493
  2.3605   2.3685   2.3756   2.3820   2.3994   2.4201   2.4218   2.4230
  2.4308   2.4432   2.4507   2.4639   2.4766   2.4906   2.5073   2.5161
  2.5200   2.5278   2.5366   2.5499   2.5739   2.5824   2.5860   2.5967
  2.6102   2.6131   2.6172   2.6354   2.6464   2.6493   2.6552   2.6633
  2.6723   2.6834   2.6986   2.7022   2.7076   2.7269   2.7349   2.7553
  2.7678   2.7717   2.7761   2.7799   2.7827   2.7968   2.8015   2.8111
  2.8196   2.8292   2.8324   2.8348   2.8369   2.8536   2.8617   2.8678
  2.8868   2.8969   2.9032   2.9108   2.9174   2.9296   2.9322   2.9482
  2.9538   2.9606   2.9621   2.9710   2.9788   2.9853   2.9958   3.0037
  3.0082   3.0109   3.0227   3.0283   3.0367   3.0424   3.0559   3.0649
  3.0776   3.0851   3.0938   3.1068   3.1121   3.1180   3.1275   3.1389
  3.1418   3.1462   3.1606   3.1707   3.1825   3.2004   3.2063   3.2078
  3.2156   3.2245   3.2269   3.2392   3.2443   3.2486   3.2619   3.2621
  3.2703   3.2813   3.2902   3.3015   3.3108   3.3168   3.3178   3.3258
  3.3384   3.3472   3.3559   3.3631   3.3706   3.3752   3.3903   3.4050
  3.4079   3.4121   3.4179   3.4283   3.4304   3.4376   3.4411   3.4534
  3.4622   3.4661   3.4738   3.4823   3.4889   3.4912   3.4927   3.4981
  3.4999   3.5157   3.5205   3.5265   3.5318   3.5378   3.5407   3.5423
  3.5568   3.5643   3.5651   3.5674   3.5706   3.5786   3.5855   3.5921
  3.5977   3.6053   3.6120   3.6185   3.6231   3.6330   3.6412   3.6445
  3.6511   3.6563   3.6692   3.6744   3.6896   3.7019   3.7036   3.7059
  3.7103   3.7220   3.7298   3.7377   3.7447   3.7629   3.7651   3.7726
  3.7864   3.7922   3.8048   3.8243   3.8417   3.8553   3.8863   3.9042
  3.9083   3.9216   3.9357   3.9502   3.9570   3.9736   3.9806   3.9930
  4.0123   4.0519   4.0551   4.0587   4.0717   4.0979   4.1233   4.1579
  4.1615   4.1743   4.2006   4.2167   4.2281   4.2475   4.2595   4.2650
  4.2744   4.2868   4.2976   4.3074   4.3122   4.3192   4.3257   4.3331
  4.3407   4.3462   4.3537   4.3693   4.3779   4.3829   4.3842   4.4106
  4.4147   4.4344   4.4384   4.4530   4.4604   4.4693   4.4932   4.5120
  4.5256   4.5476   4.5550   4.6049   4.6226   4.6270   4.6461   4.6595
  4.6846   4.7460   4.7521   4.7608   4.7724   4.8102   4.8228   4.8348
  4.8436   4.8751   4.9362   4.9442   4.9513   4.9787   4.9936   5.0034
  5.0346   5.0385   5.0695   5.0734   5.0861   5.1008   5.1323   5.1363
  5.1551   5.1711   5.1818   5.2199   5.2317   5.2712   5.3076   5.3460
  5.3824   5.4206   5.4219   5.4585   5.4598   5.5025   5.5395   5.5581
  5.6080   5.6376   5.6544   5.6645   5.7148   5.7372   5.7626   5.8134
  5.8367   5.9588   5.9877   5.9924   6.2468   6.2859   6.3468   6.5134
  6.6285   6.6717   6.9186   7.0559   7.3232   7.4924  22.6740  22.6768
 22.7354  22.7917  22.9397  22.9636  22.9802  22.9874  23.0089  23.0759
 23.1975  23.2207  23.2771  23.4845  23.5407  23.7960  32.8719  44.4711
 --------------------------------------------------------------

          Ground-State Mulliken Net Atomic Charges

     Atom                 Charge (a.u.)
  ----------------------------------------
      1 C                    -1.096536
      2 C                    -0.265012
      3 C                    -0.838424
      4 C                     0.661482
      5 C                     0.386824
      6 C                    -0.744038
      7 C                    -0.372398
      8 O                    -0.591333
      9 H                     0.449816
     10 H                     0.427636
     11 H                     0.303309
     12 H                     0.413402
     13 H                     0.284789
     14 H                     0.299203
     15 H                     0.405250
     16 H                     0.255865
     17 C                    -1.067722
     18 C                    -0.276707
     19 C                     0.485348
     20 C                     0.469950
     21 C                    -0.635318
     22 C                    -0.441401
     23 C                    -0.558277
     24 C                    -0.634794
     25 C                    -0.587955
     26 N                     0.107130
     27 H                     0.395519
     28 H                     0.478359
     29 H                     0.433478
     30 H                     0.469972
     31 H                     0.232618
     32 H                     0.319472
     33 H                     0.290426
     34 H                     0.300924
     35 H                     0.239143
  ----------------------------------------
  Sum of atomic charges =     0.000000

 -----------------------------------------------------------------
                    Cartesian Multipole Moments
 -----------------------------------------------------------------
    Charge (ESU x 10^10)
                -0.0000
    Dipole Moment (Debye)
         X       2.4891      Y      -1.0424      Z       2.3165
       Tot       3.5564
    Quadrupole Moments (Debye-Ang)
        XX     -96.2890     XY      -5.1378     YY    -108.7819
        XZ       1.6368     YZ      -3.2283     ZZ    -108.3442
    Octopole Moments (Debye-Ang^2)
       XXX       6.0965    XXY      17.9788    XYY      26.5662
       YYY     -17.3090    XXZ     -11.1186    XYZ     -11.6477
       YYZ      22.8432    XZZ      17.3382    YZZ     -31.4225
       ZZZ      32.0598
    Hexadecapole Moments (Debye-Ang^3)
      XXXX   -2953.6604   XXXY    -933.1089   XXYY    -911.0829
      XYYY   -1038.2955   YYYY   -2589.3832   XXXZ     844.5070
      XXYZ     361.3951   XYYZ     327.2528   YYYZ    1346.3153
      XXZZ   -1103.1013   XYZZ    -295.5064   YYZZ   -1062.2597
      XZZZ     812.2543   YZZZ    1222.2043   ZZZZ   -4005.4511
 -----------------------------------------------------------------
Archival summary:
1\1\compute-0-11.local\SP\ProcedureUnspecified\BasisUnspecified\111617\meili\ThuSep3005:49:542021ThuSep3005:49:542021\0\\#,ProcedureUnspecified,BasisUnspecified,\\0,1\N\H,1,1.01817\C,1,1.36541,2,124.791\C,1,1.37138,2,124.726,3,174.704,0\H,4,1.08603,1,125.383,2,1.65413,0\C,4,1.35522,1,109.479,2,-176.485,0\C,3,1.38314,1,130.82,2,-6.4173,0\H,7,1.08011,3,120.565,1,3.31515,0\C,7,1.38079,3,118.047,1,-179.49,0\H,9,1.081,7,119.426,3,-177.299,0\C,9,1.41186,7,121.504,3,3.0839,0\H,11,1.08027,9,120.01,7,179.781,0\C,11,1.41114,9,120.132,7,-3.04251,0\H,13,1.0612,11,119.589,9,-177.335,0\C,13,1.40593,11,118.991,9,3.13907,0\C,6,1.48773,4,125.771,1,176.06,0\H,16,1.08663,6,110.207,4,135.243,0\H,16,1.09103,6,109.354,4,16.4739,0\H,16,1.1,6,110.61,4,-104.128,0\H,10,2.17829,9,134.014,7,-47.3275,0\O,20,0.956666,10,143.993,9,92.6377,0\C,21,1.34981,20,111.493,10,-99.0932,0\C,22,1.39381,21,122.982,20,-177.628,0\H,23,1.07788,22,119.709,21,-0.491086,0\C,22,1.39466,21,116.484,20,0.65144,0\H,25,1.07249,22,120.227,21,2.89282,0\C,25,1.38823,22,119.587,21,-177.949,0\H,27,1.08072,25,119.135,22,179.539,0\C,27,1.39092,25,121.225,22,-0.441592,0\C,29,1.39541,27,118.549,25,-0.0969432,0\H,30,1.08202,29,119.453,27,-179.924,0\C,29,1.51471,27,119.903,25,-179,0\H,32,1.08824,29,106.81,27,-45.7654,0\H,32,1.09114,29,109.62,27,-161.473,0\H,32,1.1,29,114.321,27,74.7066,0\\\@

 Total job time:  63309.08s(wall), 132833.52s(cpu) 
 Thu Sep 30 05:49:54 2021

        *************************************************************
        *                                                           *
        *  Thank you very much for using Q-Chem.  Have a nice day.  *
        *                                                           *
        *************************************************************


