                  Welcome to Q-Chem
     A Quantum Leap Into The Future Of Chemistry


 Q-Chem 5.2 (devel), Q-Chem, Inc., Pleasanton, CA (2019)

 Yihan Shao,  Zhengting Gan,  E. Epifanovsky,  A. T. B. Gilbert,  M. Wormit,  
 J. Kussmann,  A. W. Lange,  A. Behn,  Jia Deng,  Xintian Feng,  D. Ghosh,  
 M. Goldey,  P. R. Horn,  L. D. Jacobson,  I. Kaliman,  T. Kus,  A. Landau,  
 Jie Liu,  E. I. Proynov,  R. M. Richard,  R. P. Steele,  E. J. Sundstrom,  
 H. L. Woodcock III,  P. M. Zimmerman,  D. Zuev,  B. Albrecht,  E. Alguire,  
 S. A. Baeppler,  D. Barton,  Z. Benda,  Y. A. Bernard,  E. J. Berquist,  
 K. B. Bravaya,  H. Burton,  D. Casanova,  Chun-Min Chang,  Yunqing Chen,  
 A. Chien,  K. D. Closser,  M. P. Coons,  S. Coriani,  S. Dasgupta,  
 A. L. Dempwolff,  M. Diedenhofen,  Hainam Do,  R. G. Edgar,  Po-Tung Fang,  
 S. Faraji,  S. Fatehi,  Qingguo Feng,  K. D. Fenk,  J. Fosso-Tande,  
 J. Gayvert,  Qinghui Ge,  A. Ghysels,  G. Gidofalvi,  J. Gomes,  
 J. Gonthier,  A. Gunina,  D. Hait,  M. W. D. Hanson-Heine,  
 P. H. P. Harbach,  A. W. Hauser,  M. F. Herbst,  J. E. Herr,  
 E. G. Hohenstein,  Z. C. Holden,  Kerwin Hui,  B. C. Huynh,  T.-C. Jagau,  
 Hyunjun Ji,  B. Kaduk,  K. Khistyaev,  Jaehoon Kim,  P. Klunzinger,  K. Koh,  
 D. Kosenkov,  L. Koulias,  T. Kowalczyk,  C. M. Krauter,  A. Kunitsa,  
 Ka Un Lao,  A. Laurent,  K. V. Lawler,  Joonho Lee,  D. Lefrancois,  
 S. Lehtola,  D. S. Levine,  Yi-Pei Li,  You-Sheng Lin,  Fenglai Liu,  
 E. Livshits,  A. Luenser,  P. Manohar,  E. Mansoor,  S. F. Manzer,  
 Shan-Ping Mao,  Yuezhi Mao,  N. Mardirossian,  A. V. Marenich,  
 T. Markovich,  L. A. Martinez-Martinez,  S. A. Maurer,  N. J. Mayhall,  
 S. C. McKenzie,  J.-M. Mewes,  P. Morgante,  A. F. Morrison,  
 J. W. Mullinax,  K. Nanda,  T. S. Nguyen-Beck,  R. Olivares-Amaya,  
 J. A. Parkhill,  Zheng Pei,  T. M. Perrine,  F. Plasser,  P. Pokhilko,  
 S. Prager,  A. Prociuk,  E. Ramos,  D. R. Rehn,  F. Rob,  M. Scheurer,  
 M. Schneider,  N. Sergueev,  S. M. Sharada,  S. Sharma,  D. W. Small,  
 T. Stauch,  T. Stein,  Yu-Chuan Su,  A. J. W. Thom,  A. Tkatchenko,  
 T. Tsuchimochi,  N. M. Tubman,  L. Vogt,  M. L. Vidal,  O. Vydrov,  
 M. A. Watson,  J. Wenzel,  M. de Wergifosse,  T. A. Wesolowski,  A. White,  
 J. Witte,  A. Yamada,  Jun Yang,  K. Yao,  S. Yeganeh,  S. R. Yost,  
 Zhi-Qiang You,  A. Zech,  Igor Ying Zhang,  Xing Zhang,  Yan Zhao,  
 Ying Zhu,  B. R. Brooks,  G. K. L. Chan,  C. J. Cramer,  M. S. Gordon,  
 W. J. Hehre,  A. Klamt,  M. W. Schmidt,  C. D. Sherrill,  D. G. Truhlar,  
 A. Aspuru-Guzik,  R. Baer,  A. T. Bell,  N. A. Besley,  Jeng-Da Chai,  
 A. E. DePrince, III,  R. A. DiStasio Jr.,  A. Dreuw,  B. D. Dunietz,  
 T. R. Furlani,  Chao-Ping Hsu,  Yousung Jung,  Jing Kong,  D. S. Lambrecht,  
 WanZhen Liang,  C. Ochsenfeld,  V. A. Rassolov,  L. V. Slipchenko,  
 J. E. Subotnik,  T. Van Voorhis,  J. M. Herbert,  A. I. Krylov,  
 P. M. W. Gill,  M. Head-Gordon

 Contributors to earlier versions of Q-Chem not listed above: 
 R. D. Adamson,  B. Austin,  J. Baker,  G. J. O. Beran,  K. Brandhorst,  
 S. T. Brown,  E. F. C. Byrd,  A. K. Chakraborty,  C.-L. Cheng,  
 Siu Hung Chien,  D. M. Chipman,  D. L. Crittenden,  H. Dachsel,  
 R. J. Doerksen,  A. D. Dutoi,  L. Fusti-Molnar,  W. A. Goddard III,  
 A. Golubeva-Zadorozhnaya,  S. R. Gwaltney,  G. Hawkins,  A. Heyden,  
 S. Hirata,  G. Kedziora,  F. J. Keil,  C. Kelley,  Jihan Kim,  R. A. King,  
 R. Z. Khaliullin,  P. P. Korambath,  W. Kurlancheek,  A. M. Lee,  M. S. Lee,  
 S. V. Levchenko,  Ching Yeh Lin,  D. Liotard,  R. C. Lochan,  I. Lotan,  
 P. E. Maslen,  N. Nair,  D. P. O'Neill,  D. Neuhauser,  E. Neuscamman,  
 C. M. Oana,  R. Olson,  B. Peters,  R. Peverati,  P. A. Pieniazek,  
 Y. M. Rhee,  J. Ritchie,  M. A. Rohrdanz,  E. Rosta,  N. J. Russ,  
 H. F. Schaefer III,  N. E. Schultz,  N. Shenvi,  A. C. Simmonett,  A. Sodt,  
 D. Stuck,  K. S. Thanthiriwatte,  V. Vanovschi,  Tao Wang,  A. Warshel,  
 C. F. Williams,  Q. Wu,  X. Xu,  W. Zhang

 Please cite Q-Chem as follows:
 Y. Shao et al., Mol. Phys. 113, 184-215 (2015)
 DOI: 10.1080/00268976.2014.952696

 Q-Chem 5.2.1 for Intel X86 EM64T Linux

 Parts of Q-Chem use Armadillo 8.300.2 (Tropical Shenanigans).
 http://arma.sourceforge.net/

 Q-Chem begins on Tue Sep 28 19:46:00 2021  

compute-0-8.local
Host: 0

     Scratch files written to /home/meili/scratch/qchem59884//
NAlpha2: 120
NElect   120
Mult     1
Symmetry turned off for PCM/SM12/SMD calculation

 Q-Chem warning in module libgen/rem_setup.C, line 2813:

 Neither GIA nor STOLL is specified by user. Use STOLL as the default


Checking the input file for inconsistencies... 	...done.

--------------------------------------------------------------
User input:
--------------------------------------------------------------
$comment
SSI-031PHE-092TRP-2.pdb
$end

$molecule
0 1
--
0 1
C   -1.845829354695    0.421020467435   -1.934103008428
C    0.625170645305    0.142020467435   -1.519103008428
C   -0.408829354695    0.643020467435   -2.324103008428
C    1.964170645305    0.322020467435   -1.873103008428
C   -0.068829354695    1.342020467435   -3.488103008428
C    2.300170645305    1.008020467435   -3.038103008428
C    1.268170645305    1.531020467435   -3.823103008428
H    0.391170645305   -0.402979532565   -0.629103008428
H    2.745170645305   -0.084979532565   -1.247103008428
H   -2.428829354695    1.310020467435   -2.173103008428
H   -1.783829354695    0.358020467435   -0.877103008428
H   -0.841829354695    1.747020467435   -4.126103008428
H    3.334170645305    1.138020467435   -3.326103008428
H    1.520170645305    2.073020467435   -4.723103008428
H   -2.296189354695   -0.455461532565   -2.422933008428
--
0 1
C    2.191170645305    0.492020467435    2.800896991572
C   -0.755829354695   -1.282979532565    1.457896991572
C   -0.209829354695   -0.116979532565    2.079896991572
C    1.186170645305   -0.396979532565    2.208896991572
C    1.390170645305   -1.614979532565    1.660896991572
C   -2.046829354695   -1.576979532565    1.100896991572
C   -2.664829354695   -0.451979532565    1.224896991572
C   -1.063829354695    0.937020467435    2.393896991572
C   -2.286829354695    0.805020467435    1.903896991572
N    0.257170645305   -2.144979532565    1.240896991572
H    0.189170645305   -3.015979532565    0.732896991572
H   -2.358829354695   -2.425979532565    0.525896991572
H    2.334170645305   -1.947979532565    1.310896991572
H   -3.079829354695   -0.440979532565    0.246896991572
H   -0.699829354695    1.868020467435    2.803896991572
H    2.604170645305    0.026020467435    3.696896991572
H    1.683170645305    1.409020467435    3.101896991572
H   -2.803829354695    1.697020467435    1.679896991572
H    2.993930645305    0.728515467435    2.087006991572
$end

$rem
JOBTYPE			EDA
EDA2			1
method			wB97X-V
BASIS			def2-TZVPD
XC_GRID			000099000590
NL_GRID			1
UNRESTRICTED		FALSE
MAX_SCF_CYCLES		200
SYMMETRY		FALSE
SYM_IGNORE		TRUE
MEM_STATIC		2000
BASIS_LIN_DEP_THRESH 	6
THRESH 			14
SCF_CONVERGENCE 	8
SCF_PRINT_FRGM 		TRUE
SOLVENT_METHOD          SMD
$end

$SMX
SOLVENT			WATER
$END
--------------------------------------------------------------
 ----------------------------------------------------------------
             Standard Nuclear Orientation (Angstroms)
    I     Atom           X                Y                Z
 ----------------------------------------------------------------
    1      C      -1.8458293547     0.4210204674    -1.9341030084
    2      C       0.6251706453     0.1420204674    -1.5191030084
    3      C      -0.4088293547     0.6430204674    -2.3241030084
    4      C       1.9641706453     0.3220204674    -1.8731030084
    5      C      -0.0688293547     1.3420204674    -3.4881030084
    6      C       2.3001706453     1.0080204674    -3.0381030084
    7      C       1.2681706453     1.5310204674    -3.8231030084
    8      H       0.3911706453    -0.4029795326    -0.6291030084
    9      H       2.7451706453    -0.0849795326    -1.2471030084
   10      H      -2.4288293547     1.3100204674    -2.1731030084
   11      H      -1.7838293547     0.3580204674    -0.8771030084
   12      H      -0.8418293547     1.7470204674    -4.1261030084
   13      H       3.3341706453     1.1380204674    -3.3261030084
   14      H       1.5201706453     2.0730204674    -4.7231030084
   15      H      -2.2961893547    -0.4554615326    -2.4229330084
   16      C       2.1911706453     0.4920204674     2.8008969916
   17      C      -0.7558293547    -1.2829795326     1.4578969916
   18      C      -0.2098293547    -0.1169795326     2.0798969916
   19      C       1.1861706453    -0.3969795326     2.2088969916
   20      C       1.3901706453    -1.6149795326     1.6608969916
   21      C      -2.0468293547    -1.5769795326     1.1008969916
   22      C      -2.6648293547    -0.4519795326     1.2248969916
   23      C      -1.0638293547     0.9370204674     2.3938969916
   24      C      -2.2868293547     0.8050204674     1.9038969916
   25      N       0.2571706453    -2.1449795326     1.2408969916
   26      H       0.1891706453    -3.0159795326     0.7328969916
   27      H      -2.3588293547    -2.4259795326     0.5258969916
   28      H       2.3341706453    -1.9479795326     1.3108969916
   29      H      -3.0798293547    -0.4409795326     0.2468969916
   30      H      -0.6998293547     1.8680204674     2.8038969916
   31      H       2.6041706453     0.0260204674     3.6968969916
   32      H       1.6831706453     1.4090204674     3.1018969916
   33      H      -2.8038293547     1.6970204674     1.6798969916
   34      H       2.9939306453     0.7285154674     2.0870069916
 ----------------------------------------------------------------
 Nuclear Repulsion Energy =        1133.03445537 hartrees
 There are       60 alpha and       60 beta electrons
 Requested basis set is def2-TZVPD
 There are 306 shells and 782 basis functions

 Total QAlloc Memory Limit   2000 MB
 Mega-Array Size      1956 MB
 MEM_STATIC part      2000 MB

 Citation of the SMD model:
 Marenich, A.V.; Cramer, C.J.; Truhlar, D.G.
 J. Phys. Chem. B 2009, 113, 6378-6396.
 iSolventCode=           1
 Solvent: water                                                           

 vradii
            1           2           3           4           5           6
    1   1.8500000   1.8500000   1.8500000   1.8500000   1.8500000   1.8500000
            7           8           9          10          11          12
    1   1.8500000   1.2000000   1.2000000   1.2000000   1.2000000   1.2000000
           13          14          15          16          17          18
    1   1.2000000   1.2000000   1.2000000   1.8500000   1.8500000   1.8500000
           19          20          21          22          23          24
    1   1.8500000   1.8500000   1.8500000   1.8500000   1.8500000   1.8500000
           25          26          27          28          29          30
    1   1.8900000   1.2000000   1.2000000   1.2000000   1.2000000   1.2000000
           31          32          33          34
    1   1.2000000   1.2000000   1.2000000   1.2000000
 Changing PCM_VDW_RADII to SMD_RADIUS
 Discretize the solute cavity surface with Lebedev spheres
	Using 110 Lebedev grid points for each H atom
	Using 194 Lebedev grid points for other atoms
	Atomic van der Waals radii will be scaled by 1.20
 Remove points where switching function is < 1.0e-08
 Keep 2361 surface tesserae and discard 2807 interior tesserae
 Molecular Surface Area = 277.569 Angst**2
 A cutoff of  1.0D-14 yielded  40896 shell pairs
 There are    269418 function pairs (    342379 Cartesian)
 Smallest overlap matrix eigenvalue = 3.81E-07
 Linear dependence detected in AO basis
 Tighter screening thresholds may be required for diffuse basis sets
 Use S2THRESH > 14 and THRESH = 14 in case of SCF convergence issues
 Number of orthogonalized atomic orbitals = 775
 Maximum deviation from orthogonality = 1.887E-10

 Scale SEOQF with 1.000000e-01/1.000000e-01/1.000000e-01

 Standard Electronic Orientation quadrupole field applied
 Nucleus-field energy     =    -0.0000000438 hartrees

 -----------------------------------------------------------------------
  General SCF calculation program by
  Eric Jon Sundstrom, Paul Horn, Yuezhi Mao, Dmitri Zuev, Alec White,
  David Stuck, Shaama M.S., Shane Yost, Joonho Lee, David Small,
  Daniel Levine, Susi Lehtola, Hugh Burton, Evgeny Epifanovsky,
  Bang C. Huynh
 -----------------------------------------------------------------------
================================================================
                 ALMO-EDA with the EDA2 driver                  
================================================================
 The second-generation ALMO-EDA (for DFT):                      
 P. R. Horn, Y. Mao and M. Head-Gordon, PCCP, 18, 23067 (2016)  
 Decomposition of the frozen energy:                            
 P. R. Horn, Y. Mao and M. Head-Gordon, JCP, 144, 114107 (2016) 
 FERF model for polarization:                                   
 P. R. Horn and M. Head-Gordon, JCP, 143, 114111 (2015)         
Using eda2 option set 1
Option set summary: Frozen orbital wavefunction, initial wavefunction decomposition, and nDQ polarization.
--------------------------------
Printing EDA Options
--------------------------------
eda_child_super_basis      0
fragmo_guess_mode          0
child_mp                   1
child_mp_orders            232
cls_elec                   1
cls_disp                   0
scfmi_mode                 1
scfmi_occs                 0
scfmi_virts                0
frz_relax                  0
frz_relax_method           0
dc_pen_start               0
dc_pen_conv                0
dc_pen_increment           0
dc_pen_steps               0
dc_pen_thresh_factor       0
dc_pen_pre_newton_thresh   0
frz_ortho_decomp           1
frz_ortho_decomp_conv      6
frgm_method                2
scfmi_freeze_ss            0
separate_rehyb             0
plot_diff_den              0
eda_nocv                   0
eda_vct_relax              1
disp_free_x                0
disp_free_c                0
eda_bsse                   0
eda_pct_a                  0
eda_covp                   0
--------------------------------
Attempting to make child job directory: /home/meili/scratch/qchem59884//Frg1/
Attempting to make child job directory: /home/meili/scratch/qchem59884//Frg2/
Creating input file /home/meili/scratch/qchem59884/Frg1.input
using default PutDataFrgm: nothing
calling putenv with: QCSCRATCH=/home/meili/scratch/qchem59884/ 
Spawning Job For Fragment 0
                  Welcome to Q-Chem
     A Quantum Leap Into The Future Of Chemistry


 Q-Chem 5.2 (devel), Q-Chem, Inc., Pleasanton, CA (2019)

 Yihan Shao,  Zhengting Gan,  E. Epifanovsky,  A. T. B. Gilbert,  M. Wormit,  
 J. Kussmann,  A. W. Lange,  A. Behn,  Jia Deng,  Xintian Feng,  D. Ghosh,  
 M. Goldey,  P. R. Horn,  L. D. Jacobson,  I. Kaliman,  T. Kus,  A. Landau,  
 Jie Liu,  E. I. Proynov,  R. M. Richard,  R. P. Steele,  E. J. Sundstrom,  
 H. L. Woodcock III,  P. M. Zimmerman,  D. Zuev,  B. Albrecht,  E. Alguire,  
 S. A. Baeppler,  D. Barton,  Z. Benda,  Y. A. Bernard,  E. J. Berquist,  
 K. B. Bravaya,  H. Burton,  D. Casanova,  Chun-Min Chang,  Yunqing Chen,  
 A. Chien,  K. D. Closser,  M. P. Coons,  S. Coriani,  S. Dasgupta,  
 A. L. Dempwolff,  M. Diedenhofen,  Hainam Do,  R. G. Edgar,  Po-Tung Fang,  
 S. Faraji,  S. Fatehi,  Qingguo Feng,  K. D. Fenk,  J. Fosso-Tande,  
 J. Gayvert,  Qinghui Ge,  A. Ghysels,  G. Gidofalvi,  J. Gomes,  
 J. Gonthier,  A. Gunina,  D. Hait,  M. W. D. Hanson-Heine,  
 P. H. P. Harbach,  A. W. Hauser,  M. F. Herbst,  J. E. Herr,  
 E. G. Hohenstein,  Z. C. Holden,  Kerwin Hui,  B. C. Huynh,  T.-C. Jagau,  
 Hyunjun Ji,  B. Kaduk,  K. Khistyaev,  Jaehoon Kim,  P. Klunzinger,  K. Koh,  
 D. Kosenkov,  L. Koulias,  T. Kowalczyk,  C. M. Krauter,  A. Kunitsa,  
 Ka Un Lao,  A. Laurent,  K. V. Lawler,  Joonho Lee,  D. Lefrancois,  
 S. Lehtola,  D. S. Levine,  Yi-Pei Li,  You-Sheng Lin,  Fenglai Liu,  
 E. Livshits,  A. Luenser,  P. Manohar,  E. Mansoor,  S. F. Manzer,  
 Shan-Ping Mao,  Yuezhi Mao,  N. Mardirossian,  A. V. Marenich,  
 T. Markovich,  L. A. Martinez-Martinez,  S. A. Maurer,  N. J. Mayhall,  
 S. C. McKenzie,  J.-M. Mewes,  P. Morgante,  A. F. Morrison,  
 J. W. Mullinax,  K. Nanda,  T. S. Nguyen-Beck,  R. Olivares-Amaya,  
 J. A. Parkhill,  Zheng Pei,  T. M. Perrine,  F. Plasser,  P. Pokhilko,  
 S. Prager,  A. Prociuk,  E. Ramos,  D. R. Rehn,  F. Rob,  M. Scheurer,  
 M. Schneider,  N. Sergueev,  S. M. Sharada,  S. Sharma,  D. W. Small,  
 T. Stauch,  T. Stein,  Yu-Chuan Su,  A. J. W. Thom,  A. Tkatchenko,  
 T. Tsuchimochi,  N. M. Tubman,  L. Vogt,  M. L. Vidal,  O. Vydrov,  
 M. A. Watson,  J. Wenzel,  M. de Wergifosse,  T. A. Wesolowski,  A. White,  
 J. Witte,  A. Yamada,  Jun Yang,  K. Yao,  S. Yeganeh,  S. R. Yost,  
 Zhi-Qiang You,  A. Zech,  Igor Ying Zhang,  Xing Zhang,  Yan Zhao,  
 Ying Zhu,  B. R. Brooks,  G. K. L. Chan,  C. J. Cramer,  M. S. Gordon,  
 W. J. Hehre,  A. Klamt,  M. W. Schmidt,  C. D. Sherrill,  D. G. Truhlar,  
 A. Aspuru-Guzik,  R. Baer,  A. T. Bell,  N. A. Besley,  Jeng-Da Chai,  
 A. E. DePrince, III,  R. A. DiStasio Jr.,  A. Dreuw,  B. D. Dunietz,  
 T. R. Furlani,  Chao-Ping Hsu,  Yousung Jung,  Jing Kong,  D. S. Lambrecht,  
 WanZhen Liang,  C. Ochsenfeld,  V. A. Rassolov,  L. V. Slipchenko,  
 J. E. Subotnik,  T. Van Voorhis,  J. M. Herbert,  A. I. Krylov,  
 P. M. W. Gill,  M. Head-Gordon

 Contributors to earlier versions of Q-Chem not listed above: 
 R. D. Adamson,  B. Austin,  J. Baker,  G. J. O. Beran,  K. Brandhorst,  
 S. T. Brown,  E. F. C. Byrd,  A. K. Chakraborty,  C.-L. Cheng,  
 Siu Hung Chien,  D. M. Chipman,  D. L. Crittenden,  H. Dachsel,  
 R. J. Doerksen,  A. D. Dutoi,  L. Fusti-Molnar,  W. A. Goddard III,  
 A. Golubeva-Zadorozhnaya,  S. R. Gwaltney,  G. Hawkins,  A. Heyden,  
 S. Hirata,  G. Kedziora,  F. J. Keil,  C. Kelley,  Jihan Kim,  R. A. King,  
 R. Z. Khaliullin,  P. P. Korambath,  W. Kurlancheek,  A. M. Lee,  M. S. Lee,  
 S. V. Levchenko,  Ching Yeh Lin,  D. Liotard,  R. C. Lochan,  I. Lotan,  
 P. E. Maslen,  N. Nair,  D. P. O'Neill,  D. Neuhauser,  E. Neuscamman,  
 C. M. Oana,  R. Olson,  B. Peters,  R. Peverati,  P. A. Pieniazek,  
 Y. M. Rhee,  J. Ritchie,  M. A. Rohrdanz,  E. Rosta,  N. J. Russ,  
 H. F. Schaefer III,  N. E. Schultz,  N. Shenvi,  A. C. Simmonett,  A. Sodt,  
 D. Stuck,  K. S. Thanthiriwatte,  V. Vanovschi,  Tao Wang,  A. Warshel,  
 C. F. Williams,  Q. Wu,  X. Xu,  W. Zhang

 Please cite Q-Chem as follows:
 Y. Shao et al., Mol. Phys. 113, 184-215 (2015)
 DOI: 10.1080/00268976.2014.952696

 Q-Chem 5.2.1 for Intel X86 EM64T Linux

 Parts of Q-Chem use Armadillo 8.300.2 (Tropical Shenanigans).
 http://arma.sourceforge.net/

 Q-Chem begins on Tue Sep 28 19:46:09 2021  

compute-0-8.local
Host: 0

     Scratch files written to /home/meili/scratch/qchem59884//Frg1//
NAlpha2: 50
NElect   50
Mult     1
Symmetry turned off for PCM/SM12/SMD calculation

Checking the input file for inconsistencies... 	...done.

--------------------------------------------------------------
User input:
--------------------------------------------------------------
$molecule
0 1
 6	-1.8458293547	0.4210204674	-1.9341030084
 6	0.6251706453	0.1420204674	-1.5191030084
 6	-0.4088293547	0.6430204674	-2.3241030084
 6	1.9641706453	0.3220204674	-1.8731030084
 6	-0.0688293547	1.3420204674	-3.4881030084
 6	2.3001706453	1.0080204674	-3.0381030084
 6	1.2681706453	1.5310204674	-3.8231030084
 1	0.3911706453	-0.4029795326	-0.6291030084
 1	2.7451706453	-0.0849795326	-1.2471030084
 1	-2.4288293547	1.3100204674	-2.1731030084
 1	-1.7838293547	0.3580204674	-0.8771030084
 1	-0.8418293547	1.7470204674	-4.1261030084
 1	3.3341706453	1.1380204674	-3.3261030084
 1	1.5201706453	2.0730204674	-4.7231030084
 1	-2.2961893547	-0.4554615326	-2.4229330084
$end
$rem
EDA2		1
METHOD		WB97X-V
BASIS		DEF2-TZVPD
XC_GRID		000099000590
NL_GRID		1
UNRESTRICTED		FALSE
MAX_SCF_CYCLES		200
SYMMETRY		FALSE
SYM_IGNORE		TRUE
BASIS_LIN_DEP_THRESH		6
THRESH		14
SCF_CONVERGENCE		8
SCF_PRINT_FRGM		TRUE
SOLVENT_METHOD		SMD
!required keywords
JOBTYPE		SP
SYM_IGNORE		TRUE
SUBSYSTEM		TRUE
GEN_SCFMAN		TRUE
CHILD_INSTRUCTION		2
SYM_IGNORE		TRUE
SCFMI		0
RI_K 0		
PARI_K 0		
MIN_PARI_K 0		
IARI_K 0		
OCC_RI_K 0		
PURECART		1111
MEM_STATIC		2000
MEM_TOTAL		2000
GUI		0
CHILD_MP		1
CHILD_MP_ORDERS		232
FRZ_RELAX		0
FRZ_RELAX_METHOD		0
EDA_CLS_ELEC		1
EDA_CLS_DISP		0
FRZ_ORTHO_DECOMP		1
EDA2		FALSE
FRGM_METHOD		FALSE
CIS_N_ROOTS  0
LOCAL_CIS    0
CIS_RLX_DNS  1
$end
$smx
SOLVENT			WATER
$end
--------------------------------------------------------------
 ----------------------------------------------------------------
             Standard Nuclear Orientation (Angstroms)
    I     Atom           X                Y                Z
 ----------------------------------------------------------------
    1      C      -1.8458293547     0.4210204674    -1.9341030084
    2      C       0.6251706453     0.1420204674    -1.5191030084
    3      C      -0.4088293547     0.6430204674    -2.3241030084
    4      C       1.9641706453     0.3220204674    -1.8731030084
    5      C      -0.0688293547     1.3420204674    -3.4881030084
    6      C       2.3001706453     1.0080204674    -3.0381030084
    7      C       1.2681706453     1.5310204674    -3.8231030084
    8      H       0.3911706453    -0.4029795326    -0.6291030084
    9      H       2.7451706453    -0.0849795326    -1.2471030084
   10      H      -2.4288293547     1.3100204674    -2.1731030084
   11      H      -1.7838293547     0.3580204674    -0.8771030084
   12      H      -0.8418293547     1.7470204674    -4.1261030084
   13      H       3.3341706453     1.1380204674    -3.3261030084
   14      H       1.5201706453     2.0730204674    -4.7231030084
   15      H      -2.2961893547    -0.4554615326    -2.4229330084
 ----------------------------------------------------------------
 Nuclear Repulsion Energy =         269.52645558 hartrees
 There are       25 alpha and       25 beta electrons
 Requested basis set is def2-TZVPD
 There are 131 shells and 331 basis functions

 Total QAlloc Memory Limit   2000 MB
 Mega-Array Size      1956 MB
 MEM_STATIC part      2000 MB

 Citation of the SMD model:
 Marenich, A.V.; Cramer, C.J.; Truhlar, D.G.
 J. Phys. Chem. B 2009, 113, 6378-6396.
 iSolventCode=           1
 Solvent: water                                                           

 vradii
            1           2           3           4           5           6
    1   1.8500000   1.8500000   1.8500000   1.8500000   1.8500000   1.8500000
            7           8           9          10          11          12
    1   1.8500000   1.2000000   1.2000000   1.2000000   1.2000000   1.2000000
           13          14          15
    1   1.2000000   1.2000000   1.2000000
 Changing PCM_VDW_RADII to SMD_RADIUS
 Discretize the solute cavity surface with Lebedev spheres
	Using 110 Lebedev grid points for each H atom
	Using 194 Lebedev grid points for other atoms
	Atomic van der Waals radii will be scaled by 1.20
 Remove points where switching function is < 1.0e-08
 Keep 1075 surface tesserae and discard 1163 interior tesserae
 Molecular Surface Area = 132.065 Angst**2

                       Distance Matrix (Angstroms)
             C (  1)   C (  2)   C (  3)   C (  4)   C (  5)   C (  6)
   C (  2)  2.521092
   C (  3)  1.505441  1.402919
   C (  4)  3.811774  1.396652  2.436713
   C (  5)  2.533947  2.408028  1.399677  2.789572
   C (  6)  4.330439  2.421351  2.825191  1.393096  2.434382
   C (  7)  3.807547  2.766078  2.418238  2.397623  1.391228  1.398134
   H (  8)  2.717751  1.069524  2.146425  2.132484  3.380903  3.382083
   H (  9)  4.669613  2.149398  3.411397  1.080503  3.870014  2.144844
   H ( 10)  1.089647  3.334495  2.132625  4.512715  2.701823  4.816936
   H ( 11)  1.060689  2.502419  2.016348  3.878249  3.275180  4.665992
   H ( 12)  2.751573  3.394785  2.157199  3.870435  1.081017  3.406175
   H ( 13)  5.411483  3.405282  3.906287  2.157305  3.412956  1.081203
   H ( 14)  4.673070  3.846479  3.394281  3.374261  2.141146  2.140526
   H ( 15)  1.100000  3.115804  2.185991  4.365485  3.053958  4.862791
             C (  7)   H (  8)   H (  9)   H ( 10)   H ( 11)   H ( 12)
   H (  8)  3.835508
   H (  9)  3.380645  2.454458
   H ( 10)  4.054522  3.642898  5.438178
   H ( 11)  4.401085  2.317596  4.565631  1.732612
   H ( 12)  2.142560  4.286234  4.950902  2.554163  3.656868
   H ( 13)  2.160975  4.278988  2.482920  5.879725  5.727122  4.295330
   H ( 14)  1.080402  4.915898  4.270851  4.762276  5.352509  2.457993
   H ( 15)  4.314076  3.231483  5.189908  1.787998  1.820400  3.141159
             H ( 13)   H ( 14)
   H ( 14)  2.473142
   H ( 15)  5.920798  5.123339

 A cutoff of  1.0D-14 yielded   8363 shell pairs
 There are     54499 function pairs (     69447 Cartesian)
 Smallest overlap matrix eigenvalue = 5.90E-07
 Linear dependence detected in AO basis
 Tighter screening thresholds may be required for diffuse basis sets
 Use S2THRESH > 14 and THRESH = 14 in case of SCF convergence issues
 Number of orthogonalized atomic orbitals = 330
 Maximum deviation from orthogonality = 1.407E-10

 Scale SEOQF with 1.000000e-01/1.000000e-01/1.000000e-01

 Standard Electronic Orientation quadrupole field applied
 Nucleus-field energy     =    -0.0000000318 hartrees
 Guess from superposition of atomic densities
 Warning:  Energy on first SCF cycle will be non-variational
 SAD guess density has 50.000000 electrons

 -----------------------------------------------------------------------
  General SCF calculation program by
  Eric Jon Sundstrom, Paul Horn, Yuezhi Mao, Dmitri Zuev, Alec White,
  David Stuck, Shaama M.S., Shane Yost, Joonho Lee, David Small,
  Daniel Levine, Susi Lehtola, Hugh Burton, Evgeny Epifanovsky,
  Bang C. Huynh
 -----------------------------------------------------------------------
 Exchange:     0.1670 Hartree-Fock + 1.0000 wB97X-V + LR-HF
 Correlation:  1.0000 wB97X-V
 Using Euler-Maclaurin-Lebedev (99,590) quadrature formula
 Nonlocal Correlation:  VV10 with C = 0.0100 and b = 6.00 and scale = 1.00000
 Grid used for NLC:  SG-1 standard quadrature
Energy prior to optimization (guess energy) = -271.524056250198
Begin Timing: Total SCF Calculation
begin iterations for algorithm: DIIS         
the SCF tolerance is set to 1.00e-08
    1    -271.5240562502      1.83e-03     00000 
    2    -271.5623315684      1.14e-03     00000 
    3    -271.5815314964      1.55e-04     00000 
    4    -271.5822036380      4.42e-05     00000 
    5    -271.5822488949      2.26e-05     00000 
    6    -271.5822572611      5.94e-06     00000 
    7    -271.5822580589      2.15e-06     00000 
    8    -271.5822581368      3.36e-07     00000 
    9    -271.5822581415      8.46e-08     00000 
   10    -271.5822581418      2.94e-08     00000 
   11    -271.5822581418      1.49e-08     00000 
   12    -271.5822581418      4.66e-09     00000 Convergence criterion met
Timing for Total SCF: 530.00s (wall), 3251.01s (cpu)
(3)  G-ENP(liq) elect-nuc-pol free energy of system     -271.582258142 a.u.
(4)  G-CDS(liq) cavity-dispersion-solvent structure 
     free energy                                                3.2271 kcal/mol
(6)  G-S(liq) free energy of system                     -271.577115364 a.u.
E_pcm = -0.0076521411
E_cds = 0.0051427782
Multipole orders to be included
        2
        3
computing dipole RHS
computing quadrupole RHS
total number of RHS in solve_reponses: 8
RHS batch sizes
        8
Beginning Block Conjugate Gradient Iterations. Batch Number: 0
computing hessian-vector products by finite difference
              1      6.32e-01     00000 Conjugate Gradient Iteration
computing hessian-vector products by finite difference
              2      1.91e-01     00000 Conjugate Gradient Iteration
computing hessian-vector products by finite difference
              3      4.71e-02     00000 Conjugate Gradient Iteration
computing hessian-vector products by finite difference
              4      1.19e-02     00000 Conjugate Gradient Iteration
computing hessian-vector products by finite difference
              5      2.10e-03     00000 Conjugate Gradient Iteration
computing hessian-vector products by finite difference
              6      6.44e-04     00000 Conjugate Gradient Iteration
computing hessian-vector products by finite difference
              7      1.37e-04     00000 Conjugate Gradient Iteration
computing hessian-vector products by finite difference
              8      2.27e-05     00000 Conjugate Gradient Iteration
computing hessian-vector products by finite difference
              9      3.30e-06     00000 Conjugate Gradient Iteration
computing hessian-vector products by finite difference
             10      7.01e-07     00000 Conjugate Gradient Iteration
computing hessian-vector products by finite difference
             11      1.30e-07     00000 Conjugate Gradient Iteration
computing hessian-vector products by finite difference
             12      1.82e-08     00000 Conjugate Gradient Iteration
computing hessian-vector products by finite difference
             13      4.75e-09     00000 CG Converged
batch 0 complete
Done Calculating Responses
TESTING ORTHOGONALIZATION OF MULTIPOLE BASIS
Multipole virts passed orthogonality test
Virts Per Order
           75
          125

 --------------------------------------------------------------

                    Orbital Energies (a.u.)
 --------------------------------------------------------------

 Alpha MOs
 -- Occupied --
-10.2785 -10.2686 -10.2680 -10.2662 -10.2645 -10.2641 -10.2508  -0.9912
 -0.9025  -0.8733  -0.8086  -0.7240  -0.6995  -0.6232  -0.5692  -0.5600
 -0.5335  -0.5221  -0.5082  -0.4816  -0.4696  -0.4356  -0.4318  -0.3457
 -0.3340
 -- Virtual --
  0.0672   0.0684   0.0702   0.0847   0.0900   0.1097   0.1159   0.1185
  0.1405   0.1580   0.1711   0.1750   0.1926   0.1955   0.2004   0.2069
  0.2271   0.2317   0.2400   0.2438   0.2542   0.2645   0.2670   0.2765
  0.2845   0.2875   0.2884   0.2979   0.3013   0.3060   0.3071   0.3164
  0.3262   0.3302   0.3360   0.3394   0.3548   0.3621   0.3711   0.3773
  0.3859   0.3873   0.3882   0.3938   0.3952   0.4039   0.4094   0.4136
  0.4170   0.4333   0.4353   0.4398   0.4427   0.4529   0.4574   0.4588
  0.4675   0.4723   0.4780   0.4883   0.4989   0.5010   0.5179   0.5200
  0.5230   0.5325   0.5401   0.5421   0.5453   0.5505   0.5562   0.5716
  0.5906   0.5935   0.5995   0.6042   0.6054   0.6265   0.6421   0.6491
  0.6641   0.6792   0.6835   0.6912   0.6921   0.6975   0.7234   0.7291
  0.7334   0.7369   0.7486   0.7651   0.7672   0.7704   0.7839   0.7899
  0.7951   0.7953   0.7989   0.8069   0.8133   0.8269   0.8292   0.8386
  0.8402   0.8446   0.8473   0.8527   0.8680   0.8820   0.8906   0.9047
  0.9123   0.9239   0.9346   0.9500   0.9579   1.0128   1.0279   1.0454
  1.0497   1.0619   1.0774   1.0849   1.0882   1.0943   1.1062   1.1450
  1.1707   1.1853   1.2544   1.2829   1.2996   1.3225   1.3497   1.3569
  1.3807   1.4374   1.4482   1.4632   1.4644   1.4838   1.5234   1.5415
  1.6042   1.6092   1.6230   1.6297   1.6591   1.6796   1.7397   1.7881
  1.7929   1.8048   1.8135   1.8194   1.8363   1.8690   1.8853   1.9167
  1.9215   1.9362   1.9562   1.9672   1.9879   2.0003   2.0152   2.0293
  2.0335   2.0514   2.0788   2.1016   2.1197   2.1294   2.1724   2.1806
  2.2045   2.2389   2.2520   2.2866   2.2948   2.3121   2.3926   2.4059
  2.4092   2.4158   2.4913   2.5128   2.5474   2.5510   2.5613   2.5849
  2.6211   2.6389   2.6681   2.6965   2.7005   2.7215   2.7643   2.7731
  2.7900   2.8150   2.8271   2.8538   2.8774   2.9045   2.9080   2.9243
  2.9407   2.9486   2.9604   2.9805   3.0009   3.0236   3.0263   3.0482
  3.0634   3.0901   3.1090   3.1278   3.1890   3.1961   3.1982   3.2168
  3.2332   3.2545   3.2973   3.3106   3.3350   3.3536   3.3696   3.3837
  3.4083   3.4441   3.4472   3.4538   3.4761   3.4913   3.4932   3.5060
  3.5213   3.5264   3.5383   3.5477   3.5664   3.5843   3.5928   3.6175
  3.6226   3.6461   3.6631   3.6937   3.7067   3.7488   3.7703   3.8165
  3.8396   3.8813   3.9112   3.9466   3.9557   3.9934   4.0342   4.0493
  4.1346   4.1990   4.2654   4.2821   4.2863   4.3109   4.3253   4.3365
  4.3470   4.3677   4.3842   4.4042   4.4159   4.4580   4.4755   4.5416
  4.6041   4.6175   4.7582   4.7828   4.8322   4.9050   4.9188   4.9372
  5.0266   5.0493   5.1729   5.2656   5.3544   5.3799   5.4968   5.5313
  5.6725   5.8489  22.5915  22.6897  22.8843  22.9001  23.0102  23.0633
 23.4024
 --------------------------------------------------------------

          Ground-State Mulliken Net Atomic Charges

     Atom                 Charge (a.u.)
  ----------------------------------------
      1 C                    -1.051893
      2 C                    -0.397179
      3 C                     0.769023
      4 C                    -0.584158
      5 C                    -0.424987
      6 C                    -0.586488
      7 C                    -0.501217
      8 H                     0.394606
      9 H                     0.375358
     10 H                     0.289265
     11 H                     0.299562
     12 H                     0.397809
     13 H                     0.397741
     14 H                     0.374502
     15 H                     0.248055
  ----------------------------------------
  Sum of atomic charges =     0.000000

 -----------------------------------------------------------------
                    Cartesian Multipole Moments
 -----------------------------------------------------------------
    Charge (ESU x 10^10)
                -0.0000
    Dipole Moment (Debye)
         X      -0.5218      Y      -0.0897      Z       0.1173
       Tot       0.5423
    Quadrupole Moments (Debye-Ang)
        XX     -37.8253     XY      -0.6900     YY     -44.2530
        XZ       1.4643     YZ      -3.4553     ZZ     -40.6814
    Octopole Moments (Debye-Ang^2)
       XXX     -48.0763    XXY     -29.0337    XYY     -24.9537
       YYY    -102.3480    XXZ      94.5424    XYZ      -2.8157
       YYZ     106.6236    XZZ     -22.8304    YZZ     -11.1729
       ZZZ     309.9620
    Hexadecapole Moments (Debye-Ang^3)
      XXXX    -610.7996   XXXY     -58.0127   XXYY    -156.9380
      XYYY     -74.6194   YYYY    -298.6086   XXXZ     163.6612
      XXYZ      82.8254   XYYZ      71.3315   YYYZ     314.6027
      XXZZ    -384.3948   XYZZ      -1.1429   YYZZ    -337.2350
      XZZZ     192.8325   YZZZ     200.6316   ZZZZ   -1834.7844
 -----------------------------------------------------------------
Archival summary:
1\1\compute-0-8.local\SP\ProcedureUnspecified\BasisUnspecified\78\meili\TueSep2823:00:022021TueSep2823:00:022021\0\\#,ProcedureUnspecified,BasisUnspecified,\\0,1\C\C,1,1.39968\H,2,1.08102,1,120.279\C,2,1.39123,1,120.102,3,179.346,0\H,4,1.0804,2,119.531,1,-179.925,0\C,4,1.39813,2,121.557,1,1.6145,0\H,6,1.0812,4,120.755,2,178.198,0\C,6,1.3931,4,118.405,2,-2.13567,0\H,8,1.0805,6,119.713,4,-179.58,0\C,8,1.39665,6,120.442,4,1.27342,0\H,10,1.06952,8,119.101,6,178.925,0\C,1,1.50544,2,121.396,3,0.684465,0\H,12,1.06069,1,102.188,2,-151.64,0\H,12,1.08965,1,109.486,2,-38.0519,0\H,12,1.1,1,113.153,2,84.3684,0\\\@

 Total job time:  11633.67s(wall), 70422.38s(cpu) 
 Tue Sep 28 23:00:02 2021

        *************************************************************
        *                                                           *
        *  Thank you very much for using Q-Chem.  Have a nice day.  *
        *                                                           *
        *************************************************************


Done Job For Fragment 0
calling putenv with: QCSCRATCH=/home/meili/scratch 
calling putenv with: QCTHREADS=8 
Creating input file /home/meili/scratch/qchem59884/Frg2.input
using default PutDataFrgm: nothing
calling putenv with: QCSCRATCH=/home/meili/scratch/qchem59884/ 
Spawning Job For Fragment 1
                  Welcome to Q-Chem
     A Quantum Leap Into The Future Of Chemistry


 Q-Chem 5.2 (devel), Q-Chem, Inc., Pleasanton, CA (2019)

 Yihan Shao,  Zhengting Gan,  E. Epifanovsky,  A. T. B. Gilbert,  M. Wormit,  
 J. Kussmann,  A. W. Lange,  A. Behn,  Jia Deng,  Xintian Feng,  D. Ghosh,  
 M. Goldey,  P. R. Horn,  L. D. Jacobson,  I. Kaliman,  T. Kus,  A. Landau,  
 Jie Liu,  E. I. Proynov,  R. M. Richard,  R. P. Steele,  E. J. Sundstrom,  
 H. L. Woodcock III,  P. M. Zimmerman,  D. Zuev,  B. Albrecht,  E. Alguire,  
 S. A. Baeppler,  D. Barton,  Z. Benda,  Y. A. Bernard,  E. J. Berquist,  
 K. B. Bravaya,  H. Burton,  D. Casanova,  Chun-Min Chang,  Yunqing Chen,  
 A. Chien,  K. D. Closser,  M. P. Coons,  S. Coriani,  S. Dasgupta,  
 A. L. Dempwolff,  M. Diedenhofen,  Hainam Do,  R. G. Edgar,  Po-Tung Fang,  
 S. Faraji,  S. Fatehi,  Qingguo Feng,  K. D. Fenk,  J. Fosso-Tande,  
 J. Gayvert,  Qinghui Ge,  A. Ghysels,  G. Gidofalvi,  J. Gomes,  
 J. Gonthier,  A. Gunina,  D. Hait,  M. W. D. Hanson-Heine,  
 P. H. P. Harbach,  A. W. Hauser,  M. F. Herbst,  J. E. Herr,  
 E. G. Hohenstein,  Z. C. Holden,  Kerwin Hui,  B. C. Huynh,  T.-C. Jagau,  
 Hyunjun Ji,  B. Kaduk,  K. Khistyaev,  Jaehoon Kim,  P. Klunzinger,  K. Koh,  
 D. Kosenkov,  L. Koulias,  T. Kowalczyk,  C. M. Krauter,  A. Kunitsa,  
 Ka Un Lao,  A. Laurent,  K. V. Lawler,  Joonho Lee,  D. Lefrancois,  
 S. Lehtola,  D. S. Levine,  Yi-Pei Li,  You-Sheng Lin,  Fenglai Liu,  
 E. Livshits,  A. Luenser,  P. Manohar,  E. Mansoor,  S. F. Manzer,  
 Shan-Ping Mao,  Yuezhi Mao,  N. Mardirossian,  A. V. Marenich,  
 T. Markovich,  L. A. Martinez-Martinez,  S. A. Maurer,  N. J. Mayhall,  
 S. C. McKenzie,  J.-M. Mewes,  P. Morgante,  A. F. Morrison,  
 J. W. Mullinax,  K. Nanda,  T. S. Nguyen-Beck,  R. Olivares-Amaya,  
 J. A. Parkhill,  Zheng Pei,  T. M. Perrine,  F. Plasser,  P. Pokhilko,  
 S. Prager,  A. Prociuk,  E. Ramos,  D. R. Rehn,  F. Rob,  M. Scheurer,  
 M. Schneider,  N. Sergueev,  S. M. Sharada,  S. Sharma,  D. W. Small,  
 T. Stauch,  T. Stein,  Yu-Chuan Su,  A. J. W. Thom,  A. Tkatchenko,  
 T. Tsuchimochi,  N. M. Tubman,  L. Vogt,  M. L. Vidal,  O. Vydrov,  
 M. A. Watson,  J. Wenzel,  M. de Wergifosse,  T. A. Wesolowski,  A. White,  
 J. Witte,  A. Yamada,  Jun Yang,  K. Yao,  S. Yeganeh,  S. R. Yost,  
 Zhi-Qiang You,  A. Zech,  Igor Ying Zhang,  Xing Zhang,  Yan Zhao,  
 Ying Zhu,  B. R. Brooks,  G. K. L. Chan,  C. J. Cramer,  M. S. Gordon,  
 W. J. Hehre,  A. Klamt,  M. W. Schmidt,  C. D. Sherrill,  D. G. Truhlar,  
 A. Aspuru-Guzik,  R. Baer,  A. T. Bell,  N. A. Besley,  Jeng-Da Chai,  
 A. E. DePrince, III,  R. A. DiStasio Jr.,  A. Dreuw,  B. D. Dunietz,  
 T. R. Furlani,  Chao-Ping Hsu,  Yousung Jung,  Jing Kong,  D. S. Lambrecht,  
 WanZhen Liang,  C. Ochsenfeld,  V. A. Rassolov,  L. V. Slipchenko,  
 J. E. Subotnik,  T. Van Voorhis,  J. M. Herbert,  A. I. Krylov,  
 P. M. W. Gill,  M. Head-Gordon

 Contributors to earlier versions of Q-Chem not listed above: 
 R. D. Adamson,  B. Austin,  J. Baker,  G. J. O. Beran,  K. Brandhorst,  
 S. T. Brown,  E. F. C. Byrd,  A. K. Chakraborty,  C.-L. Cheng,  
 Siu Hung Chien,  D. M. Chipman,  D. L. Crittenden,  H. Dachsel,  
 R. J. Doerksen,  A. D. Dutoi,  L. Fusti-Molnar,  W. A. Goddard III,  
 A. Golubeva-Zadorozhnaya,  S. R. Gwaltney,  G. Hawkins,  A. Heyden,  
 S. Hirata,  G. Kedziora,  F. J. Keil,  C. Kelley,  Jihan Kim,  R. A. King,  
 R. Z. Khaliullin,  P. P. Korambath,  W. Kurlancheek,  A. M. Lee,  M. S. Lee,  
 S. V. Levchenko,  Ching Yeh Lin,  D. Liotard,  R. C. Lochan,  I. Lotan,  
 P. E. Maslen,  N. Nair,  D. P. O'Neill,  D. Neuhauser,  E. Neuscamman,  
 C. M. Oana,  R. Olson,  B. Peters,  R. Peverati,  P. A. Pieniazek,  
 Y. M. Rhee,  J. Ritchie,  M. A. Rohrdanz,  E. Rosta,  N. J. Russ,  
 H. F. Schaefer III,  N. E. Schultz,  N. Shenvi,  A. C. Simmonett,  A. Sodt,  
 D. Stuck,  K. S. Thanthiriwatte,  V. Vanovschi,  Tao Wang,  A. Warshel,  
 C. F. Williams,  Q. Wu,  X. Xu,  W. Zhang

 Please cite Q-Chem as follows:
 Y. Shao et al., Mol. Phys. 113, 184-215 (2015)
 DOI: 10.1080/00268976.2014.952696

 Q-Chem 5.2.1 for Intel X86 EM64T Linux

 Parts of Q-Chem use Armadillo 8.300.2 (Tropical Shenanigans).
 http://arma.sourceforge.net/

 Q-Chem begins on Tue Sep 28 23:00:03 2021  

compute-0-8.local
Host: 0

     Scratch files written to /home/meili/scratch/qchem59884//Frg2//
NAlpha2: 70
NElect   70
Mult     1
Symmetry turned off for PCM/SM12/SMD calculation

Checking the input file for inconsistencies... 	...done.

--------------------------------------------------------------
User input:
--------------------------------------------------------------
$molecule
0 1
 6	2.1911706453	0.4920204674	2.8008969916
 6	-0.7558293547	-1.2829795326	1.4578969916
 6	-0.2098293547	-0.1169795326	2.0798969916
 6	1.1861706453	-0.3969795326	2.2088969916
 6	1.3901706453	-1.6149795326	1.6608969916
 6	-2.0468293547	-1.5769795326	1.1008969916
 6	-2.6648293547	-0.4519795326	1.2248969916
 6	-1.0638293547	0.9370204674	2.3938969916
 6	-2.2868293547	0.8050204674	1.9038969916
 7	0.2571706453	-2.1449795326	1.2408969916
 1	0.1891706453	-3.0159795326	0.7328969916
 1	-2.3588293547	-2.4259795326	0.5258969916
 1	2.3341706453	-1.9479795326	1.3108969916
 1	-3.0798293547	-0.4409795326	0.2468969916
 1	-0.6998293547	1.8680204674	2.8038969916
 1	2.6041706453	0.0260204674	3.6968969916
 1	1.6831706453	1.4090204674	3.1018969916
 1	-2.8038293547	1.6970204674	1.6798969916
 1	2.9939306453	0.7285154674	2.0870069916
$end
$rem
EDA2		1
METHOD		WB97X-V
BASIS		DEF2-TZVPD
XC_GRID		000099000590
NL_GRID		1
UNRESTRICTED		FALSE
MAX_SCF_CYCLES		200
SYMMETRY		FALSE
SYM_IGNORE		TRUE
BASIS_LIN_DEP_THRESH		6
THRESH		14
SCF_CONVERGENCE		8
SCF_PRINT_FRGM		TRUE
SOLVENT_METHOD		SMD
!required keywords
JOBTYPE		SP
SYM_IGNORE		TRUE
SUBSYSTEM		TRUE
GEN_SCFMAN		TRUE
CHILD_INSTRUCTION		2
SYM_IGNORE		TRUE
SCFMI		0
RI_K 0		
PARI_K 0		
MIN_PARI_K 0		
IARI_K 0		
OCC_RI_K 0		
PURECART		1111
MEM_STATIC		2000
MEM_TOTAL		2000
GUI		0
CHILD_MP		1
CHILD_MP_ORDERS		232
FRZ_RELAX		0
FRZ_RELAX_METHOD		0
EDA_CLS_ELEC		1
EDA_CLS_DISP		0
FRZ_ORTHO_DECOMP		1
EDA2		FALSE
FRGM_METHOD		FALSE
CIS_N_ROOTS  0
LOCAL_CIS    0
CIS_RLX_DNS  1
$end
$smx
SOLVENT			WATER
$end
--------------------------------------------------------------
 ----------------------------------------------------------------
             Standard Nuclear Orientation (Angstroms)
    I     Atom           X                Y                Z
 ----------------------------------------------------------------
    1      C       2.1911706453     0.4920204674     2.8008969916
    2      C      -0.7558293547    -1.2829795326     1.4578969916
    3      C      -0.2098293547    -0.1169795326     2.0798969916
    4      C       1.1861706453    -0.3969795326     2.2088969916
    5      C       1.3901706453    -1.6149795326     1.6608969916
    6      C      -2.0468293547    -1.5769795326     1.1008969916
    7      C      -2.6648293547    -0.4519795326     1.2248969916
    8      C      -1.0638293547     0.9370204674     2.3938969916
    9      C      -2.2868293547     0.8050204674     1.9038969916
   10      N       0.2571706453    -2.1449795326     1.2408969916
   11      H       0.1891706453    -3.0159795326     0.7328969916
   12      H      -2.3588293547    -2.4259795326     0.5258969916
   13      H       2.3341706453    -1.9479795326     1.3108969916
   14      H      -3.0798293547    -0.4409795326     0.2468969916
   15      H      -0.6998293547     1.8680204674     2.8038969916
   16      H       2.6041706453     0.0260204674     3.6968969916
   17      H       1.6831706453     1.4090204674     3.1018969916
   18      H      -2.8038293547     1.6970204674     1.6798969916
   19      H       2.9939306453     0.7285154674     2.0870069916
 ----------------------------------------------------------------
 Nuclear Repulsion Energy =         495.11440653 hartrees
 There are       35 alpha and       35 beta electrons
 Requested basis set is def2-TZVPD
 There are 175 shells and 451 basis functions

 Total QAlloc Memory Limit   2000 MB
 Mega-Array Size      1956 MB
 MEM_STATIC part      2000 MB

 Citation of the SMD model:
 Marenich, A.V.; Cramer, C.J.; Truhlar, D.G.
 J. Phys. Chem. B 2009, 113, 6378-6396.
 iSolventCode=           1
 Solvent: water                                                           

 vradii
            1           2           3           4           5           6
    1   1.8500000   1.8500000   1.8500000   1.8500000   1.8500000   1.8500000
            7           8           9          10          11          12
    1   1.8500000   1.8500000   1.8500000   1.8900000   1.2000000   1.2000000
           13          14          15          16          17          18
    1   1.2000000   1.2000000   1.2000000   1.2000000   1.2000000   1.2000000
           19
    1   1.2000000
 Changing PCM_VDW_RADII to SMD_RADIUS
 Discretize the solute cavity surface with Lebedev spheres
	Using 110 Lebedev grid points for each H atom
	Using 194 Lebedev grid points for other atoms
	Atomic van der Waals radii will be scaled by 1.20
 Remove points where switching function is < 1.0e-08
 Keep 1339 surface tesserae and discard 1591 interior tesserae
 Molecular Surface Area = 161.183 Angst**2
 A cutoff of  1.0D-14 yielded  14565 shell pairs
 There are     98899 function pairs (    127272 Cartesian)
 Smallest overlap matrix eigenvalue = 5.17E-07
 Linear dependence detected in AO basis
 Tighter screening thresholds may be required for diffuse basis sets
 Use S2THRESH > 14 and THRESH = 14 in case of SCF convergence issues
 Number of orthogonalized atomic orbitals = 448
 Maximum deviation from orthogonality = 9.696E-11

 Scale SEOQF with 1.000000e-01/1.000000e-01/1.000000e-01

 Standard Electronic Orientation quadrupole field applied
 Nucleus-field energy     =    -0.0000000119 hartrees
 Guess from superposition of atomic densities
 Warning:  Energy on first SCF cycle will be non-variational
 SAD guess density has 70.000000 electrons

 -----------------------------------------------------------------------
  General SCF calculation program by
  Eric Jon Sundstrom, Paul Horn, Yuezhi Mao, Dmitri Zuev, Alec White,
  David Stuck, Shaama M.S., Shane Yost, Joonho Lee, David Small,
  Daniel Levine, Susi Lehtola, Hugh Burton, Evgeny Epifanovsky,
  Bang C. Huynh
 -----------------------------------------------------------------------
 Exchange:     0.1670 Hartree-Fock + 1.0000 wB97X-V + LR-HF
 Correlation:  1.0000 wB97X-V
 Using Euler-Maclaurin-Lebedev (99,590) quadrature formula
 Nonlocal Correlation:  VV10 with C = 0.0100 and b = 6.00 and scale = 1.00000
 Grid used for NLC:  SG-1 standard quadrature
Energy prior to optimization (guess energy) = -402.962608432190
Begin Timing: Total SCF Calculation
begin iterations for algorithm: DIIS         
the SCF tolerance is set to 1.00e-08
    1    -402.9626084322      1.82e-03     00000 
    2    -403.0246774373      1.27e-03     00000 
    3    -403.0682450817      2.59e-04     00000 
    4    -403.0703115338      1.19e-04     00000 
    5    -403.0708318270      4.25e-05     00000 
    6    -403.0708972235      1.37e-05     00000 
    7    -403.0709051698      5.29e-06     00000 
    8    -403.0709071718      1.47e-06     00000 
    9    -403.0709074994      5.56e-07     00000 
   10    -403.0709075547      2.80e-07     00000 
   11    -403.0709075631      1.13e-07     00000 
   12    -403.0709075650      3.45e-08     00000 
   13    -403.0709075652      1.55e-08     00000 
   14    -403.0709075652      5.29e-09     00000 Convergence criterion met
Timing for Total SCF: 1617.00s (wall), 10167.87s (cpu)
(3)  G-ENP(liq) elect-nuc-pol free energy of system     -403.070907565 a.u.
(4)  G-CDS(liq) cavity-dispersion-solvent structure 
     free energy                                                3.6778 kcal/mol
(6)  G-S(liq) free energy of system                     -403.065046688 a.u.
E_pcm = -0.0177062183
E_cds = 0.0058608771
Multipole orders to be included
        2
        3
computing dipole RHS
computing quadrupole RHS
total number of RHS in solve_reponses: 8
RHS batch sizes
        8
Beginning Block Conjugate Gradient Iterations. Batch Number: 0
computing hessian-vector products by finite difference
              1      6.70e-01     00000 Conjugate Gradient Iteration
computing hessian-vector products by finite difference
              2      2.27e-01     00000 Conjugate Gradient Iteration
computing hessian-vector products by finite difference
              3      7.61e-02     00000 Conjugate Gradient Iteration
computing hessian-vector products by finite difference
              4      2.96e-02     00000 Conjugate Gradient Iteration
computing hessian-vector products by finite difference
              5      1.18e-02     00000 Conjugate Gradient Iteration
computing hessian-vector products by finite difference
              6      3.88e-03     00000 Conjugate Gradient Iteration
computing hessian-vector products by finite difference
              7      1.14e-03     00000 Conjugate Gradient Iteration
computing hessian-vector products by finite difference
              8      2.15e-04     00000 Conjugate Gradient Iteration
computing hessian-vector products by finite difference
              9      4.16e-05     00000 Conjugate Gradient Iteration
computing hessian-vector products by finite difference
             10      9.50e-06     00000 Conjugate Gradient Iteration
computing hessian-vector products by finite difference
             11      1.76e-06     00000 Conjugate Gradient Iteration
computing hessian-vector products by finite difference
             12      2.63e-07     00000 Conjugate Gradient Iteration
computing hessian-vector products by finite difference
             13      4.00e-08     00000 Conjugate Gradient Iteration
computing hessian-vector products by finite difference
             14      9.17e-09     00000 CG Converged
batch 0 complete
Done Calculating Responses
TESTING ORTHOGONALIZATION OF MULTIPOLE BASIS
Multipole virts passed orthogonality test
Virts Per Order
          105
          175

 --------------------------------------------------------------

                    Orbital Energies (a.u.)
 --------------------------------------------------------------

 Alpha MOs
 -- Occupied --
-14.4346 -10.2901 -10.2700 -10.2627 -10.2586 -10.2582 -10.2553 -10.2493
-10.2492 -10.2471  -1.1265  -0.9954  -0.9395  -0.8905  -0.8489  -0.8145
 -0.7373  -0.7084  -0.6808  -0.6532  -0.5926  -0.5777  -0.5673  -0.5557
 -0.5402  -0.5130  -0.5068  -0.4933  -0.4778  -0.4516  -0.4374  -0.4177
 -0.3675  -0.3058  -0.2776
 -- Virtual --
  0.0560   0.0676   0.0813   0.0823   0.0862   0.1041   0.1073   0.1125
  0.1243   0.1341   0.1382   0.1496   0.1616   0.1671   0.1684   0.1757
  0.1901   0.1923   0.1978   0.2089   0.2207   0.2319   0.2345   0.2406
  0.2490   0.2546   0.2595   0.2661   0.2744   0.2759   0.2802   0.2867
  0.2907   0.2932   0.3022   0.3040   0.3047   0.3140   0.3180   0.3214
  0.3283   0.3328   0.3406   0.3450   0.3508   0.3542   0.3573   0.3628
  0.3652   0.3690   0.3754   0.3810   0.3898   0.3917   0.4010   0.4030
  0.4059   0.4091   0.4136   0.4202   0.4269   0.4299   0.4337   0.4427
  0.4479   0.4490   0.4530   0.4663   0.4715   0.4747   0.4836   0.4924
  0.4949   0.5043   0.5055   0.5078   0.5131   0.5155   0.5242   0.5298
  0.5374   0.5429   0.5465   0.5510   0.5517   0.5592   0.5672   0.5750
  0.5776   0.5840   0.5912   0.5930   0.6052   0.6114   0.6166   0.6255
  0.6364   0.6433   0.6519   0.6552   0.6661   0.6708   0.6814   0.6854
  0.6933   0.6986   0.7105   0.7131   0.7208   0.7288   0.7332   0.7349
  0.7404   0.7441   0.7473   0.7570   0.7633   0.7703   0.7740   0.7767
  0.7875   0.7892   0.7916   0.8020   0.8092   0.8130   0.8167   0.8214
  0.8266   0.8305   0.8413   0.8469   0.8524   0.8569   0.8598   0.8680
  0.8745   0.8934   0.8964   0.9022   0.9121   0.9250   0.9341   0.9446
  0.9554   0.9642   0.9681   0.9802   0.9929   0.9994   1.0109   1.0243
  1.0305   1.0382   1.0512   1.0635   1.0738   1.0863   1.1089   1.1150
  1.1274   1.1380   1.1585   1.1660   1.1690   1.2144   1.2242   1.2353
  1.2410   1.2690   1.2869   1.3238   1.3302   1.3494   1.3661   1.3701
  1.3990   1.4100   1.4145   1.4355   1.4506   1.4516   1.4709   1.4845
  1.5056   1.5359   1.5553   1.5570   1.5782   1.5865   1.6171   1.6337
  1.6411   1.6759   1.6797   1.6990   1.7139   1.7371   1.7586   1.7689
  1.7893   1.8034   1.8308   1.8475   1.8693   1.8932   1.9043   1.9155
  1.9177   1.9425   1.9452   1.9696   1.9781   1.9865   1.9928   2.0145
  2.0216   2.0386   2.0538   2.0645   2.0768   2.0843   2.1037   2.1077
  2.1412   2.1517   2.1600   2.1706   2.2134   2.2235   2.2369   2.2423
  2.2679   2.2880   2.2940   2.3165   2.3237   2.3299   2.3606   2.3801
  2.3971   2.4368   2.4646   2.4767   2.4896   2.5154   2.5200   2.5407
  2.5549   2.5789   2.6062   2.6158   2.6310   2.6362   2.6486   2.6546
  2.6860   2.7028   2.7300   2.7397   2.7746   2.7766   2.7957   2.8132
  2.8321   2.8584   2.8640   2.8907   2.9017   2.9037   2.9285   2.9358
  2.9468   2.9744   2.9856   2.9941   3.0017   3.0099   3.0426   3.0465
  3.0630   3.0772   3.0938   3.1159   3.1287   3.1308   3.1690   3.1706
  3.1955   3.2021   3.2151   3.2330   3.2405   3.2689   3.2746   3.2888
  3.2915   3.3037   3.3147   3.3412   3.3631   3.3664   3.3833   3.3913
  3.4134   3.4319   3.4411   3.4461   3.4546   3.4675   3.4825   3.5115
  3.5220   3.5234   3.5330   3.5449   3.5513   3.5667   3.5755   3.5897
  3.5950   3.6230   3.6361   3.6559   3.6665   3.6748   3.6901   3.7053
  3.7321   3.7477   3.7532   3.7690   3.8021   3.8287   3.8484   3.8707
  3.8862   3.9078   3.9196   3.9475   3.9593   3.9913   4.0201   4.0535
  4.0883   4.0965   4.1256   4.1445   4.1859   4.2085   4.2298   4.2536
  4.2670   4.2992   4.3121   4.3380   4.3938   4.4210   4.4332   4.4453
  4.4823   4.5099   4.5416   4.5592   4.5758   4.6103   4.6236   4.6457
  4.7016   4.7218   4.7639   4.8074   4.8267   4.8486   4.9069   4.9287
  4.9605   5.0024   5.0222   5.0487   5.0676   5.0918   5.1011   5.1084
  5.1597   5.1996   5.2320   5.2693   5.3269   5.3605   5.4274   5.4617
  5.4952   5.5349   5.6099   5.6494   5.7123   5.7654   5.8299   5.9128
  6.0096   6.2665   6.3741  22.7263  22.8131  22.8732  23.0576  23.2135
 23.3593  23.4033  23.5692  23.7839  32.8700
 --------------------------------------------------------------

          Ground-State Mulliken Net Atomic Charges

     Atom                 Charge (a.u.)
  ----------------------------------------
      1 C                    -1.024859
      2 C                     0.265677
      3 C                     0.579952
      4 C                     0.391507
      5 C                    -0.565880
      6 C                    -0.830415
      7 C                    -0.339230
      8 C                    -0.502577
      9 C                    -0.701804
     10 N                     0.082878
     11 H                     0.230764
     12 H                     0.333453
     13 H                     0.324048
     14 H                     0.250357
     15 H                     0.378273
     16 H                     0.244745
     17 H                     0.264382
     18 H                     0.362885
     19 H                     0.255845
  ----------------------------------------
  Sum of atomic charges =     0.000000

 -----------------------------------------------------------------
                    Cartesian Multipole Moments
 -----------------------------------------------------------------
    Charge (ESU x 10^10)
                -0.0000
    Dipole Moment (Debye)
         X       2.2124      Y      -2.2714      Z      -2.6106
       Tot       4.1072
    Quadrupole Moments (Debye-Ang)
        XX     -63.7566     XY      -0.6362     YY     -45.9046
        XZ       7.3686     YZ       4.1522     ZZ     -67.7541
    Octopole Moments (Debye-Ang^2)
       XXX      99.5551    XXY      24.6682    XYY      15.5276
       YYY      54.5292    XXZ    -128.7098    XYZ      -4.1432
       YYZ    -103.3182    XZZ      38.9601    YZZ      44.6920
       ZZZ    -348.7225
    Hexadecapole Moments (Debye-Ang^3)
      XXXX   -1236.3129   XXXY     -26.3793   XXYY    -263.2577
      XYYY      -7.7324   YYYY    -467.1096   XXXZ      93.0560
      XXYZ      28.8577   XYYZ      -0.4412   YYYZ      78.8126
      XXZZ    -473.5337   XYZZ      -7.4000   YYZZ    -336.4906
      XZZZ      61.5292   YZZZ     108.1105   ZZZZ   -1459.5865
 -----------------------------------------------------------------
Archival summary:
1\1\compute-0-8.local\SP\ProcedureUnspecified\BasisUnspecified\199\meili\WedSep2908:12:562021WedSep2908:12:562021\0\\#,ProcedureUnspecified,BasisUnspecified,\\0,1\C\N,1,1.3477\H,2,1.01061,1,125.564\C,2,1.31947,1,109.71,3,173.015,0\H,4,1.06044,2,122.222,1,-158.952,0\C,4,1.35109,2,111.196,1,1.68866,0\C,1,1.37134,2,121.909,3,6.27768,0\H,7,1.07181,1,125.699,2,-8.00408,0\C,7,1.28954,1,103.833,2,-168.36,0\H,9,1.06246,7,96.1833,1,126.883,0\C,6,1.42964,4,106.702,2,-2.0426,0\C,11,1.39242,6,136.619,4,-178.288,0\H,12,1.08044,11,122.087,6,3.98262,0\C,12,1.3241,11,114.053,6,171.036,0\H,14,1.05505,12,116.544,11,-150.428,0\C,6,1.46656,4,127.353,2,179.095,0\H,16,1.09067,6,107.57,4,177.413,0\H,16,1.09112,6,109.389,4,-65.5366,0\H,16,1.1,6,111.62,4,56.938,0\\\@

 Total job time:  33173.11s(wall), 207597.21s(cpu) 
 Wed Sep 29 08:12:56 2021

        *************************************************************
        *                                                           *
        *  Thank you very much for using Q-Chem.  Have a nice day.  *
        *                                                           *
        *************************************************************


Done Job For Fragment 1
calling putenv with: QCSCRATCH=/home/meili/scratch 
calling putenv with: QCTHREADS=8 
Doing General SCFMI
 Exchange:     0.1670 Hartree-Fock + 1.0000 wB97X-V + LR-HF
 Correlation:  1.0000 wB97X-V
 Using Euler-Maclaurin-Lebedev (99,590) quadrature formula
 Nonlocal Correlation:  VV10 with C = 0.0100 and b = 6.00 and scale = 1.00000
 Grid used for NLC:  SG-1 standard quadrature
performing fock build before subrot guess so that all methods have access
Printing subrot_rss_gen Method Specification:
Occupied Subspace Method is 0
Virtual Subspace Method is 0
Energy of the unrelaxed supersystem initial determinant -674.628142506282
performing fock build before subrot guess so that all methods have access
Printing subrot_rss_gen Method Specification:
Occupied Subspace Method is 0
Virtual Subspace Method is 0
Energy of the unrelaxed supersystem initial determinant w/ solvent -674.652912658491
write pseudocanon occs and virts to disk
write pseudocanon orbital energies to disk
Tolerance of ortho_decomp_scf: 1.00e-06
GDM subspace size: 20
Beginning the Orthogonal Decomposition of the Initial Supersystem Wavefunction
    1    -674.5870687114      2.61e-02     ortho_decomp Preconditoned Steepest Descent
    2    -674.5912723285      7.18e-04     ortho_decomp BFGS Step
    3    -674.5912879389      5.91e-05     ortho_decomp BFGS Step
    4    -674.5912879765      2.83e-06     ortho_decomp BFGS Step
    5    -674.5912879766      1.41e-07     ortho_decomp 00000 Convergence criterion met
 Hartree-Fock
 Hartree-Fock
 Hartree-Fock
Doing General SCFMI
 Exchange:     0.1670 Hartree-Fock + 1.0000 wB97X-V + LR-HF
 Correlation:  1.0000 wB97X-V
 Using Euler-Maclaurin-Lebedev (99,590) quadrature formula
 Nonlocal Correlation:  VV10 with C = 0.0100 and b = 6.00 and scale = 1.00000
 Grid used for NLC:  SG-1 standard quadrature
performing fock build at end of subrot_r(subrot) constructor so that all methods have access
<S^2> of initial wavefunction before polarization iterations 0.0000000000
Beginning iterations for the determination of the polarized wavefunction
Energy prior to optimization (guess energy) = -674.652912658491
Begin Timing: Total SCF Calculation
begin iterations for algorithm: DIIS         
the SCF tolerance is set to 1.00e-08
    1    -674.6529126585      6.54e-05     00000 
    2    -674.6535538817      2.44e-05     00000 
    3    -674.6536178655      1.30e-05     00000 
    4    -674.6536371174      4.08e-06     00000 
    5    -674.6536398418      2.22e-06     00000 
    6    -674.6536408382      9.84e-07     00000 
    7    -674.6536409991      5.19e-07     00000 
    8    -674.6536410232      3.14e-07     00000 
    9    -674.6536410297      1.80e-07     00000 
   10    -674.6536410320      1.05e-07     00000 
   11    -674.6536410328      5.36e-08     00000 
   12    -674.6536410330      2.35e-08     00000 
   13    -674.6536410331      1.25e-08     00000 
   14    -674.6536410331      5.23e-09     00000 Convergence criterion met
write pseudocanon occs and virts to disk
write pseudocanon orbital energies to disk
Timing for Total SCF: 9523.00s (wall), 61542.19s (cpu)
<S^2> of polarized wavefunction after polarization iterations 0.0000000000
relaxing scfmi constraint to allow all rotations in the entire AO span
Doing General SCFMI
 Exchange:     0.1670 Hartree-Fock + 1.0000 wB97X-V + LR-HF
 Correlation:  1.0000 wB97X-V
 Using Euler-Maclaurin-Lebedev (99,590) quadrature formula
 Nonlocal Correlation:  VV10 with C = 0.0100 and b = 6.00 and scale = 1.00000
 Grid used for NLC:  SG-1 standard quadrature
performing fock build at end of subrot_r(subrot) constructor so that all methods have access
<S^2> of polarized wavefunction before ct-allowed iterations 0.0000000000
Beginning iterations for the determination of the CT-Allowed wavefunction
Energy prior to optimization (guess energy) = -674.653641033121
Begin Timing: Total SCF Calculation
begin iterations for algorithm: DIIS         
the SCF tolerance is set to 1.00e-08
    1    -674.6536410331      8.77e-05     00000 
    2    -674.6560673241      1.01e-05     00000 
    3    -674.6561459395      1.66e-06     00000 
    4    -674.6561484553      8.10e-07     00000 
    5    -674.6561486621      2.00e-07     00000 
    6    -674.6561486840      6.43e-08     00000 
    7    -674.6561486856      1.92e-08     00000 
    8    -674.6561486859      8.38e-09     00000 Convergence criterion met
write pseudocanon occs and virts to disk
write pseudocanon orbital energies to disk
Timing for Total SCF: 5935.00s (wall), 38298.51s (cpu)
<S^2> of ct_allowed wavefunction after ct-allowed iterations 0.0000000000

================================
        Results of EDA2         
================================
Basic EDA Quantities
--------------------
Fragment Energies (Ha):
1 -271.5771153636
2 -403.0650466881
--------------------
  E_prp (kJ/mol) = 0.0000
  E_sol (kJ/mol) = -0.7740
  E_frz (kJ/mol) = -0.8800
  E_pol (kJ/mol) = -1.9124
  E_vct (kJ/mol) = -6.5839
  E_int (kJ/mol) = -10.1502
--------------------


Initial Wavefunction Decomposition
--------------------
  --------------------
  Orthogonal Fragment Subspace Decomposition:
  --------------------
     E_elec   (ELEC)   (kJ/mol) = -42.4642
     E_pauli  (PAULI)  (kJ/mol) = 74.9043
     E_disp   (DISP)   (kJ/mol) = -33.3201
     --------------------
     Terms summing to E_pauli:
     --------------------
        E_kep_pauli       (kJ/mol) = 95.8827
        E_disp_free_pauli (kJ/mol) = -20.9784
  --------------------
  Classical Frozen Decomposition:
  --------------------
     E_cls_elec  (CLS ELEC)  (kJ/mol) = -19.6866
     E_cls_pauli (CLS PAULI) (kJ/mol) = 18.8067
    [E_mod_pauli (MOD PAULI) (kJ/mol) = 52.1267 (CLS PAULI - DISP from orthogonal decomposition) ]
  --------------------
--------------------

Simplified EDA Summary (kJ/mol)
--------------------
 PREPARATION     0.0000
 SOLVATION       -0.7740
 FROZEN          32.4401      (does not include dispersion)
[PAULI           74.9043]     (if this is negligible, then frozen describes electrostatics)
 DISPERSION      -33.3201
 POLARIZATION    -1.9124
 CHARGE TRANSFER -6.5839
 TOTAL           -10.1502     (PRP + SOL + FRZ + DISP + POL + CT)
--------------------

 --------------------------------------------------------------

                    Orbital Energies (a.u.)
 --------------------------------------------------------------

 Alpha MOs
 -- Occupied --
-14.4360 -10.2910 -10.2779 -10.2712 -10.2684 -10.2678 -10.2660 -10.2642
-10.2637 -10.2630 -10.2596 -10.2583 -10.2562 -10.2498 -10.2492 -10.2491
-10.2483  -1.1281  -0.9967  -0.9907  -0.9405  -0.9022  -0.8913  -0.8730
 -0.8503  -0.8155  -0.8084  -0.7382  -0.7240  -0.7098  -0.6995  -0.6817
 -0.6542  -0.6241  -0.5950  -0.5817  -0.5692  -0.5691  -0.5613  -0.5539
 -0.5418  -0.5337  -0.5203  -0.5133  -0.5093  -0.5075  -0.4975  -0.4856
 -0.4694  -0.4674  -0.4521  -0.4382  -0.4347  -0.4290  -0.4183  -0.3688
 -0.3454  -0.3339  -0.3067  -0.2787
 -- Virtual --
  0.0535   0.0623   0.0667   0.0692   0.0751   0.0794   0.0829   0.0840
  0.0940   0.0977   0.1017   0.1038   0.1117   0.1141   0.1220   0.1295
  0.1368   0.1399   0.1470   0.1517   0.1570   0.1606   0.1662   0.1697
  0.1787   0.1824   0.1870   0.1916   0.1928   0.2029   0.2045   0.2115
  0.2184   0.2259   0.2288   0.2313   0.2322   0.2368   0.2402   0.2487
  0.2492   0.2524   0.2574   0.2615   0.2646   0.2667   0.2682   0.2743
  0.2784   0.2817   0.2840   0.2861   0.2873   0.2940   0.2968   0.3010
  0.3036   0.3051   0.3068   0.3129   0.3144   0.3163   0.3197   0.3236
  0.3247   0.3310   0.3342   0.3353   0.3393   0.3415   0.3480   0.3488
  0.3506   0.3534   0.3574   0.3597   0.3624   0.3641   0.3677   0.3692
  0.3723   0.3740   0.3771   0.3833   0.3880   0.3909   0.3938   0.3990
  0.3992   0.4021   0.4043   0.4056   0.4070   0.4120   0.4181   0.4193
  0.4195   0.4220   0.4242   0.4267   0.4318   0.4340   0.4384   0.4405
  0.4434   0.4461   0.4490   0.4526   0.4580   0.4589   0.4650   0.4680
  0.4725   0.4771   0.4784   0.4796   0.4831   0.4840   0.4956   0.5007
  0.5010   0.5031   0.5054   0.5091   0.5110   0.5140   0.5169   0.5210
  0.5248   0.5298   0.5306   0.5343   0.5367   0.5404   0.5457   0.5463
  0.5519   0.5555   0.5583   0.5671   0.5689   0.5727   0.5737   0.5760
  0.5793   0.5846   0.5879   0.5920   0.5969   0.6000   0.6033   0.6067
  0.6120   0.6164   0.6213   0.6243   0.6316   0.6353   0.6382   0.6395
  0.6412   0.6440   0.6500   0.6519   0.6547   0.6627   0.6647   0.6702
  0.6748   0.6799   0.6841   0.6881   0.6920   0.6957   0.7008   0.7031
  0.7097   0.7109   0.7152   0.7205   0.7233   0.7249   0.7307   0.7330
  0.7342   0.7414   0.7437   0.7462   0.7495   0.7556   0.7559   0.7607
  0.7616   0.7649   0.7714   0.7750   0.7760   0.7822   0.7837   0.7884
  0.7934   0.7956   0.7977   0.8029   0.8045   0.8048   0.8087   0.8110
  0.8136   0.8177   0.8185   0.8230   0.8238   0.8300   0.8320   0.8358
  0.8411   0.8430   0.8464   0.8498   0.8525   0.8563   0.8584   0.8641
  0.8668   0.8711   0.8724   0.8742   0.8866   0.8898   0.8922   0.8964
  0.8983   0.9001   0.9046   0.9103   0.9165   0.9191   0.9250   0.9276
  0.9331   0.9380   0.9433   0.9440   0.9488   0.9528   0.9648   0.9684
  0.9754   0.9895   0.9935   0.9963   1.0010   1.0025   1.0120   1.0222
  1.0305   1.0390   1.0454   1.0500   1.0542   1.0573   1.0620   1.0671
  1.0752   1.0779   1.0817   1.0838   1.0940   1.1012   1.1053   1.1107
  1.1126   1.1152   1.1285   1.1328   1.1373   1.1548   1.1640   1.1721
  1.1820   1.1865   1.1994   1.2096   1.2165   1.2289   1.2309   1.2397
  1.2486   1.2581   1.2637   1.2744   1.2765   1.2895   1.3045   1.3128
  1.3361   1.3412   1.3510   1.3559   1.3715   1.3867   1.3914   1.3972
  1.4065   1.4080   1.4292   1.4324   1.4348   1.4436   1.4494   1.4640
  1.4703   1.4724   1.4835   1.4842   1.5027   1.5145   1.5187   1.5288
  1.5309   1.5408   1.5460   1.5510   1.5668   1.5724   1.5792   1.5849
  1.6008   1.6147   1.6272   1.6400   1.6474   1.6583   1.6659   1.6751
  1.6843   1.6925   1.7008   1.7154   1.7226   1.7320   1.7358   1.7506
  1.7655   1.7812   1.7941   1.8057   1.8163   1.8298   1.8323   1.8421
  1.8638   1.8670   1.8784   1.8879   1.8961   1.9087   1.9212   1.9285
  1.9380   1.9447   1.9518   1.9603   1.9637   1.9773   1.9816   1.9836
  1.9928   1.9993   2.0061   2.0081   2.0159   2.0342   2.0373   2.0427
  2.0488   2.0530   2.0582   2.0767   2.0792   2.0840   2.0947   2.1014
  2.1070   2.1213   2.1273   2.1396   2.1564   2.1579   2.1635   2.1705
  2.1786   2.1926   2.1936   2.2008   2.2066   2.2203   2.2373   2.2398
  2.2448   2.2583   2.2795   2.2858   2.2937   2.3079   2.3135   2.3186
  2.3210   2.3360   2.3383   2.3467   2.3547   2.3643   2.3853   2.3930
  2.4068   2.4205   2.4259   2.4329   2.4418   2.4577   2.4711   2.4808
  2.4873   2.5142   2.5264   2.5355   2.5587   2.5611   2.5669   2.5704
  2.5749   2.5905   2.5962   2.6168   2.6176   2.6297   2.6356   2.6455
  2.6528   2.6613   2.6673   2.6774   2.6917   2.7005   2.7132   2.7207
  2.7305   2.7349   2.7476   2.7554   2.7639   2.7759   2.7877   2.7913
  2.8037   2.8104   2.8211   2.8227   2.8362   2.8488   2.8609   2.8642
  2.8771   2.8954   2.9018   2.9111   2.9160   2.9221   2.9311   2.9359
  2.9451   2.9470   2.9562   2.9648   2.9687   2.9748   2.9847   2.9912
  3.0002   3.0109   3.0155   3.0314   3.0348   3.0377   3.0447   3.0478
  3.0565   3.0594   3.0668   3.0754   3.0826   3.0987   3.1122   3.1241
  3.1348   3.1392   3.1457   3.1530   3.1610   3.1718   3.1774   3.1980
  3.2194   3.2226   3.2241   3.2286   3.2384   3.2469   3.2588   3.2677
  3.2804   3.2868   3.3009   3.3102   3.3162   3.3200   3.3341   3.3425
  3.3477   3.3592   3.3692   3.3798   3.3871   3.3942   3.3988   3.4007
  3.4085   3.4155   3.4206   3.4277   3.4325   3.4395   3.4489   3.4626
  3.4687   3.4697   3.4825   3.4876   3.4934   3.5003   3.5131   3.5236
  3.5255   3.5308   3.5345   3.5447   3.5520   3.5562   3.5618   3.5644
  3.5707   3.5761   3.5809   3.5922   3.5947   3.5993   3.6032   3.6100
  3.6162   3.6213   3.6336   3.6471   3.6484   3.6549   3.6583   3.6702
  3.6744   3.6835   3.6901   3.7078   3.7134   3.7184   3.7238   3.7333
  3.7417   3.7469   3.7540   3.7673   3.7811   3.7912   3.7993   3.8164
  3.8379   3.8504   3.8611   3.8716   3.8841   3.8988   3.9054   3.9145
  3.9295   3.9375   3.9447   3.9653   3.9786   3.9848   4.0010   4.0152
  4.0390   4.0456   4.0709   4.0795   4.0949   4.1152   4.1227   4.1463
  4.1623   4.1790   4.1992   4.2179   4.2281   4.2600   4.2691   4.2809
  4.2961   4.3000   4.3204   4.3219   4.3312   4.3367   4.3526   4.3591
  4.3661   4.3765   4.3899   4.4062   4.4203   4.4309   4.4363   4.4419
  4.4534   4.4586   4.4894   4.4994   4.5136   4.5249   4.5560   4.5737
  4.5848   4.5994   4.6210   4.6461   4.6546   4.6660   4.6744   4.7198
  4.7348   4.7698   4.7801   4.7981   4.8314   4.8525   4.8629   4.8777
  4.9211   4.9412   4.9476   4.9635   4.9758   4.9976   5.0237   5.0371
  5.0575   5.0699   5.0831   5.0963   5.1181   5.1259   5.1459   5.1807
  5.2082   5.2292   5.2579   5.2868   5.2929   5.3463   5.3640   5.3804
  5.3897   5.4443   5.4784   5.5123   5.5197   5.5479   5.5634   5.6285
  5.6626   5.7140   5.7223   5.7844   5.8386   5.8832   5.9368   6.0201
  6.2788   6.3823  22.6939  22.7475  22.7554  22.8964  22.9228  22.9403
 22.9686  23.0550  23.1031  23.1673  23.2682  23.3832  23.4430  23.4577
 23.5960  23.7922  32.9906
 --------------------------------------------------------------

          Ground-State Mulliken Net Atomic Charges

     Atom                 Charge (a.u.)
  ----------------------------------------
      1 C                    -0.642646
      2 C                     0.344296
      3 C                     0.128096
      4 C                    -0.573110
      5 C                    -0.655143
      6 C                    -0.685610
      7 C                    -0.385153
      8 H                     0.085065
      9 H                     0.474213
     10 H                     0.335679
     11 H                    -0.180136
     12 H                     0.442889
     13 H                     0.407952
     14 H                     0.393392
     15 H                     0.319897
     16 C                    -1.085769
     17 C                     0.099117
     18 C                     0.582291
     19 C                     0.452804
     20 C                    -0.569747
     21 C                    -0.631457
     22 C                    -0.471650
     23 C                    -0.521453
     24 C                    -0.552904
     25 N                     0.159396
     26 H                     0.250158
     27 H                     0.309542
     28 H                     0.332085
     29 H                     0.316756
     30 H                     0.360891
     31 H                     0.272691
     32 H                     0.282065
     33 H                     0.363157
     34 H                     0.242345
  ----------------------------------------
  Sum of atomic charges =     0.000000

 -----------------------------------------------------------------
                    Cartesian Multipole Moments
 -----------------------------------------------------------------
    Charge (ESU x 10^10)
                -0.0000
    Dipole Moment (Debye)
         X       1.6267      Y      -2.3830      Z      -2.2965
       Tot       3.6877
    Quadrupole Moments (Debye-Ang)
        XX    -101.4409     XY      -1.3730     YY     -90.1009
        XZ       8.8938     YZ       0.7932     ZZ    -108.3946
    Octopole Moments (Debye-Ang^2)
       XXX      50.7538    XXY      -4.4122    XYY      -9.4653
       YYY     -48.1509    XXZ     -33.4138    XYZ      -7.1873
       YYZ       3.7873    XZZ      16.3459    YZZ      33.4198
       ZZZ     -36.7844
    Hexadecapole Moments (Debye-Ang^3)
      XXXX   -1845.5836   XXXY     -84.6950   XXYY    -420.0432
      XYYY     -82.6145   YYYY    -765.0939   XXXZ     257.2774
      XXYZ     112.2526   XYYZ      71.0989   YYYZ     393.5996
      XXZZ    -857.8820   XYZZ      -9.0000   YYZZ    -673.8252
      XZZZ     255.2460   YZZZ     310.2475   ZZZZ   -3295.1199
 -----------------------------------------------------------------
Archival summary:
1\1\compute-0-8.local\SP\ProcedureUnspecified\BasisUnspecified\11617\meili\WedSep2915:35:312021WedSep2915:35:312021\0\\#,ProcedureUnspecified,BasisUnspecified,\\0,1\N\H,1,1.01061\C,1,1.31947,2,124.331\H,3,1.06044,1,122.222,2,14.1681,0\C,1,1.3477,2,125.564,3,172.031,0\C,3,1.35109,1,111.196,2,174.809,0\C,5,1.37134,1,121.909,2,6.27768,0\H,7,1.07181,5,125.699,1,-8.00408,0\C,7,1.28954,5,103.833,1,-168.36,0\H,9,1.06246,7,96.1833,5,126.883,0\C,6,1.42964,3,106.702,1,-2.0426,0\C,11,1.39242,6,136.619,3,-178.288,0\H,12,1.08044,11,122.087,6,3.98262,0\C,12,1.3241,11,114.053,6,171.036,0\H,14,1.05505,12,116.544,11,-150.428,0\C,6,1.46656,3,127.353,1,179.095,0\H,16,1.09067,6,107.57,3,177.413,0\H,16,1.09112,6,109.389,3,-65.5366,0\H,16,1.1,6,111.62,3,56.938,0\H,10,1.89246,9,106.475,7,-87.1428,0\C,20,1.06069,10,125.234,9,172.825,0\H,21,1.08965,20,107.356,10,85.3079,0\H,21,1.1,20,114.8,10,-36.6556,0\C,21,1.50544,20,102.188,10,-159.538,0\C,24,1.39968,21,121.396,20,-151.64,0\H,25,1.08102,24,120.279,21,0.684465,0\C,25,1.39123,24,120.102,21,-179.97,0\H,27,1.0804,25,119.531,24,-179.925,0\C,27,1.39813,25,121.557,24,1.6145,0\H,29,1.0812,27,120.755,25,178.198,0\C,29,1.3931,27,118.405,25,-2.13567,0\H,31,1.0805,29,119.713,27,-179.58,0\C,31,1.39665,29,120.442,27,1.27342,0\H,33,1.06952,31,119.101,29,178.925,0\\\@

 Total job time:  71370.51s(wall), 175715.37s(cpu) 
 Wed Sep 29 15:35:31 2021

        *************************************************************
        *                                                           *
        *  Thank you very much for using Q-Chem.  Have a nice day.  *
        *                                                           *
        *************************************************************


