
Running Job 1 of 1 SSI-097GLU-101ARG-1_PCM_TZVPD.in
qchem SSI-097GLU-101ARG-1_PCM_TZVPD.in_49630.0 /tmp/qchem49630/ 0
/global/common/cori/software/qchem/5.2/exe/qcprog.exe_s SSI-097GLU-101ARG-1_PCM_TZVPD.in_49630.0 /tmp/qchem49630/
                  Welcome to Q-Chem
     A Quantum Leap Into The Future Of Chemistry


 Q-Chem 5.2, Q-Chem, Inc., Pleasanton, CA (2019)

 License issued to: National Energy Research Scientific Computing Center

 Yihan Shao,  Zhengting Gan,  E. Epifanovsky,  A. T. B. Gilbert,  M. Wormit,  
 J. Kussmann,  A. W. Lange,  A. Behn,  Jia Deng,  Xintian Feng,  D. Ghosh,  
 M. Goldey,  P. R. Horn,  L. D. Jacobson,  I. Kaliman,  T. Kus,  A. Landau,  
 Jie Liu,  E. I. Proynov,  R. M. Richard,  R. P. Steele,  E. J. Sundstrom,  
 H. L. Woodcock III,  P. M. Zimmerman,  D. Zuev,  B. Albrecht,  E. Alguire,  
 S. A. Baeppler,  D. Barton,  Z. Benda,  Y. A. Bernard,  E. J. Berquist,  
 K. B. Bravaya,  H. Burton,  D. Casanova,  Chun-Min Chang,  Yunqing Chen,  
 A. Chien,  K. D. Closser,  M. P. Coons,  S. Coriani,  S. Dasgupta,  
 A. L. Dempwolff,  M. Diedenhofen,  Hainam Do,  R. G. Edgar,  Po-Tung Fang,  
 S. Faraji,  S. Fatehi,  Qingguo Feng,  K. D. Fenk,  J. Fosso-Tande,  
 J. Gayvert,  Qinghui Ge,  A. Ghysels,  G. Gidofalvi,  J. Gomes,  
 J. Gonthier,  A. Gunina,  D. Hait,  M. W. D. Hanson-Heine,  
 P. H. P. Harbach,  A. W. Hauser,  M. F. Herbst,  J. E. Herr,  
 E. G. Hohenstein,  Z. C. Holden,  Kerwin Hui,  B. C. Huynh,  T.-C. Jagau,  
 Hyunjun Ji,  B. Kaduk,  K. Khistyaev,  Jaehoon Kim,  P. Klunzinger,  K. Koh,  
 D. Kosenkov,  L. Koulias,  T. Kowalczyk,  C. M. Krauter,  A. Kunitsa,  
 Ka Un Lao,  A. Laurent,  K. V. Lawler,  Joonho Lee,  D. Lefrancois,  
 S. Lehtola,  D. S. Levine,  Yi-Pei Li,  You-Sheng Lin,  Fenglai Liu,  
 E. Livshits,  A. Luenser,  P. Manohar,  E. Mansoor,  S. F. Manzer,  
 Shan-Ping Mao,  Yuezhi Mao,  N. Mardirossian,  A. V. Marenich,  
 T. Markovich,  L. A. Martinez-Martinez,  S. A. Maurer,  N. J. Mayhall,  
 S. C. McKenzie,  J.-M. Mewes,  P. Morgante,  A. F. Morrison,  
 J. W. Mullinax,  K. Nanda,  T. S. Nguyen-Beck,  R. Olivares-Amaya,  
 J. A. Parkhill,  Zheng Pei,  T. M. Perrine,  F. Plasser,  P. Pokhilko,  
 S. Prager,  A. Prociuk,  E. Ramos,  D. R. Rehn,  F. Rob,  M. Scheurer,  
 M. Schneider,  N. Sergueev,  S. M. Sharada,  S. Sharma,  D. W. Small,  
 T. Stauch,  T. Stein,  Yu-Chuan Su,  A. J. W. Thom,  A. Tkatchenko,  
 T. Tsuchimochi,  N. M. Tubman,  L. Vogt,  M. L. Vidal,  O. Vydrov,  
 M. A. Watson,  J. Wenzel,  M. de Wergifosse,  T. A. Wesolowski,  A. White,  
 J. Witte,  A. Yamada,  Jun Yang,  K. Yao,  S. Yeganeh,  S. R. Yost,  
 Zhi-Qiang You,  A. Zech,  Igor Ying Zhang,  Xing Zhang,  Yan Zhao,  
 Ying Zhu,  B. R. Brooks,  G. K. L. Chan,  C. J. Cramer,  M. S. Gordon,  
 W. J. Hehre,  A. Klamt,  M. W. Schmidt,  C. D. Sherrill,  D. G. Truhlar,  
 A. Aspuru-Guzik,  R. Baer,  A. T. Bell,  N. A. Besley,  Jeng-Da Chai,  
 A. E. DePrince, III,  R. A. DiStasio Jr.,  A. Dreuw,  B. D. Dunietz,  
 T. R. Furlani,  Chao-Ping Hsu,  Yousung Jung,  Jing Kong,  D. S. Lambrecht,  
 WanZhen Liang,  C. Ochsenfeld,  V. A. Rassolov,  L. V. Slipchenko,  
 J. E. Subotnik,  T. Van Voorhis,  J. M. Herbert,  A. I. Krylov,  
 P. M. W. Gill,  M. Head-Gordon

 Contributors to earlier versions of Q-Chem not listed above: 
 R. D. Adamson,  B. Austin,  J. Baker,  G. J. O. Beran,  K. Brandhorst,  
 S. T. Brown,  E. F. C. Byrd,  A. K. Chakraborty,  C.-L. Cheng,  
 Siu Hung Chien,  D. M. Chipman,  D. L. Crittenden,  H. Dachsel,  
 R. J. Doerksen,  A. D. Dutoi,  L. Fusti-Molnar,  W. A. Goddard III,  
 A. Golubeva-Zadorozhnaya,  S. R. Gwaltney,  G. Hawkins,  A. Heyden,  
 S. Hirata,  G. Kedziora,  F. J. Keil,  C. Kelley,  Jihan Kim,  R. A. King,  
 R. Z. Khaliullin,  P. P. Korambath,  W. Kurlancheek,  A. M. Lee,  M. S. Lee,  
 S. V. Levchenko,  Ching Yeh Lin,  D. Liotard,  R. C. Lochan,  I. Lotan,  
 P. E. Maslen,  N. Nair,  D. P. O'Neill,  D. Neuhauser,  E. Neuscamman,  
 C. M. Oana,  R. Olson,  B. Peters,  R. Peverati,  P. A. Pieniazek,  
 Y. M. Rhee,  J. Ritchie,  M. A. Rohrdanz,  E. Rosta,  N. J. Russ,  
 H. F. Schaefer III,  N. E. Schultz,  N. Shenvi,  A. C. Simmonett,  A. Sodt,  
 D. Stuck,  K. S. Thanthiriwatte,  V. Vanovschi,  Tao Wang,  A. Warshel,  
 C. F. Williams,  Q. Wu,  X. Xu,  W. Zhang

 Please cite Q-Chem as follows:
 Y. Shao et al., Mol. Phys. 113, 184-215 (2015)
 DOI: 10.1080/00268976.2014.952696

 Q-Chem 5.2.0 for Intel X86 EM64T Linux

 Parts of Q-Chem use Armadillo 8.300.2 (Tropical Shenanigans).
 http://arma.sourceforge.net/

 Q-Chem begins on Sun Sep 26 12:38:03 2021  

Host: cori01
0

     Scratch files written to /tmp/qchem49630//
 May1019 |scratch|qcdevops|jenkins|workspace|build_RNUM -1
Processing $rem in /global/common/cori/software/qchem/5.2/config/preferences:
	 MEM_TOTAL  96000 
NAlpha2: 72
NElect   72
Mult     1
Symmetry turned off for PCM/SM12/SMD calculation

 Q-Chem warning in module libgen/rem_setup.C, line 2803:

 Neither GIA nor STOLL is specified by user. Use STOLL as the default


Checking the input file for inconsistencies... 	...done.

--------------------------------------------------------------
User input:
--------------------------------------------------------------
$comment
SSI-097GLU-101ARG-1.pdb
$end

$molecule
0 1
--
-1 1
C   -2.385736770039    1.237836819079   -0.746379502140
C   -1.899736770039    1.295836819079    0.689620497860
O   -0.985736770039    0.510836819079    1.031620497860
O   -2.423736770039    2.118836819079    1.473620497860
H   -1.794736770039    0.494836819079   -1.284379502140
H   -2.216736770039    2.194836819079   -1.235379502140
H   -3.450826770039    0.971563819079   -0.814749502140
--
1 1
C    0.400263229961   -2.087163180921   -1.739379502140
C    1.804263229961   -0.771163180921   -0.172379502140
N    0.620263229961   -1.184163180921   -0.601379502140
N    2.913263229961   -1.180163180921   -0.759379502140
N    1.874263229961    0.077836819079    0.832620497860
H   -0.185736770039   -0.797163180921   -0.113379502140
H    2.869263229961   -1.861163180921   -1.499379502140
H    3.811263229961   -0.880163180921   -0.415379502140
H    0.986263229961    0.384836819079    1.230620497860
H    2.755263229961    0.368836819079    1.220620497860
H   -0.591736770039   -2.535163180921   -1.639379502140
H    1.129263229961   -2.901163180921   -1.739379502140
H    0.439033229961   -1.540053180921   -2.692879502140
$end

$rem
JOBTYPE			EDA
EDA2			1
method			wB97X-V
BASIS			def2-TZVPD
XC_GRID			000099000590
NL_GRID			1
UNRESTRICTED		FALSE
MAX_SCF_CYCLES		200
SYMMETRY		FALSE
SYM_IGNORE		TRUE
MEM_STATIC		2000
BASIS_LIN_DEP_THRESH 	6
THRESH 			14
SCF_CONVERGENCE 	8
SCF_PRINT_FRGM 		TRUE
SOLVENT_METHOD          PCM
$end

$PCM
THEORY                  CPCM
METHOD                  SWIG
SOLVER                  INVERSION
RADII                   UFF
HPOINTS                 302
HEAVYPOINTS             302
PRINTLEVEL              0
$END

$SOLVENT
DIELECTRIC              78.390000 ! water
$END
--------------------------------------------------------------
 ----------------------------------------------------------------
             Standard Nuclear Orientation (Angstroms)
    I     Atom           X                Y                Z
 ----------------------------------------------------------------
    1      C      -2.3857367700     1.2378368191    -0.7463795021
    2      C      -1.8997367700     1.2958368191     0.6896204979
    3      O      -0.9857367700     0.5108368191     1.0316204979
    4      O      -2.4237367700     2.1188368191     1.4736204979
    5      H      -1.7947367700     0.4948368191    -1.2843795021
    6      H      -2.2167367700     2.1948368191    -1.2353795021
    7      H      -3.4508267700     0.9715638191    -0.8147495021
    8      C       0.4002632300    -2.0871631809    -1.7393795021
    9      C       1.8042632300    -0.7711631809    -0.1723795021
   10      N       0.6202632300    -1.1841631809    -0.6013795021
   11      N       2.9132632300    -1.1801631809    -0.7593795021
   12      N       1.8742632300     0.0778368191     0.8326204979
   13      H      -0.1857367700    -0.7971631809    -0.1133795021
   14      H       2.8692632300    -1.8611631809    -1.4993795021
   15      H       3.8112632300    -0.8801631809    -0.4153795021
   16      H       0.9862632300     0.3848368191     1.2306204979
   17      H       2.7552632300     0.3688368191     1.2206204979
   18      H      -0.5917367700    -2.5351631809    -1.6393795021
   19      H       1.1292632300    -2.9011631809    -1.7393795021
   20      H       0.4390332300    -1.5400531809    -2.6928795021
 ----------------------------------------------------------------
 Nuclear Repulsion Energy =         461.09833628 hartrees
 There are       36 alpha and       36 beta electrons
 Requested basis set is def2-TZVPD
 There are 174 shells and 438 basis functions

 Total QAlloc Memory Limit  96000 MB
 Mega-Array Size      1956 MB
 MEM_STATIC part      2000 MB
 Discretize the solute cavity surface with Lebedev spheres
	Using 302 Lebedev grid points for each H atom
	Using 302 Lebedev grid points for other atoms
	Atomic van der Waals radii will be scaled by 1.20
 Remove points where switching function is < 1.0e-08
 Keep 2311 surface tesserae and discard 3729 interior tesserae
 Molecular Surface Area = 232.087 Angst**2
 A cutoff of  1.0D-14 yielded  13711 shell pairs
 There are     87531 function pairs (    110027 Cartesian)
 Smallest overlap matrix eigenvalue = 7.95E-06

 Scale SEOQF with 1.000000e-01/1.000000e-01/1.000000e-01

 Standard Electronic Orientation quadrupole field applied
 Nucleus-field energy     =     0.0000000103 hartrees

 -----------------------------------------------------------------------
  General SCF calculation program by
  Eric Jon Sundstrom, Paul Horn, Yuezhi Mao, Dmitri Zuev, Alec White,
  David Stuck, Shaama M.S., Shane Yost, Joonho Lee, David Small,
  Daniel Levine, Susi Lehtola, Hugh Burton, Evgeny Epifanovsky
 -----------------------------------------------------------------------
================================================================
                 ALMO-EDA with the EDA2 driver                  
================================================================
 The second-generation ALMO-EDA (for DFT):                      
 P. R. Horn, Y. Mao and M. Head-Gordon, PCCP, 18, 23067 (2016)  
 Decomposition of the frozen energy:                            
 P. R. Horn, Y. Mao and M. Head-Gordon, JCP, 144, 114107 (2016) 
 FERF model for polarization:                                   
 P. R. Horn and M. Head-Gordon, JCP, 143, 114111 (2015)         
Using eda2 option set 1
Option set summary: Frozen orbital wavefunction, initial wavefunction decomposition, and nDQ polarization.
--------------------------------
Printing EDA Options
--------------------------------
eda_child_super_basis      0
fragmo_guess_mode          0
child_mp                   1
child_mp_orders            232
cls_elec                   1
cls_disp                   0
scfmi_mode                 1
scfmi_occs                 0
scfmi_virts                0
frz_relax                  0
frz_relax_method           0
dc_pen_start               0
dc_pen_conv                0
dc_pen_increment           0
dc_pen_steps               0
dc_pen_thresh_factor       0
dc_pen_pre_newton_thresh   0
frz_ortho_decomp           1
frz_ortho_decomp_conv      6
frgm_method                2
scfmi_freeze_ss            0
separate_rehyb             0
plot_diff_den              0
eda_nocv                   0
eda_vct_relax              1
disp_free_x                0
disp_free_c                0
eda_bsse                   0
eda_pct_a                  0
eda_covp                   0
--------------------------------
Attempting to make child job directory: /tmp/qchem49630//Frg1/
Attempting to make child job directory: /tmp/qchem49630//Frg2/
Creating input file /tmp/qchem49630/Frg1.input
using default PutDataFrgm: nothing
calling putenv with: QCSCRATCH=/tmp/qchem49630/ 
calling putenv with: QCLOCALSCR=/tmp/qchem49630/ 
Spawning Job For Fragment 0
                  Welcome to Q-Chem
     A Quantum Leap Into The Future Of Chemistry


 Q-Chem 5.2, Q-Chem, Inc., Pleasanton, CA (2019)

 License issued to: National Energy Research Scientific Computing Center

 Yihan Shao,  Zhengting Gan,  E. Epifanovsky,  A. T. B. Gilbert,  M. Wormit,  
 J. Kussmann,  A. W. Lange,  A. Behn,  Jia Deng,  Xintian Feng,  D. Ghosh,  
 M. Goldey,  P. R. Horn,  L. D. Jacobson,  I. Kaliman,  T. Kus,  A. Landau,  
 Jie Liu,  E. I. Proynov,  R. M. Richard,  R. P. Steele,  E. J. Sundstrom,  
 H. L. Woodcock III,  P. M. Zimmerman,  D. Zuev,  B. Albrecht,  E. Alguire,  
 S. A. Baeppler,  D. Barton,  Z. Benda,  Y. A. Bernard,  E. J. Berquist,  
 K. B. Bravaya,  H. Burton,  D. Casanova,  Chun-Min Chang,  Yunqing Chen,  
 A. Chien,  K. D. Closser,  M. P. Coons,  S. Coriani,  S. Dasgupta,  
 A. L. Dempwolff,  M. Diedenhofen,  Hainam Do,  R. G. Edgar,  Po-Tung Fang,  
 S. Faraji,  S. Fatehi,  Qingguo Feng,  K. D. Fenk,  J. Fosso-Tande,  
 J. Gayvert,  Qinghui Ge,  A. Ghysels,  G. Gidofalvi,  J. Gomes,  
 J. Gonthier,  A. Gunina,  D. Hait,  M. W. D. Hanson-Heine,  
 P. H. P. Harbach,  A. W. Hauser,  M. F. Herbst,  J. E. Herr,  
 E. G. Hohenstein,  Z. C. Holden,  Kerwin Hui,  B. C. Huynh,  T.-C. Jagau,  
 Hyunjun Ji,  B. Kaduk,  K. Khistyaev,  Jaehoon Kim,  P. Klunzinger,  K. Koh,  
 D. Kosenkov,  L. Koulias,  T. Kowalczyk,  C. M. Krauter,  A. Kunitsa,  
 Ka Un Lao,  A. Laurent,  K. V. Lawler,  Joonho Lee,  D. Lefrancois,  
 S. Lehtola,  D. S. Levine,  Yi-Pei Li,  You-Sheng Lin,  Fenglai Liu,  
 E. Livshits,  A. Luenser,  P. Manohar,  E. Mansoor,  S. F. Manzer,  
 Shan-Ping Mao,  Yuezhi Mao,  N. Mardirossian,  A. V. Marenich,  
 T. Markovich,  L. A. Martinez-Martinez,  S. A. Maurer,  N. J. Mayhall,  
 S. C. McKenzie,  J.-M. Mewes,  P. Morgante,  A. F. Morrison,  
 J. W. Mullinax,  K. Nanda,  T. S. Nguyen-Beck,  R. Olivares-Amaya,  
 J. A. Parkhill,  Zheng Pei,  T. M. Perrine,  F. Plasser,  P. Pokhilko,  
 S. Prager,  A. Prociuk,  E. Ramos,  D. R. Rehn,  F. Rob,  M. Scheurer,  
 M. Schneider,  N. Sergueev,  S. M. Sharada,  S. Sharma,  D. W. Small,  
 T. Stauch,  T. Stein,  Yu-Chuan Su,  A. J. W. Thom,  A. Tkatchenko,  
 T. Tsuchimochi,  N. M. Tubman,  L. Vogt,  M. L. Vidal,  O. Vydrov,  
 M. A. Watson,  J. Wenzel,  M. de Wergifosse,  T. A. Wesolowski,  A. White,  
 J. Witte,  A. Yamada,  Jun Yang,  K. Yao,  S. Yeganeh,  S. R. Yost,  
 Zhi-Qiang You,  A. Zech,  Igor Ying Zhang,  Xing Zhang,  Yan Zhao,  
 Ying Zhu,  B. R. Brooks,  G. K. L. Chan,  C. J. Cramer,  M. S. Gordon,  
 W. J. Hehre,  A. Klamt,  M. W. Schmidt,  C. D. Sherrill,  D. G. Truhlar,  
 A. Aspuru-Guzik,  R. Baer,  A. T. Bell,  N. A. Besley,  Jeng-Da Chai,  
 A. E. DePrince, III,  R. A. DiStasio Jr.,  A. Dreuw,  B. D. Dunietz,  
 T. R. Furlani,  Chao-Ping Hsu,  Yousung Jung,  Jing Kong,  D. S. Lambrecht,  
 WanZhen Liang,  C. Ochsenfeld,  V. A. Rassolov,  L. V. Slipchenko,  
 J. E. Subotnik,  T. Van Voorhis,  J. M. Herbert,  A. I. Krylov,  
 P. M. W. Gill,  M. Head-Gordon

 Contributors to earlier versions of Q-Chem not listed above: 
 R. D. Adamson,  B. Austin,  J. Baker,  G. J. O. Beran,  K. Brandhorst,  
 S. T. Brown,  E. F. C. Byrd,  A. K. Chakraborty,  C.-L. Cheng,  
 Siu Hung Chien,  D. M. Chipman,  D. L. Crittenden,  H. Dachsel,  
 R. J. Doerksen,  A. D. Dutoi,  L. Fusti-Molnar,  W. A. Goddard III,  
 A. Golubeva-Zadorozhnaya,  S. R. Gwaltney,  G. Hawkins,  A. Heyden,  
 S. Hirata,  G. Kedziora,  F. J. Keil,  C. Kelley,  Jihan Kim,  R. A. King,  
 R. Z. Khaliullin,  P. P. Korambath,  W. Kurlancheek,  A. M. Lee,  M. S. Lee,  
 S. V. Levchenko,  Ching Yeh Lin,  D. Liotard,  R. C. Lochan,  I. Lotan,  
 P. E. Maslen,  N. Nair,  D. P. O'Neill,  D. Neuhauser,  E. Neuscamman,  
 C. M. Oana,  R. Olson,  B. Peters,  R. Peverati,  P. A. Pieniazek,  
 Y. M. Rhee,  J. Ritchie,  M. A. Rohrdanz,  E. Rosta,  N. J. Russ,  
 H. F. Schaefer III,  N. E. Schultz,  N. Shenvi,  A. C. Simmonett,  A. Sodt,  
 D. Stuck,  K. S. Thanthiriwatte,  V. Vanovschi,  Tao Wang,  A. Warshel,  
 C. F. Williams,  Q. Wu,  X. Xu,  W. Zhang

 Please cite Q-Chem as follows:
 Y. Shao et al., Mol. Phys. 113, 184-215 (2015)
 DOI: 10.1080/00268976.2014.952696

 Q-Chem 5.2.0 for Intel X86 EM64T Linux

 Parts of Q-Chem use Armadillo 8.300.2 (Tropical Shenanigans).
 http://arma.sourceforge.net/

 Q-Chem begins on Sun Sep 26 12:38:07 2021  

Host: cori01
0

     Scratch files written to /tmp/qchem49630//Frg1//
 May1019 |scratch|qcdevops|jenkins|workspace|build_RNUM -1
Processing $rem in /global/common/cori/software/qchem/5.2/config/preferences:
	 MEM_TOTAL  96000 
NAlpha2: 32
NElect   32
Mult     1
Symmetry turned off for PCM/SM12/SMD calculation

Checking the input file for inconsistencies... 	...done.

--------------------------------------------------------------
User input:
--------------------------------------------------------------
$molecule
-1 1
 6	-2.3857367700	1.2378368191	-0.7463795021
 6	-1.8997367700	1.2958368191	0.6896204979
 8	-0.9857367700	0.5108368191	1.0316204979
 8	-2.4237367700	2.1188368191	1.4736204979
 1	-1.7947367700	0.4948368191	-1.2843795021
 1	-2.2167367700	2.1948368191	-1.2353795021
 1	-3.4508267700	0.9715638191	-0.8147495021
$end
$rem
EDA2		1
METHOD		WB97X-V
BASIS		DEF2-TZVPD
XC_GRID		000099000590
NL_GRID		1
UNRESTRICTED		FALSE
MAX_SCF_CYCLES		200
SYMMETRY		FALSE
SYM_IGNORE		TRUE
BASIS_LIN_DEP_THRESH		6
THRESH		14
SCF_CONVERGENCE		8
SCF_PRINT_FRGM		TRUE
SOLVENT_METHOD		PCM
!required keywords
JOBTYPE		SP
SYM_IGNORE		TRUE
SUBSYSTEM		TRUE
GEN_SCFMAN		TRUE
CHILD_INSTRUCTION		2
SYM_IGNORE		TRUE
SCFMI		0
RI_K 0		
PARI_K 0		
MIN_PARI_K 0		
IARI_K 0		
OCC_RI_K 0		
PURECART		1111
MEM_STATIC		2000
MEM_TOTAL		96000
GUI		0
CHILD_MP		1
CHILD_MP_ORDERS		232
FRZ_RELAX		0
FRZ_RELAX_METHOD		0
EDA_CLS_ELEC		1
EDA_CLS_DISP		0
FRZ_ORTHO_DECOMP		1
EDA2		FALSE
FRGM_METHOD		FALSE
CIS_N_ROOTS  0
LOCAL_CIS    0
CIS_RLX_DNS  1
$end
$pcm
THEORY                  CPCM
METHOD                  SWIG
SOLVER                  INVERSION
RADII                   UFF
HPOINTS                 302
HEAVYPOINTS             302
PRINTLEVEL              0
$end
$solvent
DIELECTRIC              78.390000 ! water
$end
--------------------------------------------------------------
 ----------------------------------------------------------------
             Standard Nuclear Orientation (Angstroms)
    I     Atom           X                Y                Z
 ----------------------------------------------------------------
    1      C      -2.3857367700     1.2378368191    -0.7463795021
    2      C      -1.8997367700     1.2958368191     0.6896204979
    3      O      -0.9857367700     0.5108368191     1.0316204979
    4      O      -2.4237367700     2.1188368191     1.4736204979
    5      H      -1.7947367700     0.4948368191    -1.2843795021
    6      H      -2.2167367700     2.1948368191    -1.2353795021
    7      H      -3.4508267700     0.9715638191    -0.8147495021
 ----------------------------------------------------------------
 Nuclear Repulsion Energy =         112.70996007 hartrees
 There are       16 alpha and       16 beta electrons
 Requested basis set is def2-TZVPD
 There are 69 shells and 181 basis functions

 Total QAlloc Memory Limit  96000 MB
 Mega-Array Size      1956 MB
 MEM_STATIC part      2000 MB
 Discretize the solute cavity surface with Lebedev spheres
	Using 302 Lebedev grid points for each H atom
	Using 302 Lebedev grid points for other atoms
	Atomic van der Waals radii will be scaled by 1.20
 Remove points where switching function is < 1.0e-08
 Keep 1015 surface tesserae and discard 1099 interior tesserae
 Molecular Surface Area = 119.915 Angst**2

                       Distance Matrix (Angstroms)
             C (  1)   C (  2)   O (  3)   O (  4)   H (  5)   H (  6)
   C (  2)  1.517121
   O (  3)  2.376934  1.252432
   O (  4)  2.388725  1.251623  2.202015
   H (  5)  1.091226  2.132909  2.453282  3.261837
   H (  6)  1.087902  2.148096  3.080666  2.717960  1.752280
   H (  7)  1.099997  2.184986  3.114164  2.758222  1.786184  1.787821

 
 A cutoff of  1.0D-14 yielded   2390 shell pairs
 There are     16694 function pairs (     21490 Cartesian)
 Smallest overlap matrix eigenvalue = 1.61E-05

 Scale SEOQF with 1.000000e-01/1.000000e-01/1.000000e-01

 Standard Electronic Orientation quadrupole field applied
 Nucleus-field energy     =     0.0000000053 hartrees
 Guess from superposition of atomic densities
 Warning:  Energy on first SCF cycle will be non-variational
 SAD guess density has 30.625312 electrons

 -----------------------------------------------------------------------
  General SCF calculation program by
  Eric Jon Sundstrom, Paul Horn, Yuezhi Mao, Dmitri Zuev, Alec White,
  David Stuck, Shaama M.S., Shane Yost, Joonho Lee, David Small,
  Daniel Levine, Susi Lehtola, Hugh Burton, Evgeny Epifanovsky
 -----------------------------------------------------------------------
 Exchange:     0.1670 Hartree-Fock + 1.0000 wB97X-V + LR-HF
 Correlation:  1.0000 wB97X-V
 Using Euler-Maclaurin-Lebedev (99,590) quadrature formula
 Nonlocal Correlation:  VV10 with C = 0.0100 and b = 6.00 and scale = 1.00000
 Grid used for NLC:  SG-1 standard quadrature
Energy prior to optimization (guess energy) = -227.763211236364
Begin Timing: Total SCF Calculation
begin iterations for algorithm: DIIS         
the SCF tolerance is set to 1.00e-08
    1    -227.7632112364      1.66e-02     00000 
    2    -225.5943148277      2.54e-02     00000 
    3    -228.5765730925      4.15e-03     00000 
    4    -228.6355167785      1.44e-03     00000 
    5    -228.6418712385      3.68e-04     00000 
    6    -228.6422061188      2.55e-04     00000 
    7    -228.6423911606      4.52e-05     00000 
    8    -228.6424011793      1.37e-05     00000 
    9    -228.6424024598      2.84e-06     00000 
   10    -228.6424025619      5.28e-07     00000 
   11    -228.6424025650      2.48e-07     00000 
   12    -228.6424025655      5.93e-08     00000 
   13    -228.6424025656      1.67e-08     00000 
   14    -228.6424025656      2.62e-09     00000 Convergence criterion met
Timing for Total SCF: 294.00s (wall), 576.15s (cpu)

************** Final PCM Free Energy Summary **************
 G_electrostatic  =      -0.10179890 hartree =     -63.87977319 kcal/mol
 G_cavitation     =       0.00000000 hartree =       0.00000000 kcal/mol
 G_dispersion     =       0.00000000 hartree =       0.00000000 kcal/mol
 G_repulsion      =       0.00000000 hartree =       0.00000000 kcal/mol
 --------------------------------------------------
 Non-electrostatic Free Energy =       0.00000000 hartree =       0.00000000 kcal/mol
 Total                         =      -0.10179890 hartree =     -63.87977319 kcal/mol
 --------------------------------------------------
 SCF Energy (H0 + V/2)                       =    -228.64240257 
 Solute Internal Energy (H0)                 =    -228.54060367 
 Total Free Energy (H0 + V/2 + non-elec)     =    -228.64240257 hartree
                                             = -143475.27308208 kcal/mol
***********************************************************

E_pcm = -0.1017988989
Multipole orders to be included
        2
        3
computing dipole RHS
computing quadrupole RHS
total number of RHS in solve_reponses: 8
RHS batch sizes
        8
Beginning Block Conjugate Gradient Iterations. Batch Number: 0
computing hessian-vector products by finite difference
              1      6.35e-01     00000 Conjugate Gradient Iteration
computing hessian-vector products by finite difference
              2      2.12e-01     00000 Conjugate Gradient Iteration
computing hessian-vector products by finite difference
              3      5.53e-02     00000 Conjugate Gradient Iteration
computing hessian-vector products by finite difference
              4      1.47e-02     00000 Conjugate Gradient Iteration
computing hessian-vector products by finite difference
              5      2.62e-03     00000 Conjugate Gradient Iteration
computing hessian-vector products by finite difference
              6      6.32e-04     00000 Conjugate Gradient Iteration
computing hessian-vector products by finite difference
              7      1.04e-04     00000 Conjugate Gradient Iteration
computing hessian-vector products by finite difference
              8      1.27e-05     00000 Conjugate Gradient Iteration
computing hessian-vector products by finite difference
              9      1.96e-06     00000 Conjugate Gradient Iteration
computing hessian-vector products by finite difference
             10      2.15e-07     00000 Conjugate Gradient Iteration
computing hessian-vector products by finite difference
             11      4.53e-08     00000 Conjugate Gradient Iteration
computing hessian-vector products by finite difference
             12      1.19e-08     00000 Conjugate Gradient Iteration
computing hessian-vector products by finite difference
             13      1.30e-09     00000 CG Converged
batch 0 complete
Done Calculating Responses
TESTING ORTHOGONALIZATION OF MULTIPOLE BASIS
Multipole virts passed orthogonality test
Virts Per Order
        48
        80
 
 --------------------------------------------------------------
 
                    Orbital Energies (a.u.)
 --------------------------------------------------------------
 
 Alpha MOs
 -- Occupied --
-19.1219 -19.1214 -10.3245 -10.2386  -1.1316  -1.0313  -0.8293  -0.5926
 -0.5301  -0.5186  -0.5141  -0.4612  -0.4441  -0.3290  -0.3259  -0.3084
 -- Virtual --
  0.0633   0.0955   0.0960   0.1051   0.1304   0.1411   0.1437   0.1448
  0.1677   0.1899   0.1984   0.2242   0.2308   0.2367   0.2645   0.2691
  0.2976   0.3147   0.3343   0.3471   0.3528   0.3604   0.3748   0.3864
  0.3955   0.4039   0.4244   0.4289   0.4322   0.4606   0.4733   0.4761
  0.4945   0.5010   0.5083   0.5186   0.5624   0.5798   0.5993   0.6143
  0.6154   0.6358   0.6456   0.6688   0.6711   0.6807   0.6925   0.7180
  0.7235   0.7352   0.7702   0.8010   0.8095   0.8169   0.8489   0.8598
  0.8673   0.9775   0.9920   0.9927   1.0003   1.0538   1.0610   1.1341
  1.1895   1.2077   1.2644   1.2836   1.2960   1.3187   1.3467   1.3515
  1.4550   1.5861   1.6107   1.7393   1.8244   1.8625   1.8692   1.9215
  1.9329   1.9554   1.9618   1.9786   2.0122   2.1199   2.1414   2.1773
  2.2104   2.2201   2.3311   2.3570   2.4093   2.4454   2.4914   2.5032
  2.5783   2.5943   2.6252   2.6624   2.7990   2.8199   2.8988   2.9290
  2.9661   2.9862   3.0343   3.1920   3.2044   3.2597   3.2896   3.3273
  3.3408   3.3482   3.4031   3.4156   3.4317   3.5569   3.5762   3.5795
  3.6331   3.6512   3.7022   3.7366   3.7896   3.9229   3.9313   4.0663
  4.0980   4.1948   4.3500   4.5203   4.6540   4.6754   4.8176   4.8555
  4.9971   5.3332   5.3603   5.3705   5.3770   5.5049   5.7185   5.7696
  5.8206   6.0244   6.2420   6.3467   6.3510   6.6255   6.6311   6.7206
  6.7455   6.7611   6.9620   6.9793   7.0426   7.2512   7.3610   7.3903
  7.4176  22.5998  23.7399  44.2201  44.3462
 --------------------------------------------------------------
 
          Ground-State Mulliken Net Atomic Charges

     Atom                 Charge (a.u.)
  ----------------------------------------
      1 C                    -0.402097
      2 C                     0.292777
      3 O                    -0.674805
      4 O                    -0.680883
      5 H                     0.154521
      6 H                     0.152380
      7 H                     0.158108
  ----------------------------------------
  Sum of atomic charges =    -1.000000

 -----------------------------------------------------------------
                    Cartesian Multipole Moments
 -----------------------------------------------------------------
    Charge (ESU x 10^10)
                -4.8032
    Dipole Moment (Debye)
         X       7.6824      Y      -6.3818      Z      -7.5938
       Tot      12.5464
    Quadrupole Moments (Debye-Ang)
        XX     -42.3096     XY      15.3637     YY     -39.7266
        XZ      13.5347     YZ     -11.7060     ZZ     -37.9042
    Octopole Moments (Debye-Ang^2)
       XXX     191.6352    XXY     -73.6089    XYY      87.1836
       YYY    -132.0602    XXZ     -43.1020    XYZ      26.6980
       YYZ     -38.2602    XZZ      73.7497    YZZ     -52.6552
       ZZZ     -58.6549
    Hexadecapole Moments (Debye-Ang^3)
      XXXX    -785.3722   XXXY     325.9611   XXYY    -270.1872
      XYYY     303.9521   YYYY    -421.5212   XXXZ     136.5755
      XXYZ     -85.8808   XYYZ      80.8439   YYYZ    -118.0213
      XXZZ    -201.8778   XYZZ     116.4137   YYZZ    -131.1183
      XZZZ      97.4765   YZZZ     -92.9718   ZZZZ    -246.6052
 -----------------------------------------------------------------
Archival summary:
1\1\nid00532\SP\ProcedureUnspecified\BasisUnspecified\223(1-,1)\meili\SunSep2614:03:162021SunSep2614:03:162021\0\\#,ProcedureUnspecified,BasisUnspecified,\\-1,1\C\O,1,1.25162\O,1,1.25243,2,123.135\C,1,1.51712,2,118.942,3,-179.946,0\H,4,1.0879,1,110.002,2,61.1039,0\H,4,1.09123,1,108.614,2,177.968,0\H,4,1.1,1,112.226,2,-61.1958,0\\\@

 Total job time:  5109.64s(wall), 9996.42s(cpu) 
 Sun Sep 26 14:03:16 2021

        *************************************************************
        *                                                           *
        *  Thank you very much for using Q-Chem.  Have a nice day.  *
        *                                                           *
        *************************************************************


Done Job For Fragment 0
calling putenv with: QCSCRATCH=/global/cscratch1/sd/meili 
calling putenv with: QCLOCALSCR=/tmp 
calling putenv with: QCTHREADS=32 
Creating input file /tmp/qchem49630/Frg2.input
using default PutDataFrgm: nothing
calling putenv with: QCSCRATCH=/tmp/qchem49630/ 
calling putenv with: QCLOCALSCR=/tmp/qchem49630/ 
Spawning Job For Fragment 1
                  Welcome to Q-Chem
     A Quantum Leap Into The Future Of Chemistry


 Q-Chem 5.2, Q-Chem, Inc., Pleasanton, CA (2019)

 License issued to: National Energy Research Scientific Computing Center

 Yihan Shao,  Zhengting Gan,  E. Epifanovsky,  A. T. B. Gilbert,  M. Wormit,  
 J. Kussmann,  A. W. Lange,  A. Behn,  Jia Deng,  Xintian Feng,  D. Ghosh,  
 M. Goldey,  P. R. Horn,  L. D. Jacobson,  I. Kaliman,  T. Kus,  A. Landau,  
 Jie Liu,  E. I. Proynov,  R. M. Richard,  R. P. Steele,  E. J. Sundstrom,  
 H. L. Woodcock III,  P. M. Zimmerman,  D. Zuev,  B. Albrecht,  E. Alguire,  
 S. A. Baeppler,  D. Barton,  Z. Benda,  Y. A. Bernard,  E. J. Berquist,  
 K. B. Bravaya,  H. Burton,  D. Casanova,  Chun-Min Chang,  Yunqing Chen,  
 A. Chien,  K. D. Closser,  M. P. Coons,  S. Coriani,  S. Dasgupta,  
 A. L. Dempwolff,  M. Diedenhofen,  Hainam Do,  R. G. Edgar,  Po-Tung Fang,  
 S. Faraji,  S. Fatehi,  Qingguo Feng,  K. D. Fenk,  J. Fosso-Tande,  
 J. Gayvert,  Qinghui Ge,  A. Ghysels,  G. Gidofalvi,  J. Gomes,  
 J. Gonthier,  A. Gunina,  D. Hait,  M. W. D. Hanson-Heine,  
 P. H. P. Harbach,  A. W. Hauser,  M. F. Herbst,  J. E. Herr,  
 E. G. Hohenstein,  Z. C. Holden,  Kerwin Hui,  B. C. Huynh,  T.-C. Jagau,  
 Hyunjun Ji,  B. Kaduk,  K. Khistyaev,  Jaehoon Kim,  P. Klunzinger,  K. Koh,  
 D. Kosenkov,  L. Koulias,  T. Kowalczyk,  C. M. Krauter,  A. Kunitsa,  
 Ka Un Lao,  A. Laurent,  K. V. Lawler,  Joonho Lee,  D. Lefrancois,  
 S. Lehtola,  D. S. Levine,  Yi-Pei Li,  You-Sheng Lin,  Fenglai Liu,  
 E. Livshits,  A. Luenser,  P. Manohar,  E. Mansoor,  S. F. Manzer,  
 Shan-Ping Mao,  Yuezhi Mao,  N. Mardirossian,  A. V. Marenich,  
 T. Markovich,  L. A. Martinez-Martinez,  S. A. Maurer,  N. J. Mayhall,  
 S. C. McKenzie,  J.-M. Mewes,  P. Morgante,  A. F. Morrison,  
 J. W. Mullinax,  K. Nanda,  T. S. Nguyen-Beck,  R. Olivares-Amaya,  
 J. A. Parkhill,  Zheng Pei,  T. M. Perrine,  F. Plasser,  P. Pokhilko,  
 S. Prager,  A. Prociuk,  E. Ramos,  D. R. Rehn,  F. Rob,  M. Scheurer,  
 M. Schneider,  N. Sergueev,  S. M. Sharada,  S. Sharma,  D. W. Small,  
 T. Stauch,  T. Stein,  Yu-Chuan Su,  A. J. W. Thom,  A. Tkatchenko,  
 T. Tsuchimochi,  N. M. Tubman,  L. Vogt,  M. L. Vidal,  O. Vydrov,  
 M. A. Watson,  J. Wenzel,  M. de Wergifosse,  T. A. Wesolowski,  A. White,  
 J. Witte,  A. Yamada,  Jun Yang,  K. Yao,  S. Yeganeh,  S. R. Yost,  
 Zhi-Qiang You,  A. Zech,  Igor Ying Zhang,  Xing Zhang,  Yan Zhao,  
 Ying Zhu,  B. R. Brooks,  G. K. L. Chan,  C. J. Cramer,  M. S. Gordon,  
 W. J. Hehre,  A. Klamt,  M. W. Schmidt,  C. D. Sherrill,  D. G. Truhlar,  
 A. Aspuru-Guzik,  R. Baer,  A. T. Bell,  N. A. Besley,  Jeng-Da Chai,  
 A. E. DePrince, III,  R. A. DiStasio Jr.,  A. Dreuw,  B. D. Dunietz,  
 T. R. Furlani,  Chao-Ping Hsu,  Yousung Jung,  Jing Kong,  D. S. Lambrecht,  
 WanZhen Liang,  C. Ochsenfeld,  V. A. Rassolov,  L. V. Slipchenko,  
 J. E. Subotnik,  T. Van Voorhis,  J. M. Herbert,  A. I. Krylov,  
 P. M. W. Gill,  M. Head-Gordon

 Contributors to earlier versions of Q-Chem not listed above: 
 R. D. Adamson,  B. Austin,  J. Baker,  G. J. O. Beran,  K. Brandhorst,  
 S. T. Brown,  E. F. C. Byrd,  A. K. Chakraborty,  C.-L. Cheng,  
 Siu Hung Chien,  D. M. Chipman,  D. L. Crittenden,  H. Dachsel,  
 R. J. Doerksen,  A. D. Dutoi,  L. Fusti-Molnar,  W. A. Goddard III,  
 A. Golubeva-Zadorozhnaya,  S. R. Gwaltney,  G. Hawkins,  A. Heyden,  
 S. Hirata,  G. Kedziora,  F. J. Keil,  C. Kelley,  Jihan Kim,  R. A. King,  
 R. Z. Khaliullin,  P. P. Korambath,  W. Kurlancheek,  A. M. Lee,  M. S. Lee,  
 S. V. Levchenko,  Ching Yeh Lin,  D. Liotard,  R. C. Lochan,  I. Lotan,  
 P. E. Maslen,  N. Nair,  D. P. O'Neill,  D. Neuhauser,  E. Neuscamman,  
 C. M. Oana,  R. Olson,  B. Peters,  R. Peverati,  P. A. Pieniazek,  
 Y. M. Rhee,  J. Ritchie,  M. A. Rohrdanz,  E. Rosta,  N. J. Russ,  
 H. F. Schaefer III,  N. E. Schultz,  N. Shenvi,  A. C. Simmonett,  A. Sodt,  
 D. Stuck,  K. S. Thanthiriwatte,  V. Vanovschi,  Tao Wang,  A. Warshel,  
 C. F. Williams,  Q. Wu,  X. Xu,  W. Zhang

 Please cite Q-Chem as follows:
 Y. Shao et al., Mol. Phys. 113, 184-215 (2015)
 DOI: 10.1080/00268976.2014.952696

 Q-Chem 5.2.0 for Intel X86 EM64T Linux

 Parts of Q-Chem use Armadillo 8.300.2 (Tropical Shenanigans).
 http://arma.sourceforge.net/

 Q-Chem begins on Sun Sep 26 14:03:17 2021  

Host: cori01
0

     Scratch files written to /tmp/qchem49630//Frg2//
 May1019 |scratch|qcdevops|jenkins|workspace|build_RNUM -1
Processing $rem in /global/common/cori/software/qchem/5.2/config/preferences:
	 MEM_TOTAL  96000 
NAlpha2: 40
NElect   40
Mult     1
Symmetry turned off for PCM/SM12/SMD calculation

Checking the input file for inconsistencies... 	...done.

--------------------------------------------------------------
User input:
--------------------------------------------------------------
$molecule
1 1
 6	0.4002632300	-2.0871631809	-1.7393795021
 6	1.8042632300	-0.7711631809	-0.1723795021
 7	0.6202632300	-1.1841631809	-0.6013795021
 7	2.9132632300	-1.1801631809	-0.7593795021
 7	1.8742632300	0.0778368191	0.8326204979
 1	-0.1857367700	-0.7971631809	-0.1133795021
 1	2.8692632300	-1.8611631809	-1.4993795021
 1	3.8112632300	-0.8801631809	-0.4153795021
 1	0.9862632300	0.3848368191	1.2306204979
 1	2.7552632300	0.3688368191	1.2206204979
 1	-0.5917367700	-2.5351631809	-1.6393795021
 1	1.1292632300	-2.9011631809	-1.7393795021
 1	0.4390332300	-1.5400531809	-2.6928795021
$end
$rem
EDA2		1
METHOD		WB97X-V
BASIS		DEF2-TZVPD
XC_GRID		000099000590
NL_GRID		1
UNRESTRICTED		FALSE
MAX_SCF_CYCLES		200
SYMMETRY		FALSE
SYM_IGNORE		TRUE
BASIS_LIN_DEP_THRESH		6
THRESH		14
SCF_CONVERGENCE		8
SCF_PRINT_FRGM		TRUE
SOLVENT_METHOD		PCM
!required keywords
JOBTYPE		SP
SYM_IGNORE		TRUE
SUBSYSTEM		TRUE
GEN_SCFMAN		TRUE
CHILD_INSTRUCTION		2
SYM_IGNORE		TRUE
SCFMI		0
RI_K 0		
PARI_K 0		
MIN_PARI_K 0		
IARI_K 0		
OCC_RI_K 0		
PURECART		1111
MEM_STATIC		2000
MEM_TOTAL		96000
GUI		0
CHILD_MP		1
CHILD_MP_ORDERS		232
FRZ_RELAX		0
FRZ_RELAX_METHOD		0
EDA_CLS_ELEC		1
EDA_CLS_DISP		0
FRZ_ORTHO_DECOMP		1
EDA2		FALSE
FRGM_METHOD		FALSE
CIS_N_ROOTS  0
LOCAL_CIS    0
CIS_RLX_DNS  1
$end
$pcm
THEORY                  CPCM
METHOD                  SWIG
SOLVER                  INVERSION
RADII                   UFF
HPOINTS                 302
HEAVYPOINTS             302
PRINTLEVEL              0
$end
$solvent
DIELECTRIC              78.390000 ! water
$end
--------------------------------------------------------------
 ----------------------------------------------------------------
             Standard Nuclear Orientation (Angstroms)
    I     Atom           X                Y                Z
 ----------------------------------------------------------------
    1      C       0.4002632300    -2.0871631809    -1.7393795021
    2      C       1.8042632300    -0.7711631809    -0.1723795021
    3      N       0.6202632300    -1.1841631809    -0.6013795021
    4      N       2.9132632300    -1.1801631809    -0.7593795021
    5      N       1.8742632300     0.0778368191     0.8326204979
    6      H      -0.1857367700    -0.7971631809    -0.1133795021
    7      H       2.8692632300    -1.8611631809    -1.4993795021
    8      H       3.8112632300    -0.8801631809    -0.4153795021
    9      H       0.9862632300     0.3848368191     1.2306204979
   10      H       2.7552632300     0.3688368191     1.2206204979
   11      H      -0.5917367700    -2.5351631809    -1.6393795021
   12      H       1.1292632300    -2.9011631809    -1.7393795021
   13      H       0.4390332300    -1.5400531809    -2.6928795021
 ----------------------------------------------------------------
 Nuclear Repulsion Energy =         194.13865639 hartrees
 There are       20 alpha and       20 beta electrons
 Requested basis set is def2-TZVPD
 There are 105 shells and 257 basis functions

 Total QAlloc Memory Limit  96000 MB
 Mega-Array Size      1956 MB
 MEM_STATIC part      2000 MB
 Discretize the solute cavity surface with Lebedev spheres
	Using 302 Lebedev grid points for each H atom
	Using 302 Lebedev grid points for other atoms
	Atomic van der Waals radii will be scaled by 1.20
 Remove points where switching function is < 1.0e-08
 Keep 1568 surface tesserae and discard 2358 interior tesserae
 Molecular Surface Area = 152.128 Angst**2

                       Distance Matrix (Angstroms)
             C (  1)   C (  2)   N (  3)   N (  4)   N (  5)   H (  6)
   C (  2)  2.481645
   N (  3)  1.469304  1.325317
   N (  4)  2.845737  1.319747  2.298441
   N (  5)  3.670843  1.317470  2.285064  2.279594
   H (  6)  2.156704  1.991044  1.018601  3.188700  2.429844
   H (  7)  2.490911  2.020706  2.514505  1.006627  3.191860  3.519392
   H (  8)  3.852888  2.024594  3.210840  1.007343  2.495443  4.009252
   H (  9)  3.908335  1.993457  2.439660  3.181612  1.020391  2.139403
   H ( 10)  4.509940  2.035792  3.207759  2.518882  1.005677  3.433452
   H ( 11)  1.093054  3.317318  2.090835  3.859462  4.361159  2.348224
   H ( 12)  1.092720  2.729105  2.121842  2.665501  4.005577  2.966465
   H ( 13)  1.099998  2.967822  2.129290  3.160658  4.136013  2.756092
             H (  7)   H (  8)   H (  9)   H ( 10)   H ( 11)   H ( 12)
   H (  8)  1.739190
   H (  9)  4.005385  3.505733
   H ( 10)  3.519133  2.313360  1.769101
   H ( 11)  3.528795  4.860413  4.387868  5.274014
   H ( 12)  2.041274  3.609784  4.431607  4.700891  1.762327
   H ( 13)  2.726458  4.122426  4.404374  4.931964  1.778368  1.799500

 
 A cutoff of  1.0D-14 yielded   5440 shell pairs
 There are     33176 function pairs (     41512 Cartesian)
 Smallest overlap matrix eigenvalue = 1.63E-05

 Scale SEOQF with 1.000000e-01/1.000000e-01/1.000000e-01

 Standard Electronic Orientation quadrupole field applied
 Nucleus-field energy     =     0.0000000050 hartrees
 Guess from superposition of atomic densities
 Warning:  Energy on first SCF cycle will be non-variational
 SAD guess density has 40.388232 electrons

 -----------------------------------------------------------------------
  General SCF calculation program by
  Eric Jon Sundstrom, Paul Horn, Yuezhi Mao, Dmitri Zuev, Alec White,
  David Stuck, Shaama M.S., Shane Yost, Joonho Lee, David Small,
  Daniel Levine, Susi Lehtola, Hugh Burton, Evgeny Epifanovsky
 -----------------------------------------------------------------------
 Exchange:     0.1670 Hartree-Fock + 1.0000 wB97X-V + LR-HF
 Correlation:  1.0000 wB97X-V
 Using Euler-Maclaurin-Lebedev (99,590) quadrature formula
 Nonlocal Correlation:  VV10 with C = 0.0100 and b = 6.00 and scale = 1.00000
 Grid used for NLC:  SG-1 standard quadrature
Energy prior to optimization (guess energy) = -244.726291304363
Begin Timing: Total SCF Calculation
begin iterations for algorithm: DIIS         
the SCF tolerance is set to 1.00e-08
    1    -244.7262913044      7.92e-03     00000 
    2    -244.9411895111      6.22e-03     00000 
    3    -245.1798720382      3.03e-04     00000 
    4    -245.1804677258      1.74e-04     00000 
    5    -245.1806723256      3.49e-05     00000 
    6    -245.1806812561      1.37e-05     00000 
    7    -245.1806828363      2.20e-06     00000 
    8    -245.1806829120      7.64e-07     00000 
    9    -245.1806829219      3.09e-07     00000 
   10    -245.1806829235      8.59e-08     00000 
   11    -245.1806829237      3.84e-08     00000 
   12    -245.1806829237      1.03e-08     00000 
   13    -245.1806829237      1.54e-09     00000 Convergence criterion met
Timing for Total SCF: 778.00s (wall), 1544.49s (cpu)

************** Final PCM Free Energy Summary **************
 G_electrostatic  =      -0.08149399 hartree =     -51.13824778 kcal/mol
 G_cavitation     =       0.00000000 hartree =       0.00000000 kcal/mol
 G_dispersion     =       0.00000000 hartree =       0.00000000 kcal/mol
 G_repulsion      =       0.00000000 hartree =       0.00000000 kcal/mol
 --------------------------------------------------
 Non-electrostatic Free Energy =       0.00000000 hartree =       0.00000000 kcal/mol
 Total                         =      -0.08149399 hartree =     -51.13824778 kcal/mol
 --------------------------------------------------
 SCF Energy (H0 + V/2)                       =    -245.18068292 
 Solute Internal Energy (H0)                 =    -245.09918894 
 Total Free Energy (H0 + V/2 + non-elec)     =    -245.18068292 hartree
                                             = -153853.20064088 kcal/mol
***********************************************************

E_pcm = -0.0814939856
Multipole orders to be included
        2
        3
computing dipole RHS
computing quadrupole RHS
total number of RHS in solve_reponses: 8
RHS batch sizes
        8
Beginning Block Conjugate Gradient Iterations. Batch Number: 0
computing hessian-vector products by finite difference
              1      4.57e-01     00000 Conjugate Gradient Iteration
computing hessian-vector products by finite difference
              2      1.81e-01     00000 Conjugate Gradient Iteration
computing hessian-vector products by finite difference
              3      4.94e-02     00000 Conjugate Gradient Iteration
computing hessian-vector products by finite difference
              4      1.26e-02     00000 Conjugate Gradient Iteration
computing hessian-vector products by finite difference
              5      1.73e-03     00000 Conjugate Gradient Iteration
computing hessian-vector products by finite difference
              6      2.65e-04     00000 Conjugate Gradient Iteration
computing hessian-vector products by finite difference
              7      3.82e-05     00000 Conjugate Gradient Iteration
computing hessian-vector products by finite difference
              8      4.96e-06     00000 Conjugate Gradient Iteration
computing hessian-vector products by finite difference
              9      9.40e-07     00000 Conjugate Gradient Iteration
computing hessian-vector products by finite difference
             10      2.62e-07     00000 Conjugate Gradient Iteration
computing hessian-vector products by finite difference
             11      3.56e-08     00000 Conjugate Gradient Iteration
computing hessian-vector products by finite difference
             12      3.74e-09     00000 CG Converged
batch 0 complete
Done Calculating Responses
TESTING ORTHOGONALIZATION OF MULTIPOLE BASIS
Multipole virts passed orthogonality test
Virts Per Order
           60
          100
 
 --------------------------------------------------------------
 
                    Orbital Energies (a.u.)
 --------------------------------------------------------------
 
 Alpha MOs
 -- Occupied --
-14.4832 -14.4761 -14.4754 -10.4483 -10.3325  -1.2014  -1.0816  -1.0718
 -0.8794  -0.7933  -0.7494  -0.7195  -0.6459  -0.6400  -0.6206  -0.5984
 -0.5522  -0.5334  -0.4261  -0.4026
 -- Virtual --
  0.0480   0.0748   0.0812   0.0860   0.1129   0.1153   0.1240   0.1410
  0.1578   0.1654   0.1784   0.1883   0.1910   0.1959   0.2087   0.2211
  0.2317   0.2347   0.2394   0.2544   0.2644   0.2717   0.2825   0.2890
  0.2968   0.3067   0.3111   0.3144   0.3230   0.3305   0.3389   0.3504
  0.3524   0.3617   0.3646   0.3826   0.3963   0.3997   0.4039   0.4176
  0.4287   0.4378   0.4465   0.4475   0.4603   0.4631   0.4769   0.4849
  0.4868   0.4953   0.5023   0.5059   0.5163   0.5209   0.5345   0.5372
  0.5448   0.5584   0.5692   0.5730   0.5933   0.6083   0.6277   0.6379
  0.6492   0.6599   0.6638   0.6861   0.7004   0.7125   0.7344   0.7490
  0.7740   0.7818   0.7977   0.8109   0.8210   0.8274   0.8420   0.8504
  0.8613   0.8716   0.8830   0.8993   0.9180   0.9553   0.9686   0.9793
  1.0175   1.0489   1.0589   1.0780   1.0890   1.0984   1.1119   1.1237
  1.1266   1.1562   1.1953   1.2346   1.2452   1.3177   1.3430   1.3921
  1.4050   1.4219   1.4464   1.4719   1.5294   1.5463   1.6166   1.6466
  1.6514   1.6918   1.7303   1.7690   1.8159   1.8378   1.8507   1.8668
  1.8944   1.9037   1.9091   1.9511   1.9678   1.9842   2.0109   2.0436
  2.0784   2.1016   2.1445   2.1683   2.1819   2.2062   2.2629   2.2806
  2.3018   2.3370   2.3542   2.3829   2.4164   2.4421   2.4650   2.4973
  2.5311   2.5558   2.5980   2.6111   2.6277   2.6462   2.6762   2.7031
  2.7562   2.7808   2.8213   2.8546   2.8731   2.8852   2.9229   2.9440
  3.0215   3.1094   3.1129   3.1264   3.1578   3.1790   3.2034   3.2198
  3.2416   3.2785   3.2816   3.2873   3.3327   3.3671   3.3866   3.4070
  3.4375   3.4877   3.5001   3.5794   3.5872   3.6126   3.6504   3.7205
  3.7856   3.8470   3.9171   3.9810   4.0289   4.1090   4.1380   4.1942
  4.2716   4.3001   4.3240   4.3442   4.3655   4.4642   4.5468   4.5856
  4.6373   4.8129   4.8336   4.8443   4.9077   4.9731   5.0004   5.0288
  5.0935   5.0990   5.1088   5.1408   5.1657   5.1933   5.2540   5.3190
  5.3655   5.3781   5.4243   5.4413   5.4475   5.4790   5.5555   5.6384
  5.6891   5.7548   5.7815   5.8771   6.0889   6.1833   6.3533   6.4565
 22.6276  23.6362  32.3104  32.4247  32.7981
 --------------------------------------------------------------
 
          Ground-State Mulliken Net Atomic Charges

     Atom                 Charge (a.u.)
  ----------------------------------------
      1 C                    -0.805842
      2 C                     0.576873
      3 N                    -0.087661
      4 N                    -0.235168
      5 N                    -0.268049
      6 H                     0.230506
      7 H                     0.159112
      8 H                     0.197408
      9 H                     0.204800
     10 H                     0.197008
     11 H                     0.259209
     12 H                     0.294298
     13 H                     0.277505
  ----------------------------------------
  Sum of atomic charges =     1.000000

 -----------------------------------------------------------------
                    Cartesian Multipole Moments
 -----------------------------------------------------------------
    Charge (ESU x 10^10)
                 4.8032
    Dipole Moment (Debye)
         X       8.1509      Y      -4.1862      Z      -1.1811
       Tot       9.2389
    Quadrupole Moments (Debye-Ang)
        XX      -1.4212     XY      -6.0152     YY     -21.4943
        XZ      -1.0298     YZ       9.3992     ZZ     -21.9074
    Octopole Moments (Debye-Ang^2)
       XXX     -34.9633    XXY      10.2189    XYY     -33.7195
       YYY      77.8872    XXZ      12.1087    XYZ      14.3825
       YYZ      -0.8786    XZZ     -33.2012    YZZ      21.7201
       ZZZ      40.6767
    Hexadecapole Moments (Debye-Ang^3)
      XXXX    -249.1152   XXXY      40.7640   XXYY    -124.1364
      XYYY      89.7643   YYYY    -306.3382   XXXZ      24.0572
      XXYZ       2.1398   XYYZ     -10.9515   YYYZ     -76.2623
      XXZZ    -112.1454   XYZZ      23.8418   YYZZ     -69.5932
      XZZZ      31.9408   YZZZ     -89.7760   ZZZZ    -213.6559
 -----------------------------------------------------------------
Archival summary:
1\1\nid00532\SP\ProcedureUnspecified\BasisUnspecified\328(1+,1)\meili\SunSep2617:59:352021SunSep2617:59:352021\0\\#,ProcedureUnspecified,BasisUnspecified,\\1,1\C\N,1,1.31747\H,2,1.00568,1,121.824\H,2,1.02039,1,116.435,3,-176.716,0\N,1,1.31975,2,119.627,3,-5.20059,0\H,5,1.00663,1,119.993,2,177.163,0\H,5,1.00734,1,120.326,2,2.85511,0\N,1,1.32532,2,119.683,3,176.193,0\H,8,1.0186,1,115.686,2,0.552213,0\C,8,1.4693,1,125.169,2,177.646,0\H,10,1.09272,8,110.973,1,41.6865,0\H,10,1.09305,8,108.477,1,159.526,0\H,10,1.1,8,111.126,1,-81.4406,0\\\@

 Total job time:  14179.13s(wall), 28093.59s(cpu) 
 Sun Sep 26 17:59:36 2021

        *************************************************************
        *                                                           *
        *  Thank you very much for using Q-Chem.  Have a nice day.  *
        *                                                           *
        *************************************************************


Done Job For Fragment 1
calling putenv with: QCSCRATCH=/global/cscratch1/sd/meili 
calling putenv with: QCLOCALSCR=/tmp 
calling putenv with: QCTHREADS=32 
Doing General SCFMI
 Exchange:     0.1670 Hartree-Fock + 1.0000 wB97X-V + LR-HF
 Correlation:  1.0000 wB97X-V
 Using Euler-Maclaurin-Lebedev (99,590) quadrature formula
 Nonlocal Correlation:  VV10 with C = 0.0100 and b = 6.00 and scale = 1.00000
 Grid used for NLC:  SG-1 standard quadrature
performing fock build before subrot guess so that all methods have access
Printing subrot_rss_gen Method Specification:
Occupied Subspace Method is 0
Virtual Subspace Method is 0
Energy of the unrelaxed supersystem initial determinant -473.775777703117
performing fock build before subrot guess so that all methods have access
Printing subrot_rss_gen Method Specification:
Occupied Subspace Method is 0
Virtual Subspace Method is 0
Energy of the unrelaxed supersystem initial determinant w/ solvent -473.837021296494
write pseudocanon occs and virts to disk
write pseudocanon orbital energies to disk
Tolerance of ortho_decomp_scf: 1.00e-06
GDM subspace size: 20
Beginning the Orthogonal Decomposition of the Initial Supersystem Wavefunction
    1    -473.5533532914      1.05e-01     ortho_decomp Preconditoned Steepest Descent
    2    -473.5701232456      2.80e-03     ortho_decomp BFGS Step
    3    -473.5701905560      2.53e-04     ortho_decomp BFGS Step
    4    -473.5701907129      1.13e-05     ortho_decomp BFGS Step
    5    -473.5701907136      3.94e-07     ortho_decomp 00000 Convergence criterion met
 Hartree-Fock
 Hartree-Fock
 Hartree-Fock
Doing General SCFMI
 Exchange:     0.1670 Hartree-Fock + 1.0000 wB97X-V + LR-HF
 Correlation:  1.0000 wB97X-V
 Using Euler-Maclaurin-Lebedev (99,590) quadrature formula
 Nonlocal Correlation:  VV10 with C = 0.0100 and b = 6.00 and scale = 1.00000
 Grid used for NLC:  SG-1 standard quadrature
performing fock build at end of subrot_r(subrot) constructor so that all methods have access
<S^2> of initial wavefunction before polarization iterations 0.0000000000
Beginning iterations for the determination of the polarized wavefunction
Energy prior to optimization (guess energy) = -473.837021296494
Begin Timing: Total SCF Calculation
begin iterations for algorithm: DIIS         
the SCF tolerance is set to 1.00e-08
    1    -473.8370212965      3.20e-04     00000 
    2    -473.8427483563      1.13e-04     00000 
    3    -473.8433236134      6.99e-05     00000 
    4    -473.8434851365      2.38e-05     00000 
    5    -473.8435107942      1.10e-05     00000 
    6    -473.8435167940      5.71e-06     00000 
    7    -473.8435181833      2.40e-06     00000 
    8    -473.8435184680      8.69e-07     00000 
    9    -473.8435185137      3.41e-07     00000 
   10    -473.8435185175      1.38e-07     00000 
   11    -473.8435185184      4.07e-08     00000 
   12    -473.8435185185      2.10e-08     00000 
   13    -473.8435185185      8.97e-09     00000 Convergence criterion met
write pseudocanon occs and virts to disk
write pseudocanon orbital energies to disk
Timing for Total SCF: 3203.00s (wall), 6352.45s (cpu)
<S^2> of polarized wavefunction after polarization iterations 0.0000000000
relaxing scfmi constraint to allow all rotations in the entire AO span
Doing General SCFMI
 Exchange:     0.1670 Hartree-Fock + 1.0000 wB97X-V + LR-HF
 Correlation:  1.0000 wB97X-V
 Using Euler-Maclaurin-Lebedev (99,590) quadrature formula
 Nonlocal Correlation:  VV10 with C = 0.0100 and b = 6.00 and scale = 1.00000
 Grid used for NLC:  SG-1 standard quadrature
performing fock build at end of subrot_r(subrot) constructor so that all methods have access
<S^2> of polarized wavefunction before ct-allowed iterations 0.0000000000
Beginning iterations for the determination of the CT-Allowed wavefunction
Energy prior to optimization (guess energy) = -473.843518518520
Begin Timing: Total SCF Calculation
begin iterations for algorithm: DIIS         
the SCF tolerance is set to 1.00e-08
    1    -473.8435185185      2.43e-04     00000 
    2    -473.8504344620      4.19e-05     00000 
    3    -473.8507219477      2.68e-05     00000 
    4    -473.8507688824      9.25e-06     00000 
    5    -473.8507772290      3.09e-06     00000 
    6    -473.8507780598      8.83e-07     00000 
    7    -473.8507781918      4.06e-07     00000 
    8    -473.8507782150      8.32e-08     00000 
    9    -473.8507782169      3.62e-08     00000 
   10    -473.8507782171      1.39e-08     00000 
   11    -473.8507782171      3.58e-09     00000 Convergence criterion met
write pseudocanon occs and virts to disk
write pseudocanon orbital energies to disk
Timing for Total SCF: 2641.00s (wall), 5248.21s (cpu)
<S^2> of ct_allowed wavefunction after ct-allowed iterations 0.0000000000

================================
        Results of EDA2         
================================
Basic EDA Quantities
--------------------
Fragment Energies (Ha):
1 -228.6424025656
2 -245.1806829237
--------------------
  E_prp (kJ/mol) = 0.0000
  E_sol (kJ/mol) = 320.4442
  E_frz (kJ/mol) = -357.0331
  E_pol (kJ/mol) = -17.0587
  E_vct (kJ/mol) = -19.0606
  E_int (kJ/mol) = -72.7081
--------------------


Initial Wavefunction Decomposition
--------------------
  --------------------
  Orthogonal Fragment Subspace Decomposition:
  --------------------
     E_elec   (ELEC)   (kJ/mol) = -484.3720
     E_pauli  (PAULI)  (kJ/mol) = 150.2870
     E_disp   (DISP)   (kJ/mol) = -22.9481
     --------------------
     Terms summing to E_pauli:
     --------------------
        E_kep_pauli       (kJ/mol) = 182.7419
        E_disp_free_pauli (kJ/mol) = -32.4549
  --------------------
  Classical Frozen Decomposition:
  --------------------
     E_cls_elec  (CLS ELEC)  (kJ/mol) = -427.6958
     E_cls_pauli (CLS PAULI) (kJ/mol) = 70.6627
    [E_mod_pauli (MOD PAULI) (kJ/mol) = 93.6108 (CLS PAULI - DISP from orthogonal decomposition) ]
  --------------------
--------------------

Simplified EDA Summary (kJ/mol)
--------------------
 PREPARATION     0.0000
 SOLVATION       320.4442
 FROZEN          -334.0850      (does not include dispersion)
[PAULI           150.2870]     (if this is negligible, then frozen describes electrostatics)
 DISPERSION      -22.9481
 POLARIZATION    -17.0587
 CHARGE TRANSFER -19.0606
 TOTAL           -72.7081     (PRP + SOL + FRZ + DISP + POL + CT)
--------------------
 
 --------------------------------------------------------------
 
                    Orbital Energies (a.u.)
 --------------------------------------------------------------
 
 Alpha MOs
 -- Occupied --
-19.1485 -19.1362 -14.4632 -14.4546 -14.4504 -10.4295 -10.3442 -10.3219
-10.2493  -1.1824  -1.1532  -1.0625  -1.0554  -1.0506  -0.8648  -0.8414
 -0.7761  -0.7310  -0.7020  -0.6375  -0.6249  -0.6061  -0.6017  -0.5817
 -0.5431  -0.5417  -0.5393  -0.5324  -0.5158  -0.4751  -0.4598  -0.4112
 -0.3827  -0.3506  -0.3476  -0.3283
 -- Virtual --
  0.0510   0.0693   0.0756   0.0865   0.0969   0.1015   0.1032   0.1149
  0.1223   0.1255   0.1319   0.1349   0.1512   0.1536   0.1564   0.1711
  0.1753   0.1798   0.1846   0.1965   0.1981   0.2040   0.2181   0.2226
  0.2276   0.2359   0.2374   0.2451   0.2491   0.2525   0.2704   0.2724
  0.2755   0.2813   0.2833   0.2877   0.2952   0.3028   0.3056   0.3162
  0.3200   0.3232   0.3287   0.3343   0.3354   0.3402   0.3453   0.3539
  0.3580   0.3613   0.3656   0.3678   0.3779   0.3834   0.3909   0.3978
  0.4017   0.4059   0.4147   0.4186   0.4295   0.4362   0.4376   0.4413
  0.4446   0.4501   0.4539   0.4632   0.4645   0.4714   0.4736   0.4825
  0.4910   0.4943   0.5014   0.5057   0.5087   0.5109   0.5172   0.5287
  0.5358   0.5367   0.5484   0.5553   0.5592   0.5642   0.5668   0.5692
  0.5768   0.5846   0.5946   0.6007   0.6060   0.6161   0.6202   0.6270
  0.6400   0.6477   0.6528   0.6570   0.6640   0.6738   0.6755   0.6820
  0.6869   0.6956   0.7014   0.7091   0.7177   0.7208   0.7328   0.7368
  0.7474   0.7500   0.7592   0.7662   0.7680   0.7801   0.7857   0.7958
  0.7999   0.8057   0.8171   0.8196   0.8250   0.8372   0.8501   0.8529
  0.8638   0.8687   0.8800   0.8961   0.9138   0.9171   0.9288   0.9331
  0.9531   0.9643   0.9745   0.9866   1.0004   1.0086   1.0141   1.0190
  1.0283   1.0515   1.0705   1.0796   1.0939   1.1068   1.1101   1.1212
  1.1262   1.1322   1.1402   1.1442   1.1617   1.1765   1.1875   1.2095
  1.2233   1.2304   1.2382   1.2649   1.2700   1.2922   1.3279   1.3343
  1.3425   1.3672   1.3848   1.3911   1.3941   1.4154   1.4290   1.4517
  1.4672   1.4861   1.5202   1.5347   1.5676   1.5817   1.6041   1.6116
  1.6509   1.6853   1.6963   1.7038   1.7366   1.7654   1.7828   1.8323
  1.8641   1.8696   1.8873   1.8948   1.9046   1.9109   1.9265   1.9364
  1.9512   1.9551   1.9587   1.9690   1.9950   2.0003   2.0083   2.0191
  2.0209   2.0363   2.0581   2.0886   2.1199   2.1329   2.1396   2.1476
  2.1737   2.1975   2.2084   2.2176   2.2273   2.2461   2.2555   2.2706
  2.3024   2.3332   2.3363   2.3511   2.3728   2.4168   2.4267   2.4397
  2.4658   2.4960   2.4980   2.5291   2.5483   2.5524   2.5675   2.5751
  2.5919   2.6041   2.6293   2.6340   2.6514   2.6694   2.6799   2.6908
  2.7086   2.7232   2.7320   2.7459   2.7962   2.8258   2.8285   2.8559
  2.8796   2.8975   2.9028   2.9330   2.9410   2.9541   2.9749   3.0036
  3.0111   3.0269   3.0913   3.1041   3.1514   3.1700   3.1749   3.2000
  3.2071   3.2306   3.2543   3.2566   3.2680   3.2739   3.2901   3.3066
  3.3259   3.3353   3.3396   3.3491   3.3880   3.3984   3.3999   3.4251
  3.4292   3.4368   3.4499   3.4695   3.4797   3.4952   3.5194   3.5451
  3.5887   3.6054   3.6175   3.6346   3.6467   3.6564   3.6651   3.6803
  3.7019   3.7437   3.7511   3.7838   3.8153   3.8544   3.8839   3.9380
  3.9702   3.9803   4.0184   4.0678   4.0891   4.0971   4.1415   4.1835
  4.2242   4.2348   4.3155   4.3379   4.3532   4.3676   4.3873   4.4023
  4.5007   4.5352   4.5774   4.6266   4.6627   4.6862   4.6927   4.8310
  4.8441   4.8554   4.8878   4.9121   4.9743   5.0097   5.0173   5.0424
  5.0819   5.1264   5.1389   5.1561   5.1919   5.1985   5.2290   5.2978
  5.3139   5.3519   5.3573   5.3630   5.3724   5.3970   5.4118   5.4551
  5.4702   5.4878   5.5188   5.5300   5.5919   5.6838   5.7251   5.7377
  5.7625   5.7855   5.8188   5.8304   5.9268   6.0263   6.1345   6.2163
  6.2575   6.3505   6.3842   6.3927   6.4898   6.6376   6.6591   6.7440
  6.7561   6.7795   6.9769   7.0021   7.0478   7.2628   7.3613   7.4008
  7.4717  22.6281  22.6757  23.7008  23.7534  32.3688  32.5160  32.9415
 44.3925  44.4244
 --------------------------------------------------------------
 
          Ground-State Mulliken Net Atomic Charges

     Atom                 Charge (a.u.)
  ----------------------------------------
      1 C                    -0.402766
      2 C                     0.342650
      3 O                    -0.790952
      4 O                    -0.666866
      5 H                     0.069176
      6 H                     0.170460
      7 H                     0.186590
      8 C                    -0.954795
      9 C                     0.495374
     10 N                     0.030212
     11 N                    -0.220420
     12 N                    -0.186678
     13 H                     0.243868
     14 H                     0.155672
     15 H                     0.194272
     16 H                     0.234091
     17 H                     0.167157
     18 H                     0.268551
     19 H                     0.391832
     20 H                     0.272572
  ----------------------------------------
  Sum of atomic charges =     0.000000

 -----------------------------------------------------------------
                    Cartesian Multipole Moments
 -----------------------------------------------------------------
    Charge (ESU x 10^10)
                -0.0000
    Dipole Moment (Debye)
         X      14.2035      Y      -9.4666      Z      -8.1738
       Tot      18.9253
    Quadrupole Moments (Debye-Ang)
        XX     -43.8437     XY       8.4699     YY     -60.9574
        XZ      12.1079     YZ      -2.6529     ZZ     -59.7789
    Octopole Moments (Debye-Ang^2)
       XXX     139.7411    XXY     -56.7704    XYY      47.7944
       YYY     -46.1794    XXZ     -29.0738    XYZ      39.1402
       YYZ     -35.6772    XZZ      36.3755    YZZ     -27.0760
       ZZZ     -14.0423
    Hexadecapole Moments (Debye-Ang^3)
      XXXX   -1035.1621   XXXY     358.4549   XXYY    -388.3996
      XYYY     386.6273   YYYY    -725.5856   XXXZ     158.1229
      XXYZ     -82.9894   XYYZ      68.1593   YYYZ    -196.3545
      XXZZ    -311.3035   XYZZ     137.1468   YYZZ    -200.7819
      XZZZ     126.9468   YZZZ    -184.5467   ZZZZ    -460.2412
 -----------------------------------------------------------------
Archival summary:
1\1\nid00532\SP\ProcedureUnspecified\BasisUnspecified\23411\meili\SunSep2620:39:562021SunSep2620:39:562021\0\\#,ProcedureUnspecified,BasisUnspecified,\\0,1\O\C,1,1.25243\O,2,1.25162,1,123.135\C,2,1.51712,1,117.923,3,179.946,0\H,4,1.0879,2,110.002,1,-118.845,0\H,4,1.09123,2,108.614,1,-1.98082,0\H,4,1.1,2,112.226,1,118.856,0\H,1,1.91361,2,124.759,3,178.227,0\N,8,1.0186,1,151.301,2,117.913,0\C,9,1.32532,8,115.686,1,17.2035,0\N,10,1.31747,9,119.683,8,0.552213,0\H,11,1.00568,10,121.824,9,176.193,0\H,11,1.02039,10,116.435,9,-0.523593,0\N,10,1.31975,9,120.675,8,-178.04,0\H,14,1.00663,10,119.993,9,-4.2443,0\H,14,1.00734,10,120.326,9,-178.552,0\C,9,1.4693,8,119.083,1,-160.078,0\H,17,1.09272,9,110.973,8,-141.311,0\H,17,1.09305,9,108.477,8,-23.4712,0\H,17,1.1,9,111.126,8,95.5623,0\\\@

 Total job time:  28915.95s(wall), 19117.18s(cpu) 
 Sun Sep 26 20:39:59 2021

        *************************************************************
        *                                                           *
        *  Thank you very much for using Q-Chem.  Have a nice day.  *
        *                                                           *
        *************************************************************


