
Running Job 1 of 1 SSI-028GLU-072HIE-1_SMD_TZVPD.in
qchem SSI-028GLU-072HIE-1_SMD_TZVPD.in_64476.0 /tmp/qchem64476/ 0
/global/common/cori/software/qchem/5.2/exe/qcprog.exe_s SSI-028GLU-072HIE-1_SMD_TZVPD.in_64476.0 /tmp/qchem64476/
                  Welcome to Q-Chem
     A Quantum Leap Into The Future Of Chemistry


 Q-Chem 5.2, Q-Chem, Inc., Pleasanton, CA (2019)

 License issued to: National Energy Research Scientific Computing Center

 Yihan Shao,  Zhengting Gan,  E. Epifanovsky,  A. T. B. Gilbert,  M. Wormit,  
 J. Kussmann,  A. W. Lange,  A. Behn,  Jia Deng,  Xintian Feng,  D. Ghosh,  
 M. Goldey,  P. R. Horn,  L. D. Jacobson,  I. Kaliman,  T. Kus,  A. Landau,  
 Jie Liu,  E. I. Proynov,  R. M. Richard,  R. P. Steele,  E. J. Sundstrom,  
 H. L. Woodcock III,  P. M. Zimmerman,  D. Zuev,  B. Albrecht,  E. Alguire,  
 S. A. Baeppler,  D. Barton,  Z. Benda,  Y. A. Bernard,  E. J. Berquist,  
 K. B. Bravaya,  H. Burton,  D. Casanova,  Chun-Min Chang,  Yunqing Chen,  
 A. Chien,  K. D. Closser,  M. P. Coons,  S. Coriani,  S. Dasgupta,  
 A. L. Dempwolff,  M. Diedenhofen,  Hainam Do,  R. G. Edgar,  Po-Tung Fang,  
 S. Faraji,  S. Fatehi,  Qingguo Feng,  K. D. Fenk,  J. Fosso-Tande,  
 J. Gayvert,  Qinghui Ge,  A. Ghysels,  G. Gidofalvi,  J. Gomes,  
 J. Gonthier,  A. Gunina,  D. Hait,  M. W. D. Hanson-Heine,  
 P. H. P. Harbach,  A. W. Hauser,  M. F. Herbst,  J. E. Herr,  
 E. G. Hohenstein,  Z. C. Holden,  Kerwin Hui,  B. C. Huynh,  T.-C. Jagau,  
 Hyunjun Ji,  B. Kaduk,  K. Khistyaev,  Jaehoon Kim,  P. Klunzinger,  K. Koh,  
 D. Kosenkov,  L. Koulias,  T. Kowalczyk,  C. M. Krauter,  A. Kunitsa,  
 Ka Un Lao,  A. Laurent,  K. V. Lawler,  Joonho Lee,  D. Lefrancois,  
 S. Lehtola,  D. S. Levine,  Yi-Pei Li,  You-Sheng Lin,  Fenglai Liu,  
 E. Livshits,  A. Luenser,  P. Manohar,  E. Mansoor,  S. F. Manzer,  
 Shan-Ping Mao,  Yuezhi Mao,  N. Mardirossian,  A. V. Marenich,  
 T. Markovich,  L. A. Martinez-Martinez,  S. A. Maurer,  N. J. Mayhall,  
 S. C. McKenzie,  J.-M. Mewes,  P. Morgante,  A. F. Morrison,  
 J. W. Mullinax,  K. Nanda,  T. S. Nguyen-Beck,  R. Olivares-Amaya,  
 J. A. Parkhill,  Zheng Pei,  T. M. Perrine,  F. Plasser,  P. Pokhilko,  
 S. Prager,  A. Prociuk,  E. Ramos,  D. R. Rehn,  F. Rob,  M. Scheurer,  
 M. Schneider,  N. Sergueev,  S. M. Sharada,  S. Sharma,  D. W. Small,  
 T. Stauch,  T. Stein,  Yu-Chuan Su,  A. J. W. Thom,  A. Tkatchenko,  
 T. Tsuchimochi,  N. M. Tubman,  L. Vogt,  M. L. Vidal,  O. Vydrov,  
 M. A. Watson,  J. Wenzel,  M. de Wergifosse,  T. A. Wesolowski,  A. White,  
 J. Witte,  A. Yamada,  Jun Yang,  K. Yao,  S. Yeganeh,  S. R. Yost,  
 Zhi-Qiang You,  A. Zech,  Igor Ying Zhang,  Xing Zhang,  Yan Zhao,  
 Ying Zhu,  B. R. Brooks,  G. K. L. Chan,  C. J. Cramer,  M. S. Gordon,  
 W. J. Hehre,  A. Klamt,  M. W. Schmidt,  C. D. Sherrill,  D. G. Truhlar,  
 A. Aspuru-Guzik,  R. Baer,  A. T. Bell,  N. A. Besley,  Jeng-Da Chai,  
 A. E. DePrince, III,  R. A. DiStasio Jr.,  A. Dreuw,  B. D. Dunietz,  
 T. R. Furlani,  Chao-Ping Hsu,  Yousung Jung,  Jing Kong,  D. S. Lambrecht,  
 WanZhen Liang,  C. Ochsenfeld,  V. A. Rassolov,  L. V. Slipchenko,  
 J. E. Subotnik,  T. Van Voorhis,  J. M. Herbert,  A. I. Krylov,  
 P. M. W. Gill,  M. Head-Gordon

 Contributors to earlier versions of Q-Chem not listed above: 
 R. D. Adamson,  B. Austin,  J. Baker,  G. J. O. Beran,  K. Brandhorst,  
 S. T. Brown,  E. F. C. Byrd,  A. K. Chakraborty,  C.-L. Cheng,  
 Siu Hung Chien,  D. M. Chipman,  D. L. Crittenden,  H. Dachsel,  
 R. J. Doerksen,  A. D. Dutoi,  L. Fusti-Molnar,  W. A. Goddard III,  
 A. Golubeva-Zadorozhnaya,  S. R. Gwaltney,  G. Hawkins,  A. Heyden,  
 S. Hirata,  G. Kedziora,  F. J. Keil,  C. Kelley,  Jihan Kim,  R. A. King,  
 R. Z. Khaliullin,  P. P. Korambath,  W. Kurlancheek,  A. M. Lee,  M. S. Lee,  
 S. V. Levchenko,  Ching Yeh Lin,  D. Liotard,  R. C. Lochan,  I. Lotan,  
 P. E. Maslen,  N. Nair,  D. P. O'Neill,  D. Neuhauser,  E. Neuscamman,  
 C. M. Oana,  R. Olson,  B. Peters,  R. Peverati,  P. A. Pieniazek,  
 Y. M. Rhee,  J. Ritchie,  M. A. Rohrdanz,  E. Rosta,  N. J. Russ,  
 H. F. Schaefer III,  N. E. Schultz,  N. Shenvi,  A. C. Simmonett,  A. Sodt,  
 D. Stuck,  K. S. Thanthiriwatte,  V. Vanovschi,  Tao Wang,  A. Warshel,  
 C. F. Williams,  Q. Wu,  X. Xu,  W. Zhang

 Please cite Q-Chem as follows:
 Y. Shao et al., Mol. Phys. 113, 184-215 (2015)
 DOI: 10.1080/00268976.2014.952696

 Q-Chem 5.2.0 for Intel X86 EM64T Linux

 Parts of Q-Chem use Armadillo 8.300.2 (Tropical Shenanigans).
 http://arma.sourceforge.net/

 Q-Chem begins on Sun Sep 26 04:34:59 2021  

Host: cori01
0

     Scratch files written to /tmp/qchem64476//
 May1019 |scratch|qcdevops|jenkins|workspace|build_RNUM -1
Processing $rem in /global/common/cori/software/qchem/5.2/config/preferences:
	 MEM_TOTAL  96000 
NAlpha2: 76
NElect   76
Mult     1
Symmetry turned off for PCM/SM12/SMD calculation

 Q-Chem warning in module libgen/rem_setup.C, line 2803:

 Neither GIA nor STOLL is specified by user. Use STOLL as the default


Checking the input file for inconsistencies... 	...done.

--------------------------------------------------------------
User input:
--------------------------------------------------------------
$comment
SSI-028GLU-072HIE-1.pdb
$end

$molecule
-1 1
--
-1 1
C   -2.438970174716    0.863459666491   -3.288793832674
C   -1.580970174716   -0.002540333509   -2.397793832674
O   -1.560970174716    0.258459666491   -1.180793832674
O   -0.924970174716   -0.932540333509   -2.912793832674
H   -2.908970174716    1.658459666491   -2.704793832674
H   -3.244970174716    0.267459666491   -3.712793832674
H   -1.838893174716    1.330186666491   -4.083823832674
--
0 1
C    1.840029825284    0.849459666491    3.666206167326
C    1.183029825284   -1.155540333509    0.715206167326
C    0.477029825284    0.790459666491    1.464206167326
C    1.370029825284    0.295459666491    2.359206167326
N    0.392029825284   -0.129540333509    0.449206167326
N    1.792029825284   -0.927540333509    1.874206167326
H   -0.207970174716   -0.061540333509   -0.363793832674
H    1.308029825284   -2.032540333509    0.089206167326
H   -0.066970174716    1.719459666491    1.540206167326
H    1.906029825284    1.936459666491    3.604206167326
H    2.850029825284    0.473459666491    3.830206167326
H    1.188336825284    0.557969666491    4.503066167326
$end

$rem
JOBTYPE			EDA
EDA2			1
method			wB97X-V
BASIS			def2-TZVPD
XC_GRID			000099000590
NL_GRID			1
UNRESTRICTED		FALSE
MAX_SCF_CYCLES		200
SYMMETRY		FALSE
SYM_IGNORE		TRUE
MEM_STATIC		2000
BASIS_LIN_DEP_THRESH 	6
THRESH 			14
SCF_CONVERGENCE 	8
SCF_PRINT_FRGM 		TRUE
SOLVENT_METHOD          SMD
$end

$SMX
SOLVENT			WATER
$END
--------------------------------------------------------------
 ----------------------------------------------------------------
             Standard Nuclear Orientation (Angstroms)
    I     Atom           X                Y                Z
 ----------------------------------------------------------------
    1      C      -2.4389701747     0.8634596665    -3.2887938327
    2      C      -1.5809701747    -0.0025403335    -2.3977938327
    3      O      -1.5609701747     0.2584596665    -1.1807938327
    4      O      -0.9249701747    -0.9325403335    -2.9127938327
    5      H      -2.9089701747     1.6584596665    -2.7047938327
    6      H      -3.2449701747     0.2674596665    -3.7127938327
    7      H      -1.8388931747     1.3301866665    -4.0838238327
    8      C       1.8400298253     0.8494596665     3.6662061673
    9      C       1.1830298253    -1.1555403335     0.7152061673
   10      C       0.4770298253     0.7904596665     1.4642061673
   11      C       1.3700298253     0.2954596665     2.3592061673
   12      N       0.3920298253    -0.1295403335     0.4492061673
   13      N       1.7920298253    -0.9275403335     1.8742061673
   14      H      -0.2079701747    -0.0615403335    -0.3637938327
   15      H       1.3080298253    -2.0325403335     0.0892061673
   16      H      -0.0669701747     1.7194596665     1.5402061673
   17      H       1.9060298253     1.9364596665     3.6042061673
   18      H       2.8500298253     0.4734596665     3.8302061673
   19      H       1.1883368253     0.5579696665     4.5030661673
 ----------------------------------------------------------------
 Nuclear Repulsion Energy =         487.35693348 hartrees
 There are       38 alpha and       38 beta electrons
 Requested basis set is def2-TZVPD
 There are 177 shells and 457 basis functions

 Total QAlloc Memory Limit  96000 MB
 Mega-Array Size      1956 MB
 MEM_STATIC part      2000 MB
 
 Citation of the SMD model:
 Marenich, A.V.; Cramer, C.J.; Truhlar, D.G.
 J. Phys. Chem. B 2009, 113, 6378-6396.
 iSolventCode=           1
 Solvent: water                                                           
 
 vradii
            1           2           3           4           5           6
    1   1.8500000   1.8500000   1.5200000   1.5200000   1.2000000   1.2000000
            7           8           9          10          11          12
    1   1.2000000   1.8500000   1.8500000   1.8500000   1.8500000   1.8900000
           13          14          15          16          17          18
    1   1.8900000   1.2000000   1.2000000   1.2000000   1.2000000   1.2000000
           19
    1   1.2000000
 Changing PCM_VDW_RADII to SMD_RADIUS
 Discretize the solute cavity surface with Lebedev spheres
	Using 110 Lebedev grid points for each H atom
	Using 194 Lebedev grid points for other atoms
	Atomic van der Waals radii will be scaled by 1.20
 Remove points where switching function is < 1.0e-08
 Keep 1486 surface tesserae and discard 1444 interior tesserae
 Molecular Surface Area = 185.456 Angst**2
 A cutoff of  1.0D-14 yielded  13603 shell pairs
 There are     91467 function pairs (    116414 Cartesian)
 Smallest overlap matrix eigenvalue = 1.19E-06

 Scale SEOQF with 1.000000e-01/1.000000e-01/1.000000e-01

 Standard Electronic Orientation quadrupole field applied
 Nucleus-field energy     =    -0.0000000353 hartrees

 -----------------------------------------------------------------------
  General SCF calculation program by
  Eric Jon Sundstrom, Paul Horn, Yuezhi Mao, Dmitri Zuev, Alec White,
  David Stuck, Shaama M.S., Shane Yost, Joonho Lee, David Small,
  Daniel Levine, Susi Lehtola, Hugh Burton, Evgeny Epifanovsky
 -----------------------------------------------------------------------
================================================================
                 ALMO-EDA with the EDA2 driver                  
================================================================
 The second-generation ALMO-EDA (for DFT):                      
 P. R. Horn, Y. Mao and M. Head-Gordon, PCCP, 18, 23067 (2016)  
 Decomposition of the frozen energy:                            
 P. R. Horn, Y. Mao and M. Head-Gordon, JCP, 144, 114107 (2016) 
 FERF model for polarization:                                   
 P. R. Horn and M. Head-Gordon, JCP, 143, 114111 (2015)         
Using eda2 option set 1
Option set summary: Frozen orbital wavefunction, initial wavefunction decomposition, and nDQ polarization.
--------------------------------
Printing EDA Options
--------------------------------
eda_child_super_basis      0
fragmo_guess_mode          0
child_mp                   1
child_mp_orders            232
cls_elec                   1
cls_disp                   0
scfmi_mode                 1
scfmi_occs                 0
scfmi_virts                0
frz_relax                  0
frz_relax_method           0
dc_pen_start               0
dc_pen_conv                0
dc_pen_increment           0
dc_pen_steps               0
dc_pen_thresh_factor       0
dc_pen_pre_newton_thresh   0
frz_ortho_decomp           1
frz_ortho_decomp_conv      6
frgm_method                2
scfmi_freeze_ss            0
separate_rehyb             0
plot_diff_den              0
eda_nocv                   0
eda_vct_relax              1
disp_free_x                0
disp_free_c                0
eda_bsse                   0
eda_pct_a                  0
eda_covp                   0
--------------------------------
Attempting to make child job directory: /tmp/qchem64476//Frg1/
Attempting to make child job directory: /tmp/qchem64476//Frg2/
Creating input file /tmp/qchem64476/Frg1.input
using default PutDataFrgm: nothing
calling putenv with: QCSCRATCH=/tmp/qchem64476/ 
calling putenv with: QCLOCALSCR=/tmp/qchem64476/ 
Spawning Job For Fragment 0
                  Welcome to Q-Chem
     A Quantum Leap Into The Future Of Chemistry


 Q-Chem 5.2, Q-Chem, Inc., Pleasanton, CA (2019)

 License issued to: National Energy Research Scientific Computing Center

 Yihan Shao,  Zhengting Gan,  E. Epifanovsky,  A. T. B. Gilbert,  M. Wormit,  
 J. Kussmann,  A. W. Lange,  A. Behn,  Jia Deng,  Xintian Feng,  D. Ghosh,  
 M. Goldey,  P. R. Horn,  L. D. Jacobson,  I. Kaliman,  T. Kus,  A. Landau,  
 Jie Liu,  E. I. Proynov,  R. M. Richard,  R. P. Steele,  E. J. Sundstrom,  
 H. L. Woodcock III,  P. M. Zimmerman,  D. Zuev,  B. Albrecht,  E. Alguire,  
 S. A. Baeppler,  D. Barton,  Z. Benda,  Y. A. Bernard,  E. J. Berquist,  
 K. B. Bravaya,  H. Burton,  D. Casanova,  Chun-Min Chang,  Yunqing Chen,  
 A. Chien,  K. D. Closser,  M. P. Coons,  S. Coriani,  S. Dasgupta,  
 A. L. Dempwolff,  M. Diedenhofen,  Hainam Do,  R. G. Edgar,  Po-Tung Fang,  
 S. Faraji,  S. Fatehi,  Qingguo Feng,  K. D. Fenk,  J. Fosso-Tande,  
 J. Gayvert,  Qinghui Ge,  A. Ghysels,  G. Gidofalvi,  J. Gomes,  
 J. Gonthier,  A. Gunina,  D. Hait,  M. W. D. Hanson-Heine,  
 P. H. P. Harbach,  A. W. Hauser,  M. F. Herbst,  J. E. Herr,  
 E. G. Hohenstein,  Z. C. Holden,  Kerwin Hui,  B. C. Huynh,  T.-C. Jagau,  
 Hyunjun Ji,  B. Kaduk,  K. Khistyaev,  Jaehoon Kim,  P. Klunzinger,  K. Koh,  
 D. Kosenkov,  L. Koulias,  T. Kowalczyk,  C. M. Krauter,  A. Kunitsa,  
 Ka Un Lao,  A. Laurent,  K. V. Lawler,  Joonho Lee,  D. Lefrancois,  
 S. Lehtola,  D. S. Levine,  Yi-Pei Li,  You-Sheng Lin,  Fenglai Liu,  
 E. Livshits,  A. Luenser,  P. Manohar,  E. Mansoor,  S. F. Manzer,  
 Shan-Ping Mao,  Yuezhi Mao,  N. Mardirossian,  A. V. Marenich,  
 T. Markovich,  L. A. Martinez-Martinez,  S. A. Maurer,  N. J. Mayhall,  
 S. C. McKenzie,  J.-M. Mewes,  P. Morgante,  A. F. Morrison,  
 J. W. Mullinax,  K. Nanda,  T. S. Nguyen-Beck,  R. Olivares-Amaya,  
 J. A. Parkhill,  Zheng Pei,  T. M. Perrine,  F. Plasser,  P. Pokhilko,  
 S. Prager,  A. Prociuk,  E. Ramos,  D. R. Rehn,  F. Rob,  M. Scheurer,  
 M. Schneider,  N. Sergueev,  S. M. Sharada,  S. Sharma,  D. W. Small,  
 T. Stauch,  T. Stein,  Yu-Chuan Su,  A. J. W. Thom,  A. Tkatchenko,  
 T. Tsuchimochi,  N. M. Tubman,  L. Vogt,  M. L. Vidal,  O. Vydrov,  
 M. A. Watson,  J. Wenzel,  M. de Wergifosse,  T. A. Wesolowski,  A. White,  
 J. Witte,  A. Yamada,  Jun Yang,  K. Yao,  S. Yeganeh,  S. R. Yost,  
 Zhi-Qiang You,  A. Zech,  Igor Ying Zhang,  Xing Zhang,  Yan Zhao,  
 Ying Zhu,  B. R. Brooks,  G. K. L. Chan,  C. J. Cramer,  M. S. Gordon,  
 W. J. Hehre,  A. Klamt,  M. W. Schmidt,  C. D. Sherrill,  D. G. Truhlar,  
 A. Aspuru-Guzik,  R. Baer,  A. T. Bell,  N. A. Besley,  Jeng-Da Chai,  
 A. E. DePrince, III,  R. A. DiStasio Jr.,  A. Dreuw,  B. D. Dunietz,  
 T. R. Furlani,  Chao-Ping Hsu,  Yousung Jung,  Jing Kong,  D. S. Lambrecht,  
 WanZhen Liang,  C. Ochsenfeld,  V. A. Rassolov,  L. V. Slipchenko,  
 J. E. Subotnik,  T. Van Voorhis,  J. M. Herbert,  A. I. Krylov,  
 P. M. W. Gill,  M. Head-Gordon

 Contributors to earlier versions of Q-Chem not listed above: 
 R. D. Adamson,  B. Austin,  J. Baker,  G. J. O. Beran,  K. Brandhorst,  
 S. T. Brown,  E. F. C. Byrd,  A. K. Chakraborty,  C.-L. Cheng,  
 Siu Hung Chien,  D. M. Chipman,  D. L. Crittenden,  H. Dachsel,  
 R. J. Doerksen,  A. D. Dutoi,  L. Fusti-Molnar,  W. A. Goddard III,  
 A. Golubeva-Zadorozhnaya,  S. R. Gwaltney,  G. Hawkins,  A. Heyden,  
 S. Hirata,  G. Kedziora,  F. J. Keil,  C. Kelley,  Jihan Kim,  R. A. King,  
 R. Z. Khaliullin,  P. P. Korambath,  W. Kurlancheek,  A. M. Lee,  M. S. Lee,  
 S. V. Levchenko,  Ching Yeh Lin,  D. Liotard,  R. C. Lochan,  I. Lotan,  
 P. E. Maslen,  N. Nair,  D. P. O'Neill,  D. Neuhauser,  E. Neuscamman,  
 C. M. Oana,  R. Olson,  B. Peters,  R. Peverati,  P. A. Pieniazek,  
 Y. M. Rhee,  J. Ritchie,  M. A. Rohrdanz,  E. Rosta,  N. J. Russ,  
 H. F. Schaefer III,  N. E. Schultz,  N. Shenvi,  A. C. Simmonett,  A. Sodt,  
 D. Stuck,  K. S. Thanthiriwatte,  V. Vanovschi,  Tao Wang,  A. Warshel,  
 C. F. Williams,  Q. Wu,  X. Xu,  W. Zhang

 Please cite Q-Chem as follows:
 Y. Shao et al., Mol. Phys. 113, 184-215 (2015)
 DOI: 10.1080/00268976.2014.952696

 Q-Chem 5.2.0 for Intel X86 EM64T Linux

 Parts of Q-Chem use Armadillo 8.300.2 (Tropical Shenanigans).
 http://arma.sourceforge.net/

 Q-Chem begins on Sun Sep 26 04:35:03 2021  

Host: cori01
0

     Scratch files written to /tmp/qchem64476//Frg1//
 May1019 |scratch|qcdevops|jenkins|workspace|build_RNUM -1
Processing $rem in /global/common/cori/software/qchem/5.2/config/preferences:
	 MEM_TOTAL  96000 
NAlpha2: 32
NElect   32
Mult     1
Symmetry turned off for PCM/SM12/SMD calculation

Checking the input file for inconsistencies... 	...done.

--------------------------------------------------------------
User input:
--------------------------------------------------------------
$molecule
-1 1
 6	-2.4389701747	0.8634596665	-3.2887938327
 6	-1.5809701747	-0.0025403335	-2.3977938327
 8	-1.5609701747	0.2584596665	-1.1807938327
 8	-0.9249701747	-0.9325403335	-2.9127938327
 1	-2.9089701747	1.6584596665	-2.7047938327
 1	-3.2449701747	0.2674596665	-3.7127938327
 1	-1.8388931747	1.3301866665	-4.0838238327
$end
$rem
EDA2		1
METHOD		WB97X-V
BASIS		DEF2-TZVPD
XC_GRID		000099000590
NL_GRID		1
UNRESTRICTED		FALSE
MAX_SCF_CYCLES		200
SYMMETRY		FALSE
SYM_IGNORE		TRUE
BASIS_LIN_DEP_THRESH		6
THRESH		14
SCF_CONVERGENCE		8
SCF_PRINT_FRGM		TRUE
SOLVENT_METHOD		SMD
!required keywords
JOBTYPE		SP
SYM_IGNORE		TRUE
SUBSYSTEM		TRUE
GEN_SCFMAN		TRUE
CHILD_INSTRUCTION		2
SYM_IGNORE		TRUE
SCFMI		0
RI_K 0		
PARI_K 0		
MIN_PARI_K 0		
IARI_K 0		
OCC_RI_K 0		
PURECART		1111
MEM_STATIC		2000
MEM_TOTAL		96000
GUI		0
CHILD_MP		1
CHILD_MP_ORDERS		232
FRZ_RELAX		0
FRZ_RELAX_METHOD		0
EDA_CLS_ELEC		1
EDA_CLS_DISP		0
FRZ_ORTHO_DECOMP		1
EDA2		FALSE
FRGM_METHOD		FALSE
CIS_N_ROOTS  0
LOCAL_CIS    0
CIS_RLX_DNS  1
$end
$smx
SOLVENT			WATER
$end
--------------------------------------------------------------
 ----------------------------------------------------------------
             Standard Nuclear Orientation (Angstroms)
    I     Atom           X                Y                Z
 ----------------------------------------------------------------
    1      C      -2.4389701747     0.8634596665    -3.2887938327
    2      C      -1.5809701747    -0.0025403335    -2.3977938327
    3      O      -1.5609701747     0.2584596665    -1.1807938327
    4      O      -0.9249701747    -0.9325403335    -2.9127938327
    5      H      -2.9089701747     1.6584596665    -2.7047938327
    6      H      -3.2449701747     0.2674596665    -3.7127938327
    7      H      -1.8388931747     1.3301866665    -4.0838238327
 ----------------------------------------------------------------
 Nuclear Repulsion Energy =         113.11639195 hartrees
 There are       16 alpha and       16 beta electrons
 Requested basis set is def2-TZVPD
 There are 69 shells and 181 basis functions

 Total QAlloc Memory Limit  96000 MB
 Mega-Array Size      1956 MB
 MEM_STATIC part      2000 MB
 
 Citation of the SMD model:
 Marenich, A.V.; Cramer, C.J.; Truhlar, D.G.
 J. Phys. Chem. B 2009, 113, 6378-6396.
 iSolventCode=           1
 Solvent: water                                                           
 
 vradii
            1           2           3           4           5           6
    1   1.8500000   1.8500000   1.5200000   1.5200000   1.2000000   1.2000000
            7
    1   1.2000000
 Changing PCM_VDW_RADII to SMD_RADIUS
 Discretize the solute cavity surface with Lebedev spheres
	Using 110 Lebedev grid points for each H atom
	Using 194 Lebedev grid points for other atoms
	Atomic van der Waals radii will be scaled by 1.20
 Remove points where switching function is < 1.0e-08
 Keep 646 surface tesserae and discard 460 interior tesserae
 Molecular Surface Area = 79.793 Angst**2

                       Distance Matrix (Angstroms)
             C (  1)   C (  2)   O (  3)   O (  4)   H (  5)   H (  6)
   C (  2)  1.509967
   O (  3)  2.362324  1.244833
   O (  4)  2.378905  1.249184  2.196088
   H (  5)  1.092694  2.148663  2.469753  3.269985
   H (  6)  1.088406  2.137995  3.040882  2.731739  1.750383
   H (  7)  1.100000  2.164574  3.106996  2.706751  1.776106  1.801140

 
 A cutoff of  1.0D-14 yielded   2391 shell pairs
 There are     16695 function pairs (     21491 Cartesian)
 Smallest overlap matrix eigenvalue = 1.61E-05

 Scale SEOQF with 1.000000e-01/1.000000e-01/1.000000e-01

 Standard Electronic Orientation quadrupole field applied
 Nucleus-field energy     =    -0.0000000184 hartrees
 Guess from superposition of atomic densities
 Warning:  Energy on first SCF cycle will be non-variational
 SAD guess density has 30.625312 electrons

 -----------------------------------------------------------------------
  General SCF calculation program by
  Eric Jon Sundstrom, Paul Horn, Yuezhi Mao, Dmitri Zuev, Alec White,
  David Stuck, Shaama M.S., Shane Yost, Joonho Lee, David Small,
  Daniel Levine, Susi Lehtola, Hugh Burton, Evgeny Epifanovsky
 -----------------------------------------------------------------------
 Exchange:     0.1670 Hartree-Fock + 1.0000 wB97X-V + LR-HF
 Correlation:  1.0000 wB97X-V
 Using Euler-Maclaurin-Lebedev (99,590) quadrature formula
 Nonlocal Correlation:  VV10 with C = 0.0100 and b = 6.00 and scale = 1.00000
 Grid used for NLC:  SG-1 standard quadrature
Energy prior to optimization (guess energy) = -227.766902919577
Begin Timing: Total SCF Calculation
begin iterations for algorithm: DIIS         
the SCF tolerance is set to 1.00e-08
    1    -227.7669029196      1.66e-02     00000 
    2    -225.6502350056      2.48e-02     00000 
    3    -228.6060559194      4.07e-03     00000 
    4    -228.6587715658      1.40e-03     00000 
    5    -228.6647432867      3.15e-04     00000 
    6    -228.6650268920      2.19e-04     00000 
    7    -228.6651562330      4.76e-05     00000 
    8    -228.6651654963      1.30e-05     00000 
    9    -228.6651665789      3.61e-06     00000 
   10    -228.6651666807      1.07e-06     00000 
   11    -228.6651666897      2.18e-07     00000 
   12    -228.6651666901      4.77e-08     00000 
   13    -228.6651666901      1.15e-08     00000 
   14    -228.6651666901      2.86e-09     00000 Convergence criterion met
Timing for Total SCF: 275.00s (wall), 537.97s (cpu)
(3)  G-ENP(liq) elect-nuc-pol free energy of system     -228.665166690 a.u.
(4)  G-CDS(liq) cavity-dispersion-solvent structure 
     free energy                                                3.9068 kcal/mol
(6)  G-S(liq) free energy of system                     -228.658940861 a.u.
E_pcm = -0.1307302610
E_cds = 0.0062258287
Multipole orders to be included
        2
        3
computing dipole RHS
computing quadrupole RHS
total number of RHS in solve_reponses: 8
RHS batch sizes
        8
Beginning Block Conjugate Gradient Iterations. Batch Number: 0
computing hessian-vector products by finite difference
              1      6.96e-01     00000 Conjugate Gradient Iteration
computing hessian-vector products by finite difference
              2      2.24e-01     00000 Conjugate Gradient Iteration
computing hessian-vector products by finite difference
              3      6.06e-02     00000 Conjugate Gradient Iteration
computing hessian-vector products by finite difference
              4      1.57e-02     00000 Conjugate Gradient Iteration
computing hessian-vector products by finite difference
              5      2.28e-03     00000 Conjugate Gradient Iteration
computing hessian-vector products by finite difference
              6      5.76e-04     00000 Conjugate Gradient Iteration
computing hessian-vector products by finite difference
              7      8.06e-05     00000 Conjugate Gradient Iteration
computing hessian-vector products by finite difference
              8      9.88e-06     00000 Conjugate Gradient Iteration
computing hessian-vector products by finite difference
              9      1.56e-06     00000 Conjugate Gradient Iteration
computing hessian-vector products by finite difference
             10      1.63e-07     00000 Conjugate Gradient Iteration
computing hessian-vector products by finite difference
             11      2.18e-08     00000 Conjugate Gradient Iteration
computing hessian-vector products by finite difference
             12      5.06e-09     00000 CG Converged
batch 0 complete
Done Calculating Responses
TESTING ORTHOGONALIZATION OF MULTIPOLE BASIS
Multipole virts passed orthogonality test
Virts Per Order
        48
        80
 
 --------------------------------------------------------------
 
                    Orbital Energies (a.u.)
 --------------------------------------------------------------
 
 Alpha MOs
 -- Occupied --
-19.1524 -19.1519 -10.3516 -10.2446  -1.1675  -1.0674  -0.8413  -0.6174
 -0.5501  -0.5476  -0.5416  -0.4790  -0.4649  -0.3659  -0.3571  -0.3446
 -- Virtual --
  0.0671   0.1000   0.1010   0.1073   0.1354   0.1456   0.1465   0.1496
  0.1570   0.1897   0.2022   0.2278   0.2338   0.2388   0.2601   0.2667
  0.2975   0.3176   0.3333   0.3451   0.3533   0.3594   0.3732   0.3861
  0.3919   0.3990   0.4146   0.4277   0.4300   0.4552   0.4658   0.4722
  0.4852   0.4929   0.5065   0.5088   0.5497   0.5598   0.5862   0.6008
  0.6054   0.6232   0.6274   0.6497   0.6566   0.6714   0.6788   0.7004
  0.7115   0.7205   0.7642   0.7928   0.8052   0.8094   0.8344   0.8511
  0.8597   0.9517   0.9695   0.9787   0.9858   1.0315   1.0438   1.1069
  1.1695   1.1919   1.2438   1.2627   1.2790   1.3063   1.3326   1.3350
  1.4397   1.5708   1.5864   1.7363   1.8056   1.8413   1.8538   1.8965
  1.9121   1.9396   1.9435   1.9655   2.0012   2.1047   2.1169   2.1491
  2.1878   2.2057   2.3044   2.3404   2.3888   2.4346   2.4663   2.4742
  2.5635   2.5760   2.6292   2.6390   2.7976   2.8044   2.8847   2.9161
  2.9486   2.9721   3.0099   3.1731   3.1840   3.2455   3.2633   3.3050
  3.3254   3.3327   3.3906   3.3958   3.4130   3.5293   3.5466   3.5614
  3.6155   3.6364   3.6806   3.7239   3.7687   3.8986   3.9274   4.0531
  4.0832   4.1951   4.3459   4.5103   4.6334   4.6760   4.7806   4.8252
  4.9791   5.2961   5.3243   5.3355   5.3430   5.4773   5.6944   5.7406
  5.7993   6.0033   6.2229   6.3219   6.3296   6.5983   6.6090   6.6866
  6.7143   6.7293   6.9430   6.9454   7.0126   7.2202   7.3427   7.3651
  7.3896  22.5988  23.7569  44.1901  44.3252
 --------------------------------------------------------------
 
          Ground-State Mulliken Net Atomic Charges

     Atom                 Charge (a.u.)
  ----------------------------------------
      1 C                    -0.584187
      2 C                     0.498495
      3 O                    -0.763677
      4 O                    -0.780494
      5 H                     0.203542
      6 H                     0.208042
      7 H                     0.218279
  ----------------------------------------
  Sum of atomic charges =    -1.000000

 -----------------------------------------------------------------
                    Cartesian Multipole Moments
 -----------------------------------------------------------------
    Charge (ESU x 10^10)
                -4.8032
    Dipole Moment (Debye)
         X       4.6316      Y       2.9414      Z       8.5191
       Tot      10.1331
    Quadrupole Moments (Debye-Ang)
        XX     -29.6009     XY      -1.6451     YY     -29.4274
        XZ      -5.0822     YZ     -10.6166     ZZ     -46.4249
    Octopole Moments (Debye-Ang^2)
       XXX     129.2415    XXY      -2.7515    XYY      46.1007
       YYY      -3.0579    XXZ      61.8848    XYZ       7.9421
       YYZ      73.9420    XZZ      51.5475    YZZ      32.0413
       ZZZ     253.3135
    Hexadecapole Moments (Debye-Ang^3)
      XXXX    -505.6928   XXXY      47.6012   XXYY    -106.9365
      XYYY      38.3142   YYYY    -114.4571   XXXZ    -311.1782
      XXYZ       4.3504   XYYZ    -120.4521   YYYZ       8.5588
      XXZZ    -253.8490   XYZZ     -12.5762   YYZZ    -229.8603
      XZZZ    -360.4525   YZZZ     -88.8648   ZZZZ   -1296.5878
 -----------------------------------------------------------------
Archival summary:
1\1\nid00510\SP\ProcedureUnspecified\BasisUnspecified\223(1-,1)\meili\SunSep2605:51:282021SunSep2605:51:282021\0\\#,ProcedureUnspecified,BasisUnspecified,\\-1,1\C\O,1,1.24483\O,1,1.24918,2,123.416\C,1,1.50997,2,117.76,3,-179.549,0\H,4,1.08841,1,109.67,2,-114.896,0\H,4,1.09269,1,110.262,2,2.36719,0\H,4,1.1,1,111.091,2,122.307,0\\\@

 Total job time:  4585.91s(wall), 8977.57s(cpu) 
 Sun Sep 26 05:51:29 2021

        *************************************************************
        *                                                           *
        *  Thank you very much for using Q-Chem.  Have a nice day.  *
        *                                                           *
        *************************************************************


Done Job For Fragment 0
calling putenv with: QCSCRATCH=/global/cscratch1/sd/meili 
calling putenv with: QCLOCALSCR=/tmp 
calling putenv with: QCTHREADS=32 
Creating input file /tmp/qchem64476/Frg2.input
using default PutDataFrgm: nothing
calling putenv with: QCSCRATCH=/tmp/qchem64476/ 
calling putenv with: QCLOCALSCR=/tmp/qchem64476/ 
Spawning Job For Fragment 1
                  Welcome to Q-Chem
     A Quantum Leap Into The Future Of Chemistry


 Q-Chem 5.2, Q-Chem, Inc., Pleasanton, CA (2019)

 License issued to: National Energy Research Scientific Computing Center

 Yihan Shao,  Zhengting Gan,  E. Epifanovsky,  A. T. B. Gilbert,  M. Wormit,  
 J. Kussmann,  A. W. Lange,  A. Behn,  Jia Deng,  Xintian Feng,  D. Ghosh,  
 M. Goldey,  P. R. Horn,  L. D. Jacobson,  I. Kaliman,  T. Kus,  A. Landau,  
 Jie Liu,  E. I. Proynov,  R. M. Richard,  R. P. Steele,  E. J. Sundstrom,  
 H. L. Woodcock III,  P. M. Zimmerman,  D. Zuev,  B. Albrecht,  E. Alguire,  
 S. A. Baeppler,  D. Barton,  Z. Benda,  Y. A. Bernard,  E. J. Berquist,  
 K. B. Bravaya,  H. Burton,  D. Casanova,  Chun-Min Chang,  Yunqing Chen,  
 A. Chien,  K. D. Closser,  M. P. Coons,  S. Coriani,  S. Dasgupta,  
 A. L. Dempwolff,  M. Diedenhofen,  Hainam Do,  R. G. Edgar,  Po-Tung Fang,  
 S. Faraji,  S. Fatehi,  Qingguo Feng,  K. D. Fenk,  J. Fosso-Tande,  
 J. Gayvert,  Qinghui Ge,  A. Ghysels,  G. Gidofalvi,  J. Gomes,  
 J. Gonthier,  A. Gunina,  D. Hait,  M. W. D. Hanson-Heine,  
 P. H. P. Harbach,  A. W. Hauser,  M. F. Herbst,  J. E. Herr,  
 E. G. Hohenstein,  Z. C. Holden,  Kerwin Hui,  B. C. Huynh,  T.-C. Jagau,  
 Hyunjun Ji,  B. Kaduk,  K. Khistyaev,  Jaehoon Kim,  P. Klunzinger,  K. Koh,  
 D. Kosenkov,  L. Koulias,  T. Kowalczyk,  C. M. Krauter,  A. Kunitsa,  
 Ka Un Lao,  A. Laurent,  K. V. Lawler,  Joonho Lee,  D. Lefrancois,  
 S. Lehtola,  D. S. Levine,  Yi-Pei Li,  You-Sheng Lin,  Fenglai Liu,  
 E. Livshits,  A. Luenser,  P. Manohar,  E. Mansoor,  S. F. Manzer,  
 Shan-Ping Mao,  Yuezhi Mao,  N. Mardirossian,  A. V. Marenich,  
 T. Markovich,  L. A. Martinez-Martinez,  S. A. Maurer,  N. J. Mayhall,  
 S. C. McKenzie,  J.-M. Mewes,  P. Morgante,  A. F. Morrison,  
 J. W. Mullinax,  K. Nanda,  T. S. Nguyen-Beck,  R. Olivares-Amaya,  
 J. A. Parkhill,  Zheng Pei,  T. M. Perrine,  F. Plasser,  P. Pokhilko,  
 S. Prager,  A. Prociuk,  E. Ramos,  D. R. Rehn,  F. Rob,  M. Scheurer,  
 M. Schneider,  N. Sergueev,  S. M. Sharada,  S. Sharma,  D. W. Small,  
 T. Stauch,  T. Stein,  Yu-Chuan Su,  A. J. W. Thom,  A. Tkatchenko,  
 T. Tsuchimochi,  N. M. Tubman,  L. Vogt,  M. L. Vidal,  O. Vydrov,  
 M. A. Watson,  J. Wenzel,  M. de Wergifosse,  T. A. Wesolowski,  A. White,  
 J. Witte,  A. Yamada,  Jun Yang,  K. Yao,  S. Yeganeh,  S. R. Yost,  
 Zhi-Qiang You,  A. Zech,  Igor Ying Zhang,  Xing Zhang,  Yan Zhao,  
 Ying Zhu,  B. R. Brooks,  G. K. L. Chan,  C. J. Cramer,  M. S. Gordon,  
 W. J. Hehre,  A. Klamt,  M. W. Schmidt,  C. D. Sherrill,  D. G. Truhlar,  
 A. Aspuru-Guzik,  R. Baer,  A. T. Bell,  N. A. Besley,  Jeng-Da Chai,  
 A. E. DePrince, III,  R. A. DiStasio Jr.,  A. Dreuw,  B. D. Dunietz,  
 T. R. Furlani,  Chao-Ping Hsu,  Yousung Jung,  Jing Kong,  D. S. Lambrecht,  
 WanZhen Liang,  C. Ochsenfeld,  V. A. Rassolov,  L. V. Slipchenko,  
 J. E. Subotnik,  T. Van Voorhis,  J. M. Herbert,  A. I. Krylov,  
 P. M. W. Gill,  M. Head-Gordon

 Contributors to earlier versions of Q-Chem not listed above: 
 R. D. Adamson,  B. Austin,  J. Baker,  G. J. O. Beran,  K. Brandhorst,  
 S. T. Brown,  E. F. C. Byrd,  A. K. Chakraborty,  C.-L. Cheng,  
 Siu Hung Chien,  D. M. Chipman,  D. L. Crittenden,  H. Dachsel,  
 R. J. Doerksen,  A. D. Dutoi,  L. Fusti-Molnar,  W. A. Goddard III,  
 A. Golubeva-Zadorozhnaya,  S. R. Gwaltney,  G. Hawkins,  A. Heyden,  
 S. Hirata,  G. Kedziora,  F. J. Keil,  C. Kelley,  Jihan Kim,  R. A. King,  
 R. Z. Khaliullin,  P. P. Korambath,  W. Kurlancheek,  A. M. Lee,  M. S. Lee,  
 S. V. Levchenko,  Ching Yeh Lin,  D. Liotard,  R. C. Lochan,  I. Lotan,  
 P. E. Maslen,  N. Nair,  D. P. O'Neill,  D. Neuhauser,  E. Neuscamman,  
 C. M. Oana,  R. Olson,  B. Peters,  R. Peverati,  P. A. Pieniazek,  
 Y. M. Rhee,  J. Ritchie,  M. A. Rohrdanz,  E. Rosta,  N. J. Russ,  
 H. F. Schaefer III,  N. E. Schultz,  N. Shenvi,  A. C. Simmonett,  A. Sodt,  
 D. Stuck,  K. S. Thanthiriwatte,  V. Vanovschi,  Tao Wang,  A. Warshel,  
 C. F. Williams,  Q. Wu,  X. Xu,  W. Zhang

 Please cite Q-Chem as follows:
 Y. Shao et al., Mol. Phys. 113, 184-215 (2015)
 DOI: 10.1080/00268976.2014.952696

 Q-Chem 5.2.0 for Intel X86 EM64T Linux

 Parts of Q-Chem use Armadillo 8.300.2 (Tropical Shenanigans).
 http://arma.sourceforge.net/

 Q-Chem begins on Sun Sep 26 05:51:30 2021  

Host: cori01
0

     Scratch files written to /tmp/qchem64476//Frg2//
 May1019 |scratch|qcdevops|jenkins|workspace|build_RNUM -1
Processing $rem in /global/common/cori/software/qchem/5.2/config/preferences:
	 MEM_TOTAL  96000 
NAlpha2: 44
NElect   44
Mult     1
Symmetry turned off for PCM/SM12/SMD calculation

Checking the input file for inconsistencies... 	...done.

--------------------------------------------------------------
User input:
--------------------------------------------------------------
$molecule
0 1
 6	1.8400298253	0.8494596665	3.6662061673
 6	1.1830298253	-1.1555403335	0.7152061673
 6	0.4770298253	0.7904596665	1.4642061673
 6	1.3700298253	0.2954596665	2.3592061673
 7	0.3920298253	-0.1295403335	0.4492061673
 7	1.7920298253	-0.9275403335	1.8742061673
 1	-0.2079701747	-0.0615403335	-0.3637938327
 1	1.3080298253	-2.0325403335	0.0892061673
 1	-0.0669701747	1.7194596665	1.5402061673
 1	1.9060298253	1.9364596665	3.6042061673
 1	2.8500298253	0.4734596665	3.8302061673
 1	1.1883368253	0.5579696665	4.5030661673
$end
$rem
EDA2		1
METHOD		WB97X-V
BASIS		DEF2-TZVPD
XC_GRID		000099000590
NL_GRID		1
UNRESTRICTED		FALSE
MAX_SCF_CYCLES		200
SYMMETRY		FALSE
SYM_IGNORE		TRUE
BASIS_LIN_DEP_THRESH		6
THRESH		14
SCF_CONVERGENCE		8
SCF_PRINT_FRGM		TRUE
SOLVENT_METHOD		SMD
!required keywords
JOBTYPE		SP
SYM_IGNORE		TRUE
SUBSYSTEM		TRUE
GEN_SCFMAN		TRUE
CHILD_INSTRUCTION		2
SYM_IGNORE		TRUE
SCFMI		0
RI_K 0		
PARI_K 0		
MIN_PARI_K 0		
IARI_K 0		
OCC_RI_K 0		
PURECART		1111
MEM_STATIC		2000
MEM_TOTAL		96000
GUI		0
CHILD_MP		1
CHILD_MP_ORDERS		232
FRZ_RELAX		0
FRZ_RELAX_METHOD		0
EDA_CLS_ELEC		1
EDA_CLS_DISP		0
FRZ_ORTHO_DECOMP		1
EDA2		FALSE
FRGM_METHOD		FALSE
CIS_N_ROOTS  0
LOCAL_CIS    0
CIS_RLX_DNS  1
$end
$smx
SOLVENT			WATER
$end
--------------------------------------------------------------
 ----------------------------------------------------------------
             Standard Nuclear Orientation (Angstroms)
    I     Atom           X                Y                Z
 ----------------------------------------------------------------
    1      C       1.8400298253     0.8494596665     3.6662061673
    2      C       1.1830298253    -1.1555403335     0.7152061673
    3      C       0.4770298253     0.7904596665     1.4642061673
    4      C       1.3700298253     0.2954596665     2.3592061673
    5      N       0.3920298253    -0.1295403335     0.4492061673
    6      N       1.7920298253    -0.9275403335     1.8742061673
    7      H      -0.2079701747    -0.0615403335    -0.3637938327
    8      H       1.3080298253    -2.0325403335     0.0892061673
    9      H      -0.0669701747     1.7194596665     1.5402061673
   10      H       1.9060298253     1.9364596665     3.6042061673
   11      H       2.8500298253     0.4734596665     3.8302061673
   12      H       1.1883368253     0.5579696665     4.5030661673
 ----------------------------------------------------------------
 Nuclear Repulsion Energy =         225.02340310 hartrees
 There are       22 alpha and       22 beta electrons
 Requested basis set is def2-TZVPD
 There are 108 shells and 276 basis functions

 Total QAlloc Memory Limit  96000 MB
 Mega-Array Size      1956 MB
 MEM_STATIC part      2000 MB
 
 Citation of the SMD model:
 Marenich, A.V.; Cramer, C.J.; Truhlar, D.G.
 J. Phys. Chem. B 2009, 113, 6378-6396.
 iSolventCode=           1
 Solvent: water                                                           
 
 vradii
            1           2           3           4           5           6
    1   1.8500000   1.8500000   1.8500000   1.8500000   1.8900000   1.8900000
            7           8           9          10          11          12
    1   1.2000000   1.2000000   1.2000000   1.2000000   1.2000000   1.2000000
 Changing PCM_VDW_RADII to SMD_RADIUS
 Discretize the solute cavity surface with Lebedev spheres
	Using 110 Lebedev grid points for each H atom
	Using 194 Lebedev grid points for other atoms
	Atomic van der Waals radii will be scaled by 1.20
 Remove points where switching function is < 1.0e-08
 Keep 895 surface tesserae and discard 929 interior tesserae
 Molecular Surface Area = 116.135 Angst**2

                       Distance Matrix (Angstroms)
             C (  1)   C (  2)   C (  3)   C (  4)   N (  5)   N (  6)
   C (  2)  3.627682
   C (  3)  2.590377  2.201443
   C (  4)  1.495348  2.200706  1.357755
   N (  5)  3.661179  1.322540  1.372534  2.187512
   N (  6)  2.524143  1.328964  2.202010  1.381679  2.151146
   H (  7)  4.611412  2.072669  2.129956  3.167375  1.012716  3.123876
   H (  8)  4.624270  1.084726  3.248156  3.252127  2.142444  2.154415
   H (  9)  2.985536  3.241720  1.079237  2.182546  2.195396  3.251776
   H ( 10)  1.090765  4.292961  2.816906  2.128427  4.063813  3.347894
   H ( 11)  1.090125  3.890470  3.365943  2.094260  4.223332  2.628327
   H ( 12)  1.100002  4.157406  3.129645  2.167501  4.188145  3.079300
             H (  7)   H (  8)   H (  9)   H ( 10)   H ( 11)
   H (  8)  2.527510
   H (  9)  2.610950  4.251297
   H ( 10)  4.919962  5.335334  2.863549
   H ( 11)  5.217971  4.759504  3.912225  1.755728
   H ( 12)  5.100960  5.119300  3.421022  1.795346  1.794744
 
 A cutoff of  1.0D-14 yielded   5738 shell pairs
 There are     38180 function pairs (     48959 Cartesian)
 Smallest overlap matrix eigenvalue = 1.75E-06

 Scale SEOQF with 1.000000e-01/1.000000e-01/1.000000e-01

 Standard Electronic Orientation quadrupole field applied
 Nucleus-field energy     =    -0.0000000168 hartrees
 Guess from superposition of atomic densities
 Warning:  Energy on first SCF cycle will be non-variational
 SAD guess density has 43.559167 electrons

 -----------------------------------------------------------------------
  General SCF calculation program by
  Eric Jon Sundstrom, Paul Horn, Yuezhi Mao, Dmitri Zuev, Alec White,
  David Stuck, Shaama M.S., Shane Yost, Joonho Lee, David Small,
  Daniel Levine, Susi Lehtola, Hugh Burton, Evgeny Epifanovsky
 -----------------------------------------------------------------------
 Exchange:     0.1670 Hartree-Fock + 1.0000 wB97X-V + LR-HF
 Correlation:  1.0000 wB97X-V
 Using Euler-Maclaurin-Lebedev (99,590) quadrature formula
 Nonlocal Correlation:  VV10 with C = 0.0100 and b = 6.00 and scale = 1.00000
 Grid used for NLC:  SG-1 standard quadrature
Energy prior to optimization (guess energy) = -265.141071671793
Begin Timing: Total SCF Calculation
begin iterations for algorithm: DIIS         
the SCF tolerance is set to 1.00e-08
    1    -265.1410716718      7.23e-03     00000 
    2    -265.0969844930      7.41e-03     00000 
    3    -265.5665761647      7.34e-04     00000 
    4    -265.5713477004      3.83e-04     00000 
    5    -265.5727753039      1.12e-04     00000 
    6    -265.5729360205      4.19e-05     00000 
    7    -265.5729607062      1.18e-05     00000 
    8    -265.5729633865      3.49e-06     00000 
    9    -265.5729636888      1.68e-06     00000 
   10    -265.5729637417      4.07e-07     00000 
   11    -265.5729637470      7.79e-08     00000 
   12    -265.5729637472      4.02e-08     00000 
   13    -265.5729637473      1.11e-08     00000 
   14    -265.5729637473      4.34e-09     00000 Convergence criterion met
Timing for Total SCF: 928.00s (wall), 1842.05s (cpu)
(3)  G-ENP(liq) elect-nuc-pol free energy of system     -265.572963747 a.u.
(4)  G-CDS(liq) cavity-dispersion-solvent structure 
     free energy                                                2.1345 kcal/mol
(6)  G-S(liq) free energy of system                     -265.569562185 a.u.
E_pcm = -0.0227963268
E_cds = 0.0034015625
Multipole orders to be included
        2
        3
computing dipole RHS
computing quadrupole RHS
total number of RHS in solve_reponses: 8
RHS batch sizes
        8
Beginning Block Conjugate Gradient Iterations. Batch Number: 0
computing hessian-vector products by finite difference
              1      5.99e-01     00000 Conjugate Gradient Iteration
computing hessian-vector products by finite difference
              2      1.84e-01     00000 Conjugate Gradient Iteration
computing hessian-vector products by finite difference
              3      4.63e-02     00000 Conjugate Gradient Iteration
computing hessian-vector products by finite difference
              4      1.30e-02     00000 Conjugate Gradient Iteration
computing hessian-vector products by finite difference
              5      2.57e-03     00000 Conjugate Gradient Iteration
computing hessian-vector products by finite difference
              6      4.91e-04     00000 Conjugate Gradient Iteration
computing hessian-vector products by finite difference
              7      9.77e-05     00000 Conjugate Gradient Iteration
computing hessian-vector products by finite difference
              8      1.66e-05     00000 Conjugate Gradient Iteration
computing hessian-vector products by finite difference
              9      2.75e-06     00000 Conjugate Gradient Iteration
computing hessian-vector products by finite difference
             10      4.38e-07     00000 Conjugate Gradient Iteration
computing hessian-vector products by finite difference
             11      7.11e-08     00000 Conjugate Gradient Iteration
computing hessian-vector products by finite difference
             12      9.72e-09     00000 CG Converged
batch 0 complete
Done Calculating Responses
TESTING ORTHOGONALIZATION OF MULTIPOLE BASIS
Multipole virts passed orthogonality test
Virts Per Order
           66
          110
 
 --------------------------------------------------------------
 
                    Orbital Energies (a.u.)
 --------------------------------------------------------------
 
 Alpha MOs
 -- Occupied --
-14.4582 -14.3854 -10.3160 -10.2821 -10.2814 -10.2563  -1.1536  -0.9929
 -0.8957  -0.8231  -0.7217  -0.6825  -0.6626  -0.5634  -0.5523  -0.5377
 -0.5101  -0.4936  -0.4744  -0.3768  -0.3754  -0.3210
 -- Virtual --
  0.0689   0.0878   0.0975   0.1078   0.1183   0.1304   0.1365   0.1467
  0.1710   0.1747   0.1802   0.1885   0.2001   0.2052   0.2271   0.2455
  0.2478   0.2555   0.2602   0.2621   0.2696   0.2923   0.2989   0.3079
  0.3158   0.3178   0.3232   0.3273   0.3344   0.3426   0.3527   0.3582
  0.3594   0.3691   0.3799   0.3858   0.3959   0.3978   0.4135   0.4203
  0.4217   0.4286   0.4364   0.4535   0.4616   0.4728   0.4745   0.4807
  0.4895   0.4936   0.4990   0.5183   0.5244   0.5440   0.5559   0.5616
  0.5716   0.5844   0.5857   0.5913   0.6092   0.6153   0.6202   0.6303
  0.6550   0.6625   0.6666   0.6873   0.6962   0.7042   0.7087   0.7292
  0.7372   0.7436   0.7741   0.7772   0.7806   0.7884   0.7903   0.7952
  0.8091   0.8261   0.8301   0.8400   0.8733   0.8826   0.8865   0.8973
  0.9181   0.9368   0.9570   0.9888   1.0031   1.0100   1.0236   1.0448
  1.0699   1.0767   1.0949   1.1017   1.1341   1.1721   1.1828   1.2170
  1.2332   1.2424   1.2792   1.3228   1.3430   1.3622   1.3878   1.4307
  1.4590   1.4635   1.5263   1.5561   1.6167   1.6348   1.6582   1.6834
  1.7011   1.7466   1.8020   1.8334   1.8426   1.8636   1.8764   1.8884
  1.9156   1.9444   1.9473   1.9565   1.9751   1.9972   2.0079   2.0133
  2.0318   2.0595   2.0995   2.1348   2.1906   2.2346   2.2515   2.2681
  2.3056   2.3216   2.4017   2.4091   2.4245   2.4583   2.4722   2.5147
  2.5389   2.5714   2.5856   2.6277   2.6473   2.6626   2.6932   2.7286
  2.7645   2.7757   2.8039   2.8388   2.8563   2.9031   2.9266   2.9924
  3.0144   3.0349   3.0585   3.0710   3.0968   3.1143   3.1525   3.1768
  3.1860   3.2153   3.2320   3.2487   3.2758   3.2968   3.3265   3.3389
  3.3649   3.3675   3.3910   3.4107   3.4135   3.4268   3.4785   3.4893
  3.5064   3.5409   3.5829   3.6042   3.6257   3.6734   3.6910   3.7218
  3.7431   3.7932   3.8378   3.8715   3.9036   3.9472   3.9715   4.0440
  4.0844   4.1227   4.1297   4.2433   4.3004   4.3745   4.4316   4.4747
  4.5150   4.5794   4.6110   4.7604   4.7724   4.8115   4.8648   4.8781
  4.9267   4.9712   5.0230   5.0394   5.0506   5.1030   5.1737   5.1980
  5.2394   5.3079   5.3846   5.4595   5.4915   5.5371   5.5877   5.6088
  5.6751   5.6996   5.7510   5.8025   5.8778   6.0367   6.2402   6.2978
 22.6242  22.8820  23.1323  23.3941  32.6565  32.7724
 --------------------------------------------------------------
 
          Ground-State Mulliken Net Atomic Charges

     Atom                 Charge (a.u.)
  ----------------------------------------
      1 C                    -0.817310
      2 C                    -0.250450
      3 C                    -0.586934
      4 C                     0.534036
      5 N                     0.079505
      6 N                    -0.547133
      7 H                     0.197988
      8 H                     0.342309
      9 H                     0.320673
     10 H                     0.257842
     11 H                     0.247927
     12 H                     0.221546
  ----------------------------------------
  Sum of atomic charges =     0.000000

 -----------------------------------------------------------------
                    Cartesian Multipole Moments
 -----------------------------------------------------------------
    Charge (ESU x 10^10)
                 0.0000
    Dipole Moment (Debye)
         X      -3.3812      Y       1.9567      Z      -3.2139
       Tot       5.0587
    Quadrupole Moments (Debye-Ang)
        XX     -44.1679     XY       3.4034     YY     -35.2846
        XZ      -5.7149     YZ       8.2062     ZZ     -39.3654
    Octopole Moments (Debye-Ang^2)
       XXX    -150.0492    XXY      10.5378    XYY     -47.4217
       YYY       3.7707    XXZ     -81.0477    XYZ      13.7088
       YYZ     -71.4156    XZZ     -52.8130    YZZ      18.9033
       ZZZ    -199.0040
    Hexadecapole Moments (Debye-Ang^3)
      XXXX    -492.1098   XXXY      36.4565   XXYY    -120.9961
      XYYY      11.7182   YYYY    -191.5800   XXXZ    -328.6333
      XXYZ       8.8892   XYYZ    -115.2527   YYYZ     -37.7591
      XXZZ    -276.9626   XYZZ      36.6548   YYZZ    -226.2897
      XZZZ    -307.8022   YZZZ     -18.9809   ZZZZ   -1047.7363
 -----------------------------------------------------------------
Archival summary:
1\1\nid00510\SP\ProcedureUnspecified\BasisUnspecified\246\meili\SunSep2610:09:122021SunSep2610:09:122021\0\\#,ProcedureUnspecified,BasisUnspecified,\\0,1\N\C,1,1.32896\H,2,1.08473,1,126.1\N,2,1.32254,1,108.445,3,179.934,0\H,4,1.01272,2,124.604,1,-178.189,0\C,4,1.37253,2,109.525,1,-0.441912,0\H,6,1.07924,4,126.716,2,-178.578,0\C,6,1.35776,4,106.489,2,0.846528,0\C,8,1.49535,6,130.376,4,-178.715,0\H,9,1.09012,8,107.152,6,-152.085,0\H,9,1.09077,8,109.788,6,-35.9497,0\H,9,1.1,8,112.369,6,86.9004,0\\\@

 Total job time:  15463.67s(wall), 30654.26s(cpu) 
 Sun Sep 26 10:09:13 2021

        *************************************************************
        *                                                           *
        *  Thank you very much for using Q-Chem.  Have a nice day.  *
        *                                                           *
        *************************************************************


Done Job For Fragment 1
calling putenv with: QCSCRATCH=/global/cscratch1/sd/meili 
calling putenv with: QCLOCALSCR=/tmp 
calling putenv with: QCTHREADS=32 
Doing General SCFMI
 Exchange:     0.1670 Hartree-Fock + 1.0000 wB97X-V + LR-HF
 Correlation:  1.0000 wB97X-V
 Using Euler-Maclaurin-Lebedev (99,590) quadrature formula
 Nonlocal Correlation:  VV10 with C = 0.0100 and b = 6.00 and scale = 1.00000
 Grid used for NLC:  SG-1 standard quadrature
performing fock build before subrot guess so that all methods have access
Printing subrot_rss_gen Method Specification:
Occupied Subspace Method is 0
Virtual Subspace Method is 0
Energy of the unrelaxed supersystem initial determinant -494.109372560283
performing fock build before subrot guess so that all methods have access
Printing subrot_rss_gen Method Specification:
Occupied Subspace Method is 0
Virtual Subspace Method is 0
Energy of the unrelaxed supersystem initial determinant w/ solvent -494.224620571009
write pseudocanon occs and virts to disk
write pseudocanon orbital energies to disk
Tolerance of ortho_decomp_scf: 1.00e-06
GDM subspace size: 20
Beginning the Orthogonal Decomposition of the Initial Supersystem Wavefunction
    1    -493.9763748254      1.12e-01     ortho_decomp Preconditoned Steepest Descent
    2    -493.9967821302      3.09e-03     ortho_decomp BFGS Step
    3    -493.9968702947      3.07e-04     ortho_decomp BFGS Step
    4    -493.9968705503      1.51e-05     ortho_decomp BFGS Step
    5    -493.9968705512      6.13e-07     ortho_decomp 00000 Convergence criterion met
 Hartree-Fock
 Hartree-Fock
 Hartree-Fock
Doing General SCFMI
 Exchange:     0.1670 Hartree-Fock + 1.0000 wB97X-V + LR-HF
 Correlation:  1.0000 wB97X-V
 Using Euler-Maclaurin-Lebedev (99,590) quadrature formula
 Nonlocal Correlation:  VV10 with C = 0.0100 and b = 6.00 and scale = 1.00000
 Grid used for NLC:  SG-1 standard quadrature
performing fock build at end of subrot_r(subrot) constructor so that all methods have access
<S^2> of initial wavefunction before polarization iterations 0.0000000000
Beginning iterations for the determination of the polarized wavefunction
Energy prior to optimization (guess energy) = -494.224620571009
Begin Timing: Total SCF Calculation
begin iterations for algorithm: DIIS         
the SCF tolerance is set to 1.00e-08
    1    -494.2246205710      2.77e-04     00000 
    2    -494.2285335827      1.24e-04     00000 
    3    -494.2290078593      8.29e-05     00000 
    4    -494.2292327429      2.20e-05     00000 
    5    -494.2292636885      1.23e-05     00000 
    6    -494.2292738793      5.28e-06     00000 
    7    -494.2292758746      2.31e-06     00000 
    8    -494.2292762363      9.21e-07     00000 
    9    -494.2292762788      3.83e-07     00000 
   10    -494.2292762844      1.18e-07     00000 
   11    -494.2292762855      5.18e-08     00000 
   12    -494.2292762856      2.93e-08     00000 
   13    -494.2292762856      9.65e-09     00000 Convergence criterion met
write pseudocanon occs and virts to disk
write pseudocanon orbital energies to disk
Timing for Total SCF: 3166.00s (wall), 6292.20s (cpu)
<S^2> of polarized wavefunction after polarization iterations 0.0000000000
relaxing scfmi constraint to allow all rotations in the entire AO span
Doing General SCFMI
 Exchange:     0.1670 Hartree-Fock + 1.0000 wB97X-V + LR-HF
 Correlation:  1.0000 wB97X-V
 Using Euler-Maclaurin-Lebedev (99,590) quadrature formula
 Nonlocal Correlation:  VV10 with C = 0.0100 and b = 6.00 and scale = 1.00000
 Grid used for NLC:  SG-1 standard quadrature
performing fock build at end of subrot_r(subrot) constructor so that all methods have access
<S^2> of polarized wavefunction before ct-allowed iterations 0.0000000000
Beginning iterations for the determination of the CT-Allowed wavefunction
Energy prior to optimization (guess energy) = -494.229276285625
Begin Timing: Total SCF Calculation
begin iterations for algorithm: DIIS         
the SCF tolerance is set to 1.00e-08
    1    -494.2292762856      2.95e-04     00000 
    2    -494.2395886845      5.04e-05     00000 
    3    -494.2400068261      2.91e-05     00000 
    4    -494.2400658111      1.03e-05     00000 
    5    -494.2400770516      2.90e-06     00000 
    6    -494.2400778795      9.90e-07     00000 
    7    -494.2400780365      3.94e-07     00000 
    8    -494.2400780609      9.90e-08     00000 
    9    -494.2400780639      4.82e-08     00000 
   10    -494.2400780644      1.78e-08     00000 
   11    -494.2400780645      4.52e-09     00000 Convergence criterion met
write pseudocanon occs and virts to disk
write pseudocanon orbital energies to disk
Timing for Total SCF: 2669.00s (wall), 5303.89s (cpu)
<S^2> of ct_allowed wavefunction after ct-allowed iterations 0.0000000000

================================
        Results of EDA2         
================================
Basic EDA Quantities
--------------------
Fragment Energies (Ha):
1 -228.6589408614
2 -265.5695621848
--------------------
  E_prp (kJ/mol) = 0.0000
  E_sol (kJ/mol) = 96.4624
  E_frz (kJ/mol) = -65.0310
  E_pol (kJ/mol) = -12.2237
  E_vct (kJ/mol) = -28.3604
  E_int (kJ/mol) = -9.1527
--------------------


Initial Wavefunction Decomposition
--------------------
  --------------------
  Orthogonal Fragment Subspace Decomposition:
  --------------------
     E_elec   (ELEC)   (kJ/mol) = -240.7240
     E_pauli  (PAULI)  (kJ/mol) = 195.3936
     E_disp   (DISP)   (kJ/mol) = -19.7006
     --------------------
     Terms summing to E_pauli:
     --------------------
        E_kep_pauli       (kJ/mol) = 230.3465
        E_disp_free_pauli (kJ/mol) = -34.9529
  --------------------
  Classical Frozen Decomposition:
  --------------------
     E_cls_elec  (CLS ELEC)  (kJ/mol) = -180.9532
     E_cls_pauli (CLS PAULI) (kJ/mol) = 115.9222
    [E_mod_pauli (MOD PAULI) (kJ/mol) = 135.6228 (CLS PAULI - DISP from orthogonal decomposition) ]
  --------------------
--------------------

Simplified EDA Summary (kJ/mol)
--------------------
 PREPARATION     0.0000
 SOLVATION       96.4624
 FROZEN          -45.3304      (does not include dispersion)
[PAULI           195.3936]     (if this is negligible, then frozen describes electrostatics)
 DISPERSION      -19.7006
 POLARIZATION    -12.2237
 CHARGE TRANSFER -28.3604
 TOTAL           -9.1527     (PRP + SOL + FRZ + DISP + POL + CT)
--------------------
 
 --------------------------------------------------------------
 
                    Orbital Energies (a.u.)
 --------------------------------------------------------------
 
 Alpha MOs
 -- Occupied --
-19.1605 -19.1570 -14.4302 -14.3771 -10.3581 -10.3051 -10.2744 -10.2726
-10.2534 -10.2465  -1.1770  -1.1402  -1.0764  -0.9803  -0.8888  -0.8448
 -0.8159  -0.7138  -0.6750  -0.6575  -0.6186  -0.5599  -0.5561  -0.5538
 -0.5511  -0.5346  -0.5267  -0.5047  -0.4884  -0.4815  -0.4717  -0.4658
 -0.3762  -0.3719  -0.3638  -0.3565  -0.3516  -0.3138
 -- Virtual --
  0.0635   0.0793   0.0901   0.0986   0.1020   0.1104   0.1164   0.1221
  0.1287   0.1324   0.1413   0.1435   0.1495   0.1538   0.1609   0.1695
  0.1754   0.1803   0.1901   0.1996   0.2013   0.2136   0.2177   0.2236
  0.2300   0.2376   0.2492   0.2523   0.2554   0.2685   0.2729   0.2748
  0.2761   0.2814   0.2945   0.2973   0.2984   0.3173   0.3224   0.3236
  0.3263   0.3277   0.3346   0.3372   0.3430   0.3511   0.3530   0.3555
  0.3654   0.3666   0.3696   0.3723   0.3770   0.3820   0.3849   0.3894
  0.3985   0.3995   0.4018   0.4090   0.4104   0.4197   0.4214   0.4315
  0.4359   0.4386   0.4448   0.4479   0.4523   0.4602   0.4717   0.4752
  0.4783   0.4809   0.4889   0.4929   0.4984   0.5044   0.5085   0.5116
  0.5161   0.5256   0.5323   0.5378   0.5460   0.5486   0.5540   0.5631
  0.5707   0.5782   0.5798   0.5877   0.5946   0.5950   0.5987   0.6108
  0.6132   0.6265   0.6312   0.6394   0.6455   0.6571   0.6643   0.6672
  0.6718   0.6778   0.6818   0.6885   0.6955   0.7058   0.7068   0.7164
  0.7196   0.7267   0.7325   0.7386   0.7482   0.7577   0.7680   0.7761
  0.7822   0.7882   0.7903   0.7963   0.8041   0.8078   0.8123   0.8159
  0.8193   0.8273   0.8340   0.8426   0.8506   0.8609   0.8653   0.8678
  0.8824   0.8914   0.8963   0.9160   0.9167   0.9217   0.9296   0.9572
  0.9660   0.9662   0.9850   1.0002   1.0172   1.0182   1.0211   1.0427
  1.0525   1.0591   1.0690   1.0873   1.0941   1.0994   1.1150   1.1245
  1.1516   1.1584   1.1722   1.1891   1.1981   1.2212   1.2307   1.2500
  1.2670   1.2739   1.2898   1.3049   1.3153   1.3168   1.3264   1.3370
  1.3533   1.3646   1.3794   1.3894   1.4097   1.4136   1.4472   1.4635
  1.4819   1.5014   1.5322   1.5718   1.5988   1.6281   1.6419   1.6500
  1.6509   1.6825   1.7107   1.7371   1.7396   1.7532   1.8349   1.8489
  1.8516   1.8607   1.8691   1.8858   1.8981   1.9169   1.9377   1.9401
  1.9501   1.9578   1.9639   1.9696   1.9740   1.9860   1.9953   2.0016
  2.0136   2.0365   2.0424   2.0535   2.0610   2.0753   2.0987   2.1136
  2.1356   2.1610   2.1710   2.2049   2.2159   2.2350   2.2574   2.2650
  2.2793   2.3088   2.3149   2.3377   2.3612   2.3985   2.4181   2.4366
  2.4507   2.4721   2.4884   2.4991   2.5217   2.5307   2.5566   2.5782
  2.5849   2.5993   2.6022   2.6156   2.6366   2.6549   2.6633   2.6704
  2.7189   2.7271   2.7327   2.7710   2.7881   2.8117   2.8315   2.8407
  2.8559   2.8789   2.8973   2.9125   2.9303   2.9423   2.9548   2.9859
  3.0101   3.0224   3.0345   3.0468   3.0796   3.0934   3.1203   3.1451
  3.1491   3.1799   3.1983   3.2102   3.2219   3.2345   3.2363   3.2504
  3.2654   3.2735   3.2913   3.3146   3.3231   3.3371   3.3489   3.3596
  3.3659   3.3757   3.3905   3.3993   3.4157   3.4239   3.4267   3.4316
  3.4438   3.4491   3.4564   3.4988   3.5091   3.5174   3.5565   3.5678
  3.5697   3.5857   3.6009   3.6346   3.6406   3.6557   3.6861   3.7027
  3.7050   3.7251   3.7327   3.7554   3.7842   3.7927   3.8227   3.8651
  3.9094   3.9199   3.9312   3.9452   3.9731   3.9961   4.0651   4.0752
  4.1028   4.1198   4.1349   4.1580   4.2116   4.2729   4.3196   4.3723
  4.3900   4.4449   4.4941   4.5266   4.5490   4.5921   4.6219   4.6576
  4.6875   4.7749   4.7822   4.8042   4.8210   4.8955   4.9099   4.9137
  4.9623   4.9962   5.0254   5.0449   5.0550   5.0662   5.1289   5.2039
  5.2491   5.2716   5.3093   5.3297   5.3341   5.3545   5.3804   5.4462
  5.4855   5.5136   5.5186   5.5544   5.6280   5.6652   5.6873   5.7373
  5.7430   5.7650   5.8028   5.8216   5.9057   5.9191   6.0266   6.0536
  6.2469   6.2774   6.3243   6.3383   6.4016   6.6299   6.6555   6.7069
  6.7515   6.8284   6.9763   6.9879   7.0778   7.2377   7.3539   7.4376
  7.4409  22.6132  22.6351  22.9316  23.1970  23.4181  23.7842  32.8121
 32.9006  44.2467  44.3742
 --------------------------------------------------------------
 
          Ground-State Mulliken Net Atomic Charges

     Atom                 Charge (a.u.)
  ----------------------------------------
      1 C                    -0.767317
      2 C                     0.602918
      3 O                    -0.796784
      4 O                    -0.771880
      5 H                     0.218662
      6 H                     0.238146
      7 H                     0.244381
      8 C                    -0.898333
      9 C                    -0.228061
     10 C                    -0.285557
     11 C                     0.159265
     12 N                     0.230675
     13 N                    -0.585293
     14 H                     0.208965
     15 H                     0.353805
     16 H                     0.332656
     17 H                     0.260165
     18 H                     0.258475
     19 H                     0.225112
  ----------------------------------------
  Sum of atomic charges =    -1.000000

 -----------------------------------------------------------------
                    Cartesian Multipole Moments
 -----------------------------------------------------------------
    Charge (ESU x 10^10)
                -4.8032
    Dipole Moment (Debye)
         X       0.3749      Y       4.9575      Z       4.2577
       Tot       6.5456
    Quadrupole Moments (Debye-Ang)
        XX     -73.8789     XY       1.9531     YY     -65.0362
        XZ     -10.9598     YZ      -2.3519     ZZ     -85.9942
    Octopole Moments (Debye-Ang^2)
       XXX     -25.9725    XXY       8.5814    XYY      -2.9060
       YYY       1.0709    XXZ     -23.2220    XYZ      21.9901
       YYZ       0.4489    XZZ      -6.4063    YZZ      50.5136
       ZZZ      43.3146
    Hexadecapole Moments (Debye-Ang^3)
      XXXX    -997.8247   XXXY      84.3510   XXYY    -228.7593
      XYYY      50.8717   YYYY    -308.5461   XXXZ    -640.0510
      XXYZ      12.8529   XYYZ    -236.0494   YYYZ     -29.1630
      XXZZ    -531.4546   XYZZ      23.4701   YYZZ    -456.7155
      XZZZ    -669.1841   YZZZ    -108.9772   ZZZZ   -2345.9076
 -----------------------------------------------------------------
Archival summary:
1\1\nid00510\SP\ProcedureUnspecified\BasisUnspecified\2269(1-,1)\meili\SunSep2612:53:122021SunSep2612:53:122021\0\\#,ProcedureUnspecified,BasisUnspecified,\\-1,1\N\H,1,1.01272\C,1,1.32254,2,124.604\H,3,1.08473,1,125.455,2,1.74641,0\N,3,1.32896,1,108.445,2,-178.189,0\C,1,1.37253,2,125.828,3,-177.38,0\H,6,1.07924,1,126.716,2,-0.8659,0\C,6,1.35776,1,106.489,2,178.559,0\C,8,1.49535,6,130.376,1,-178.715,0\H,9,1.09012,8,107.152,6,-152.085,0\H,9,1.09077,8,109.788,6,-35.9497,0\H,9,1.1,8,112.369,6,86.9004,0\O,2,1.61261,1,156.511,3,136.204,0\C,13,1.24483,2,117.851,1,-176.675,0\O,14,1.24918,13,123.416,2,30.3687,0\C,14,1.50997,13,117.76,2,-149.18,0\H,16,1.08841,14,109.67,13,-114.896,0\H,16,1.09269,14,110.262,13,2.36719,0\H,16,1.1,14,111.091,13,122.307,0\\\@

 Total job time:  29894.44s(wall), 19579.56s(cpu) 
 Sun Sep 26 12:53:13 2021

        *************************************************************
        *                                                           *
        *  Thank you very much for using Q-Chem.  Have a nice day.  *
        *                                                           *
        *************************************************************


