                  Welcome to Q-Chem
     A Quantum Leap Into The Future Of Chemistry


 Q-Chem 5.2 (devel), Q-Chem, Inc., Pleasanton, CA (2019)

 Yihan Shao,  Zhengting Gan,  E. Epifanovsky,  A. T. B. Gilbert,  M. Wormit,  
 J. Kussmann,  A. W. Lange,  A. Behn,  Jia Deng,  Xintian Feng,  D. Ghosh,  
 M. Goldey,  P. R. Horn,  L. D. Jacobson,  I. Kaliman,  T. Kus,  A. Landau,  
 Jie Liu,  E. I. Proynov,  R. M. Richard,  R. P. Steele,  E. J. Sundstrom,  
 H. L. Woodcock III,  P. M. Zimmerman,  D. Zuev,  B. Albrecht,  E. Alguire,  
 S. A. Baeppler,  D. Barton,  Z. Benda,  Y. A. Bernard,  E. J. Berquist,  
 K. B. Bravaya,  H. Burton,  D. Casanova,  Chun-Min Chang,  Yunqing Chen,  
 A. Chien,  K. D. Closser,  M. P. Coons,  S. Coriani,  S. Dasgupta,  
 A. L. Dempwolff,  M. Diedenhofen,  Hainam Do,  R. G. Edgar,  Po-Tung Fang,  
 S. Faraji,  S. Fatehi,  Qingguo Feng,  K. D. Fenk,  J. Fosso-Tande,  
 J. Gayvert,  Qinghui Ge,  A. Ghysels,  G. Gidofalvi,  J. Gomes,  
 J. Gonthier,  A. Gunina,  D. Hait,  M. W. D. Hanson-Heine,  
 P. H. P. Harbach,  A. W. Hauser,  M. F. Herbst,  J. E. Herr,  
 E. G. Hohenstein,  Z. C. Holden,  Kerwin Hui,  B. C. Huynh,  T.-C. Jagau,  
 Hyunjun Ji,  B. Kaduk,  K. Khistyaev,  Jaehoon Kim,  P. Klunzinger,  K. Koh,  
 D. Kosenkov,  L. Koulias,  T. Kowalczyk,  C. M. Krauter,  A. Kunitsa,  
 Ka Un Lao,  A. Laurent,  K. V. Lawler,  Joonho Lee,  D. Lefrancois,  
 S. Lehtola,  D. S. Levine,  Yi-Pei Li,  You-Sheng Lin,  Fenglai Liu,  
 E. Livshits,  A. Luenser,  P. Manohar,  E. Mansoor,  S. F. Manzer,  
 Shan-Ping Mao,  Yuezhi Mao,  N. Mardirossian,  A. V. Marenich,  
 T. Markovich,  L. A. Martinez-Martinez,  S. A. Maurer,  N. J. Mayhall,  
 S. C. McKenzie,  J.-M. Mewes,  P. Morgante,  A. F. Morrison,  
 J. W. Mullinax,  K. Nanda,  T. S. Nguyen-Beck,  R. Olivares-Amaya,  
 J. A. Parkhill,  Zheng Pei,  T. M. Perrine,  F. Plasser,  P. Pokhilko,  
 S. Prager,  A. Prociuk,  E. Ramos,  D. R. Rehn,  F. Rob,  M. Scheurer,  
 M. Schneider,  N. Sergueev,  S. M. Sharada,  S. Sharma,  D. W. Small,  
 T. Stauch,  T. Stein,  Yu-Chuan Su,  A. J. W. Thom,  A. Tkatchenko,  
 T. Tsuchimochi,  N. M. Tubman,  L. Vogt,  M. L. Vidal,  O. Vydrov,  
 M. A. Watson,  J. Wenzel,  M. de Wergifosse,  T. A. Wesolowski,  A. White,  
 J. Witte,  A. Yamada,  Jun Yang,  K. Yao,  S. Yeganeh,  S. R. Yost,  
 Zhi-Qiang You,  A. Zech,  Igor Ying Zhang,  Xing Zhang,  Yan Zhao,  
 Ying Zhu,  B. R. Brooks,  G. K. L. Chan,  C. J. Cramer,  M. S. Gordon,  
 W. J. Hehre,  A. Klamt,  M. W. Schmidt,  C. D. Sherrill,  D. G. Truhlar,  
 A. Aspuru-Guzik,  R. Baer,  A. T. Bell,  N. A. Besley,  Jeng-Da Chai,  
 A. E. DePrince, III,  R. A. DiStasio Jr.,  A. Dreuw,  B. D. Dunietz,  
 T. R. Furlani,  Chao-Ping Hsu,  Yousung Jung,  Jing Kong,  D. S. Lambrecht,  
 WanZhen Liang,  C. Ochsenfeld,  V. A. Rassolov,  L. V. Slipchenko,  
 J. E. Subotnik,  T. Van Voorhis,  J. M. Herbert,  A. I. Krylov,  
 P. M. W. Gill,  M. Head-Gordon

 Contributors to earlier versions of Q-Chem not listed above: 
 R. D. Adamson,  B. Austin,  J. Baker,  G. J. O. Beran,  K. Brandhorst,  
 S. T. Brown,  E. F. C. Byrd,  A. K. Chakraborty,  C.-L. Cheng,  
 Siu Hung Chien,  D. M. Chipman,  D. L. Crittenden,  H. Dachsel,  
 R. J. Doerksen,  A. D. Dutoi,  L. Fusti-Molnar,  W. A. Goddard III,  
 A. Golubeva-Zadorozhnaya,  S. R. Gwaltney,  G. Hawkins,  A. Heyden,  
 S. Hirata,  G. Kedziora,  F. J. Keil,  C. Kelley,  Jihan Kim,  R. A. King,  
 R. Z. Khaliullin,  P. P. Korambath,  W. Kurlancheek,  A. M. Lee,  M. S. Lee,  
 S. V. Levchenko,  Ching Yeh Lin,  D. Liotard,  R. C. Lochan,  I. Lotan,  
 P. E. Maslen,  N. Nair,  D. P. O'Neill,  D. Neuhauser,  E. Neuscamman,  
 C. M. Oana,  R. Olson,  B. Peters,  R. Peverati,  P. A. Pieniazek,  
 Y. M. Rhee,  J. Ritchie,  M. A. Rohrdanz,  E. Rosta,  N. J. Russ,  
 H. F. Schaefer III,  N. E. Schultz,  N. Shenvi,  A. C. Simmonett,  A. Sodt,  
 D. Stuck,  K. S. Thanthiriwatte,  V. Vanovschi,  Tao Wang,  A. Warshel,  
 C. F. Williams,  Q. Wu,  X. Xu,  W. Zhang

 Please cite Q-Chem as follows:
 Y. Shao et al., Mol. Phys. 113, 184-215 (2015)
 DOI: 10.1080/00268976.2014.952696

 Q-Chem 5.2.1 for Intel X86 EM64T Linux

 Parts of Q-Chem use Armadillo 8.300.2 (Tropical Shenanigans).
 http://arma.sourceforge.net/

 Q-Chem begins on Wed Sep 29 23:34:46 2021  

compute-0-7.local
Host: 0

     Scratch files written to /home/meili/scratch/qchem52002//
NAlpha2: 128
NElect   128
Mult     1
Symmetry turned off for PCM/SM12/SMD calculation

 Q-Chem warning in module libgen/rem_setup.C, line 2813:

 Neither GIA nor STOLL is specified by user. Use STOLL as the default


Checking the input file for inconsistencies... 	...done.

--------------------------------------------------------------
User input:
--------------------------------------------------------------
$comment
SSI-097TYR-101TRP-1.pdb
$end

$molecule
0 1
--
0 1
C   -0.796088042043   -2.309710697995    0.812951342286
C   -1.116088042043    0.161289302005    1.098951342286
C   -1.414088042043   -1.132710697995    1.513951342286
C   -1.667088042043    1.259289302005    1.741951342286
C   -2.282088042043   -1.317710697995    2.592951342286
C   -2.529088042043    1.071289302005    2.815951342286
C   -2.842088042043   -0.219710697995    3.245951342286
O   -3.056088042043    2.161289302005    3.440951342286
H   -0.421088042043    0.309289302005    0.289951342286
H   -1.419088042043    2.255289302005    1.412951342286
H   -0.382088042043   -1.998710697995   -0.147048657714
H   -1.584088042043   -3.033710697995    0.613951342286
H   -2.525088042043   -2.319710697995    2.921951342286
H   -3.510088042043   -0.373710697995    4.082951342286
H   -3.595088042043    1.933289302005    4.207951342286
H   -0.013458042043   -2.804340697995    1.406944342286
--
0 1
C    4.417911957957   -0.582710697995   -0.927048657714
C    0.911911957957   -0.401710697995   -2.276048657714
C    1.991911957957    0.192289302005   -1.569048657714
C    3.056911957957   -0.771710697995   -1.528048657714
C    2.599911957957   -1.864710697995   -2.205048657714
C   -0.421088042043    1.541289302005   -1.992048657714
C   -0.290088042043    0.256289302005   -2.490048657714
C    0.625911957957    2.156289302005   -1.287048657714
C    1.834911957957    1.493289302005   -1.072048657714
N    1.317911957957   -1.653710697995   -2.647048657714
H   -1.348088042043    2.079289302005   -2.141048657714
H   -1.089088042043   -0.220710697995   -3.033048657714
H    0.488911957957    3.158289302005   -0.904048657714
H    2.645911957957    1.971289302005   -0.551048657714
H    0.737911957957   -2.345710697995   -3.135048657714
H    3.173911957957   -2.760710697995   -2.397048657714
H    4.668911957957   -1.435710697995   -0.295048657714
H    4.404911957957    0.312289302005   -0.303048657714
H    5.172431957957   -0.461270697995   -1.718218257714
$end

$rem
JOBTYPE			EDA
EDA2			1
method			wB97X-V
BASIS			def2-TZVPD
XC_GRID			000099000590
NL_GRID			1
UNRESTRICTED		FALSE
MAX_SCF_CYCLES		200
SYMMETRY		FALSE
SYM_IGNORE		TRUE
MEM_STATIC		2000
BASIS_LIN_DEP_THRESH 	6
THRESH 			14
SCF_CONVERGENCE 	8
SCF_PRINT_FRGM 		TRUE
SOLVENT_METHOD          PCM
$end

$PCM
THEORY                  CPCM
METHOD                  SWIG
SOLVER                  INVERSION
RADII                   UFF
HPOINTS                 302
HEAVYPOINTS             302
PRINTLEVEL              0
$END

$SOLVENT
DIELECTRIC              78.390000 ! water
$END
--------------------------------------------------------------
 ----------------------------------------------------------------
             Standard Nuclear Orientation (Angstroms)
    I     Atom           X                Y                Z
 ----------------------------------------------------------------
    1      C      -0.7960880420    -2.3097106980     0.8129513423
    2      C      -1.1160880420     0.1612893020     1.0989513423
    3      C      -1.4140880420    -1.1327106980     1.5139513423
    4      C      -1.6670880420     1.2592893020     1.7419513423
    5      C      -2.2820880420    -1.3177106980     2.5929513423
    6      C      -2.5290880420     1.0712893020     2.8159513423
    7      C      -2.8420880420    -0.2197106980     3.2459513423
    8      O      -3.0560880420     2.1612893020     3.4409513423
    9      H      -0.4210880420     0.3092893020     0.2899513423
   10      H      -1.4190880420     2.2552893020     1.4129513423
   11      H      -0.3820880420    -1.9987106980    -0.1470486577
   12      H      -1.5840880420    -3.0337106980     0.6139513423
   13      H      -2.5250880420    -2.3197106980     2.9219513423
   14      H      -3.5100880420    -0.3737106980     4.0829513423
   15      H      -3.5950880420     1.9332893020     4.2079513423
   16      H      -0.0134580420    -2.8043406980     1.4069443423
   17      C       4.4179119580    -0.5827106980    -0.9270486577
   18      C       0.9119119580    -0.4017106980    -2.2760486577
   19      C       1.9919119580     0.1922893020    -1.5690486577
   20      C       3.0569119580    -0.7717106980    -1.5280486577
   21      C       2.5999119580    -1.8647106980    -2.2050486577
   22      C      -0.4210880420     1.5412893020    -1.9920486577
   23      C      -0.2900880420     0.2562893020    -2.4900486577
   24      C       0.6259119580     2.1562893020    -1.2870486577
   25      C       1.8349119580     1.4932893020    -1.0720486577
   26      N       1.3179119580    -1.6537106980    -2.6470486577
   27      H      -1.3480880420     2.0792893020    -2.1410486577
   28      H      -1.0890880420    -0.2207106980    -3.0330486577
   29      H       0.4889119580     3.1582893020    -0.9040486577
   30      H       2.6459119580     1.9712893020    -0.5510486577
   31      H       0.7379119580    -2.3457106980    -3.1350486577
   32      H       3.1739119580    -2.7607106980    -2.3970486577
   33      H       4.6689119580    -1.4357106980    -0.2950486577
   34      H       4.4049119580     0.3122893020    -0.3030486577
   35      H       5.1724319580    -0.4612706980    -1.7182182577
 ----------------------------------------------------------------
 Nuclear Repulsion Energy =        1212.33322120 hartrees
 There are       64 alpha and       64 beta electrons
 Requested basis set is def2-TZVPD
 There are 320 shells and 822 basis functions

 Total QAlloc Memory Limit   2000 MB
 Mega-Array Size      1956 MB
 MEM_STATIC part      2000 MB
 Discretize the solute cavity surface with Lebedev spheres
	Using 302 Lebedev grid points for each H atom
	Using 302 Lebedev grid points for other atoms
	Atomic van der Waals radii will be scaled by 1.20
 Remove points where switching function is < 1.0e-08
 Keep 3727 surface tesserae and discard 6843 interior tesserae
 Molecular Surface Area = 360.048 Angst**2
 A cutoff of  1.0D-14 yielded  42867 shell pairs
 There are    283391 function pairs (    359809 Cartesian)
 Smallest overlap matrix eigenvalue = 3.99E-07
 Linear dependence detected in AO basis
 Tighter screening thresholds may be required for diffuse basis sets
 Use S2THRESH > 14 and THRESH = 14 in case of SCF convergence issues
 Number of orthogonalized atomic orbitals = 815
 Maximum deviation from orthogonality = 2.130E-10

 Scale SEOQF with 1.000000e-02/1.000000e-01/1.000000e-01

 Standard Electronic Orientation quadrupole field applied
 Nucleus-field energy     =    -0.0000000413 hartrees

 -----------------------------------------------------------------------
  General SCF calculation program by
  Eric Jon Sundstrom, Paul Horn, Yuezhi Mao, Dmitri Zuev, Alec White,
  David Stuck, Shaama M.S., Shane Yost, Joonho Lee, David Small,
  Daniel Levine, Susi Lehtola, Hugh Burton, Evgeny Epifanovsky,
  Bang C. Huynh
 -----------------------------------------------------------------------
================================================================
                 ALMO-EDA with the EDA2 driver                  
================================================================
 The second-generation ALMO-EDA (for DFT):                      
 P. R. Horn, Y. Mao and M. Head-Gordon, PCCP, 18, 23067 (2016)  
 Decomposition of the frozen energy:                            
 P. R. Horn, Y. Mao and M. Head-Gordon, JCP, 144, 114107 (2016) 
 FERF model for polarization:                                   
 P. R. Horn and M. Head-Gordon, JCP, 143, 114111 (2015)         
Using eda2 option set 1
Option set summary: Frozen orbital wavefunction, initial wavefunction decomposition, and nDQ polarization.
--------------------------------
Printing EDA Options
--------------------------------
eda_child_super_basis      0
fragmo_guess_mode          0
child_mp                   1
child_mp_orders            232
cls_elec                   1
cls_disp                   0
scfmi_mode                 1
scfmi_occs                 0
scfmi_virts                0
frz_relax                  0
frz_relax_method           0
dc_pen_start               0
dc_pen_conv                0
dc_pen_increment           0
dc_pen_steps               0
dc_pen_thresh_factor       0
dc_pen_pre_newton_thresh   0
frz_ortho_decomp           1
frz_ortho_decomp_conv      6
frgm_method                2
scfmi_freeze_ss            0
separate_rehyb             0
plot_diff_den              0
eda_nocv                   0
eda_vct_relax              1
disp_free_x                0
disp_free_c                0
eda_bsse                   0
eda_pct_a                  0
eda_covp                   0
--------------------------------
Attempting to make child job directory: /home/meili/scratch/qchem52002//Frg1/
Attempting to make child job directory: /home/meili/scratch/qchem52002//Frg2/
Creating input file /home/meili/scratch/qchem52002/Frg1.input
using default PutDataFrgm: nothing
calling putenv with: QCSCRATCH=/home/meili/scratch/qchem52002/ 
Spawning Job For Fragment 0
                  Welcome to Q-Chem
     A Quantum Leap Into The Future Of Chemistry


 Q-Chem 5.2 (devel), Q-Chem, Inc., Pleasanton, CA (2019)

 Yihan Shao,  Zhengting Gan,  E. Epifanovsky,  A. T. B. Gilbert,  M. Wormit,  
 J. Kussmann,  A. W. Lange,  A. Behn,  Jia Deng,  Xintian Feng,  D. Ghosh,  
 M. Goldey,  P. R. Horn,  L. D. Jacobson,  I. Kaliman,  T. Kus,  A. Landau,  
 Jie Liu,  E. I. Proynov,  R. M. Richard,  R. P. Steele,  E. J. Sundstrom,  
 H. L. Woodcock III,  P. M. Zimmerman,  D. Zuev,  B. Albrecht,  E. Alguire,  
 S. A. Baeppler,  D. Barton,  Z. Benda,  Y. A. Bernard,  E. J. Berquist,  
 K. B. Bravaya,  H. Burton,  D. Casanova,  Chun-Min Chang,  Yunqing Chen,  
 A. Chien,  K. D. Closser,  M. P. Coons,  S. Coriani,  S. Dasgupta,  
 A. L. Dempwolff,  M. Diedenhofen,  Hainam Do,  R. G. Edgar,  Po-Tung Fang,  
 S. Faraji,  S. Fatehi,  Qingguo Feng,  K. D. Fenk,  J. Fosso-Tande,  
 J. Gayvert,  Qinghui Ge,  A. Ghysels,  G. Gidofalvi,  J. Gomes,  
 J. Gonthier,  A. Gunina,  D. Hait,  M. W. D. Hanson-Heine,  
 P. H. P. Harbach,  A. W. Hauser,  M. F. Herbst,  J. E. Herr,  
 E. G. Hohenstein,  Z. C. Holden,  Kerwin Hui,  B. C. Huynh,  T.-C. Jagau,  
 Hyunjun Ji,  B. Kaduk,  K. Khistyaev,  Jaehoon Kim,  P. Klunzinger,  K. Koh,  
 D. Kosenkov,  L. Koulias,  T. Kowalczyk,  C. M. Krauter,  A. Kunitsa,  
 Ka Un Lao,  A. Laurent,  K. V. Lawler,  Joonho Lee,  D. Lefrancois,  
 S. Lehtola,  D. S. Levine,  Yi-Pei Li,  You-Sheng Lin,  Fenglai Liu,  
 E. Livshits,  A. Luenser,  P. Manohar,  E. Mansoor,  S. F. Manzer,  
 Shan-Ping Mao,  Yuezhi Mao,  N. Mardirossian,  A. V. Marenich,  
 T. Markovich,  L. A. Martinez-Martinez,  S. A. Maurer,  N. J. Mayhall,  
 S. C. McKenzie,  J.-M. Mewes,  P. Morgante,  A. F. Morrison,  
 J. W. Mullinax,  K. Nanda,  T. S. Nguyen-Beck,  R. Olivares-Amaya,  
 J. A. Parkhill,  Zheng Pei,  T. M. Perrine,  F. Plasser,  P. Pokhilko,  
 S. Prager,  A. Prociuk,  E. Ramos,  D. R. Rehn,  F. Rob,  M. Scheurer,  
 M. Schneider,  N. Sergueev,  S. M. Sharada,  S. Sharma,  D. W. Small,  
 T. Stauch,  T. Stein,  Yu-Chuan Su,  A. J. W. Thom,  A. Tkatchenko,  
 T. Tsuchimochi,  N. M. Tubman,  L. Vogt,  M. L. Vidal,  O. Vydrov,  
 M. A. Watson,  J. Wenzel,  M. de Wergifosse,  T. A. Wesolowski,  A. White,  
 J. Witte,  A. Yamada,  Jun Yang,  K. Yao,  S. Yeganeh,  S. R. Yost,  
 Zhi-Qiang You,  A. Zech,  Igor Ying Zhang,  Xing Zhang,  Yan Zhao,  
 Ying Zhu,  B. R. Brooks,  G. K. L. Chan,  C. J. Cramer,  M. S. Gordon,  
 W. J. Hehre,  A. Klamt,  M. W. Schmidt,  C. D. Sherrill,  D. G. Truhlar,  
 A. Aspuru-Guzik,  R. Baer,  A. T. Bell,  N. A. Besley,  Jeng-Da Chai,  
 A. E. DePrince, III,  R. A. DiStasio Jr.,  A. Dreuw,  B. D. Dunietz,  
 T. R. Furlani,  Chao-Ping Hsu,  Yousung Jung,  Jing Kong,  D. S. Lambrecht,  
 WanZhen Liang,  C. Ochsenfeld,  V. A. Rassolov,  L. V. Slipchenko,  
 J. E. Subotnik,  T. Van Voorhis,  J. M. Herbert,  A. I. Krylov,  
 P. M. W. Gill,  M. Head-Gordon

 Contributors to earlier versions of Q-Chem not listed above: 
 R. D. Adamson,  B. Austin,  J. Baker,  G. J. O. Beran,  K. Brandhorst,  
 S. T. Brown,  E. F. C. Byrd,  A. K. Chakraborty,  C.-L. Cheng,  
 Siu Hung Chien,  D. M. Chipman,  D. L. Crittenden,  H. Dachsel,  
 R. J. Doerksen,  A. D. Dutoi,  L. Fusti-Molnar,  W. A. Goddard III,  
 A. Golubeva-Zadorozhnaya,  S. R. Gwaltney,  G. Hawkins,  A. Heyden,  
 S. Hirata,  G. Kedziora,  F. J. Keil,  C. Kelley,  Jihan Kim,  R. A. King,  
 R. Z. Khaliullin,  P. P. Korambath,  W. Kurlancheek,  A. M. Lee,  M. S. Lee,  
 S. V. Levchenko,  Ching Yeh Lin,  D. Liotard,  R. C. Lochan,  I. Lotan,  
 P. E. Maslen,  N. Nair,  D. P. O'Neill,  D. Neuhauser,  E. Neuscamman,  
 C. M. Oana,  R. Olson,  B. Peters,  R. Peverati,  P. A. Pieniazek,  
 Y. M. Rhee,  J. Ritchie,  M. A. Rohrdanz,  E. Rosta,  N. J. Russ,  
 H. F. Schaefer III,  N. E. Schultz,  N. Shenvi,  A. C. Simmonett,  A. Sodt,  
 D. Stuck,  K. S. Thanthiriwatte,  V. Vanovschi,  Tao Wang,  A. Warshel,  
 C. F. Williams,  Q. Wu,  X. Xu,  W. Zhang

 Please cite Q-Chem as follows:
 Y. Shao et al., Mol. Phys. 113, 184-215 (2015)
 DOI: 10.1080/00268976.2014.952696

 Q-Chem 5.2.1 for Intel X86 EM64T Linux

 Parts of Q-Chem use Armadillo 8.300.2 (Tropical Shenanigans).
 http://arma.sourceforge.net/

 Q-Chem begins on Wed Sep 29 23:34:57 2021  

compute-0-7.local
Host: 0

     Scratch files written to /home/meili/scratch/qchem52002//Frg1//
NAlpha2: 58
NElect   58
Mult     1
Symmetry turned off for PCM/SM12/SMD calculation

Checking the input file for inconsistencies... 	...done.

--------------------------------------------------------------
User input:
--------------------------------------------------------------
$molecule
0 1
 6	-0.7960880420	-2.3097106980	0.8129513423
 6	-1.1160880420	0.1612893020	1.0989513423
 6	-1.4140880420	-1.1327106980	1.5139513423
 6	-1.6670880420	1.2592893020	1.7419513423
 6	-2.2820880420	-1.3177106980	2.5929513423
 6	-2.5290880420	1.0712893020	2.8159513423
 6	-2.8420880420	-0.2197106980	3.2459513423
 8	-3.0560880420	2.1612893020	3.4409513423
 1	-0.4210880420	0.3092893020	0.2899513423
 1	-1.4190880420	2.2552893020	1.4129513423
 1	-0.3820880420	-1.9987106980	-0.1470486577
 1	-1.5840880420	-3.0337106980	0.6139513423
 1	-2.5250880420	-2.3197106980	2.9219513423
 1	-3.5100880420	-0.3737106980	4.0829513423
 1	-3.5950880420	1.9332893020	4.2079513423
 1	-0.0134580420	-2.8043406980	1.4069443423
$end
$rem
EDA2		1
METHOD		WB97X-V
BASIS		DEF2-TZVPD
XC_GRID		000099000590
NL_GRID		1
UNRESTRICTED		FALSE
MAX_SCF_CYCLES		200
SYMMETRY		FALSE
SYM_IGNORE		TRUE
BASIS_LIN_DEP_THRESH		6
THRESH		14
SCF_CONVERGENCE		8
SCF_PRINT_FRGM		TRUE
SOLVENT_METHOD		PCM
!required keywords
JOBTYPE		SP
SYM_IGNORE		TRUE
SUBSYSTEM		TRUE
GEN_SCFMAN		TRUE
CHILD_INSTRUCTION		2
SYM_IGNORE		TRUE
SCFMI		0
RI_K 0		
PARI_K 0		
MIN_PARI_K 0		
IARI_K 0		
OCC_RI_K 0		
PURECART		1111
MEM_STATIC		2000
MEM_TOTAL		2000
GUI		0
CHILD_MP		1
CHILD_MP_ORDERS		232
FRZ_RELAX		0
FRZ_RELAX_METHOD		0
EDA_CLS_ELEC		1
EDA_CLS_DISP		0
FRZ_ORTHO_DECOMP		1
EDA2		FALSE
FRGM_METHOD		FALSE
CIS_N_ROOTS  0
LOCAL_CIS    0
CIS_RLX_DNS  1
$end
$pcm
THEORY                  CPCM
METHOD                  SWIG
SOLVER                  INVERSION
RADII                   UFF
HPOINTS                 302
HEAVYPOINTS             302
PRINTLEVEL              0
$end
$solvent
DIELECTRIC              78.390000 ! water
$end
--------------------------------------------------------------
 ----------------------------------------------------------------
             Standard Nuclear Orientation (Angstroms)
    I     Atom           X                Y                Z
 ----------------------------------------------------------------
    1      C      -0.7960880420    -2.3097106980     0.8129513423
    2      C      -1.1160880420     0.1612893020     1.0989513423
    3      C      -1.4140880420    -1.1327106980     1.5139513423
    4      C      -1.6670880420     1.2592893020     1.7419513423
    5      C      -2.2820880420    -1.3177106980     2.5929513423
    6      C      -2.5290880420     1.0712893020     2.8159513423
    7      C      -2.8420880420    -0.2197106980     3.2459513423
    8      O      -3.0560880420     2.1612893020     3.4409513423
    9      H      -0.4210880420     0.3092893020     0.2899513423
   10      H      -1.4190880420     2.2552893020     1.4129513423
   11      H      -0.3820880420    -1.9987106980    -0.1470486577
   12      H      -1.5840880420    -3.0337106980     0.6139513423
   13      H      -2.5250880420    -2.3197106980     2.9219513423
   14      H      -3.5100880420    -0.3737106980     4.0829513423
   15      H      -3.5950880420     1.9332893020     4.2079513423
   16      H      -0.0134580420    -2.8043406980     1.4069443423
 ----------------------------------------------------------------
 Nuclear Repulsion Energy =         343.31187888 hartrees
 There are       29 alpha and       29 beta electrons
 Requested basis set is def2-TZVPD
 There are 145 shells and 371 basis functions

 Total QAlloc Memory Limit   2000 MB
 Mega-Array Size      1956 MB
 MEM_STATIC part      2000 MB
 Discretize the solute cavity surface with Lebedev spheres
	Using 302 Lebedev grid points for each H atom
	Using 302 Lebedev grid points for other atoms
	Atomic van der Waals radii will be scaled by 1.20
 Remove points where switching function is < 1.0e-08
 Keep 1872 surface tesserae and discard 2960 interior tesserae
 Molecular Surface Area = 190.280 Angst**2
 A cutoff of  1.0D-14 yielded  10044 shell pairs
 There are     67096 function pairs (     85798 Cartesian)
 Smallest overlap matrix eigenvalue = 5.47E-07
 Linear dependence detected in AO basis
 Tighter screening thresholds may be required for diffuse basis sets
 Use S2THRESH > 14 and THRESH = 14 in case of SCF convergence issues
 Number of orthogonalized atomic orbitals = 370
 Maximum deviation from orthogonality = 1.355E-10

 Scale SEOQF with 1.000000e-01/1.000000e-01/1.000000e-01

 Standard Electronic Orientation quadrupole field applied
 Nucleus-field energy     =    -0.0000000164 hartrees
 Guess from superposition of atomic densities
 Warning:  Energy on first SCF cycle will be non-variational
 SAD guess density has 58.000000 electrons

 -----------------------------------------------------------------------
  General SCF calculation program by
  Eric Jon Sundstrom, Paul Horn, Yuezhi Mao, Dmitri Zuev, Alec White,
  David Stuck, Shaama M.S., Shane Yost, Joonho Lee, David Small,
  Daniel Levine, Susi Lehtola, Hugh Burton, Evgeny Epifanovsky,
  Bang C. Huynh
 -----------------------------------------------------------------------
 Exchange:     0.1670 Hartree-Fock + 1.0000 wB97X-V + LR-HF
 Correlation:  1.0000 wB97X-V
 Using Euler-Maclaurin-Lebedev (99,590) quadrature formula
 Nonlocal Correlation:  VV10 with C = 0.0100 and b = 6.00 and scale = 1.00000
 Grid used for NLC:  SG-1 standard quadrature
Energy prior to optimization (guess energy) = -346.731808379746
Begin Timing: Total SCF Calculation
begin iterations for algorithm: DIIS         
the SCF tolerance is set to 1.00e-08
    1    -346.7318083797      2.21e-03     00000 
    2    -346.7782488003      1.72e-03     00000 
    3    -346.8156640582      2.81e-04     00000 
    4    -346.8167794640      1.29e-04     00000 
    5    -346.8170559031      2.39e-05     00000 
    6    -346.8170678408      8.66e-06     00000 
    7    -346.8170694993      3.80e-06     00000 
    8    -346.8170698287      8.95e-07     00000 
    9    -346.8170698605      4.20e-07     00000 
   10    -346.8170698670      1.47e-07     00000 
   11    -346.8170698683      5.15e-08     00000 
   12    -346.8170698684      2.05e-08     00000 
   13    -346.8170698684      5.92e-09     00000 Convergence criterion met
Timing for Total SCF: 869.00s (wall), 4955.55s (cpu)

************** Final PCM Free Energy Summary **************
 G_electrostatic  =      -0.00560885 hartree =      -3.51960648 kcal/mol
 G_cavitation     =       0.00000000 hartree =       0.00000000 kcal/mol
 G_dispersion     =       0.00000000 hartree =       0.00000000 kcal/mol
 G_repulsion      =       0.00000000 hartree =       0.00000000 kcal/mol
 --------------------------------------------------
 Non-electrostatic Free Energy =       0.00000000 hartree =       0.00000000 kcal/mol
 Total                         =      -0.00560885 hartree =      -3.51960648 kcal/mol
 --------------------------------------------------
 SCF Energy (H0 + V/2)                       =    -346.81706987 
 Solute Internal Energy (H0)                 =    -346.81146102 
 Total Free Energy (H0 + V/2 + non-elec)     =    -346.81706987 hartree
                                             = -217630.99604691 kcal/mol
***********************************************************

E_pcm = -0.0056088500
Multipole orders to be included
        2
        3
computing dipole RHS
computing quadrupole RHS
total number of RHS in solve_reponses: 8
RHS batch sizes
        8
Beginning Block Conjugate Gradient Iterations. Batch Number: 0
computing hessian-vector products by finite difference
              1      6.28e-01     00000 Conjugate Gradient Iteration
computing hessian-vector products by finite difference
              2      1.99e-01     00000 Conjugate Gradient Iteration
computing hessian-vector products by finite difference
              3      4.90e-02     00000 Conjugate Gradient Iteration
computing hessian-vector products by finite difference
              4      1.39e-02     00000 Conjugate Gradient Iteration
computing hessian-vector products by finite difference
              5      4.02e-03     00000 Conjugate Gradient Iteration
computing hessian-vector products by finite difference
              6      1.36e-03     00000 Conjugate Gradient Iteration
computing hessian-vector products by finite difference
              7      3.37e-04     00000 Conjugate Gradient Iteration
computing hessian-vector products by finite difference
              8      6.24e-05     00000 Conjugate Gradient Iteration
computing hessian-vector products by finite difference
              9      1.09e-05     00000 Conjugate Gradient Iteration
computing hessian-vector products by finite difference
             10      1.52e-06     00000 Conjugate Gradient Iteration
computing hessian-vector products by finite difference
             11      2.47e-07     00000 Conjugate Gradient Iteration
computing hessian-vector products by finite difference
             12      4.26e-08     00000 Conjugate Gradient Iteration
computing hessian-vector products by finite difference
             13      8.90e-09     00000 CG Converged
batch 0 complete
Done Calculating Responses
TESTING ORTHOGONALIZATION OF MULTIPOLE BASIS
Multipole virts passed orthogonality test
Virts Per Order
           87
          145

 --------------------------------------------------------------

                    Orbital Energies (a.u.)
 --------------------------------------------------------------

 Alpha MOs
 -- Occupied --
-19.2449 -10.3361 -10.2753 -10.2748 -10.2736 -10.2722 -10.2697 -10.2605
 -1.1944  -0.9959  -0.9023  -0.8849  -0.8107  -0.7486  -0.7154  -0.6674
 -0.6024  -0.5805  -0.5516  -0.5416  -0.5352  -0.5211  -0.5107  -0.4768
 -0.4565  -0.4429  -0.4410  -0.3534  -0.3123
 -- Virtual --
  0.0578   0.0593   0.0681   0.0782   0.0830   0.0942   0.1085   0.1100
  0.1137   0.1312   0.1439   0.1516   0.1548   0.1705   0.1765   0.1915
  0.1992   0.2028   0.2150   0.2255   0.2335   0.2401   0.2482   0.2534
  0.2629   0.2671   0.2715   0.2756   0.2808   0.2944   0.2954   0.3022
  0.3045   0.3091   0.3113   0.3237   0.3325   0.3396   0.3432   0.3495
  0.3547   0.3558   0.3621   0.3721   0.3735   0.3789   0.3809   0.3919
  0.3949   0.3958   0.3981   0.4062   0.4136   0.4195   0.4262   0.4332
  0.4345   0.4549   0.4564   0.4620   0.4717   0.4736   0.4772   0.4816
  0.4872   0.4937   0.4971   0.5004   0.5102   0.5145   0.5293   0.5372
  0.5403   0.5472   0.5495   0.5539   0.5596   0.5745   0.5765   0.5921
  0.6018   0.6069   0.6145   0.6292   0.6371   0.6602   0.6626   0.6724
  0.6773   0.6830   0.6916   0.6957   0.6973   0.7028   0.7182   0.7288
  0.7327   0.7337   0.7451   0.7512   0.7569   0.7707   0.7801   0.7866
  0.7882   0.7916   0.7962   0.7990   0.8051   0.8136   0.8269   0.8350
  0.8464   0.8469   0.8522   0.8557   0.8649   0.8734   0.8841   0.8877
  0.9023   0.9141   0.9339   0.9479   0.9602   0.9858   0.9924   1.0135
  1.0148   1.0393   1.0411   1.0462   1.0589   1.0734   1.0749   1.0874
  1.0996   1.1169   1.1371   1.1708   1.1958   1.2368   1.2748   1.2938
  1.3056   1.3165   1.3306   1.3527   1.3691   1.3856   1.3986   1.4353
  1.4558   1.4674   1.4687   1.4847   1.5307   1.5640   1.6043   1.6251
  1.6324   1.6453   1.6775   1.6817   1.7035   1.7248   1.7681   1.7991
  1.8192   1.8248   1.8339   1.8570   1.8698   1.8773   1.9158   1.9207
  1.9375   1.9528   1.9745   1.9831   1.9955   2.0253   2.0435   2.0488
  2.0577   2.0731   2.0859   2.1032   2.1171   2.1627   2.1962   2.2051
  2.2203   2.2410   2.2701   2.2822   2.3013   2.3179   2.3456   2.3667
  2.3994   2.4063   2.4387   2.4636   2.4876   2.4976   2.5268   2.5560
  2.5711   2.6054   2.6251   2.6469   2.6515   2.6651   2.6851   2.7436
  2.7601   2.7656   2.7753   2.8051   2.8142   2.8345   2.8628   2.8751
  2.9053   2.9175   2.9367   2.9478   2.9668   2.9741   2.9786   3.0109
  3.0165   3.0398   3.0695   3.0757   3.0952   3.1293   3.1527   3.1733
  3.1871   3.1967   3.2127   3.2276   3.2388   3.2616   3.2865   3.2939
  3.3185   3.3542   3.3857   3.3905   3.3937   3.4117   3.4447   3.4558
  3.4585   3.4762   3.4905   3.5142   3.5209   3.5255   3.5395   3.5418
  3.5541   3.5697   3.5769   3.5920   3.6018   3.6324   3.6456   3.6762
  3.6919   3.7024   3.7364   3.7596   3.8044   3.8232   3.8546   3.9074
  3.9384   3.9621   3.9827   3.9876   4.0412   4.0868   4.1407   4.1516
  4.2479   4.2665   4.2829   4.3149   4.3207   4.3313   4.3476   4.3582
  4.3793   4.3891   4.4296   4.4725   4.4965   4.5386   4.5968   4.6206
  4.7426   4.7438   4.7946   4.8110   4.8618   4.9216   5.0255   5.0676
  5.0882   5.1330   5.1597   5.3094   5.3321   5.3873   5.4497   5.5460
  5.6168   5.6423   5.7024   5.7661   5.9467   6.2135   6.4918   6.5951
  6.6329   6.8740   6.9964   7.3050   7.4576  22.6678  22.6817  22.9358
 22.9973  23.0409  23.1862  23.5118  44.4189
 --------------------------------------------------------------

          Ground-State Mulliken Net Atomic Charges

     Atom                 Charge (a.u.)
  ----------------------------------------
      1 C                    -1.028505
      2 C                    -0.428462
      3 C                     0.586410
      4 C                    -0.753471
      5 C                    -0.601333
      6 C                     0.827081
      7 C                    -0.406136
      8 O                    -0.486647
      9 H                     0.303048
     10 H                     0.333133
     11 H                     0.274111
     12 H                     0.258271
     13 H                     0.333977
     14 H                     0.272554
     15 H                     0.297913
     16 H                     0.218058
  ----------------------------------------
  Sum of atomic charges =     0.000000

 -----------------------------------------------------------------
                    Cartesian Multipole Moments
 -----------------------------------------------------------------
    Charge (ESU x 10^10)
                -0.0000
    Dipole Moment (Debye)
         X      -0.5035      Y      -1.4131      Z       0.9043
       Tot       1.7516
    Quadrupole Moments (Debye-Ang)
        XX     -44.0900     XY       2.7406     YY     -48.3489
        XZ      -9.9323     YZ      -2.8225     ZZ     -38.6254
    Octopole Moments (Debye-Ang^2)
       XXX     256.5364    XXY       2.4142    XYY      95.7918
       YYY       0.5687    XXZ     -54.9710    XYZ       0.2740
       YYZ    -104.3005    XZZ      32.2414    YZZ       6.2896
       ZZZ    -246.0836
    Hexadecapole Moments (Debye-Ang^3)
      XXXX   -1242.6285   XXXY      56.6759   XXYY    -348.1564
      XYYY     116.2161   YYYY    -729.0568   XXXZ     517.6278
      XXYZ      -1.2952   XYYZ     237.9501   YYYZ    -130.9388
      XXZZ    -229.9134   XYZZ     -15.2281   YYZZ    -393.6937
      XZZZ     395.6500   YZZZ     -28.8253   ZZZZ   -1334.4143
 -----------------------------------------------------------------
Archival summary:
1\1\compute-0-7.local\SP\ProcedureUnspecified\BasisUnspecified\178\meili\ThuSep3004:02:012021ThuSep3004:02:012021\0\\#,ProcedureUnspecified,BasisUnspecified,\\0,1\C\O,1,1.36252\H,2,0.964777,1,113.061\C,1,1.38992,2,119.086,3,-176.249,0\H,4,1.07785,1,120.235,2,0.181606,0\C,4,1.3866,1,119.845,2,179.655,0\H,6,1.07676,4,119.739,1,-177.813,0\C,6,1.39121,4,120.87,1,0.0057211,0\C,1,1.39626,2,120.778,3,3.51328,0\H,9,1.0819,1,120.549,2,0.069139,0\C,9,1.39485,1,119.582,2,-179.617,0\H,11,1.08226,9,119.758,1,-179.815,0\C,8,1.50288,6,120.081,4,-179.388,0\H,13,1.08845,8,107.969,6,-133.309,0\H,13,1.09074,8,110.078,6,-16.0316,0\H,13,1.1,8,113.132,6,106.802,0\\\@

 Total job time:  16024.70s(wall), 93539.50s(cpu) 
 Thu Sep 30 04:02:01 2021

        *************************************************************
        *                                                           *
        *  Thank you very much for using Q-Chem.  Have a nice day.  *
        *                                                           *
        *************************************************************


Done Job For Fragment 0
calling putenv with: QCSCRATCH=/home/meili/scratch 
calling putenv with: QCTHREADS=8 
Creating input file /home/meili/scratch/qchem52002/Frg2.input
using default PutDataFrgm: nothing
calling putenv with: QCSCRATCH=/home/meili/scratch/qchem52002/ 
Spawning Job For Fragment 1
                  Welcome to Q-Chem
     A Quantum Leap Into The Future Of Chemistry


 Q-Chem 5.2 (devel), Q-Chem, Inc., Pleasanton, CA (2019)

 Yihan Shao,  Zhengting Gan,  E. Epifanovsky,  A. T. B. Gilbert,  M. Wormit,  
 J. Kussmann,  A. W. Lange,  A. Behn,  Jia Deng,  Xintian Feng,  D. Ghosh,  
 M. Goldey,  P. R. Horn,  L. D. Jacobson,  I. Kaliman,  T. Kus,  A. Landau,  
 Jie Liu,  E. I. Proynov,  R. M. Richard,  R. P. Steele,  E. J. Sundstrom,  
 H. L. Woodcock III,  P. M. Zimmerman,  D. Zuev,  B. Albrecht,  E. Alguire,  
 S. A. Baeppler,  D. Barton,  Z. Benda,  Y. A. Bernard,  E. J. Berquist,  
 K. B. Bravaya,  H. Burton,  D. Casanova,  Chun-Min Chang,  Yunqing Chen,  
 A. Chien,  K. D. Closser,  M. P. Coons,  S. Coriani,  S. Dasgupta,  
 A. L. Dempwolff,  M. Diedenhofen,  Hainam Do,  R. G. Edgar,  Po-Tung Fang,  
 S. Faraji,  S. Fatehi,  Qingguo Feng,  K. D. Fenk,  J. Fosso-Tande,  
 J. Gayvert,  Qinghui Ge,  A. Ghysels,  G. Gidofalvi,  J. Gomes,  
 J. Gonthier,  A. Gunina,  D. Hait,  M. W. D. Hanson-Heine,  
 P. H. P. Harbach,  A. W. Hauser,  M. F. Herbst,  J. E. Herr,  
 E. G. Hohenstein,  Z. C. Holden,  Kerwin Hui,  B. C. Huynh,  T.-C. Jagau,  
 Hyunjun Ji,  B. Kaduk,  K. Khistyaev,  Jaehoon Kim,  P. Klunzinger,  K. Koh,  
 D. Kosenkov,  L. Koulias,  T. Kowalczyk,  C. M. Krauter,  A. Kunitsa,  
 Ka Un Lao,  A. Laurent,  K. V. Lawler,  Joonho Lee,  D. Lefrancois,  
 S. Lehtola,  D. S. Levine,  Yi-Pei Li,  You-Sheng Lin,  Fenglai Liu,  
 E. Livshits,  A. Luenser,  P. Manohar,  E. Mansoor,  S. F. Manzer,  
 Shan-Ping Mao,  Yuezhi Mao,  N. Mardirossian,  A. V. Marenich,  
 T. Markovich,  L. A. Martinez-Martinez,  S. A. Maurer,  N. J. Mayhall,  
 S. C. McKenzie,  J.-M. Mewes,  P. Morgante,  A. F. Morrison,  
 J. W. Mullinax,  K. Nanda,  T. S. Nguyen-Beck,  R. Olivares-Amaya,  
 J. A. Parkhill,  Zheng Pei,  T. M. Perrine,  F. Plasser,  P. Pokhilko,  
 S. Prager,  A. Prociuk,  E. Ramos,  D. R. Rehn,  F. Rob,  M. Scheurer,  
 M. Schneider,  N. Sergueev,  S. M. Sharada,  S. Sharma,  D. W. Small,  
 T. Stauch,  T. Stein,  Yu-Chuan Su,  A. J. W. Thom,  A. Tkatchenko,  
 T. Tsuchimochi,  N. M. Tubman,  L. Vogt,  M. L. Vidal,  O. Vydrov,  
 M. A. Watson,  J. Wenzel,  M. de Wergifosse,  T. A. Wesolowski,  A. White,  
 J. Witte,  A. Yamada,  Jun Yang,  K. Yao,  S. Yeganeh,  S. R. Yost,  
 Zhi-Qiang You,  A. Zech,  Igor Ying Zhang,  Xing Zhang,  Yan Zhao,  
 Ying Zhu,  B. R. Brooks,  G. K. L. Chan,  C. J. Cramer,  M. S. Gordon,  
 W. J. Hehre,  A. Klamt,  M. W. Schmidt,  C. D. Sherrill,  D. G. Truhlar,  
 A. Aspuru-Guzik,  R. Baer,  A. T. Bell,  N. A. Besley,  Jeng-Da Chai,  
 A. E. DePrince, III,  R. A. DiStasio Jr.,  A. Dreuw,  B. D. Dunietz,  
 T. R. Furlani,  Chao-Ping Hsu,  Yousung Jung,  Jing Kong,  D. S. Lambrecht,  
 WanZhen Liang,  C. Ochsenfeld,  V. A. Rassolov,  L. V. Slipchenko,  
 J. E. Subotnik,  T. Van Voorhis,  J. M. Herbert,  A. I. Krylov,  
 P. M. W. Gill,  M. Head-Gordon

 Contributors to earlier versions of Q-Chem not listed above: 
 R. D. Adamson,  B. Austin,  J. Baker,  G. J. O. Beran,  K. Brandhorst,  
 S. T. Brown,  E. F. C. Byrd,  A. K. Chakraborty,  C.-L. Cheng,  
 Siu Hung Chien,  D. M. Chipman,  D. L. Crittenden,  H. Dachsel,  
 R. J. Doerksen,  A. D. Dutoi,  L. Fusti-Molnar,  W. A. Goddard III,  
 A. Golubeva-Zadorozhnaya,  S. R. Gwaltney,  G. Hawkins,  A. Heyden,  
 S. Hirata,  G. Kedziora,  F. J. Keil,  C. Kelley,  Jihan Kim,  R. A. King,  
 R. Z. Khaliullin,  P. P. Korambath,  W. Kurlancheek,  A. M. Lee,  M. S. Lee,  
 S. V. Levchenko,  Ching Yeh Lin,  D. Liotard,  R. C. Lochan,  I. Lotan,  
 P. E. Maslen,  N. Nair,  D. P. O'Neill,  D. Neuhauser,  E. Neuscamman,  
 C. M. Oana,  R. Olson,  B. Peters,  R. Peverati,  P. A. Pieniazek,  
 Y. M. Rhee,  J. Ritchie,  M. A. Rohrdanz,  E. Rosta,  N. J. Russ,  
 H. F. Schaefer III,  N. E. Schultz,  N. Shenvi,  A. C. Simmonett,  A. Sodt,  
 D. Stuck,  K. S. Thanthiriwatte,  V. Vanovschi,  Tao Wang,  A. Warshel,  
 C. F. Williams,  Q. Wu,  X. Xu,  W. Zhang

 Please cite Q-Chem as follows:
 Y. Shao et al., Mol. Phys. 113, 184-215 (2015)
 DOI: 10.1080/00268976.2014.952696

 Q-Chem 5.2.1 for Intel X86 EM64T Linux

 Parts of Q-Chem use Armadillo 8.300.2 (Tropical Shenanigans).
 http://arma.sourceforge.net/

 Q-Chem begins on Thu Sep 30 04:02:02 2021  

compute-0-7.local
Host: 0

     Scratch files written to /home/meili/scratch/qchem52002//Frg2//
NAlpha2: 70
NElect   70
Mult     1
Symmetry turned off for PCM/SM12/SMD calculation

Checking the input file for inconsistencies... 	...done.

--------------------------------------------------------------
User input:
--------------------------------------------------------------
$molecule
0 1
 6	4.4179119580	-0.5827106980	-0.9270486577
 6	0.9119119580	-0.4017106980	-2.2760486577
 6	1.9919119580	0.1922893020	-1.5690486577
 6	3.0569119580	-0.7717106980	-1.5280486577
 6	2.5999119580	-1.8647106980	-2.2050486577
 6	-0.4210880420	1.5412893020	-1.9920486577
 6	-0.2900880420	0.2562893020	-2.4900486577
 6	0.6259119580	2.1562893020	-1.2870486577
 6	1.8349119580	1.4932893020	-1.0720486577
 7	1.3179119580	-1.6537106980	-2.6470486577
 1	-1.3480880420	2.0792893020	-2.1410486577
 1	-1.0890880420	-0.2207106980	-3.0330486577
 1	0.4889119580	3.1582893020	-0.9040486577
 1	2.6459119580	1.9712893020	-0.5510486577
 1	0.7379119580	-2.3457106980	-3.1350486577
 1	3.1739119580	-2.7607106980	-2.3970486577
 1	4.6689119580	-1.4357106980	-0.2950486577
 1	4.4049119580	0.3122893020	-0.3030486577
 1	5.1724319580	-0.4612706980	-1.7182182577
$end
$rem
EDA2		1
METHOD		WB97X-V
BASIS		DEF2-TZVPD
XC_GRID		000099000590
NL_GRID		1
UNRESTRICTED		FALSE
MAX_SCF_CYCLES		200
SYMMETRY		FALSE
SYM_IGNORE		TRUE
BASIS_LIN_DEP_THRESH		6
THRESH		14
SCF_CONVERGENCE		8
SCF_PRINT_FRGM		TRUE
SOLVENT_METHOD		PCM
!required keywords
JOBTYPE		SP
SYM_IGNORE		TRUE
SUBSYSTEM		TRUE
GEN_SCFMAN		TRUE
CHILD_INSTRUCTION		2
SYM_IGNORE		TRUE
SCFMI		0
RI_K 0		
PARI_K 0		
MIN_PARI_K 0		
IARI_K 0		
OCC_RI_K 0		
PURECART		1111
MEM_STATIC		2000
MEM_TOTAL		2000
GUI		0
CHILD_MP		1
CHILD_MP_ORDERS		232
FRZ_RELAX		0
FRZ_RELAX_METHOD		0
EDA_CLS_ELEC		1
EDA_CLS_DISP		0
FRZ_ORTHO_DECOMP		1
EDA2		FALSE
FRGM_METHOD		FALSE
CIS_N_ROOTS  0
LOCAL_CIS    0
CIS_RLX_DNS  1
$end
$pcm
THEORY                  CPCM
METHOD                  SWIG
SOLVER                  INVERSION
RADII                   UFF
HPOINTS                 302
HEAVYPOINTS             302
PRINTLEVEL              0
$end
$solvent
DIELECTRIC              78.390000 ! water
$end
--------------------------------------------------------------
 ----------------------------------------------------------------
             Standard Nuclear Orientation (Angstroms)
    I     Atom           X                Y                Z
 ----------------------------------------------------------------
    1      C       4.4179119580    -0.5827106980    -0.9270486577
    2      C       0.9119119580    -0.4017106980    -2.2760486577
    3      C       1.9919119580     0.1922893020    -1.5690486577
    4      C       3.0569119580    -0.7717106980    -1.5280486577
    5      C       2.5999119580    -1.8647106980    -2.2050486577
    6      C      -0.4210880420     1.5412893020    -1.9920486577
    7      C      -0.2900880420     0.2562893020    -2.4900486577
    8      C       0.6259119580     2.1562893020    -1.2870486577
    9      C       1.8349119580     1.4932893020    -1.0720486577
   10      N       1.3179119580    -1.6537106980    -2.6470486577
   11      H      -1.3480880420     2.0792893020    -2.1410486577
   12      H      -1.0890880420    -0.2207106980    -3.0330486577
   13      H       0.4889119580     3.1582893020    -0.9040486577
   14      H       2.6459119580     1.9712893020    -0.5510486577
   15      H       0.7379119580    -2.3457106980    -3.1350486577
   16      H       3.1739119580    -2.7607106980    -2.3970486577
   17      H       4.6689119580    -1.4357106980    -0.2950486577
   18      H       4.4049119580     0.3122893020    -0.3030486577
   19      H       5.1724319580    -0.4612706980    -1.7182182577
 ----------------------------------------------------------------
 Nuclear Repulsion Energy =         484.86619561 hartrees
 There are       35 alpha and       35 beta electrons
 Requested basis set is def2-TZVPD
 There are 175 shells and 451 basis functions

 Total QAlloc Memory Limit   2000 MB
 Mega-Array Size      1956 MB
 MEM_STATIC part      2000 MB
 Discretize the solute cavity surface with Lebedev spheres
	Using 302 Lebedev grid points for each H atom
	Using 302 Lebedev grid points for other atoms
	Atomic van der Waals radii will be scaled by 1.20
 Remove points where switching function is < 1.0e-08
 Keep 2195 surface tesserae and discard 3543 interior tesserae
 Molecular Surface Area = 215.287 Angst**2
 A cutoff of  1.0D-14 yielded  14467 shell pairs
 There are     98277 function pairs (    126460 Cartesian)
 Smallest overlap matrix eigenvalue = 5.11E-07
 Linear dependence detected in AO basis
 Tighter screening thresholds may be required for diffuse basis sets
 Use S2THRESH > 14 and THRESH = 14 in case of SCF convergence issues
 Number of orthogonalized atomic orbitals = 448
 Maximum deviation from orthogonality = 1.779E-10

 Scale SEOQF with 1.000000e-02/1.000000e-01/1.000000e-01

 Standard Electronic Orientation quadrupole field applied
 Nucleus-field energy     =    -0.0000000162 hartrees
 Guess from superposition of atomic densities
 Warning:  Energy on first SCF cycle will be non-variational
 SAD guess density has 70.000000 electrons

 -----------------------------------------------------------------------
  General SCF calculation program by
  Eric Jon Sundstrom, Paul Horn, Yuezhi Mao, Dmitri Zuev, Alec White,
  David Stuck, Shaama M.S., Shane Yost, Joonho Lee, David Small,
  Daniel Levine, Susi Lehtola, Hugh Burton, Evgeny Epifanovsky,
  Bang C. Huynh
 -----------------------------------------------------------------------
 Exchange:     0.1670 Hartree-Fock + 1.0000 wB97X-V + LR-HF
 Correlation:  1.0000 wB97X-V
 Using Euler-Maclaurin-Lebedev (99,590) quadrature formula
 Nonlocal Correlation:  VV10 with C = 0.0100 and b = 6.00 and scale = 1.00000
 Grid used for NLC:  SG-1 standard quadrature
Energy prior to optimization (guess energy) = -403.080483075985
Begin Timing: Total SCF Calculation
begin iterations for algorithm: DIIS         
the SCF tolerance is set to 1.00e-08
    1    -403.0804830760      1.67e-03     00000 
    2    -403.1288331753      1.21e-03     00000 
    3    -403.1666790583      2.59e-04     00000 
    4    -403.1682212127      1.21e-04     00000 
    5    -403.1685931879      2.51e-05     00000 
    6    -403.1686135964      9.71e-06     00000 
    7    -403.1686163798      2.95e-06     00000 
    8    -403.1686168652      7.11e-07     00000 
    9    -403.1686169274      3.28e-07     00000 
   10    -403.1686169412      1.68e-07     00000 
   11    -403.1686169447      6.54e-08     00000 
   12    -403.1686169453      2.79e-08     00000 
   13    -403.1686169454      9.70e-09     00000 Convergence criterion met
Timing for Total SCF: 1578.00s (wall), 9639.20s (cpu)

************** Final PCM Free Energy Summary **************
 G_electrostatic  =      -0.00651720 hartree =      -4.08960333 kcal/mol
 G_cavitation     =       0.00000000 hartree =       0.00000000 kcal/mol
 G_dispersion     =       0.00000000 hartree =       0.00000000 kcal/mol
 G_repulsion      =       0.00000000 hartree =       0.00000000 kcal/mol
 --------------------------------------------------
 Non-electrostatic Free Energy =       0.00000000 hartree =       0.00000000 kcal/mol
 Total                         =      -0.00651720 hartree =      -4.08960333 kcal/mol
 --------------------------------------------------
 SCF Energy (H0 + V/2)                       =    -403.16861695 
 Solute Internal Energy (H0)                 =    -403.16209975 
 Total Free Energy (H0 + V/2 + non-elec)     =    -403.16861695 hartree
                                             = -252992.12554319 kcal/mol
***********************************************************

E_pcm = -0.0065171978
Multipole orders to be included
        2
        3
computing dipole RHS
computing quadrupole RHS
total number of RHS in solve_reponses: 8
RHS batch sizes
        8
Beginning Block Conjugate Gradient Iterations. Batch Number: 0
computing hessian-vector products by finite difference
              1      6.15e-01     00000 Conjugate Gradient Iteration
computing hessian-vector products by finite difference
              2      2.08e-01     00000 Conjugate Gradient Iteration
computing hessian-vector products by finite difference
              3      6.20e-02     00000 Conjugate Gradient Iteration
computing hessian-vector products by finite difference
              4      2.31e-02     00000 Conjugate Gradient Iteration
computing hessian-vector products by finite difference
              5      7.20e-03     00000 Conjugate Gradient Iteration
computing hessian-vector products by finite difference
              6      2.37e-03     00000 Conjugate Gradient Iteration
computing hessian-vector products by finite difference
              7      5.98e-04     00000 Conjugate Gradient Iteration
computing hessian-vector products by finite difference
              8      1.28e-04     00000 Conjugate Gradient Iteration
computing hessian-vector products by finite difference
              9      2.13e-05     00000 Conjugate Gradient Iteration
computing hessian-vector products by finite difference
             10      3.54e-06     00000 Conjugate Gradient Iteration
computing hessian-vector products by finite difference
             11      5.76e-07     00000 Conjugate Gradient Iteration
computing hessian-vector products by finite difference
             12      9.88e-08     00000 Conjugate Gradient Iteration
computing hessian-vector products by finite difference
             13      1.93e-08     00000 Conjugate Gradient Iteration
computing hessian-vector products by finite difference
             14      5.67e-09     00000 CG Converged
batch 0 complete
Done Calculating Responses
TESTING ORTHOGONALIZATION OF MULTIPOLE BASIS
Multipole virts passed orthogonality test
Virts Per Order
          105
          175

 --------------------------------------------------------------

                    Orbital Energies (a.u.)
 --------------------------------------------------------------

 Alpha MOs
 -- Occupied --
-14.4517 -10.3015 -10.2954 -10.2714 -10.2713 -10.2688 -10.2676 -10.2655
-10.2629 -10.2622  -1.1171  -0.9789  -0.9319  -0.8693  -0.8611  -0.8182
 -0.7471  -0.7140  -0.6780  -0.6523  -0.5999  -0.5842  -0.5558  -0.5520
 -0.5395  -0.5176  -0.5147  -0.4947  -0.4806  -0.4531  -0.4526  -0.4340
 -0.3795  -0.3160  -0.2909
 -- Virtual --
  0.0532   0.0599   0.0748   0.0764   0.0909   0.0973   0.0991   0.1052
  0.1258   0.1278   0.1338   0.1450   0.1595   0.1636   0.1755   0.1770
  0.1852   0.1891   0.1986   0.2052   0.2191   0.2212   0.2253   0.2416
  0.2458   0.2525   0.2579   0.2604   0.2643   0.2733   0.2737   0.2757
  0.2798   0.2835   0.2883   0.2922   0.2993   0.3040   0.3129   0.3189
  0.3211   0.3269   0.3363   0.3374   0.3393   0.3418   0.3448   0.3518
  0.3601   0.3651   0.3729   0.3746   0.3770   0.3841   0.3889   0.3898
  0.4019   0.4063   0.4108   0.4121   0.4172   0.4201   0.4230   0.4340
  0.4382   0.4396   0.4483   0.4558   0.4591   0.4607   0.4735   0.4777
  0.4797   0.4925   0.4942   0.4987   0.4996   0.5078   0.5159   0.5193
  0.5269   0.5355   0.5384   0.5449   0.5479   0.5512   0.5602   0.5637
  0.5706   0.5726   0.5819   0.5876   0.5919   0.6110   0.6199   0.6233
  0.6317   0.6408   0.6430   0.6481   0.6509   0.6701   0.6725   0.6786
  0.6840   0.6884   0.7030   0.7054   0.7128   0.7190   0.7282   0.7301
  0.7355   0.7420   0.7469   0.7535   0.7591   0.7638   0.7682   0.7775
  0.7807   0.7886   0.7920   0.8006   0.8017   0.8032   0.8100   0.8143
  0.8202   0.8301   0.8305   0.8338   0.8412   0.8476   0.8558   0.8631
  0.8676   0.8796   0.8897   0.8974   0.9018   0.9121   0.9184   0.9305
  0.9409   0.9512   0.9626   0.9835   0.9904   1.0027   1.0151   1.0222
  1.0338   1.0400   1.0445   1.0609   1.0652   1.0795   1.0868   1.0909
  1.1067   1.1216   1.1357   1.1404   1.1577   1.1821   1.2059   1.2265
  1.2287   1.2345   1.2557   1.2654   1.3014   1.3179   1.3439   1.3525
  1.3761   1.3919   1.4014   1.4165   1.4307   1.4496   1.4560   1.4674
  1.5124   1.5430   1.5553   1.5627   1.5717   1.5833   1.6051   1.6155
  1.6428   1.6627   1.6921   1.7046   1.7223   1.7314   1.7396   1.7691
  1.7893   1.8093   1.8393   1.8439   1.8552   1.8629   1.8792   1.8919
  1.8934   1.9153   1.9321   1.9518   1.9582   1.9640   1.9668   1.9813
  1.9926   1.9978   2.0056   2.0246   2.0371   2.0524   2.0623   2.0753
  2.0925   2.1194   2.1369   2.1708   2.1821   2.2029   2.2119   2.2189
  2.2467   2.2649   2.2984   2.3110   2.3159   2.3611   2.3729   2.3811
  2.4071   2.4327   2.4551   2.4597   2.4800   2.4954   2.5182   2.5399
  2.5558   2.5705   2.5943   2.6107   2.6214   2.6423   2.6609   2.6704
  2.6776   2.7325   2.7506   2.7610   2.7687   2.7881   2.8075   2.8137
  2.8240   2.8304   2.8428   2.8694   2.8811   2.8911   2.8980   2.9104
  2.9267   2.9397   2.9565   2.9756   2.9882   2.9925   3.0177   3.0268
  3.0349   3.0598   3.0717   3.0787   3.0867   3.1303   3.1533   3.1601
  3.1684   3.1907   3.2106   3.2117   3.2316   3.2521   3.2558   3.2662
  3.2848   3.2969   3.3190   3.3276   3.3526   3.3622   3.3786   3.3938
  3.4003   3.4154   3.4193   3.4395   3.4461   3.4561   3.4662   3.4738
  3.4838   3.4903   3.5103   3.5177   3.5215   3.5227   3.5600   3.5716
  3.5759   3.5886   3.6114   3.6252   3.6368   3.6505   3.6625   3.6741
  3.7046   3.7098   3.7170   3.7210   3.7534   3.7642   3.7806   3.7961
  3.8028   3.8595   3.8739   3.8971   3.9320   3.9483   3.9887   4.0253
  4.0486   4.0565   4.1106   4.1449   4.1588   4.1911   4.2172   4.2390
  4.2544   4.2725   4.2761   4.2934   4.3133   4.3518   4.3568   4.3722
  4.4070   4.4151   4.4248   4.4574   4.4728   4.5331   4.5567   4.5753
  4.6189   4.6391   4.6656   4.7512   4.7875   4.8134   4.8418   4.9207
  4.9314   4.9587   4.9709   4.9868   5.0009   5.0589   5.0679   5.1098
  5.1336   5.1553   5.2014   5.2082   5.2742   5.3828   5.4108   5.4489
  5.5060   5.5380   5.5920   5.6392   5.7108   5.8015   5.8304   5.9422
  5.9706   6.2565   6.3410  22.6587  22.7518  22.9217  22.9538  22.9727
 23.1932  23.2649  23.4613  23.7913  32.8340
 --------------------------------------------------------------

          Ground-State Mulliken Net Atomic Charges

     Atom                 Charge (a.u.)
  ----------------------------------------
      1 C                    -0.992349
      2 C                    -0.156553
      3 C                     0.396360
      4 C                     0.878655
      5 C                    -0.795908
      6 C                    -0.359852
      7 C                    -0.586681
      8 C                    -0.564635
      9 C                    -0.469098
     10 N                     0.158214
     11 H                     0.336000
     12 H                     0.341904
     13 H                     0.346170
     14 H                     0.306329
     15 H                     0.201679
     16 H                     0.255701
     17 H                     0.246741
     18 H                     0.251232
     19 H                     0.206093
  ----------------------------------------
  Sum of atomic charges =     0.000000

 -----------------------------------------------------------------
                    Cartesian Multipole Moments
 -----------------------------------------------------------------
    Charge (ESU x 10^10)
                -0.0000
    Dipole Moment (Debye)
         X      -0.0481      Y      -2.5442      Z      -1.1290
       Tot       2.7838
    Quadrupole Moments (Debye-Ang)
        XX     -54.5436     XY      -3.6918     YY     -51.1773
        XZ       2.4586     YZ      10.5326     ZZ     -56.3429
    Octopole Moments (Debye-Ang^2)
       XXX    -275.7181    XXY     -11.0203    XYY     -88.0187
       YYY     -24.9430    XXZ     101.0801    XYZ      13.5503
       YYZ      84.8534    XZZ    -108.6508    YZZ     -38.4304
       ZZZ     308.7693
    Hexadecapole Moments (Debye-Ang^3)
      XXXX   -1833.5271   XXXY     126.8768   XXYY    -399.3308
      XYYY     121.9937   YYYY    -655.2837   XXXZ     404.4446
      XXYZ       9.2387   XYYZ     121.2496   YYYZ      24.2644
      XXZZ    -541.8800   XYZZ      20.6339   YYZZ    -287.2152
      XZZZ     458.3186   YZZZ      55.7646   ZZZZ   -1327.8551
 -----------------------------------------------------------------
Archival summary:
1\1\compute-0-7.local\SP\ProcedureUnspecified\BasisUnspecified\199\meili\ThuSep3013:05:252021ThuSep3013:05:252021\0\\#,ProcedureUnspecified,BasisUnspecified,\\0,1\C\C,1,1.40152\H,2,1.07594,1,119.979\C,2,1.39552,1,118.91,3,178.844,0\H,4,1.08142,2,119.696,1,179.639,0\C,4,1.40409,2,121.016,1,-0.204707,0\H,6,1.08212,4,119.351,2,179.848,0\C,6,1.38434,4,121.107,2,0.330407,0\H,8,1.07739,6,121.473,4,-179.91,0\C,8,1.38693,6,117.833,4,-0.330536,0\N,10,1.36747,8,130.528,6,-179.961,0\H,11,1.02636,10,125.346,8,-2.92945,0\C,11,1.37237,10,109.313,8,-179.906,0\H,13,1.08128,11,124.479,10,-177.555,0\C,13,1.36449,11,110.457,10,0.606465,0\C,15,1.49975,13,127.136,11,-177.877,0\H,16,1.09089,15,110.025,13,-51.2744,0\H,16,1.09113,15,108.768,13,-169.664,0\H,16,1.1,15,110.375,13,70.5476,0\\\@

 Total job time:  32603.53s(wall), 199764.80s(cpu) 
 Thu Sep 30 13:05:25 2021

        *************************************************************
        *                                                           *
        *  Thank you very much for using Q-Chem.  Have a nice day.  *
        *                                                           *
        *************************************************************


Done Job For Fragment 1
calling putenv with: QCSCRATCH=/home/meili/scratch 
calling putenv with: QCTHREADS=8 
Doing General SCFMI
 Exchange:     0.1670 Hartree-Fock + 1.0000 wB97X-V + LR-HF
 Correlation:  1.0000 wB97X-V
 Using Euler-Maclaurin-Lebedev (99,590) quadrature formula
 Nonlocal Correlation:  VV10 with C = 0.0100 and b = 6.00 and scale = 1.00000
 Grid used for NLC:  SG-1 standard quadrature
performing fock build before subrot guess so that all methods have access
Printing subrot_rss_gen Method Specification:
Occupied Subspace Method is 0
Virtual Subspace Method is 0
Energy of the unrelaxed supersystem initial determinant -749.977504578847
performing fock build before subrot guess so that all methods have access
Printing subrot_rss_gen Method Specification:
Occupied Subspace Method is 0
Virtual Subspace Method is 0
Energy of the unrelaxed supersystem initial determinant w/ solvent -749.989244508928
write pseudocanon occs and virts to disk
write pseudocanon orbital energies to disk
Tolerance of ortho_decomp_scf: 1.00e-06
GDM subspace size: 20
Beginning the Orthogonal Decomposition of the Initial Supersystem Wavefunction
    1    -749.9480519555      1.90e-02     ortho_decomp Preconditoned Steepest Descent
    2    -749.9505918229      4.88e-04     ortho_decomp BFGS Step
    3    -749.9506002892      3.97e-05     ortho_decomp BFGS Step
    4    -749.9506003088      1.72e-06     ortho_decomp BFGS Step
    5    -749.9506003088      5.37e-08     ortho_decomp 00000 Convergence criterion met
 Hartree-Fock
 Hartree-Fock
 Hartree-Fock
Doing General SCFMI
 Exchange:     0.1670 Hartree-Fock + 1.0000 wB97X-V + LR-HF
 Correlation:  1.0000 wB97X-V
 Using Euler-Maclaurin-Lebedev (99,590) quadrature formula
 Nonlocal Correlation:  VV10 with C = 0.0100 and b = 6.00 and scale = 1.00000
 Grid used for NLC:  SG-1 standard quadrature
performing fock build at end of subrot_r(subrot) constructor so that all methods have access
<S^2> of initial wavefunction before polarization iterations 0.0000000000
Beginning iterations for the determination of the polarized wavefunction
Energy prior to optimization (guess energy) = -749.989244508929
Begin Timing: Total SCF Calculation
begin iterations for algorithm: DIIS         
the SCF tolerance is set to 1.00e-08
    1    -749.9892445089      5.30e-05     00000 
    2    -749.9897309825      2.30e-05     00000 
    3    -749.9897824510      1.28e-05     00000 
    4    -749.9898017391      3.43e-06     00000 
    5    -749.9898037153      1.48e-06     00000 
    6    -749.9898041068      7.19e-07     00000 
    7    -749.9898041773      3.61e-07     00000 
    8    -749.9898041933      2.09e-07     00000 
    9    -749.9898041978      1.20e-07     00000 
   10    -749.9898041989      6.89e-08     00000 
   11    -749.9898041992      3.40e-08     00000 
   12    -749.9898041993      1.66e-08     00000 
   13    -749.9898041993      8.91e-09     00000 Convergence criterion met
write pseudocanon occs and virts to disk
write pseudocanon orbital energies to disk
Timing for Total SCF: 10586.00s (wall), 66811.57s (cpu)
<S^2> of polarized wavefunction after polarization iterations 0.0000000000
relaxing scfmi constraint to allow all rotations in the entire AO span
Doing General SCFMI
 Exchange:     0.1670 Hartree-Fock + 1.0000 wB97X-V + LR-HF
 Correlation:  1.0000 wB97X-V
 Using Euler-Maclaurin-Lebedev (99,590) quadrature formula
 Nonlocal Correlation:  VV10 with C = 0.0100 and b = 6.00 and scale = 1.00000
 Grid used for NLC:  SG-1 standard quadrature
performing fock build at end of subrot_r(subrot) constructor so that all methods have access
<S^2> of polarized wavefunction before ct-allowed iterations 0.0000000000
Beginning iterations for the determination of the CT-Allowed wavefunction
Energy prior to optimization (guess energy) = -749.989804199301
Begin Timing: Total SCF Calculation
begin iterations for algorithm: DIIS         
the SCF tolerance is set to 1.00e-08
    1    -749.9898041993      6.54e-05     00000 
    2    -749.9911981193      6.90e-06     00000 
    3    -749.9912394920      1.23e-06     00000 
    4    -749.9912407730      7.37e-07     00000 
    5    -749.9912409723      1.45e-07     00000 
    6    -749.9912409850      5.96e-08     00000 
    7    -749.9912409867      1.41e-08     00000 
    8    -749.9912409868      6.73e-09     00000 Convergence criterion met
write pseudocanon occs and virts to disk
write pseudocanon orbital energies to disk
Timing for Total SCF: 6490.00s (wall), 41377.57s (cpu)
<S^2> of ct_allowed wavefunction after ct-allowed iterations 0.0000000000

================================
        Results of EDA2         
================================
Basic EDA Quantities
--------------------
Fragment Energies (Ha):
1 -346.8170698684
2 -403.1686169454
--------------------
  E_prp (kJ/mol) = 0.0000
  E_sol (kJ/mol) = 1.0138
  E_frz (kJ/mol) = -10.3546
  E_pol (kJ/mol) = -1.4695
  E_vct (kJ/mol) = -3.7723
  E_int (kJ/mol) = -14.5827
--------------------


Initial Wavefunction Decomposition
--------------------
  --------------------
  Orthogonal Fragment Subspace Decomposition:
  --------------------
     E_elec   (ELEC)   (kJ/mol) = -30.7967
     E_pauli  (PAULI)  (kJ/mol) = 46.3542
     E_disp   (DISP)   (kJ/mol) = -25.9121
     --------------------
     Terms summing to E_pauli:
     --------------------
        E_kep_pauli       (kJ/mol) = 60.2834
        E_disp_free_pauli (kJ/mol) = -13.9292
  --------------------
  Classical Frozen Decomposition:
  --------------------
     E_cls_elec  (CLS ELEC)  (kJ/mol) = -13.0944
     E_cls_pauli (CLS PAULI) (kJ/mol) = 2.7398
    [E_mod_pauli (MOD PAULI) (kJ/mol) = 28.6519 (CLS PAULI - DISP from orthogonal decomposition) ]
  --------------------
--------------------

Simplified EDA Summary (kJ/mol)
--------------------
 PREPARATION     0.0000
 SOLVATION       1.0138
 FROZEN          15.5575      (does not include dispersion)
[PAULI           46.3542]     (if this is negligible, then frozen describes electrostatics)
 DISPERSION      -25.9121
 POLARIZATION    -1.4695
 CHARGE TRANSFER -3.7723
 TOTAL           -14.5827     (PRP + SOL + FRZ + DISP + POL + CT)
--------------------

 --------------------------------------------------------------

                    Orbital Energies (a.u.)
 --------------------------------------------------------------

 Alpha MOs
 -- Occupied --
-19.2437 -14.4534 -10.3339 -10.3036 -10.2970 -10.2735 -10.2730 -10.2729
-10.2715 -10.2712 -10.2700 -10.2698 -10.2669 -10.2666 -10.2658 -10.2638
-10.2635 -10.2581  -1.1930  -1.1188  -0.9929  -0.9812  -0.9334  -0.8997
 -0.8818  -0.8711  -0.8628  -0.8194  -0.8081  -0.7487  -0.7459  -0.7156
 -0.7127  -0.6796  -0.6649  -0.6538  -0.6014  -0.6002  -0.5860  -0.5779
 -0.5605  -0.5535  -0.5473  -0.5411  -0.5396  -0.5330  -0.5195  -0.5188
 -0.5149  -0.5090  -0.4958  -0.4818  -0.4745  -0.4587  -0.4545  -0.4483
 -0.4407  -0.4358  -0.4338  -0.3817  -0.3502  -0.3183  -0.3102  -0.2922
 -- Virtual --
  0.0487   0.0549   0.0607   0.0619   0.0697   0.0728   0.0779   0.0808
  0.0871   0.0932   0.0947   0.0984   0.1034   0.1058   0.1149   0.1177
  0.1227   0.1245   0.1293   0.1311   0.1431   0.1485   0.1528   0.1557
  0.1613   0.1640   0.1711   0.1758   0.1795   0.1839   0.1893   0.1942
  0.1996   0.2070   0.2087   0.2146   0.2207   0.2223   0.2276   0.2291
  0.2332   0.2365   0.2386   0.2452   0.2484   0.2545   0.2566   0.2594
  0.2629   0.2653   0.2687   0.2719   0.2736   0.2772   0.2786   0.2807
  0.2814   0.2855   0.2922   0.2941   0.2981   0.3016   0.3037   0.3047
  0.3077   0.3116   0.3140   0.3182   0.3199   0.3220   0.3276   0.3295
  0.3327   0.3385   0.3417   0.3426   0.3437   0.3481   0.3485   0.3528
  0.3557   0.3589   0.3602   0.3629   0.3680   0.3694   0.3709   0.3738
  0.3751   0.3763   0.3786   0.3803   0.3873   0.3894   0.3910   0.3948
  0.3998   0.4016   0.4042   0.4059   0.4093   0.4118   0.4129   0.4182
  0.4234   0.4253   0.4262   0.4291   0.4348   0.4354   0.4356   0.4413
  0.4450   0.4477   0.4520   0.4573   0.4593   0.4599   0.4602   0.4656
  0.4696   0.4711   0.4753   0.4789   0.4832   0.4894   0.4934   0.4957
  0.4975   0.4994   0.5025   0.5029   0.5071   0.5113   0.5148   0.5162
  0.5223   0.5259   0.5286   0.5300   0.5365   0.5376   0.5387   0.5407
  0.5465   0.5475   0.5529   0.5591   0.5622   0.5630   0.5650   0.5720
  0.5740   0.5771   0.5800   0.5831   0.5906   0.5955   0.5986   0.6021
  0.6047   0.6099   0.6125   0.6155   0.6224   0.6255   0.6266   0.6304
  0.6370   0.6382   0.6417   0.6480   0.6499   0.6566   0.6604   0.6669
  0.6728   0.6747   0.6780   0.6816   0.6846   0.6888   0.6937   0.6964
  0.7029   0.7063   0.7071   0.7100   0.7111   0.7191   0.7225   0.7290
  0.7292   0.7299   0.7331   0.7400   0.7436   0.7482   0.7488   0.7501
  0.7552   0.7562   0.7591   0.7616   0.7675   0.7676   0.7714   0.7752
  0.7788   0.7824   0.7885   0.7896   0.7930   0.7949   0.7968   0.7985
  0.8051   0.8079   0.8100   0.8146   0.8169   0.8227   0.8247   0.8260
  0.8292   0.8329   0.8345   0.8369   0.8422   0.8508   0.8525   0.8573
  0.8589   0.8647   0.8664   0.8708   0.8741   0.8756   0.8779   0.8828
  0.8893   0.8914   0.8948   0.8956   0.9075   0.9087   0.9108   0.9146
  0.9207   0.9234   0.9307   0.9356   0.9367   0.9448   0.9491   0.9563
  0.9577   0.9603   0.9657   0.9765   0.9798   0.9815   0.9956   1.0042
  1.0068   1.0118   1.0159   1.0212   1.0224   1.0329   1.0372   1.0410
  1.0460   1.0546   1.0596   1.0679   1.0737   1.0745   1.0812   1.0923
  1.0947   1.1009   1.1053   1.1075   1.1124   1.1205   1.1285   1.1300
  1.1372   1.1418   1.1568   1.1656   1.1704   1.1774   1.1842   1.1895
  1.1942   1.2005   1.2048   1.2130   1.2238   1.2297   1.2342   1.2555
  1.2655   1.2771   1.2822   1.2905   1.3096   1.3155   1.3262   1.3307
  1.3340   1.3471   1.3610   1.3735   1.3794   1.3859   1.3922   1.3947
  1.3994   1.4083   1.4204   1.4280   1.4401   1.4428   1.4469   1.4597
  1.4708   1.4778   1.4855   1.4878   1.4991   1.5091   1.5128   1.5274
  1.5337   1.5424   1.5667   1.5701   1.5787   1.5839   1.5904   1.5977
  1.6266   1.6338   1.6448   1.6469   1.6542   1.6738   1.6747   1.6827
  1.6899   1.7024   1.7088   1.7174   1.7327   1.7345   1.7460   1.7509
  1.7645   1.7844   1.8145   1.8202   1.8356   1.8443   1.8543   1.8608
  1.8673   1.8795   1.8862   1.8891   1.8955   1.8993   1.9160   1.9232
  1.9269   1.9355   1.9425   1.9438   1.9525   1.9630   1.9701   1.9799
  1.9836   1.9908   1.9921   2.0019   2.0136   2.0155   2.0220   2.0331
  2.0352   2.0451   2.0501   2.0580   2.0595   2.0685   2.0768   2.0852
  2.0958   2.1129   2.1159   2.1260   2.1305   2.1387   2.1429   2.1520
  2.1700   2.1862   2.1946   2.1984   2.2080   2.2128   2.2233   2.2331
  2.2351   2.2448   2.2569   2.2611   2.2696   2.2754   2.2945   2.3032
  2.3195   2.3209   2.3244   2.3307   2.3374   2.3510   2.3608   2.3667
  2.3819   2.3879   2.3997   2.4132   2.4153   2.4260   2.4390   2.4546
  2.4590   2.4740   2.4827   2.4952   2.5032   2.5074   2.5196   2.5246
  2.5400   2.5470   2.5643   2.5742   2.5885   2.5957   2.5992   2.6141
  2.6267   2.6365   2.6491   2.6556   2.6623   2.6680   2.6821   2.6832
  2.6917   2.7039   2.7187   2.7369   2.7469   2.7491   2.7658   2.7715
  2.7777   2.7932   2.7954   2.8058   2.8149   2.8167   2.8296   2.8399
  2.8427   2.8462   2.8562   2.8652   2.8747   2.8811   2.8876   2.8984
  2.9011   2.9086   2.9119   2.9242   2.9310   2.9388   2.9460   2.9597
  2.9643   2.9706   2.9801   2.9891   2.9929   3.0055   3.0056   3.0138
  3.0188   3.0262   3.0337   3.0421   3.0535   3.0593   3.0788   3.0807
  3.0922   3.0996   3.1062   3.1092   3.1130   3.1276   3.1379   3.1493
  3.1673   3.1726   3.1758   3.1857   3.1985   3.2059   3.2146   3.2196
  3.2275   3.2400   3.2478   3.2539   3.2640   3.2682   3.2771   3.2897
  3.2931   3.3067   3.3113   3.3163   3.3214   3.3361   3.3409   3.3629
  3.3678   3.3770   3.3789   3.3889   3.3945   3.3989   3.4071   3.4100
  3.4195   3.4326   3.4329   3.4365   3.4462   3.4624   3.4666   3.4702
  3.4708   3.4802   3.4859   3.4905   3.4949   3.4999   3.5026   3.5200
  3.5249   3.5270   3.5329   3.5366   3.5403   3.5423   3.5504   3.5598
  3.5642   3.5665   3.5800   3.5854   3.5898   3.5985   3.6029   3.6082
  3.6157   3.6268   3.6296   3.6357   3.6444   3.6540   3.6576   3.6631
  3.6731   3.6794   3.6915   3.7016   3.7068   3.7138   3.7210   3.7285
  3.7362   3.7383   3.7446   3.7584   3.7730   3.7839   3.7951   3.8012
  3.8045   3.8252   3.8402   3.8644   3.8731   3.8754   3.8974   3.9047
  3.9372   3.9408   3.9541   3.9599   3.9868   4.0062   4.0167   4.0497
  4.0538   4.0555   4.0651   4.0820   4.1167   4.1294   4.1501   4.1556
  4.1719   4.1946   4.2143   4.2232   4.2520   4.2627   4.2696   4.2846
  4.2903   4.2949   4.3087   4.3168   4.3227   4.3355   4.3446   4.3578
  4.3647   4.3670   4.3723   4.3832   4.3849   4.3920   4.4130   4.4253
  4.4284   4.4325   4.4607   4.4792   4.4866   4.5004   4.5247   4.5442
  4.5640   4.5715   4.5835   4.6266   4.6282   4.6508   4.6610   4.6783
  4.7551   4.7570   4.7638   4.7966   4.8132   4.8265   4.8453   4.8520
  4.8830   4.9302   4.9411   4.9685   4.9705   4.9884   5.0099   5.0137
  5.0507   5.0712   5.0817   5.0867   5.1046   5.1254   5.1428   5.1566
  5.1676   5.1876   5.2203   5.2258   5.2836   5.3258   5.3465   5.3894
  5.3909   5.4264   5.4611   5.4737   5.5127   5.5428   5.5658   5.5996
  5.6202   5.6494   5.6520   5.7154   5.7315   5.7715   5.8115   5.8386
  5.9501   5.9531   5.9736   6.2190   6.2652   6.3390   6.4926   6.6018
  6.6380   6.8791   6.9971   7.3050   7.4659  22.6745  22.7103  22.7370
 22.9097  22.9809  22.9825  22.9997  23.0229  23.0341  23.0760  23.2096
 23.2283  23.3141  23.4724  23.5477  23.7951  32.9240  44.4455
 --------------------------------------------------------------

          Ground-State Mulliken Net Atomic Charges

     Atom                 Charge (a.u.)
  ----------------------------------------
      1 C                    -0.884979
      2 C                     0.401456
      3 C                     0.083995
      4 C                    -0.544693
      5 C                    -0.653068
      6 C                     0.447773
      7 C                    -0.405233
      8 O                    -0.480718
      9 H                     0.017438
     10 H                     0.372856
     11 H                     0.105104
     12 H                     0.259083
     13 H                     0.387409
     14 H                     0.297048
     15 H                     0.300512
     16 H                     0.210201
     17 C                    -1.060799
     18 C                    -0.215116
     19 C                     0.361463
     20 C                     0.814454
     21 C                    -0.785687
     22 C                    -0.411890
     23 C                    -0.312227
     24 C                    -0.652450
     25 C                    -0.422284
     26 N                     0.189594
     27 H                     0.318797
     28 H                     0.335065
     29 H                     0.360850
     30 H                     0.310584
     31 H                     0.226226
     32 H                     0.289129
     33 H                     0.252501
     34 H                     0.260818
     35 H                     0.226787
  ----------------------------------------
  Sum of atomic charges =     0.000000

 -----------------------------------------------------------------
                    Cartesian Multipole Moments
 -----------------------------------------------------------------
    Charge (ESU x 10^10)
                -0.0000
    Dipole Moment (Debye)
         X      -0.2709      Y      -3.8522      Z      -0.6158
       Tot       3.9105
    Quadrupole Moments (Debye-Ang)
        XX     -98.7184     XY      -1.0845     YY     -99.8091
        XZ      -7.0246     YZ       7.8266     ZZ     -95.4987
    Octopole Moments (Debye-Ang^2)
       XXX     -14.9177    XXY      -8.7013    XYY       9.0602
       YYY     -23.5272    XXZ      43.1011    XYZ      14.1510
       YYZ     -20.8677    XZZ     -73.6825    YZZ     -32.3954
       ZZZ      58.4186
    Hexadecapole Moments (Debye-Ang^3)
      XXXX   -3075.4261   XXXY     182.4170   XXYY    -748.1805
      XYYY     237.4603   YYYY   -1387.8852   XXXZ     926.3575
      XXYZ       8.3911   XYYZ     360.3476   YYYZ    -105.8159
      XXZZ    -776.8182   XYZZ       4.7811   YYZZ    -682.7210
      XZZZ     861.3313   YZZZ      27.9585   ZZZZ   -2671.7901
 -----------------------------------------------------------------
Archival summary:
1\1\compute-0-7.local\SP\ProcedureUnspecified\BasisUnspecified\111617\meili\ThuSep3022:14:332021ThuSep3022:14:332021\0\\#,ProcedureUnspecified,BasisUnspecified,\\0,1\N\H,1,1.02636\C,1,1.36747,2,125.346\C,1,1.37237,2,125.265,3,176.505,0\H,4,1.08128,1,124.479,2,5.46606,0\C,4,1.36449,1,110.457,2,-176.373,0\C,3,1.38693,1,130.528,2,-2.92945,0\H,7,1.07739,3,120.693,1,-0.378326,0\C,7,1.38434,3,117.833,1,-179.961,0\H,9,1.08212,7,119.54,3,-179.848,0\C,9,1.40409,7,121.107,3,-0.330536,0\H,11,1.08142,9,119.288,7,-179.514,0\C,11,1.39552,9,121.016,7,0.330407,0\H,13,1.07594,11,121.101,9,178.626,0\C,13,1.40152,11,118.91,9,-0.204707,0\C,6,1.49975,4,127.136,1,-177.877,0\H,16,1.09089,6,110.025,4,-51.2744,0\H,16,1.09113,6,108.768,4,-169.664,0\H,16,1.1,6,110.375,4,70.5476,0\H,9,2.59333,7,82.8526,3,-69.7938,0\C,20,1.07676,9,136.588,7,-115.555,0\C,21,1.3866,20,119.739,9,-56.6002,0\H,22,1.07785,21,119.918,20,1.66168,0\C,22,1.38992,21,119.845,20,-177.813,0\O,24,1.36252,22,119.086,21,179.655,0\H,25,0.964777,24,113.061,22,-176.249,0\C,21,1.39121,20,119.355,9,125.548,0\C,24,1.39626,22,120.136,21,-0.108936,0\H,28,1.0819,24,120.549,22,179.829,0\C,28,1.39485,24,119.582,22,0.142095,0\H,30,1.08226,28,119.758,24,-179.815,0\C,27,1.50288,21,120.081,20,-1.5606,0\H,32,1.08845,27,107.969,21,-133.309,0\H,32,1.09074,27,110.078,21,-16.0316,0\H,32,1.1,27,113.132,21,106.802,0\\\@

 Total job time:  81587.87s(wall), 212535.65s(cpu) 
 Thu Sep 30 22:14:34 2021

        *************************************************************
        *                                                           *
        *  Thank you very much for using Q-Chem.  Have a nice day.  *
        *                                                           *
        *************************************************************


