
Running Job 1 of 1 SSI-099TRP-272GLU-1_SMD_TZVPD.in
qchem SSI-099TRP-272GLU-1_SMD_TZVPD.in_53546.0 /tmp/qchem53546/ 0
/global/common/cori/software/qchem/5.2/exe/qcprog.exe_s SSI-099TRP-272GLU-1_SMD_TZVPD.in_53546.0 /tmp/qchem53546/
                  Welcome to Q-Chem
     A Quantum Leap Into The Future Of Chemistry


 Q-Chem 5.2, Q-Chem, Inc., Pleasanton, CA (2019)

 License issued to: National Energy Research Scientific Computing Center

 Yihan Shao,  Zhengting Gan,  E. Epifanovsky,  A. T. B. Gilbert,  M. Wormit,  
 J. Kussmann,  A. W. Lange,  A. Behn,  Jia Deng,  Xintian Feng,  D. Ghosh,  
 M. Goldey,  P. R. Horn,  L. D. Jacobson,  I. Kaliman,  T. Kus,  A. Landau,  
 Jie Liu,  E. I. Proynov,  R. M. Richard,  R. P. Steele,  E. J. Sundstrom,  
 H. L. Woodcock III,  P. M. Zimmerman,  D. Zuev,  B. Albrecht,  E. Alguire,  
 S. A. Baeppler,  D. Barton,  Z. Benda,  Y. A. Bernard,  E. J. Berquist,  
 K. B. Bravaya,  H. Burton,  D. Casanova,  Chun-Min Chang,  Yunqing Chen,  
 A. Chien,  K. D. Closser,  M. P. Coons,  S. Coriani,  S. Dasgupta,  
 A. L. Dempwolff,  M. Diedenhofen,  Hainam Do,  R. G. Edgar,  Po-Tung Fang,  
 S. Faraji,  S. Fatehi,  Qingguo Feng,  K. D. Fenk,  J. Fosso-Tande,  
 J. Gayvert,  Qinghui Ge,  A. Ghysels,  G. Gidofalvi,  J. Gomes,  
 J. Gonthier,  A. Gunina,  D. Hait,  M. W. D. Hanson-Heine,  
 P. H. P. Harbach,  A. W. Hauser,  M. F. Herbst,  J. E. Herr,  
 E. G. Hohenstein,  Z. C. Holden,  Kerwin Hui,  B. C. Huynh,  T.-C. Jagau,  
 Hyunjun Ji,  B. Kaduk,  K. Khistyaev,  Jaehoon Kim,  P. Klunzinger,  K. Koh,  
 D. Kosenkov,  L. Koulias,  T. Kowalczyk,  C. M. Krauter,  A. Kunitsa,  
 Ka Un Lao,  A. Laurent,  K. V. Lawler,  Joonho Lee,  D. Lefrancois,  
 S. Lehtola,  D. S. Levine,  Yi-Pei Li,  You-Sheng Lin,  Fenglai Liu,  
 E. Livshits,  A. Luenser,  P. Manohar,  E. Mansoor,  S. F. Manzer,  
 Shan-Ping Mao,  Yuezhi Mao,  N. Mardirossian,  A. V. Marenich,  
 T. Markovich,  L. A. Martinez-Martinez,  S. A. Maurer,  N. J. Mayhall,  
 S. C. McKenzie,  J.-M. Mewes,  P. Morgante,  A. F. Morrison,  
 J. W. Mullinax,  K. Nanda,  T. S. Nguyen-Beck,  R. Olivares-Amaya,  
 J. A. Parkhill,  Zheng Pei,  T. M. Perrine,  F. Plasser,  P. Pokhilko,  
 S. Prager,  A. Prociuk,  E. Ramos,  D. R. Rehn,  F. Rob,  M. Scheurer,  
 M. Schneider,  N. Sergueev,  S. M. Sharada,  S. Sharma,  D. W. Small,  
 T. Stauch,  T. Stein,  Yu-Chuan Su,  A. J. W. Thom,  A. Tkatchenko,  
 T. Tsuchimochi,  N. M. Tubman,  L. Vogt,  M. L. Vidal,  O. Vydrov,  
 M. A. Watson,  J. Wenzel,  M. de Wergifosse,  T. A. Wesolowski,  A. White,  
 J. Witte,  A. Yamada,  Jun Yang,  K. Yao,  S. Yeganeh,  S. R. Yost,  
 Zhi-Qiang You,  A. Zech,  Igor Ying Zhang,  Xing Zhang,  Yan Zhao,  
 Ying Zhu,  B. R. Brooks,  G. K. L. Chan,  C. J. Cramer,  M. S. Gordon,  
 W. J. Hehre,  A. Klamt,  M. W. Schmidt,  C. D. Sherrill,  D. G. Truhlar,  
 A. Aspuru-Guzik,  R. Baer,  A. T. Bell,  N. A. Besley,  Jeng-Da Chai,  
 A. E. DePrince, III,  R. A. DiStasio Jr.,  A. Dreuw,  B. D. Dunietz,  
 T. R. Furlani,  Chao-Ping Hsu,  Yousung Jung,  Jing Kong,  D. S. Lambrecht,  
 WanZhen Liang,  C. Ochsenfeld,  V. A. Rassolov,  L. V. Slipchenko,  
 J. E. Subotnik,  T. Van Voorhis,  J. M. Herbert,  A. I. Krylov,  
 P. M. W. Gill,  M. Head-Gordon

 Contributors to earlier versions of Q-Chem not listed above: 
 R. D. Adamson,  B. Austin,  J. Baker,  G. J. O. Beran,  K. Brandhorst,  
 S. T. Brown,  E. F. C. Byrd,  A. K. Chakraborty,  C.-L. Cheng,  
 Siu Hung Chien,  D. M. Chipman,  D. L. Crittenden,  H. Dachsel,  
 R. J. Doerksen,  A. D. Dutoi,  L. Fusti-Molnar,  W. A. Goddard III,  
 A. Golubeva-Zadorozhnaya,  S. R. Gwaltney,  G. Hawkins,  A. Heyden,  
 S. Hirata,  G. Kedziora,  F. J. Keil,  C. Kelley,  Jihan Kim,  R. A. King,  
 R. Z. Khaliullin,  P. P. Korambath,  W. Kurlancheek,  A. M. Lee,  M. S. Lee,  
 S. V. Levchenko,  Ching Yeh Lin,  D. Liotard,  R. C. Lochan,  I. Lotan,  
 P. E. Maslen,  N. Nair,  D. P. O'Neill,  D. Neuhauser,  E. Neuscamman,  
 C. M. Oana,  R. Olson,  B. Peters,  R. Peverati,  P. A. Pieniazek,  
 Y. M. Rhee,  J. Ritchie,  M. A. Rohrdanz,  E. Rosta,  N. J. Russ,  
 H. F. Schaefer III,  N. E. Schultz,  N. Shenvi,  A. C. Simmonett,  A. Sodt,  
 D. Stuck,  K. S. Thanthiriwatte,  V. Vanovschi,  Tao Wang,  A. Warshel,  
 C. F. Williams,  Q. Wu,  X. Xu,  W. Zhang

 Please cite Q-Chem as follows:
 Y. Shao et al., Mol. Phys. 113, 184-215 (2015)
 DOI: 10.1080/00268976.2014.952696

 Q-Chem 5.2.0 for Intel X86 EM64T Linux

 Parts of Q-Chem use Armadillo 8.300.2 (Tropical Shenanigans).
 http://arma.sourceforge.net/

 Q-Chem begins on Sun Sep 26 12:54:30 2021  

Host: cori01
0

     Scratch files written to /tmp/qchem53546//
 May1019 |scratch|qcdevops|jenkins|workspace|build_RNUM -1
Processing $rem in /global/common/cori/software/qchem/5.2/config/preferences:
	 MEM_TOTAL  96000 
NAlpha2: 102
NElect   102
Mult     1
Symmetry turned off for PCM/SM12/SMD calculation

 Q-Chem warning in module libgen/rem_setup.C, line 2803:

 Neither GIA nor STOLL is specified by user. Use STOLL as the default


Checking the input file for inconsistencies... 	...done.

--------------------------------------------------------------
User input:
--------------------------------------------------------------
$comment
SSI-099TRP-272GLU-1.pdb
$end

$molecule
-1 1
--
0 1
C   -2.164028711837   -1.957001044050    2.697238535838
C    0.351971288163   -0.002001044050    0.666238535838
C    0.084971288163   -0.977001044050    1.657238535838
C   -1.350028711837   -0.988001044050    1.866238535838
C   -1.857028711837   -0.026001044050    1.063238535838
C    1.629971288163    0.263998955950    0.205238535838
C    2.681971288163   -0.499001044050    0.704238535838
C    2.471971288163   -1.487001044050    1.683238535838
C    1.169971288163   -1.753001044050    2.140238535838
N   -0.836028711837    0.586998955950    0.361238535838
H    1.801971288163    1.034998955950   -0.526761464162
H    3.686971288163   -0.313001044050    0.348238535838
H   -1.005028711837    1.199998955950   -0.443761464162
H    3.308971288163   -2.065001044050    2.055238535838
H   -2.913028711837    0.189998955950    0.941238535838
H    0.995971288163   -2.541001044050    2.860238535838
H   -1.933028711837   -2.962001044050    2.340238535838
H   -3.223028711837   -1.774001044050    2.510238535838
H   -1.971388711837   -1.916601044050    3.779488535838
--
-1 1
C   -0.306028711837    0.850998955950   -4.165761464162
C   -0.404028711837    1.554998955950   -2.824761464162
O   -1.484028711837    1.530998955950   -2.198761464162
O    0.612971288163    2.170998955950   -2.411761464162
H   -0.297028711837   -0.223001044050   -4.010761464162
H    0.634971288163    1.107998955950   -4.656761464162
H   -1.146948711837    1.112758955950   -4.824801464162
$end

$rem
JOBTYPE			EDA
EDA2			1
method			wB97X-V
BASIS			def2-TZVPD
XC_GRID			000099000590
NL_GRID			1
UNRESTRICTED		FALSE
MAX_SCF_CYCLES		200
SYMMETRY		FALSE
SYM_IGNORE		TRUE
MEM_STATIC		2000
BASIS_LIN_DEP_THRESH 	6
THRESH 			14
SCF_CONVERGENCE 	8
SCF_PRINT_FRGM 		TRUE
SOLVENT_METHOD          SMD
$end

$SMX
SOLVENT			WATER
$END
--------------------------------------------------------------
 ----------------------------------------------------------------
             Standard Nuclear Orientation (Angstroms)
    I     Atom           X                Y                Z
 ----------------------------------------------------------------
    1      C      -2.1640287118    -1.9570010441     2.6972385358
    2      C       0.3519712882    -0.0020010440     0.6662385358
    3      C       0.0849712882    -0.9770010440     1.6572385358
    4      C      -1.3500287118    -0.9880010440     1.8662385358
    5      C      -1.8570287118    -0.0260010441     1.0632385358
    6      C       1.6299712882     0.2639989560     0.2052385358
    7      C       2.6819712882    -0.4990010441     0.7042385358
    8      C       2.4719712882    -1.4870010441     1.6832385358
    9      C       1.1699712882    -1.7530010441     2.1402385358
   10      N      -0.8360287118     0.5869989559     0.3612385358
   11      H       1.8019712882     1.0349989559    -0.5267614642
   12      H       3.6869712882    -0.3130010441     0.3482385358
   13      H      -1.0050287118     1.1999989559    -0.4437614642
   14      H       3.3089712882    -2.0650010441     2.0552385358
   15      H      -2.9130287118     0.1899989560     0.9412385358
   16      H       0.9959712882    -2.5410010441     2.8602385358
   17      H      -1.9330287118    -2.9620010440     2.3402385358
   18      H      -3.2230287118    -1.7740010441     2.5102385358
   19      H      -1.9713887118    -1.9166010441     3.7794885358
   20      C      -0.3060287118     0.8509989559    -4.1657614642
   21      C      -0.4040287118     1.5549989559    -2.8247614642
   22      O      -1.4840287118     1.5309989560    -2.1987614642
   23      O       0.6129712882     2.1709989560    -2.4117614642
   24      H      -0.2970287118    -0.2230010441    -4.0107614642
   25      H       0.6349712882     1.1079989560    -4.6567614642
   26      H      -1.1469487118     1.1127589559    -4.8248014642
 ----------------------------------------------------------------
 Nuclear Repulsion Energy =         827.81943507 hartrees
 There are       51 alpha and       51 beta electrons
 Requested basis set is def2-TZVPD
 There are 244 shells and 632 basis functions

 Total QAlloc Memory Limit  96000 MB
 Mega-Array Size      1956 MB
 MEM_STATIC part      2000 MB
 
 Citation of the SMD model:
 Marenich, A.V.; Cramer, C.J.; Truhlar, D.G.
 J. Phys. Chem. B 2009, 113, 6378-6396.
 iSolventCode=           1
 Solvent: water                                                           
 
 vradii
            1           2           3           4           5           6
    1   1.8500000   1.8500000   1.8500000   1.8500000   1.8500000   1.8500000
            7           8           9          10          11          12
    1   1.8500000   1.8500000   1.8500000   1.8900000   1.2000000   1.2000000
           13          14          15          16          17          18
    1   1.2000000   1.2000000   1.2000000   1.2000000   1.2000000   1.2000000
           19          20          21          22          23          24
    1   1.2000000   1.8500000   1.8500000   1.5200000   1.5200000   1.2000000
           25          26
    1   1.2000000   1.2000000
 Changing PCM_VDW_RADII to SMD_RADIUS
 Discretize the solute cavity surface with Lebedev spheres
	Using 110 Lebedev grid points for each H atom
	Using 194 Lebedev grid points for other atoms
	Atomic van der Waals radii will be scaled by 1.20
 Remove points where switching function is < 1.0e-08
 Keep 1939 surface tesserae and discard 2097 interior tesserae
 Molecular Surface Area = 234.235 Angst**2
 A cutoff of  1.0D-14 yielded  25851 shell pairs
 There are    175201 function pairs (    223722 Cartesian)
 Smallest overlap matrix eigenvalue = 4.87E-07
 Linear dependence detected in AO basis
 Tighter screening thresholds may be required for diffuse basis sets
 Use S2THRESH > 14 and THRESH = 14 in case of SCF convergence issues
 Number of orthogonalized atomic orbitals = 628
 Maximum deviation from orthogonality = 1.297E-10

 Scale SEOQF with 1.000000e-01/1.000000e-01/1.000000e-01

 Standard Electronic Orientation quadrupole field applied
 Nucleus-field energy     =    -0.0000000296 hartrees

 -----------------------------------------------------------------------
  General SCF calculation program by
  Eric Jon Sundstrom, Paul Horn, Yuezhi Mao, Dmitri Zuev, Alec White,
  David Stuck, Shaama M.S., Shane Yost, Joonho Lee, David Small,
  Daniel Levine, Susi Lehtola, Hugh Burton, Evgeny Epifanovsky
 -----------------------------------------------------------------------
================================================================
                 ALMO-EDA with the EDA2 driver                  
================================================================
 The second-generation ALMO-EDA (for DFT):                      
 P. R. Horn, Y. Mao and M. Head-Gordon, PCCP, 18, 23067 (2016)  
 Decomposition of the frozen energy:                            
 P. R. Horn, Y. Mao and M. Head-Gordon, JCP, 144, 114107 (2016) 
 FERF model for polarization:                                   
 P. R. Horn and M. Head-Gordon, JCP, 143, 114111 (2015)         
Using eda2 option set 1
Option set summary: Frozen orbital wavefunction, initial wavefunction decomposition, and nDQ polarization.
--------------------------------
Printing EDA Options
--------------------------------
eda_child_super_basis      0
fragmo_guess_mode          0
child_mp                   1
child_mp_orders            232
cls_elec                   1
cls_disp                   0
scfmi_mode                 1
scfmi_occs                 0
scfmi_virts                0
frz_relax                  0
frz_relax_method           0
dc_pen_start               0
dc_pen_conv                0
dc_pen_increment           0
dc_pen_steps               0
dc_pen_thresh_factor       0
dc_pen_pre_newton_thresh   0
frz_ortho_decomp           1
frz_ortho_decomp_conv      6
frgm_method                2
scfmi_freeze_ss            0
separate_rehyb             0
plot_diff_den              0
eda_nocv                   0
eda_vct_relax              1
disp_free_x                0
disp_free_c                0
eda_bsse                   0
eda_pct_a                  0
eda_covp                   0
--------------------------------
Attempting to make child job directory: /tmp/qchem53546//Frg1/
Attempting to make child job directory: /tmp/qchem53546//Frg2/
Creating input file /tmp/qchem53546/Frg1.input
using default PutDataFrgm: nothing
calling putenv with: QCSCRATCH=/tmp/qchem53546/ 
calling putenv with: QCLOCALSCR=/tmp/qchem53546/ 
Spawning Job For Fragment 0
                  Welcome to Q-Chem
     A Quantum Leap Into The Future Of Chemistry


 Q-Chem 5.2, Q-Chem, Inc., Pleasanton, CA (2019)

 License issued to: National Energy Research Scientific Computing Center

 Yihan Shao,  Zhengting Gan,  E. Epifanovsky,  A. T. B. Gilbert,  M. Wormit,  
 J. Kussmann,  A. W. Lange,  A. Behn,  Jia Deng,  Xintian Feng,  D. Ghosh,  
 M. Goldey,  P. R. Horn,  L. D. Jacobson,  I. Kaliman,  T. Kus,  A. Landau,  
 Jie Liu,  E. I. Proynov,  R. M. Richard,  R. P. Steele,  E. J. Sundstrom,  
 H. L. Woodcock III,  P. M. Zimmerman,  D. Zuev,  B. Albrecht,  E. Alguire,  
 S. A. Baeppler,  D. Barton,  Z. Benda,  Y. A. Bernard,  E. J. Berquist,  
 K. B. Bravaya,  H. Burton,  D. Casanova,  Chun-Min Chang,  Yunqing Chen,  
 A. Chien,  K. D. Closser,  M. P. Coons,  S. Coriani,  S. Dasgupta,  
 A. L. Dempwolff,  M. Diedenhofen,  Hainam Do,  R. G. Edgar,  Po-Tung Fang,  
 S. Faraji,  S. Fatehi,  Qingguo Feng,  K. D. Fenk,  J. Fosso-Tande,  
 J. Gayvert,  Qinghui Ge,  A. Ghysels,  G. Gidofalvi,  J. Gomes,  
 J. Gonthier,  A. Gunina,  D. Hait,  M. W. D. Hanson-Heine,  
 P. H. P. Harbach,  A. W. Hauser,  M. F. Herbst,  J. E. Herr,  
 E. G. Hohenstein,  Z. C. Holden,  Kerwin Hui,  B. C. Huynh,  T.-C. Jagau,  
 Hyunjun Ji,  B. Kaduk,  K. Khistyaev,  Jaehoon Kim,  P. Klunzinger,  K. Koh,  
 D. Kosenkov,  L. Koulias,  T. Kowalczyk,  C. M. Krauter,  A. Kunitsa,  
 Ka Un Lao,  A. Laurent,  K. V. Lawler,  Joonho Lee,  D. Lefrancois,  
 S. Lehtola,  D. S. Levine,  Yi-Pei Li,  You-Sheng Lin,  Fenglai Liu,  
 E. Livshits,  A. Luenser,  P. Manohar,  E. Mansoor,  S. F. Manzer,  
 Shan-Ping Mao,  Yuezhi Mao,  N. Mardirossian,  A. V. Marenich,  
 T. Markovich,  L. A. Martinez-Martinez,  S. A. Maurer,  N. J. Mayhall,  
 S. C. McKenzie,  J.-M. Mewes,  P. Morgante,  A. F. Morrison,  
 J. W. Mullinax,  K. Nanda,  T. S. Nguyen-Beck,  R. Olivares-Amaya,  
 J. A. Parkhill,  Zheng Pei,  T. M. Perrine,  F. Plasser,  P. Pokhilko,  
 S. Prager,  A. Prociuk,  E. Ramos,  D. R. Rehn,  F. Rob,  M. Scheurer,  
 M. Schneider,  N. Sergueev,  S. M. Sharada,  S. Sharma,  D. W. Small,  
 T. Stauch,  T. Stein,  Yu-Chuan Su,  A. J. W. Thom,  A. Tkatchenko,  
 T. Tsuchimochi,  N. M. Tubman,  L. Vogt,  M. L. Vidal,  O. Vydrov,  
 M. A. Watson,  J. Wenzel,  M. de Wergifosse,  T. A. Wesolowski,  A. White,  
 J. Witte,  A. Yamada,  Jun Yang,  K. Yao,  S. Yeganeh,  S. R. Yost,  
 Zhi-Qiang You,  A. Zech,  Igor Ying Zhang,  Xing Zhang,  Yan Zhao,  
 Ying Zhu,  B. R. Brooks,  G. K. L. Chan,  C. J. Cramer,  M. S. Gordon,  
 W. J. Hehre,  A. Klamt,  M. W. Schmidt,  C. D. Sherrill,  D. G. Truhlar,  
 A. Aspuru-Guzik,  R. Baer,  A. T. Bell,  N. A. Besley,  Jeng-Da Chai,  
 A. E. DePrince, III,  R. A. DiStasio Jr.,  A. Dreuw,  B. D. Dunietz,  
 T. R. Furlani,  Chao-Ping Hsu,  Yousung Jung,  Jing Kong,  D. S. Lambrecht,  
 WanZhen Liang,  C. Ochsenfeld,  V. A. Rassolov,  L. V. Slipchenko,  
 J. E. Subotnik,  T. Van Voorhis,  J. M. Herbert,  A. I. Krylov,  
 P. M. W. Gill,  M. Head-Gordon

 Contributors to earlier versions of Q-Chem not listed above: 
 R. D. Adamson,  B. Austin,  J. Baker,  G. J. O. Beran,  K. Brandhorst,  
 S. T. Brown,  E. F. C. Byrd,  A. K. Chakraborty,  C.-L. Cheng,  
 Siu Hung Chien,  D. M. Chipman,  D. L. Crittenden,  H. Dachsel,  
 R. J. Doerksen,  A. D. Dutoi,  L. Fusti-Molnar,  W. A. Goddard III,  
 A. Golubeva-Zadorozhnaya,  S. R. Gwaltney,  G. Hawkins,  A. Heyden,  
 S. Hirata,  G. Kedziora,  F. J. Keil,  C. Kelley,  Jihan Kim,  R. A. King,  
 R. Z. Khaliullin,  P. P. Korambath,  W. Kurlancheek,  A. M. Lee,  M. S. Lee,  
 S. V. Levchenko,  Ching Yeh Lin,  D. Liotard,  R. C. Lochan,  I. Lotan,  
 P. E. Maslen,  N. Nair,  D. P. O'Neill,  D. Neuhauser,  E. Neuscamman,  
 C. M. Oana,  R. Olson,  B. Peters,  R. Peverati,  P. A. Pieniazek,  
 Y. M. Rhee,  J. Ritchie,  M. A. Rohrdanz,  E. Rosta,  N. J. Russ,  
 H. F. Schaefer III,  N. E. Schultz,  N. Shenvi,  A. C. Simmonett,  A. Sodt,  
 D. Stuck,  K. S. Thanthiriwatte,  V. Vanovschi,  Tao Wang,  A. Warshel,  
 C. F. Williams,  Q. Wu,  X. Xu,  W. Zhang

 Please cite Q-Chem as follows:
 Y. Shao et al., Mol. Phys. 113, 184-215 (2015)
 DOI: 10.1080/00268976.2014.952696

 Q-Chem 5.2.0 for Intel X86 EM64T Linux

 Parts of Q-Chem use Armadillo 8.300.2 (Tropical Shenanigans).
 http://arma.sourceforge.net/

 Q-Chem begins on Sun Sep 26 12:55:10 2021  

Host: cori01
0

     Scratch files written to /tmp/qchem53546//Frg1//
 May1019 |scratch|qcdevops|jenkins|workspace|build_RNUM -1
Processing $rem in /global/common/cori/software/qchem/5.2/config/preferences:
	 MEM_TOTAL  96000 
NAlpha2: 70
NElect   70
Mult     1
Symmetry turned off for PCM/SM12/SMD calculation

Checking the input file for inconsistencies... 	...done.

--------------------------------------------------------------
User input:
--------------------------------------------------------------
$molecule
0 1
 6	-2.1640287118	-1.9570010441	2.6972385358
 6	0.3519712882	-0.0020010440	0.6662385358
 6	0.0849712882	-0.9770010440	1.6572385358
 6	-1.3500287118	-0.9880010440	1.8662385358
 6	-1.8570287118	-0.0260010441	1.0632385358
 6	1.6299712882	0.2639989560	0.2052385358
 6	2.6819712882	-0.4990010441	0.7042385358
 6	2.4719712882	-1.4870010441	1.6832385358
 6	1.1699712882	-1.7530010441	2.1402385358
 7	-0.8360287118	0.5869989559	0.3612385358
 1	1.8019712882	1.0349989559	-0.5267614642
 1	3.6869712882	-0.3130010441	0.3482385358
 1	-1.0050287118	1.1999989559	-0.4437614642
 1	3.3089712882	-2.0650010441	2.0552385358
 1	-2.9130287118	0.1899989560	0.9412385358
 1	0.9959712882	-2.5410010441	2.8602385358
 1	-1.9330287118	-2.9620010440	2.3402385358
 1	-3.2230287118	-1.7740010441	2.5102385358
 1	-1.9713887118	-1.9166010441	3.7794885358
$end
$rem
EDA2		1
METHOD		WB97X-V
BASIS		DEF2-TZVPD
XC_GRID		000099000590
NL_GRID		1
UNRESTRICTED		FALSE
MAX_SCF_CYCLES		200
SYMMETRY		FALSE
SYM_IGNORE		TRUE
BASIS_LIN_DEP_THRESH		6
THRESH		14
SCF_CONVERGENCE		8
SCF_PRINT_FRGM		TRUE
SOLVENT_METHOD		SMD
!required keywords
JOBTYPE		SP
SYM_IGNORE		TRUE
SUBSYSTEM		TRUE
GEN_SCFMAN		TRUE
CHILD_INSTRUCTION		2
SYM_IGNORE		TRUE
SCFMI		0
RI_K 0		
PARI_K 0		
MIN_PARI_K 0		
IARI_K 0		
OCC_RI_K 0		
PURECART		1111
MEM_STATIC		2000
MEM_TOTAL		96000
GUI		0
CHILD_MP		1
CHILD_MP_ORDERS		232
FRZ_RELAX		0
FRZ_RELAX_METHOD		0
EDA_CLS_ELEC		1
EDA_CLS_DISP		0
FRZ_ORTHO_DECOMP		1
EDA2		FALSE
FRGM_METHOD		FALSE
CIS_N_ROOTS  0
LOCAL_CIS    0
CIS_RLX_DNS  1
$end
$smx
SOLVENT			WATER
$end
--------------------------------------------------------------
 ----------------------------------------------------------------
             Standard Nuclear Orientation (Angstroms)
    I     Atom           X                Y                Z
 ----------------------------------------------------------------
    1      C      -2.1640287118    -1.9570010441     2.6972385358
    2      C       0.3519712882    -0.0020010440     0.6662385358
    3      C       0.0849712882    -0.9770010440     1.6572385358
    4      C      -1.3500287118    -0.9880010440     1.8662385358
    5      C      -1.8570287118    -0.0260010441     1.0632385358
    6      C       1.6299712882     0.2639989560     0.2052385358
    7      C       2.6819712882    -0.4990010441     0.7042385358
    8      C       2.4719712882    -1.4870010441     1.6832385358
    9      C       1.1699712882    -1.7530010441     2.1402385358
   10      N      -0.8360287118     0.5869989559     0.3612385358
   11      H       1.8019712882     1.0349989559    -0.5267614642
   12      H       3.6869712882    -0.3130010441     0.3482385358
   13      H      -1.0050287118     1.1999989559    -0.4437614642
   14      H       3.3089712882    -2.0650010441     2.0552385358
   15      H      -2.9130287118     0.1899989560     0.9412385358
   16      H       0.9959712882    -2.5410010441     2.8602385358
   17      H      -1.9330287118    -2.9620010440     2.3402385358
   18      H      -3.2230287118    -1.7740010441     2.5102385358
   19      H      -1.9713887118    -1.9166010441     3.7794885358
 ----------------------------------------------------------------
 Nuclear Repulsion Energy =         483.25295107 hartrees
 There are       35 alpha and       35 beta electrons
 Requested basis set is def2-TZVPD
 There are 175 shells and 451 basis functions

 Total QAlloc Memory Limit  96000 MB
 Mega-Array Size      1956 MB
 MEM_STATIC part      2000 MB
 
 Citation of the SMD model:
 Marenich, A.V.; Cramer, C.J.; Truhlar, D.G.
 J. Phys. Chem. B 2009, 113, 6378-6396.
 iSolventCode=           1
 Solvent: water                                                           
 
 vradii
            1           2           3           4           5           6
    1   1.8500000   1.8500000   1.8500000   1.8500000   1.8500000   1.8500000
            7           8           9          10          11          12
    1   1.8500000   1.8500000   1.8500000   1.8900000   1.2000000   1.2000000
           13          14          15          16          17          18
    1   1.2000000   1.2000000   1.2000000   1.2000000   1.2000000   1.2000000
           19
    1   1.2000000
 Changing PCM_VDW_RADII to SMD_RADIUS
 Discretize the solute cavity surface with Lebedev spheres
	Using 110 Lebedev grid points for each H atom
	Using 194 Lebedev grid points for other atoms
	Atomic van der Waals radii will be scaled by 1.20
 Remove points where switching function is < 1.0e-08
 Keep 1342 surface tesserae and discard 1588 interior tesserae
 Molecular Surface Area = 165.664 Angst**2
 A cutoff of  1.0D-14 yielded  14459 shell pairs
 There are     98173 function pairs (    126322 Cartesian)
 Smallest overlap matrix eigenvalue = 6.00E-07
 Linear dependence detected in AO basis
 Tighter screening thresholds may be required for diffuse basis sets
 Use S2THRESH > 14 and THRESH = 14 in case of SCF convergence issues
 Number of orthogonalized atomic orbitals = 449
 Maximum deviation from orthogonality = 1.595E-10

 Scale SEOQF with 1.000000e-01/1.000000e-01/1.000000e-01

 Standard Electronic Orientation quadrupole field applied
 Nucleus-field energy     =    -0.0000000040 hartrees
 Guess from superposition of atomic densities
 Warning:  Energy on first SCF cycle will be non-variational
 SAD guess density has 69.692991 electrons

 -----------------------------------------------------------------------
  General SCF calculation program by
  Eric Jon Sundstrom, Paul Horn, Yuezhi Mao, Dmitri Zuev, Alec White,
  David Stuck, Shaama M.S., Shane Yost, Joonho Lee, David Small,
  Daniel Levine, Susi Lehtola, Hugh Burton, Evgeny Epifanovsky
 -----------------------------------------------------------------------
 Exchange:     0.1670 Hartree-Fock + 1.0000 wB97X-V + LR-HF
 Correlation:  1.0000 wB97X-V
 Using Euler-Maclaurin-Lebedev (99,590) quadrature formula
 Nonlocal Correlation:  VV10 with C = 0.0100 and b = 6.00 and scale = 1.00000
 Grid used for NLC:  SG-1 standard quadrature
Energy prior to optimization (guess energy) = -402.923230543472
Begin Timing: Total SCF Calculation
begin iterations for algorithm: DIIS         
the SCF tolerance is set to 1.00e-08
    1    -402.9232305435      3.30e-03     00000 
    2    -402.9580568075      3.12e-03     00000 
    3    -403.1707112763      3.61e-04     00000 
    4    -403.1744447492      1.48e-04     00000 
    5    -403.1751284312      2.76e-05     00000 
    6    -403.1751677929      1.65e-05     00000 
    7    -403.1751760948      4.05e-06     00000 
    8    -403.1751774384      1.41e-06     00000 
    9    -403.1751776388      7.43e-07     00000 
   10    -403.1751777070      3.20e-07     00000 
   11    -403.1751777212      8.92e-08     00000 
   12    -403.1751777225      4.11e-08     00000 
   13    -403.1751777226      1.37e-08     00000 
   14    -403.1751777227      4.11e-09     00000 Convergence criterion met
Timing for Total SCF: 3786.00s (wall), 7537.62s (cpu)
(3)  G-ENP(liq) elect-nuc-pol free energy of system     -403.175177723 a.u.
(4)  G-CDS(liq) cavity-dispersion-solvent structure 
     free energy                                                3.8290 kcal/mol
(6)  G-S(liq) free energy of system                     -403.169075853 a.u.
E_pcm = -0.0164009845
E_cds = 0.0061018698
Multipole orders to be included
        2
        3
computing dipole RHS
computing quadrupole RHS
total number of RHS in solve_reponses: 8
RHS batch sizes
        8
Beginning Block Conjugate Gradient Iterations. Batch Number: 0
computing hessian-vector products by finite difference
              1      6.43e-01     00000 Conjugate Gradient Iteration
computing hessian-vector products by finite difference
              2      2.06e-01     00000 Conjugate Gradient Iteration
computing hessian-vector products by finite difference
              3      6.24e-02     00000 Conjugate Gradient Iteration
computing hessian-vector products by finite difference
              4      2.10e-02     00000 Conjugate Gradient Iteration
computing hessian-vector products by finite difference
              5      6.81e-03     00000 Conjugate Gradient Iteration
computing hessian-vector products by finite difference
              6      2.18e-03     00000 Conjugate Gradient Iteration
computing hessian-vector products by finite difference
              7      5.43e-04     00000 Conjugate Gradient Iteration
computing hessian-vector products by finite difference
              8      1.16e-04     00000 Conjugate Gradient Iteration
computing hessian-vector products by finite difference
              9      2.03e-05     00000 Conjugate Gradient Iteration
computing hessian-vector products by finite difference
             10      3.29e-06     00000 Conjugate Gradient Iteration
computing hessian-vector products by finite difference
             11      5.06e-07     00000 Conjugate Gradient Iteration
computing hessian-vector products by finite difference
             12      9.50e-08     00000 Conjugate Gradient Iteration
computing hessian-vector products by finite difference
             13      1.62e-08     00000 Conjugate Gradient Iteration
computing hessian-vector products by finite difference
             14      4.54e-09     00000 CG Converged
batch 0 complete
Done Calculating Responses
TESTING ORTHOGONALIZATION OF MULTIPOLE BASIS
Multipole virts passed orthogonality test
Virts Per Order
          105
          175
 
 --------------------------------------------------------------
 
                    Orbital Energies (a.u.)
 --------------------------------------------------------------
 
 Alpha MOs
 -- Occupied --
-14.4417 -10.2980 -10.2898 -10.2720 -10.2675 -10.2675 -10.2669 -10.2641
-10.2607 -10.2567  -1.1115  -0.9732  -0.9256  -0.8641  -0.8575  -0.8101
 -0.7420  -0.7082  -0.6721  -0.6427  -0.5960  -0.5788  -0.5520  -0.5420
 -0.5320  -0.5108  -0.5064  -0.4856  -0.4778  -0.4504  -0.4486  -0.4284
 -0.3748  -0.3146  -0.2911
 -- Virtual --
  0.0545   0.0642   0.0801   0.0826   0.0916   0.1020   0.1039   0.1110
  0.1319   0.1374   0.1402   0.1493   0.1540   0.1669   0.1743   0.1831
  0.1901   0.1956   0.2036   0.2103   0.2162   0.2224   0.2278   0.2429
  0.2509   0.2573   0.2610   0.2648   0.2690   0.2788   0.2797   0.2803
  0.2834   0.2886   0.2927   0.2960   0.3057   0.3108   0.3144   0.3200
  0.3319   0.3350   0.3374   0.3434   0.3465   0.3492   0.3517   0.3553
  0.3620   0.3625   0.3747   0.3782   0.3804   0.3867   0.3891   0.3960
  0.4065   0.4100   0.4106   0.4139   0.4181   0.4267   0.4299   0.4343
  0.4421   0.4493   0.4538   0.4567   0.4611   0.4641   0.4684   0.4717
  0.4907   0.4912   0.4965   0.4979   0.5033   0.5058   0.5226   0.5259
  0.5331   0.5389   0.5467   0.5482   0.5495   0.5563   0.5618   0.5623
  0.5728   0.5799   0.5816   0.5905   0.6054   0.6083   0.6167   0.6199
  0.6302   0.6390   0.6462   0.6490   0.6546   0.6580   0.6726   0.6807
  0.6845   0.6923   0.6981   0.7066   0.7115   0.7152   0.7182   0.7240
  0.7363   0.7393   0.7463   0.7526   0.7631   0.7656   0.7712   0.7728
  0.7780   0.7808   0.7880   0.7914   0.7975   0.8061   0.8089   0.8168
  0.8183   0.8216   0.8316   0.8338   0.8397   0.8457   0.8472   0.8571
  0.8619   0.8653   0.8809   0.8979   0.9025   0.9114   0.9188   0.9286
  0.9407   0.9436   0.9690   0.9748   0.9907   0.9956   1.0137   1.0242
  1.0281   1.0421   1.0470   1.0577   1.0631   1.0654   1.0909   1.0934
  1.1112   1.1165   1.1272   1.1408   1.1555   1.1619   1.1869   1.2016
  1.2191   1.2488   1.2654   1.2729   1.3002   1.3078   1.3249   1.3332
  1.3445   1.3704   1.3878   1.4085   1.4116   1.4311   1.4517   1.4622
  1.4973   1.5181   1.5275   1.5518   1.5664   1.5812   1.6067   1.6204
  1.6322   1.6512   1.6666   1.6913   1.7065   1.7213   1.7414   1.7472
  1.7616   1.7901   1.8179   1.8218   1.8489   1.8582   1.8689   1.8827
  1.8898   1.8950   1.9151   1.9295   1.9510   1.9514   1.9702   1.9797
  1.9972   2.0020   2.0071   2.0148   2.0295   2.0426   2.0599   2.0718
  2.0953   2.1049   2.1248   2.1330   2.1708   2.1857   2.1885   2.2040
  2.2286   2.2594   2.2896   2.3049   2.3063   2.3194   2.3333   2.3797
  2.3949   2.4021   2.4284   2.4323   2.4635   2.4866   2.4910   2.5152
  2.5435   2.5694   2.5848   2.6044   2.6219   2.6293   2.6462   2.6665
  2.6794   2.6879   2.7257   2.7454   2.7631   2.7637   2.7760   2.7966
  2.8126   2.8180   2.8310   2.8426   2.8555   2.8680   2.8881   2.9062
  2.9109   2.9311   2.9419   2.9594   2.9699   2.9860   3.0148   3.0243
  3.0379   3.0445   3.0539   3.0808   3.0921   3.1054   3.1127   3.1202
  3.1519   3.1698   3.1875   3.1919   3.2142   3.2302   3.2531   3.2801
  3.2829   3.2981   3.3106   3.3288   3.3327   3.3484   3.3681   3.3775
  3.3858   3.4078   3.4167   3.4302   3.4441   3.4467   3.4580   3.4617
  3.4694   3.4852   3.4907   3.5048   3.5149   3.5327   3.5406   3.5592
  3.5685   3.5818   3.5956   3.6081   3.6328   3.6376   3.6464   3.6650
  3.6766   3.7063   3.7099   3.7161   3.7363   3.7414   3.7653   3.7710
  3.7873   3.8065   3.8759   3.8911   3.9033   3.9165   3.9449   3.9748
  4.0278   4.0322   4.0520   4.1003   4.1553   4.1598   4.1747   4.2012
  4.2301   4.2397   4.2614   4.2839   4.2954   4.3078   4.3418   4.3480
  4.3751   4.4113   4.4177   4.4412   4.4627   4.4920   4.4977   4.5080
  4.5911   4.6132   4.6404   4.6472   4.7339   4.7547   4.7903   4.8390
  4.8794   4.9255   4.9654   4.9744   4.9881   5.0190   5.0535   5.0809
  5.1164   5.1433   5.1603   5.1983   5.2322   5.2696   5.3626   5.4154
  5.4617   5.4819   5.5326   5.5986   5.6429   5.6953   5.8020   5.8141
  5.9267   5.9850   6.2383   6.3342  22.6447  22.7457  22.9103  22.9275
 22.9529  23.1637  23.2570  23.4274  23.7897  32.8455
 --------------------------------------------------------------
 
          Ground-State Mulliken Net Atomic Charges

     Atom                 Charge (a.u.)
  ----------------------------------------
      1 C                    -0.856843
      2 C                    -0.109819
      3 C                     0.643612
      4 C                     0.548426
      5 C                    -0.979746
      6 C                    -0.809670
      7 C                    -0.439221
      8 C                    -0.799395
      9 C                    -0.319133
     10 N                     0.072565
     11 H                     0.404709
     12 H                     0.401462
     13 H                     0.280048
     14 H                     0.407078
     15 H                     0.324269
     16 H                     0.436978
     17 H                     0.235579
     18 H                     0.289301
     19 H                     0.269801
  ----------------------------------------
  Sum of atomic charges =     0.000000

 -----------------------------------------------------------------
                    Cartesian Multipole Moments
 -----------------------------------------------------------------
    Charge (ESU x 10^10)
                -0.0000
    Dipole Moment (Debye)
         X      -2.0528      Y       1.3328      Z      -1.8334
       Tot       3.0581
    Quadrupole Moments (Debye-Ang)
        XX     -52.1221     XY      -0.7063     YY     -57.7646
        XZ      -1.8384     YZ      -5.9423     ZZ     -61.0919
    Octopole Moments (Debye-Ang^2)
       XXX     -36.3219    XXY      40.9822    XYY     -12.3010
       YYY     128.9472    XXZ     -76.3339    XYZ      -2.0445
       YYZ     -73.5502    XZZ     -16.3161    YZZ      31.7213
       ZZZ    -241.8430
    Hexadecapole Moments (Debye-Ang^3)
      XXXX   -1066.9529   XXXY      -7.3551   XXYY    -287.5237
      XYYY      12.7332   YYYY    -557.1135   XXXZ      36.5793
      XXYZ      77.7150   XYYZ      26.8084   YYYZ     281.7259
      XXZZ    -365.9940   XYZZ       0.9207   YYZZ    -228.4570
      XZZZ      35.0238   YZZZ     272.0405   ZZZZ    -980.6946
 -----------------------------------------------------------------
Archival summary:
1\1\nid00547\SP\ProcedureUnspecified\BasisUnspecified\199\meili\MonSep2708:16:592021MonSep2708:16:592021\0\\#,ProcedureUnspecified,BasisUnspecified,\\0,1\C\C,1,1.41563\N,2,1.36062,1,106.881\H,3,1.02584,2,125.34,1,-167.425,0\C,3,1.38239,2,109.821,1,-3.35845,0\H,5,1.08475,3,125.001,2,-174.379,0\C,5,1.35178,3,109.89,2,2.05523,0\C,2,1.3844,1,122.654,3,177.485,0\H,8,1.07696,2,120.752,1,-177.995,0\C,8,1.39208,2,118.226,1,2.56434,0\H,10,1.08229,8,119.317,2,179.362,0\C,10,1.40666,8,121.442,2,-2.06356,0\H,12,1.08307,10,119.901,8,-179.892,0\C,12,1.40528,10,119.841,8,2.37169,0\H,14,1.08149,12,120.231,10,177.278,0\C,7,1.51397,5,125.443,3,-174.337,0\H,16,1.09084,7,108.693,5,2.13419,0\H,16,1.09125,7,107.222,5,118.288,0\H,16,1.1,7,114.984,5,-120.885,0\\\@

 Total job time:  69712.49s(wall), 138668.38s(cpu) 
 Mon Sep 27 08:17:03 2021

        *************************************************************
        *                                                           *
        *  Thank you very much for using Q-Chem.  Have a nice day.  *
        *                                                           *
        *************************************************************


Done Job For Fragment 0
calling putenv with: QCSCRATCH=/global/cscratch1/sd/meili 
calling putenv with: QCLOCALSCR=/tmp 
calling putenv with: QCTHREADS=32 
Creating input file /tmp/qchem53546/Frg2.input
using default PutDataFrgm: nothing
calling putenv with: QCSCRATCH=/tmp/qchem53546/ 
calling putenv with: QCLOCALSCR=/tmp/qchem53546/ 
Spawning Job For Fragment 1
                  Welcome to Q-Chem
     A Quantum Leap Into The Future Of Chemistry


 Q-Chem 5.2, Q-Chem, Inc., Pleasanton, CA (2019)

 License issued to: National Energy Research Scientific Computing Center

 Yihan Shao,  Zhengting Gan,  E. Epifanovsky,  A. T. B. Gilbert,  M. Wormit,  
 J. Kussmann,  A. W. Lange,  A. Behn,  Jia Deng,  Xintian Feng,  D. Ghosh,  
 M. Goldey,  P. R. Horn,  L. D. Jacobson,  I. Kaliman,  T. Kus,  A. Landau,  
 Jie Liu,  E. I. Proynov,  R. M. Richard,  R. P. Steele,  E. J. Sundstrom,  
 H. L. Woodcock III,  P. M. Zimmerman,  D. Zuev,  B. Albrecht,  E. Alguire,  
 S. A. Baeppler,  D. Barton,  Z. Benda,  Y. A. Bernard,  E. J. Berquist,  
 K. B. Bravaya,  H. Burton,  D. Casanova,  Chun-Min Chang,  Yunqing Chen,  
 A. Chien,  K. D. Closser,  M. P. Coons,  S. Coriani,  S. Dasgupta,  
 A. L. Dempwolff,  M. Diedenhofen,  Hainam Do,  R. G. Edgar,  Po-Tung Fang,  
 S. Faraji,  S. Fatehi,  Qingguo Feng,  K. D. Fenk,  J. Fosso-Tande,  
 J. Gayvert,  Qinghui Ge,  A. Ghysels,  G. Gidofalvi,  J. Gomes,  
 J. Gonthier,  A. Gunina,  D. Hait,  M. W. D. Hanson-Heine,  
 P. H. P. Harbach,  A. W. Hauser,  M. F. Herbst,  J. E. Herr,  
 E. G. Hohenstein,  Z. C. Holden,  Kerwin Hui,  B. C. Huynh,  T.-C. Jagau,  
 Hyunjun Ji,  B. Kaduk,  K. Khistyaev,  Jaehoon Kim,  P. Klunzinger,  K. Koh,  
 D. Kosenkov,  L. Koulias,  T. Kowalczyk,  C. M. Krauter,  A. Kunitsa,  
 Ka Un Lao,  A. Laurent,  K. V. Lawler,  Joonho Lee,  D. Lefrancois,  
 S. Lehtola,  D. S. Levine,  Yi-Pei Li,  You-Sheng Lin,  Fenglai Liu,  
 E. Livshits,  A. Luenser,  P. Manohar,  E. Mansoor,  S. F. Manzer,  
 Shan-Ping Mao,  Yuezhi Mao,  N. Mardirossian,  A. V. Marenich,  
 T. Markovich,  L. A. Martinez-Martinez,  S. A. Maurer,  N. J. Mayhall,  
 S. C. McKenzie,  J.-M. Mewes,  P. Morgante,  A. F. Morrison,  
 J. W. Mullinax,  K. Nanda,  T. S. Nguyen-Beck,  R. Olivares-Amaya,  
 J. A. Parkhill,  Zheng Pei,  T. M. Perrine,  F. Plasser,  P. Pokhilko,  
 S. Prager,  A. Prociuk,  E. Ramos,  D. R. Rehn,  F. Rob,  M. Scheurer,  
 M. Schneider,  N. Sergueev,  S. M. Sharada,  S. Sharma,  D. W. Small,  
 T. Stauch,  T. Stein,  Yu-Chuan Su,  A. J. W. Thom,  A. Tkatchenko,  
 T. Tsuchimochi,  N. M. Tubman,  L. Vogt,  M. L. Vidal,  O. Vydrov,  
 M. A. Watson,  J. Wenzel,  M. de Wergifosse,  T. A. Wesolowski,  A. White,  
 J. Witte,  A. Yamada,  Jun Yang,  K. Yao,  S. Yeganeh,  S. R. Yost,  
 Zhi-Qiang You,  A. Zech,  Igor Ying Zhang,  Xing Zhang,  Yan Zhao,  
 Ying Zhu,  B. R. Brooks,  G. K. L. Chan,  C. J. Cramer,  M. S. Gordon,  
 W. J. Hehre,  A. Klamt,  M. W. Schmidt,  C. D. Sherrill,  D. G. Truhlar,  
 A. Aspuru-Guzik,  R. Baer,  A. T. Bell,  N. A. Besley,  Jeng-Da Chai,  
 A. E. DePrince, III,  R. A. DiStasio Jr.,  A. Dreuw,  B. D. Dunietz,  
 T. R. Furlani,  Chao-Ping Hsu,  Yousung Jung,  Jing Kong,  D. S. Lambrecht,  
 WanZhen Liang,  C. Ochsenfeld,  V. A. Rassolov,  L. V. Slipchenko,  
 J. E. Subotnik,  T. Van Voorhis,  J. M. Herbert,  A. I. Krylov,  
 P. M. W. Gill,  M. Head-Gordon

 Contributors to earlier versions of Q-Chem not listed above: 
 R. D. Adamson,  B. Austin,  J. Baker,  G. J. O. Beran,  K. Brandhorst,  
 S. T. Brown,  E. F. C. Byrd,  A. K. Chakraborty,  C.-L. Cheng,  
 Siu Hung Chien,  D. M. Chipman,  D. L. Crittenden,  H. Dachsel,  
 R. J. Doerksen,  A. D. Dutoi,  L. Fusti-Molnar,  W. A. Goddard III,  
 A. Golubeva-Zadorozhnaya,  S. R. Gwaltney,  G. Hawkins,  A. Heyden,  
 S. Hirata,  G. Kedziora,  F. J. Keil,  C. Kelley,  Jihan Kim,  R. A. King,  
 R. Z. Khaliullin,  P. P. Korambath,  W. Kurlancheek,  A. M. Lee,  M. S. Lee,  
 S. V. Levchenko,  Ching Yeh Lin,  D. Liotard,  R. C. Lochan,  I. Lotan,  
 P. E. Maslen,  N. Nair,  D. P. O'Neill,  D. Neuhauser,  E. Neuscamman,  
 C. M. Oana,  R. Olson,  B. Peters,  R. Peverati,  P. A. Pieniazek,  
 Y. M. Rhee,  J. Ritchie,  M. A. Rohrdanz,  E. Rosta,  N. J. Russ,  
 H. F. Schaefer III,  N. E. Schultz,  N. Shenvi,  A. C. Simmonett,  A. Sodt,  
 D. Stuck,  K. S. Thanthiriwatte,  V. Vanovschi,  Tao Wang,  A. Warshel,  
 C. F. Williams,  Q. Wu,  X. Xu,  W. Zhang

 Please cite Q-Chem as follows:
 Y. Shao et al., Mol. Phys. 113, 184-215 (2015)
 DOI: 10.1080/00268976.2014.952696

 Q-Chem 5.2.0 for Intel X86 EM64T Linux

 Parts of Q-Chem use Armadillo 8.300.2 (Tropical Shenanigans).
 http://arma.sourceforge.net/

 Q-Chem begins on Mon Sep 27 08:17:08 2021  

Host: cori01
0

     Scratch files written to /tmp/qchem53546//Frg2//
 May1019 |scratch|qcdevops|jenkins|workspace|build_RNUM -1
Processing $rem in /global/common/cori/software/qchem/5.2/config/preferences:
	 MEM_TOTAL  96000 
NAlpha2: 32
NElect   32
Mult     1
Symmetry turned off for PCM/SM12/SMD calculation

Checking the input file for inconsistencies... 	...done.

--------------------------------------------------------------
User input:
--------------------------------------------------------------
$molecule
-1 1
 6	-0.3060287118	0.8509989559	-4.1657614642
 6	-0.4040287118	1.5549989559	-2.8247614642
 8	-1.4840287118	1.5309989560	-2.1987614642
 8	0.6129712882	2.1709989560	-2.4117614642
 1	-0.2970287118	-0.2230010441	-4.0107614642
 1	0.6349712882	1.1079989560	-4.6567614642
 1	-1.1469487118	1.1127589559	-4.8248014642
$end
$rem
EDA2		1
METHOD		WB97X-V
BASIS		DEF2-TZVPD
XC_GRID		000099000590
NL_GRID		1
UNRESTRICTED		FALSE
MAX_SCF_CYCLES		200
SYMMETRY		FALSE
SYM_IGNORE		TRUE
BASIS_LIN_DEP_THRESH		6
THRESH		14
SCF_CONVERGENCE		8
SCF_PRINT_FRGM		TRUE
SOLVENT_METHOD		SMD
!required keywords
JOBTYPE		SP
SYM_IGNORE		TRUE
SUBSYSTEM		TRUE
GEN_SCFMAN		TRUE
CHILD_INSTRUCTION		2
SYM_IGNORE		TRUE
SCFMI		0
RI_K 0		
PARI_K 0		
MIN_PARI_K 0		
IARI_K 0		
OCC_RI_K 0		
PURECART		1111
MEM_STATIC		2000
MEM_TOTAL		96000
GUI		0
CHILD_MP		1
CHILD_MP_ORDERS		232
FRZ_RELAX		0
FRZ_RELAX_METHOD		0
EDA_CLS_ELEC		1
EDA_CLS_DISP		0
FRZ_ORTHO_DECOMP		1
EDA2		FALSE
FRGM_METHOD		FALSE
CIS_N_ROOTS  0
LOCAL_CIS    0
CIS_RLX_DNS  1
$end
$smx
SOLVENT			WATER
$end
--------------------------------------------------------------
 ----------------------------------------------------------------
             Standard Nuclear Orientation (Angstroms)
    I     Atom           X                Y                Z
 ----------------------------------------------------------------
    1      C      -0.3060287118     0.8509989559    -4.1657614642
    2      C      -0.4040287118     1.5549989559    -2.8247614642
    3      O      -1.4840287118     1.5309989560    -2.1987614642
    4      O       0.6129712882     2.1709989560    -2.4117614642
    5      H      -0.2970287118    -0.2230010441    -4.0107614642
    6      H       0.6349712882     1.1079989560    -4.6567614642
    7      H      -1.1469487118     1.1127589559    -4.8248014642
 ----------------------------------------------------------------
 Nuclear Repulsion Energy =         112.61031179 hartrees
 There are       16 alpha and       16 beta electrons
 Requested basis set is def2-TZVPD
 There are 69 shells and 181 basis functions

 Total QAlloc Memory Limit  96000 MB
 Mega-Array Size      1956 MB
 MEM_STATIC part      2000 MB
 
 Citation of the SMD model:
 Marenich, A.V.; Cramer, C.J.; Truhlar, D.G.
 J. Phys. Chem. B 2009, 113, 6378-6396.
 iSolventCode=           1
 Solvent: water                                                           
 
 vradii
            1           2           3           4           5           6
    1   1.8500000   1.8500000   1.5200000   1.5200000   1.2000000   1.2000000
            7
    1   1.2000000
 Changing PCM_VDW_RADII to SMD_RADIUS
 Discretize the solute cavity surface with Lebedev spheres
	Using 110 Lebedev grid points for each H atom
	Using 194 Lebedev grid points for other atoms
	Atomic van der Waals radii will be scaled by 1.20
 Remove points where switching function is < 1.0e-08
 Keep 644 surface tesserae and discard 462 interior tesserae
 Molecular Surface Area = 79.770 Angst**2

                       Distance Matrix (Angstroms)
             C (  1)   C (  2)   O (  3)   O (  4)   H (  5)   H (  6)
   C (  2)  1.517729
   O (  3)  2.391479  1.248540
   O (  4)  2.379806  1.258695  2.202811
   H (  5)  1.085165  2.139937  2.787262  3.019294
   H (  6)  1.092067  2.153034  3.272744  2.484045  1.748571
   H (  7)  1.099999  2.178914  2.680417  3.168588  1.780247  1.789832

 
 A cutoff of  1.0D-14 yielded   2391 shell pairs
 There are     16695 function pairs (     21491 Cartesian)
 Smallest overlap matrix eigenvalue = 1.62E-05

 Scale SEOQF with 1.000000e-01/1.000000e-01/1.000000e-01

 Standard Electronic Orientation quadrupole field applied
 Nucleus-field energy     =    -0.0000000255 hartrees
 Guess from superposition of atomic densities
 Warning:  Energy on first SCF cycle will be non-variational
 SAD guess density has 30.625312 electrons

 -----------------------------------------------------------------------
  General SCF calculation program by
  Eric Jon Sundstrom, Paul Horn, Yuezhi Mao, Dmitri Zuev, Alec White,
  David Stuck, Shaama M.S., Shane Yost, Joonho Lee, David Small,
  Daniel Levine, Susi Lehtola, Hugh Burton, Evgeny Epifanovsky
 -----------------------------------------------------------------------
 Exchange:     0.1670 Hartree-Fock + 1.0000 wB97X-V + LR-HF
 Correlation:  1.0000 wB97X-V
 Using Euler-Maclaurin-Lebedev (99,590) quadrature formula
 Nonlocal Correlation:  VV10 with C = 0.0100 and b = 6.00 and scale = 1.00000
 Grid used for NLC:  SG-1 standard quadrature
Energy prior to optimization (guess energy) = -227.761380293698
Begin Timing: Total SCF Calculation
begin iterations for algorithm: DIIS         
the SCF tolerance is set to 1.00e-08
    1    -227.7613802937      1.66e-02     00000 
    2    -225.6172856883      2.50e-02     00000 
    3    -228.6050278094      4.14e-03     00000 
    4    -228.6577257460      1.60e-03     00000 
    5    -228.6647230752      5.32e-04     00000 
    6    -228.6654683689      2.25e-04     00000 
    7    -228.6656237836      4.33e-05     00000 
    8    -228.6656323362      1.31e-05     00000 
    9    -228.6656334283      3.69e-06     00000 
   10    -228.6656335336      1.09e-06     00000 
   11    -228.6656335432      2.28e-07     00000 
   12    -228.6656335436      4.91e-08     00000 
   13    -228.6656335437      1.23e-08     00000 
   14    -228.6656335437      3.16e-09     00000 Convergence criterion met
Timing for Total SCF: 251.00s (wall), 494.98s (cpu)
(3)  G-ENP(liq) elect-nuc-pol free energy of system     -228.665633544 a.u.
(4)  G-CDS(liq) cavity-dispersion-solvent structure 
     free energy                                                3.8881 kcal/mol
(6)  G-S(liq) free energy of system                     -228.659437516 a.u.
E_pcm = -0.1310681179
E_cds = 0.0061960272
Multipole orders to be included
        2
        3
computing dipole RHS
computing quadrupole RHS
total number of RHS in solve_reponses: 8
RHS batch sizes
        8
Beginning Block Conjugate Gradient Iterations. Batch Number: 0
computing hessian-vector products by finite difference
              1      7.60e-01     00000 Conjugate Gradient Iteration
computing hessian-vector products by finite difference
              2      2.36e-01     00000 Conjugate Gradient Iteration
computing hessian-vector products by finite difference
              3      6.54e-02     00000 Conjugate Gradient Iteration
computing hessian-vector products by finite difference
              4      1.76e-02     00000 Conjugate Gradient Iteration
computing hessian-vector products by finite difference
              5      2.61e-03     00000 Conjugate Gradient Iteration
computing hessian-vector products by finite difference
              6      6.93e-04     00000 Conjugate Gradient Iteration
computing hessian-vector products by finite difference
              7      9.82e-05     00000 Conjugate Gradient Iteration
computing hessian-vector products by finite difference
              8      1.45e-05     00000 Conjugate Gradient Iteration
computing hessian-vector products by finite difference
              9      4.59e-06     00000 Conjugate Gradient Iteration
computing hessian-vector products by finite difference
             10      8.62e-07     00000 Conjugate Gradient Iteration
computing hessian-vector products by finite difference
             11      2.23e-07     00000 Conjugate Gradient Iteration
computing hessian-vector products by finite difference
             12      2.58e-08     00000 Conjugate Gradient Iteration
computing hessian-vector products by finite difference
             13      7.70e-09     00000 CG Converged
batch 0 complete
Done Calculating Responses
TESTING ORTHOGONALIZATION OF MULTIPOLE BASIS
Multipole virts passed orthogonality test
Virts Per Order
        48
        80
 
 --------------------------------------------------------------
 
                    Orbital Energies (a.u.)
 --------------------------------------------------------------
 
 Alpha MOs
 -- Occupied --
-19.1541 -19.1523 -10.3546 -10.2458  -1.1645  -1.0648  -0.8411  -0.6183
 -0.5477  -0.5463  -0.5414  -0.4813  -0.4632  -0.3655  -0.3580  -0.3447
 -- Virtual --
  0.0671   0.1001   0.1008   0.1073   0.1354   0.1456   0.1458   0.1499
  0.1550   0.1896   0.2028   0.2247   0.2350   0.2389   0.2599   0.2663
  0.2983   0.3156   0.3332   0.3461   0.3544   0.3602   0.3726   0.3844
  0.3875   0.4010   0.4154   0.4261   0.4293   0.4541   0.4654   0.4738
  0.4851   0.4912   0.5064   0.5082   0.5461   0.5610   0.5786   0.5999
  0.6094   0.6245   0.6281   0.6428   0.6565   0.6680   0.6819   0.6944
  0.7091   0.7201   0.7698   0.7924   0.8051   0.8094   0.8335   0.8479
  0.8584   0.9529   0.9713   0.9785   0.9877   1.0298   1.0429   1.1020
  1.1542   1.2005   1.2417   1.2618   1.2710   1.3032   1.3304   1.3408
  1.4349   1.5536   1.5818   1.7384   1.8025   1.8426   1.8524   1.8962
  1.9106   1.9370   1.9450   1.9614   2.0014   2.0951   2.1137   2.1610
  2.1848   2.2023   2.3006   2.3300   2.3970   2.4347   2.4542   2.4705
  2.5564   2.5717   2.6250   2.6485   2.7869   2.7997   2.8754   2.9065
  2.9409   2.9795   3.0231   3.1605   3.1877   3.2406   3.2608   3.2918
  3.3289   3.3350   3.3860   3.3890   3.4108   3.5246   3.5449   3.5670
  3.5968   3.6339   3.6697   3.7124   3.7543   3.8615   3.9445   4.0430
  4.0815   4.1865   4.3289   4.5271   4.6328   4.6582   4.7815   4.8207
  4.9784   5.2965   5.3229   5.3328   5.3403   5.4668   5.6796   5.7329
  5.7835   5.9865   6.2054   6.3066   6.3200   6.5857   6.5967   6.6851
  6.7107   6.7265   6.9208   6.9448   7.0084   7.2131   7.3189   7.3510
  7.3808  22.5922  23.6968  44.1874  44.3154
 --------------------------------------------------------------
 
          Ground-State Mulliken Net Atomic Charges

     Atom                 Charge (a.u.)
  ----------------------------------------
      1 C                    -0.588909
      2 C                     0.504034
      3 O                    -0.770799
      4 O                    -0.776524
      5 H                     0.201880
      6 H                     0.206262
      7 H                     0.224057
  ----------------------------------------
  Sum of atomic charges =    -1.000000

 -----------------------------------------------------------------
                    Cartesian Multipole Moments
 -----------------------------------------------------------------
    Charge (ESU x 10^10)
                -4.8032
    Dipole Moment (Debye)
         X       2.1664      Y     -10.0745      Z       9.0416
       Tot      13.7091
    Quadrupole Moments (Debye-Ang)
        XX     -36.0295     XY       1.3497     YY     -46.4465
        XZ      -3.0935     YZ      20.2235     ZZ     -40.5935
    Octopole Moments (Debye-Ang^2)
       XXX      42.6076    XXY     -54.3924    XYY       8.0209
       YYY    -159.3354    XXZ      98.3474    XYZ       0.4180
       YYZ     119.1881    XZZ      11.6640    YZZ     -76.3214
       ZZZ     243.8837
    Hexadecapole Moments (Debye-Ang^3)
      XXXX    -172.3225   XXXY      50.3082   XXYY    -121.1546
      XYYY      21.3192   YYYY    -512.0776   XXXZ    -107.7925
      XXYZ     138.1841   XYYZ     -15.5399   YYYZ     407.8468
      XXZZ    -318.9052   XYZZ      -0.1082   YYZZ    -406.4089
      XZZZ     -66.1893   YZZZ     370.9376   ZZZZ   -1472.7372
 -----------------------------------------------------------------
Archival summary:
1\1\nid00547\SP\ProcedureUnspecified\BasisUnspecified\223(1-,1)\meili\MonSep2709:31:562021MonSep2709:31:562021\0\\#,ProcedureUnspecified,BasisUnspecified,\\-1,1\C\O,1,1.24854\O,1,1.2587,2,122.943\C,1,1.51773,2,119.337,3,-178.081,0\H,4,1.08516,1,109.476,2,-72.5238,0\H,4,1.09207,1,110.104,2,170.283,0\H,4,1.1,1,111.692,2,48.4371,0\\\@

 Total job time:  4492.64s(wall), 8808.54s(cpu) 
 Mon Sep 27 09:32:00 2021

        *************************************************************
        *                                                           *
        *  Thank you very much for using Q-Chem.  Have a nice day.  *
        *                                                           *
        *************************************************************


Done Job For Fragment 1
calling putenv with: QCSCRATCH=/global/cscratch1/sd/meili 
calling putenv with: QCLOCALSCR=/tmp 
calling putenv with: QCTHREADS=32 
Doing General SCFMI
 Exchange:     0.1670 Hartree-Fock + 1.0000 wB97X-V + LR-HF
 Correlation:  1.0000 wB97X-V
 Using Euler-Maclaurin-Lebedev (99,590) quadrature formula
 Nonlocal Correlation:  VV10 with C = 0.0100 and b = 6.00 and scale = 1.00000
 Grid used for NLC:  SG-1 standard quadrature
performing fock build before subrot guess so that all methods have access
Printing subrot_rss_gen Method Specification:
Occupied Subspace Method is 0
Virtual Subspace Method is 0
Energy of the unrelaxed supersystem initial determinant -631.720184908246
performing fock build before subrot guess so that all methods have access
Printing subrot_rss_gen Method Specification:
Occupied Subspace Method is 0
Virtual Subspace Method is 0
Energy of the unrelaxed supersystem initial determinant w/ solvent -631.837617188206
write pseudocanon occs and virts to disk
write pseudocanon orbital energies to disk
Tolerance of ortho_decomp_scf: 1.00e-06
GDM subspace size: 20
Beginning the Orthogonal Decomposition of the Initial Supersystem Wavefunction
    1    -631.6209028461      6.54e-02     ortho_decomp Preconditoned Steepest Descent
    2    -631.6331703141      1.84e-03     ortho_decomp BFGS Step
    3    -631.6332240690      1.61e-04     ortho_decomp BFGS Step
    4    -631.6332241740      7.08e-06     ortho_decomp BFGS Step
    5    -631.6332241744      2.74e-07     ortho_decomp 00000 Convergence criterion met
 Hartree-Fock
 Hartree-Fock
 Hartree-Fock
Doing General SCFMI
 Exchange:     0.1670 Hartree-Fock + 1.0000 wB97X-V + LR-HF
 Correlation:  1.0000 wB97X-V
 Using Euler-Maclaurin-Lebedev (99,590) quadrature formula
 Nonlocal Correlation:  VV10 with C = 0.0100 and b = 6.00 and scale = 1.00000
 Grid used for NLC:  SG-1 standard quadrature
performing fock build at end of subrot_r(subrot) constructor so that all methods have access
<S^2> of initial wavefunction before polarization iterations 0.0000000000
Beginning iterations for the determination of the polarized wavefunction
Energy prior to optimization (guess energy) = -631.837617188206
Begin Timing: Total SCF Calculation
begin iterations for algorithm: DIIS         
the SCF tolerance is set to 1.00e-08
    1    -631.8376171882      1.21e-04     00000 
    2    -631.8391740558      6.18e-05     00000 
    3    -631.8393820815      3.47e-05     00000 
    4    -631.8394668308      8.09e-06     00000 
    5    -631.8394762866      4.10e-06     00000 
    6    -631.8394792531      2.06e-06     00000 
    7    -631.8394798349      1.11e-06     00000 
    8    -631.8394800004      3.73e-07     00000 
    9    -631.8394800210      1.72e-07     00000 
   10    -631.8394800235      6.57e-08     00000 
   11    -631.8394800241      2.83e-08     00000 
   12    -631.8394800241      1.44e-08     00000 
   13    -631.8394800242      5.31e-09     00000 Convergence criterion met
write pseudocanon occs and virts to disk
write pseudocanon orbital energies to disk
Timing for Total SCF: 8853.00s (wall), 17623.07s (cpu)
<S^2> of polarized wavefunction after polarization iterations 0.0000000000
relaxing scfmi constraint to allow all rotations in the entire AO span
Doing General SCFMI
 Exchange:     0.1670 Hartree-Fock + 1.0000 wB97X-V + LR-HF
 Correlation:  1.0000 wB97X-V
 Using Euler-Maclaurin-Lebedev (99,590) quadrature formula
 Nonlocal Correlation:  VV10 with C = 0.0100 and b = 6.00 and scale = 1.00000
 Grid used for NLC:  SG-1 standard quadrature
performing fock build at end of subrot_r(subrot) constructor so that all methods have access
<S^2> of polarized wavefunction before ct-allowed iterations 0.0000000000
Beginning iterations for the determination of the CT-Allowed wavefunction
Energy prior to optimization (guess energy) = -631.839480024156
Begin Timing: Total SCF Calculation
begin iterations for algorithm: DIIS         
the SCF tolerance is set to 1.00e-08
    1    -631.8394800242      1.47e-04     00000 
    2    -631.8447762047      2.43e-05     00000 
    3    -631.8450095296      1.17e-05     00000 
    4    -631.8450290579      5.57e-06     00000 
    5    -631.8450350010      1.26e-06     00000 
    6    -631.8450353176      5.14e-07     00000 
    7    -631.8450353953      1.84e-07     00000 
    8    -631.8450354052      4.27e-08     00000 
    9    -631.8450354065      1.65e-08     00000 
   10    -631.8450354067      7.74e-09     00000 Convergence criterion met
write pseudocanon occs and virts to disk
write pseudocanon orbital energies to disk
Timing for Total SCF: 6673.00s (wall), 13287.78s (cpu)
<S^2> of ct_allowed wavefunction after ct-allowed iterations 0.0000000000

================================
        Results of EDA2         
================================
Basic EDA Quantities
--------------------
Fragment Energies (Ha):
1 -403.1690758529
2 -228.6594375165
--------------------
  E_prp (kJ/mol) = 0.0000
  E_sol (kJ/mol) = 74.0856
  E_frz (kJ/mol) = -70.4765
  E_pol (kJ/mol) = -4.8909
  E_vct (kJ/mol) = -14.5858
  E_int (kJ/mol) = -15.8676
--------------------


Initial Wavefunction Decomposition
--------------------
  --------------------
  Orthogonal Fragment Subspace Decomposition:
  --------------------
     E_elec   (ELEC)   (kJ/mol) = -176.8812
     E_pauli  (PAULI)  (kJ/mol) = 129.5778
     E_disp   (DISP)   (kJ/mol) = -23.1730
     --------------------
     Terms summing to E_pauli:
     --------------------
        E_kep_pauli       (kJ/mol) = 157.8417
        E_disp_free_pauli (kJ/mol) = -28.2639
  --------------------
  Classical Frozen Decomposition:
  --------------------
     E_cls_elec  (CLS ELEC)  (kJ/mol) = -124.0988
     E_cls_pauli (CLS PAULI) (kJ/mol) = 53.6223
    [E_mod_pauli (MOD PAULI) (kJ/mol) = 76.7953 (CLS PAULI - DISP from orthogonal decomposition) ]
  --------------------
--------------------

Simplified EDA Summary (kJ/mol)
--------------------
 PREPARATION     0.0000
 SOLVATION       74.0856
 FROZEN          -47.3034      (does not include dispersion)
[PAULI           129.5778]     (if this is negligible, then frozen describes electrostatics)
 DISPERSION      -23.1730
 POLARIZATION    -4.8909
 CHARGE TRANSFER -14.5858
 TOTAL           -15.8676     (PRP + SOL + FRZ + DISP + POL + CT)
--------------------
 
 --------------------------------------------------------------
 
                    Orbital Energies (a.u.)
 --------------------------------------------------------------
 
 Alpha MOs
 -- Occupied --
-19.1598 -19.1553 -14.4259 -10.3579 -10.2917 -10.2845 -10.2688 -10.2634
-10.2627 -10.2618 -10.2609 -10.2559 -10.2545 -10.2470  -1.1702  -1.1028
 -1.0697  -0.9688  -0.9205  -0.8596  -0.8535  -0.8429  -0.8055  -0.7373
 -0.7038  -0.6679  -0.6415  -0.6191  -0.5908  -0.5755  -0.5548  -0.5508
 -0.5478  -0.5439  -0.5354  -0.5245  -0.5069  -0.5033  -0.4840  -0.4814
 -0.4747  -0.4638  -0.4468  -0.4439  -0.4242  -0.3711  -0.3690  -0.3604
 -0.3491  -0.3097  -0.2856
 -- Virtual --
  0.0568   0.0620   0.0751   0.0801   0.0936   0.0967   0.0985   0.0986
  0.1048   0.1216   0.1239   0.1294   0.1313   0.1371   0.1438   0.1468
  0.1517   0.1549   0.1623   0.1636   0.1731   0.1892   0.1907   0.1954
  0.1961   0.1981   0.2056   0.2097   0.2214   0.2259   0.2271   0.2295
  0.2413   0.2426   0.2465   0.2514   0.2571   0.2607   0.2659   0.2715
  0.2763   0.2787   0.2831   0.2851   0.2907   0.2934   0.2965   0.2988
  0.3099   0.3123   0.3142   0.3199   0.3235   0.3258   0.3301   0.3325
  0.3377   0.3381   0.3450   0.3469   0.3503   0.3546   0.3556   0.3579
  0.3653   0.3673   0.3746   0.3760   0.3814   0.3826   0.3844   0.3890
  0.3904   0.3925   0.3994   0.4002   0.4052   0.4070   0.4120   0.4142
  0.4166   0.4208   0.4247   0.4280   0.4400   0.4416   0.4444   0.4503
  0.4506   0.4551   0.4576   0.4605   0.4637   0.4699   0.4749   0.4761
  0.4814   0.4893   0.4943   0.4967   0.4986   0.5043   0.5060   0.5113
  0.5150   0.5197   0.5214   0.5236   0.5303   0.5314   0.5357   0.5427
  0.5451   0.5506   0.5526   0.5562   0.5581   0.5635   0.5714   0.5723
  0.5822   0.5866   0.5916   0.5958   0.5989   0.6065   0.6108   0.6143
  0.6196   0.6224   0.6243   0.6375   0.6396   0.6514   0.6582   0.6609
  0.6663   0.6690   0.6750   0.6808   0.6829   0.6897   0.6940   0.6987
  0.7059   0.7086   0.7150   0.7162   0.7296   0.7314   0.7344   0.7442
  0.7502   0.7538   0.7540   0.7586   0.7616   0.7670   0.7699   0.7753
  0.7769   0.7831   0.7862   0.7929   0.7945   0.8001   0.8057   0.8077
  0.8085   0.8148   0.8200   0.8219   0.8273   0.8289   0.8302   0.8405
  0.8420   0.8436   0.8466   0.8537   0.8579   0.8618   0.8660   0.8715
  0.8804   0.8882   0.8940   0.8984   0.9008   0.9065   0.9143   0.9233
  0.9315   0.9339   0.9431   0.9481   0.9575   0.9664   0.9806   0.9819
  0.9853   0.9988   1.0048   1.0064   1.0124   1.0235   1.0308   1.0464
  1.0543   1.0577   1.0673   1.0729   1.0744   1.0838   1.0914   1.0990
  1.1088   1.1169   1.1276   1.1314   1.1464   1.1510   1.1580   1.1689
  1.1784   1.1841   1.1981   1.2110   1.2291   1.2305   1.2487   1.2592
  1.2690   1.2797   1.2872   1.3032   1.3154   1.3201   1.3332   1.3365
  1.3451   1.3587   1.3662   1.3704   1.3886   1.3991   1.4133   1.4169
  1.4260   1.4373   1.4522   1.4661   1.4701   1.4801   1.4942   1.5155
  1.5389   1.5610   1.5651   1.5802   1.5946   1.6004   1.6144   1.6363
  1.6455   1.6621   1.6743   1.6890   1.7052   1.7133   1.7350   1.7489
  1.7543   1.7652   1.7730   1.8097   1.8337   1.8409   1.8584   1.8734
  1.8799   1.8870   1.8889   1.8970   1.9076   1.9200   1.9315   1.9353
  1.9471   1.9594   1.9597   1.9712   1.9800   1.9873   1.9953   2.0002
  2.0101   2.0144   2.0159   2.0233   2.0288   2.0430   2.0529   2.0730
  2.0800   2.0904   2.1052   2.1154   2.1219   2.1391   2.1409   2.1500
  2.1867   2.1877   2.1943   2.2079   2.2116   2.2333   2.2429   2.2505
  2.2777   2.2989   2.3097   2.3227   2.3313   2.3385   2.3564   2.3730
  2.3785   2.4006   2.4232   2.4305   2.4480   2.4523   2.4667   2.4792
  2.4907   2.5026   2.5069   2.5128   2.5384   2.5446   2.5554   2.5800
  2.5922   2.6023   2.6200   2.6280   2.6398   2.6496   2.6672   2.6703
  2.6767   2.6942   2.7031   2.7233   2.7448   2.7594   2.7770   2.7888
  2.7895   2.8018   2.8196   2.8286   2.8306   2.8479   2.8539   2.8658
  2.8758   2.8864   2.8940   2.9029   2.9176   2.9387   2.9396   2.9546
  2.9623   2.9693   2.9761   3.0016   3.0080   3.0204   3.0418   3.0485
  3.0544   3.0692   3.0819   3.1019   3.1048   3.1211   3.1285   3.1444
  3.1658   3.1712   3.1901   3.2011   3.2145   3.2212   3.2345   3.2448
  3.2507   3.2670   3.2776   3.2893   3.3024   3.3100   3.3165   3.3249
  3.3348   3.3427   3.3471   3.3560   3.3715   3.3879   3.3929   3.4021
  3.4036   3.4176   3.4201   3.4240   3.4340   3.4501   3.4583   3.4623
  3.4686   3.4787   3.4911   3.4950   3.5055   3.5146   3.5196   3.5313
  3.5324   3.5625   3.5689   3.5737   3.5866   3.6050   3.6070   3.6160
  3.6266   3.6305   3.6403   3.6480   3.6548   3.6587   3.6743   3.6776
  3.6943   3.7126   3.7146   3.7260   3.7364   3.7479   3.7515   3.7639
  3.7749   3.7819   3.7940   3.8108   3.8163   3.8814   3.8891   3.9063
  3.9106   3.9266   3.9545   3.9786   3.9873   4.0408   4.0493   4.0652
  4.0682   4.1005   4.1052   4.1643   4.1749   4.1940   4.1982   4.2127
  4.2471   4.2545   4.2761   4.3000   4.3098   4.3243   4.3468   4.3564
  4.3627   4.3906   4.4211   4.4319   4.4552   4.4691   4.5018   4.5065
  4.5237   4.5564   4.6088   4.6247   4.6478   4.6568   4.6601   4.6763
  4.7403   4.7645   4.8032   4.8280   4.8435   4.8663   4.8951   4.9394
  4.9868   4.9945   4.9985   5.0255   5.0357   5.0668   5.1149   5.1318
  5.1497   5.1770   5.2172   5.2514   5.2822   5.3115   5.3406   5.3498
  5.3803   5.3827   5.4309   5.4673   5.5022   5.5195   5.5445   5.6159
  5.6408   5.6856   5.7239   5.7466   5.7865   5.8335   5.8732   5.9643
  5.9857   5.9957   6.2394   6.2876   6.3272   6.3413   6.3467   6.6081
  6.6923   6.7393   6.7700   6.7930   6.9470   7.0315   7.0456   7.2373
  7.3386   7.3793   7.4160  22.6110  22.6393  22.7696  22.9222  22.9488
 22.9658  23.1884  23.2690  23.4438  23.7300  23.7913  32.9476  44.3316
 44.3905
 --------------------------------------------------------------
 
          Ground-State Mulliken Net Atomic Charges

     Atom                 Charge (a.u.)
  ----------------------------------------
      1 C                    -1.063756
      2 C                    -0.089626
      3 C                     0.234315
      4 C                     0.422739
      5 C                    -0.492240
      6 C                    -0.582363
      7 C                    -0.512864
      8 C                    -0.573848
      9 C                    -0.578159
     10 N                     0.197559
     11 H                     0.444482
     12 H                     0.410860
     13 H                     0.191496
     14 H                     0.416242
     15 H                     0.321566
     16 H                     0.443497
     17 H                     0.254096
     18 H                     0.286187
     19 H                     0.275670
     20 C                    -0.826384
     21 C                     0.721842
     22 O                    -0.836172
     23 O                    -0.771050
     24 H                     0.210534
     25 H                     0.232975
     26 H                     0.262404
  ----------------------------------------
  Sum of atomic charges =    -1.000000

 -----------------------------------------------------------------
                    Cartesian Multipole Moments
 -----------------------------------------------------------------
    Charge (ESU x 10^10)
                -4.8032
    Dipole Moment (Debye)
         X      -0.0701      Y      -8.2195      Z       6.4136
       Tot      10.4259
    Quadrupole Moments (Debye-Ang)
        XX     -88.7637     XY       0.6447     YY    -104.1851
        XZ      -4.7090     YZ      14.1325     ZZ    -101.4393
    Octopole Moments (Debye-Ang^2)
       XXX       4.4849    XXY     -11.5210    XYY      -4.5469
       YYY     -27.4118    XXZ      19.2219    XYZ      -1.4655
       YYZ      43.0105    XZZ      -5.0583    YZZ     -41.6107
       ZZZ      -5.0989
    Hexadecapole Moments (Debye-Ang^3)
      XXXX   -1248.9557   XXXY      43.1315   XXYY    -410.0883
      XYYY      34.1143   YYYY   -1069.3628   XXXZ     -70.0753
      XXYZ     216.5020   XYYZ      11.5965   YYYZ     689.3935
      XXZZ    -686.2015   XYZZ       0.0630   YYZZ    -634.7243
      XZZZ     -28.2531   YZZZ     641.5329   ZZZZ   -2443.9975
 -----------------------------------------------------------------
Archival summary:
1\1\nid00547\SP\ProcedureUnspecified\BasisUnspecified\211112(1-,1)\meili\MonSep2717:02:052021MonSep2717:02:052021\0\\#,ProcedureUnspecified,BasisUnspecified,\\-1,1\N\H,1,1.02584\C,1,1.36062,2,125.34\C,1,1.38239,2,122.806,3,-162.105,0\H,4,1.08475,1,125.001,2,-9.831,0\C,4,1.35178,1,109.89,2,166.603,0\C,3,1.3844,1,130.406,2,15.3564,0\H,7,1.07696,3,120.752,1,-1.15661,0\C,7,1.39208,3,118.226,1,179.403,0\H,9,1.08229,7,119.317,3,179.362,0\C,9,1.40666,7,121.442,3,-2.06356,0\H,11,1.08307,9,119.901,7,-179.892,0\C,11,1.40528,9,119.841,7,2.37169,0\H,13,1.08149,11,120.231,9,177.278,0\C,3,1.41563,1,106.881,2,-167.425,0\C,6,1.51397,4,125.443,1,-174.337,0\H,16,1.09084,6,108.693,4,2.13419,0\H,16,1.09125,6,107.222,4,118.288,0\H,16,1.1,6,114.984,4,-120.885,0\O,2,1.84906,1,153.437,3,89.8535,0\C,20,1.24854,2,104.788,1,-94.5277,0\O,21,1.2587,20,122.943,2,-45.1824,0\C,21,1.51773,20,119.337,2,136.737,0\H,23,1.08516,21,109.476,20,-72.5238,0\H,23,1.09207,21,110.104,20,170.283,0\H,23,1.1,21,111.692,20,48.4371,0\\\@

 Total job time:  101257.53s(wall), 53871.86s(cpu) 
 Mon Sep 27 17:02:08 2021

        *************************************************************
        *                                                           *
        *  Thank you very much for using Q-Chem.  Have a nice day.  *
        *                                                           *
        *************************************************************


