
Running Job 1 of 1 SSI-086ASP-092TRP-1_PCM_TZVPD.in
qchem SSI-086ASP-092TRP-1_PCM_TZVPD.in_30749.0 /tmp/qchem30749/ 0
/global/common/cori/software/qchem/5.2/exe/qcprog.exe_s SSI-086ASP-092TRP-1_PCM_TZVPD.in_30749.0 /tmp/qchem30749/
                  Welcome to Q-Chem
     A Quantum Leap Into The Future Of Chemistry


 Q-Chem 5.2, Q-Chem, Inc., Pleasanton, CA (2019)

 License issued to: National Energy Research Scientific Computing Center

 Yihan Shao,  Zhengting Gan,  E. Epifanovsky,  A. T. B. Gilbert,  M. Wormit,  
 J. Kussmann,  A. W. Lange,  A. Behn,  Jia Deng,  Xintian Feng,  D. Ghosh,  
 M. Goldey,  P. R. Horn,  L. D. Jacobson,  I. Kaliman,  T. Kus,  A. Landau,  
 Jie Liu,  E. I. Proynov,  R. M. Richard,  R. P. Steele,  E. J. Sundstrom,  
 H. L. Woodcock III,  P. M. Zimmerman,  D. Zuev,  B. Albrecht,  E. Alguire,  
 S. A. Baeppler,  D. Barton,  Z. Benda,  Y. A. Bernard,  E. J. Berquist,  
 K. B. Bravaya,  H. Burton,  D. Casanova,  Chun-Min Chang,  Yunqing Chen,  
 A. Chien,  K. D. Closser,  M. P. Coons,  S. Coriani,  S. Dasgupta,  
 A. L. Dempwolff,  M. Diedenhofen,  Hainam Do,  R. G. Edgar,  Po-Tung Fang,  
 S. Faraji,  S. Fatehi,  Qingguo Feng,  K. D. Fenk,  J. Fosso-Tande,  
 J. Gayvert,  Qinghui Ge,  A. Ghysels,  G. Gidofalvi,  J. Gomes,  
 J. Gonthier,  A. Gunina,  D. Hait,  M. W. D. Hanson-Heine,  
 P. H. P. Harbach,  A. W. Hauser,  M. F. Herbst,  J. E. Herr,  
 E. G. Hohenstein,  Z. C. Holden,  Kerwin Hui,  B. C. Huynh,  T.-C. Jagau,  
 Hyunjun Ji,  B. Kaduk,  K. Khistyaev,  Jaehoon Kim,  P. Klunzinger,  K. Koh,  
 D. Kosenkov,  L. Koulias,  T. Kowalczyk,  C. M. Krauter,  A. Kunitsa,  
 Ka Un Lao,  A. Laurent,  K. V. Lawler,  Joonho Lee,  D. Lefrancois,  
 S. Lehtola,  D. S. Levine,  Yi-Pei Li,  You-Sheng Lin,  Fenglai Liu,  
 E. Livshits,  A. Luenser,  P. Manohar,  E. Mansoor,  S. F. Manzer,  
 Shan-Ping Mao,  Yuezhi Mao,  N. Mardirossian,  A. V. Marenich,  
 T. Markovich,  L. A. Martinez-Martinez,  S. A. Maurer,  N. J. Mayhall,  
 S. C. McKenzie,  J.-M. Mewes,  P. Morgante,  A. F. Morrison,  
 J. W. Mullinax,  K. Nanda,  T. S. Nguyen-Beck,  R. Olivares-Amaya,  
 J. A. Parkhill,  Zheng Pei,  T. M. Perrine,  F. Plasser,  P. Pokhilko,  
 S. Prager,  A. Prociuk,  E. Ramos,  D. R. Rehn,  F. Rob,  M. Scheurer,  
 M. Schneider,  N. Sergueev,  S. M. Sharada,  S. Sharma,  D. W. Small,  
 T. Stauch,  T. Stein,  Yu-Chuan Su,  A. J. W. Thom,  A. Tkatchenko,  
 T. Tsuchimochi,  N. M. Tubman,  L. Vogt,  M. L. Vidal,  O. Vydrov,  
 M. A. Watson,  J. Wenzel,  M. de Wergifosse,  T. A. Wesolowski,  A. White,  
 J. Witte,  A. Yamada,  Jun Yang,  K. Yao,  S. Yeganeh,  S. R. Yost,  
 Zhi-Qiang You,  A. Zech,  Igor Ying Zhang,  Xing Zhang,  Yan Zhao,  
 Ying Zhu,  B. R. Brooks,  G. K. L. Chan,  C. J. Cramer,  M. S. Gordon,  
 W. J. Hehre,  A. Klamt,  M. W. Schmidt,  C. D. Sherrill,  D. G. Truhlar,  
 A. Aspuru-Guzik,  R. Baer,  A. T. Bell,  N. A. Besley,  Jeng-Da Chai,  
 A. E. DePrince, III,  R. A. DiStasio Jr.,  A. Dreuw,  B. D. Dunietz,  
 T. R. Furlani,  Chao-Ping Hsu,  Yousung Jung,  Jing Kong,  D. S. Lambrecht,  
 WanZhen Liang,  C. Ochsenfeld,  V. A. Rassolov,  L. V. Slipchenko,  
 J. E. Subotnik,  T. Van Voorhis,  J. M. Herbert,  A. I. Krylov,  
 P. M. W. Gill,  M. Head-Gordon

 Contributors to earlier versions of Q-Chem not listed above: 
 R. D. Adamson,  B. Austin,  J. Baker,  G. J. O. Beran,  K. Brandhorst,  
 S. T. Brown,  E. F. C. Byrd,  A. K. Chakraborty,  C.-L. Cheng,  
 Siu Hung Chien,  D. M. Chipman,  D. L. Crittenden,  H. Dachsel,  
 R. J. Doerksen,  A. D. Dutoi,  L. Fusti-Molnar,  W. A. Goddard III,  
 A. Golubeva-Zadorozhnaya,  S. R. Gwaltney,  G. Hawkins,  A. Heyden,  
 S. Hirata,  G. Kedziora,  F. J. Keil,  C. Kelley,  Jihan Kim,  R. A. King,  
 R. Z. Khaliullin,  P. P. Korambath,  W. Kurlancheek,  A. M. Lee,  M. S. Lee,  
 S. V. Levchenko,  Ching Yeh Lin,  D. Liotard,  R. C. Lochan,  I. Lotan,  
 P. E. Maslen,  N. Nair,  D. P. O'Neill,  D. Neuhauser,  E. Neuscamman,  
 C. M. Oana,  R. Olson,  B. Peters,  R. Peverati,  P. A. Pieniazek,  
 Y. M. Rhee,  J. Ritchie,  M. A. Rohrdanz,  E. Rosta,  N. J. Russ,  
 H. F. Schaefer III,  N. E. Schultz,  N. Shenvi,  A. C. Simmonett,  A. Sodt,  
 D. Stuck,  K. S. Thanthiriwatte,  V. Vanovschi,  Tao Wang,  A. Warshel,  
 C. F. Williams,  Q. Wu,  X. Xu,  W. Zhang

 Please cite Q-Chem as follows:
 Y. Shao et al., Mol. Phys. 113, 184-215 (2015)
 DOI: 10.1080/00268976.2014.952696

 Q-Chem 5.2.0 for Intel X86 EM64T Linux

 Parts of Q-Chem use Armadillo 8.300.2 (Tropical Shenanigans).
 http://arma.sourceforge.net/

 Q-Chem begins on Sun Sep 26 12:08:53 2021  

Host: cori01
0

     Scratch files written to /tmp/qchem30749//
 May1019 |scratch|qcdevops|jenkins|workspace|build_RNUM -1
Processing $rem in /global/common/cori/software/qchem/5.2/config/preferences:
	 MEM_TOTAL  96000 
NAlpha2: 102
NElect   102
Mult     1
Symmetry turned off for PCM/SM12/SMD calculation

 Q-Chem warning in module libgen/rem_setup.C, line 2803:

 Neither GIA nor STOLL is specified by user. Use STOLL as the default


Checking the input file for inconsistencies... 	...done.

--------------------------------------------------------------
User input:
--------------------------------------------------------------
$comment
SSI-086ASP-092TRP-1.pdb
$end

$molecule
-1 1
--
-1 1
C    2.071746311962   -3.533971443846   -0.017360310757
C    3.038746311962   -2.472971443846    0.489639689243
O    4.178746311962   -2.788971443846    0.850639689243
O    2.673746311962   -1.290971443846    0.508639689243
H    2.224746311962   -3.637971443846   -1.092360310757
H    1.048746311962   -3.193971443846    0.139639689243
H    2.226256311962   -4.518814143846    0.447619689243
--
0 1
C    1.200746311962    2.166028556154    0.797639689243
C    0.399746311962    0.059028556154   -0.342360310757
C    0.195746311962    1.277028556154    0.205639689243
C   -1.746253688038    0.391028556154   -0.545360310757
C   -1.200253688038    1.557028556154    0.076639689243
C   -3.037253688038    0.097028556154   -0.902360310757
C   -2.054253688038    2.611028556154    0.390639689243
C   -3.655253688038    1.222028556154   -0.778360310757
C   -3.277253688038    2.479028556154   -0.099360310757
N   -0.733253688038   -0.470971443846   -0.762360310757
H    1.343746311962   -0.273971443846   -0.692360310757
H   -0.801253688038   -1.341971443846   -1.270360310757
H    1.613746311962    1.700028556154    1.693639689243
H    0.692746311962    3.083028556154    1.098639689243
H   -3.349253688038   -0.751971443846   -1.477360310757
H   -1.690253688038    3.542028556154    0.800639689243
H   -4.070253688038    1.233028556154   -1.756360310757
H   -3.794253688038    3.371028556154   -0.323360310757
H    2.003506311962    2.402523556154    0.083749689243
$end

$rem
JOBTYPE			EDA
EDA2			1
method			wB97X-V
BASIS			def2-TZVPD
XC_GRID			000099000590
NL_GRID			1
UNRESTRICTED		FALSE
MAX_SCF_CYCLES		200
SYMMETRY		FALSE
SYM_IGNORE		TRUE
MEM_STATIC		2000
BASIS_LIN_DEP_THRESH 	6
THRESH 			14
SCF_CONVERGENCE 	8
SCF_PRINT_FRGM 		TRUE
SOLVENT_METHOD          PCM
$end

$PCM
THEORY                  CPCM
METHOD                  SWIG
SOLVER                  INVERSION
RADII                   UFF
HPOINTS                 302
HEAVYPOINTS             302
PRINTLEVEL              0
$END

$SOLVENT
DIELECTRIC              78.390000 ! water
$END
--------------------------------------------------------------
 ----------------------------------------------------------------
             Standard Nuclear Orientation (Angstroms)
    I     Atom           X                Y                Z
 ----------------------------------------------------------------
    1      C       2.0717463120    -3.5339714438    -0.0173603108
    2      C       3.0387463120    -2.4729714438     0.4896396892
    3      O       4.1787463120    -2.7889714438     0.8506396892
    4      O       2.6737463120    -1.2909714438     0.5086396892
    5      H       2.2247463120    -3.6379714438    -1.0923603108
    6      H       1.0487463120    -3.1939714438     0.1396396892
    7      H       2.2262563120    -4.5188141438     0.4476196892
    8      C       1.2007463120     2.1660285562     0.7976396892
    9      C       0.3997463120     0.0590285562    -0.3423603108
   10      C       0.1957463120     1.2770285562     0.2056396892
   11      C      -1.7462536880     0.3910285562    -0.5453603108
   12      C      -1.2002536880     1.5570285562     0.0766396892
   13      C      -3.0372536880     0.0970285562    -0.9023603108
   14      C      -2.0542536880     2.6110285562     0.3906396892
   15      C      -3.6552536880     1.2220285562    -0.7783603108
   16      C      -3.2772536880     2.4790285562    -0.0993603108
   17      N      -0.7332536880    -0.4709714438    -0.7623603108
   18      H       1.3437463120    -0.2739714438    -0.6923603108
   19      H      -0.8012536880    -1.3419714438    -1.2703603108
   20      H       1.6137463120     1.7000285562     1.6936396892
   21      H       0.6927463120     3.0830285562     1.0986396892
   22      H      -3.3492536880    -0.7519714438    -1.4773603108
   23      H      -1.6902536880     3.5420285562     0.8006396892
   24      H      -4.0702536880     1.2330285562    -1.7563603108
   25      H      -3.7942536880     3.3710285562    -0.3233603108
   26      H       2.0035063120     2.4025235562     0.0837496892
 ----------------------------------------------------------------
 Nuclear Repulsion Energy =         817.26231453 hartrees
 There are       51 alpha and       51 beta electrons
 Requested basis set is def2-TZVPD
 There are 244 shells and 632 basis functions

 Total QAlloc Memory Limit  96000 MB
 Mega-Array Size      1956 MB
 MEM_STATIC part      2000 MB
 Discretize the solute cavity surface with Lebedev spheres
	Using 302 Lebedev grid points for each H atom
	Using 302 Lebedev grid points for other atoms
	Atomic van der Waals radii will be scaled by 1.20
 Remove points where switching function is < 1.0e-08
 Keep 2902 surface tesserae and discard 4950 interior tesserae
 Molecular Surface Area = 296.116 Angst**2
 A cutoff of  1.0D-14 yielded  25431 shell pairs
 There are    170963 function pairs (    217865 Cartesian)
 Smallest overlap matrix eigenvalue = 3.20E-07
 Linear dependence detected in AO basis
 Tighter screening thresholds may be required for diffuse basis sets
 Use S2THRESH > 14 and THRESH = 14 in case of SCF convergence issues
 Number of orthogonalized atomic orbitals = 629
 Maximum deviation from orthogonality = 1.343E-10

 Scale SEOQF with 1.000000e-01/1.000000e-01/1.000000e-01

 Standard Electronic Orientation quadrupole field applied
 Nucleus-field energy     =     0.0000000471 hartrees

 -----------------------------------------------------------------------
  General SCF calculation program by
  Eric Jon Sundstrom, Paul Horn, Yuezhi Mao, Dmitri Zuev, Alec White,
  David Stuck, Shaama M.S., Shane Yost, Joonho Lee, David Small,
  Daniel Levine, Susi Lehtola, Hugh Burton, Evgeny Epifanovsky
 -----------------------------------------------------------------------
================================================================
                 ALMO-EDA with the EDA2 driver                  
================================================================
 The second-generation ALMO-EDA (for DFT):                      
 P. R. Horn, Y. Mao and M. Head-Gordon, PCCP, 18, 23067 (2016)  
 Decomposition of the frozen energy:                            
 P. R. Horn, Y. Mao and M. Head-Gordon, JCP, 144, 114107 (2016) 
 FERF model for polarization:                                   
 P. R. Horn and M. Head-Gordon, JCP, 143, 114111 (2015)         
Using eda2 option set 1
Option set summary: Frozen orbital wavefunction, initial wavefunction decomposition, and nDQ polarization.
--------------------------------
Printing EDA Options
--------------------------------
eda_child_super_basis      0
fragmo_guess_mode          0
child_mp                   1
child_mp_orders            232
cls_elec                   1
cls_disp                   0
scfmi_mode                 1
scfmi_occs                 0
scfmi_virts                0
frz_relax                  0
frz_relax_method           0
dc_pen_start               0
dc_pen_conv                0
dc_pen_increment           0
dc_pen_steps               0
dc_pen_thresh_factor       0
dc_pen_pre_newton_thresh   0
frz_ortho_decomp           1
frz_ortho_decomp_conv      6
frgm_method                2
scfmi_freeze_ss            0
separate_rehyb             0
plot_diff_den              0
eda_nocv                   0
eda_vct_relax              1
disp_free_x                0
disp_free_c                0
eda_bsse                   0
eda_pct_a                  0
eda_covp                   0
--------------------------------
Attempting to make child job directory: /tmp/qchem30749//Frg1/
Attempting to make child job directory: /tmp/qchem30749//Frg2/
Creating input file /tmp/qchem30749/Frg1.input
using default PutDataFrgm: nothing
calling putenv with: QCSCRATCH=/tmp/qchem30749/ 
calling putenv with: QCLOCALSCR=/tmp/qchem30749/ 
Spawning Job For Fragment 0
                  Welcome to Q-Chem
     A Quantum Leap Into The Future Of Chemistry


 Q-Chem 5.2, Q-Chem, Inc., Pleasanton, CA (2019)

 License issued to: National Energy Research Scientific Computing Center

 Yihan Shao,  Zhengting Gan,  E. Epifanovsky,  A. T. B. Gilbert,  M. Wormit,  
 J. Kussmann,  A. W. Lange,  A. Behn,  Jia Deng,  Xintian Feng,  D. Ghosh,  
 M. Goldey,  P. R. Horn,  L. D. Jacobson,  I. Kaliman,  T. Kus,  A. Landau,  
 Jie Liu,  E. I. Proynov,  R. M. Richard,  R. P. Steele,  E. J. Sundstrom,  
 H. L. Woodcock III,  P. M. Zimmerman,  D. Zuev,  B. Albrecht,  E. Alguire,  
 S. A. Baeppler,  D. Barton,  Z. Benda,  Y. A. Bernard,  E. J. Berquist,  
 K. B. Bravaya,  H. Burton,  D. Casanova,  Chun-Min Chang,  Yunqing Chen,  
 A. Chien,  K. D. Closser,  M. P. Coons,  S. Coriani,  S. Dasgupta,  
 A. L. Dempwolff,  M. Diedenhofen,  Hainam Do,  R. G. Edgar,  Po-Tung Fang,  
 S. Faraji,  S. Fatehi,  Qingguo Feng,  K. D. Fenk,  J. Fosso-Tande,  
 J. Gayvert,  Qinghui Ge,  A. Ghysels,  G. Gidofalvi,  J. Gomes,  
 J. Gonthier,  A. Gunina,  D. Hait,  M. W. D. Hanson-Heine,  
 P. H. P. Harbach,  A. W. Hauser,  M. F. Herbst,  J. E. Herr,  
 E. G. Hohenstein,  Z. C. Holden,  Kerwin Hui,  B. C. Huynh,  T.-C. Jagau,  
 Hyunjun Ji,  B. Kaduk,  K. Khistyaev,  Jaehoon Kim,  P. Klunzinger,  K. Koh,  
 D. Kosenkov,  L. Koulias,  T. Kowalczyk,  C. M. Krauter,  A. Kunitsa,  
 Ka Un Lao,  A. Laurent,  K. V. Lawler,  Joonho Lee,  D. Lefrancois,  
 S. Lehtola,  D. S. Levine,  Yi-Pei Li,  You-Sheng Lin,  Fenglai Liu,  
 E. Livshits,  A. Luenser,  P. Manohar,  E. Mansoor,  S. F. Manzer,  
 Shan-Ping Mao,  Yuezhi Mao,  N. Mardirossian,  A. V. Marenich,  
 T. Markovich,  L. A. Martinez-Martinez,  S. A. Maurer,  N. J. Mayhall,  
 S. C. McKenzie,  J.-M. Mewes,  P. Morgante,  A. F. Morrison,  
 J. W. Mullinax,  K. Nanda,  T. S. Nguyen-Beck,  R. Olivares-Amaya,  
 J. A. Parkhill,  Zheng Pei,  T. M. Perrine,  F. Plasser,  P. Pokhilko,  
 S. Prager,  A. Prociuk,  E. Ramos,  D. R. Rehn,  F. Rob,  M. Scheurer,  
 M. Schneider,  N. Sergueev,  S. M. Sharada,  S. Sharma,  D. W. Small,  
 T. Stauch,  T. Stein,  Yu-Chuan Su,  A. J. W. Thom,  A. Tkatchenko,  
 T. Tsuchimochi,  N. M. Tubman,  L. Vogt,  M. L. Vidal,  O. Vydrov,  
 M. A. Watson,  J. Wenzel,  M. de Wergifosse,  T. A. Wesolowski,  A. White,  
 J. Witte,  A. Yamada,  Jun Yang,  K. Yao,  S. Yeganeh,  S. R. Yost,  
 Zhi-Qiang You,  A. Zech,  Igor Ying Zhang,  Xing Zhang,  Yan Zhao,  
 Ying Zhu,  B. R. Brooks,  G. K. L. Chan,  C. J. Cramer,  M. S. Gordon,  
 W. J. Hehre,  A. Klamt,  M. W. Schmidt,  C. D. Sherrill,  D. G. Truhlar,  
 A. Aspuru-Guzik,  R. Baer,  A. T. Bell,  N. A. Besley,  Jeng-Da Chai,  
 A. E. DePrince, III,  R. A. DiStasio Jr.,  A. Dreuw,  B. D. Dunietz,  
 T. R. Furlani,  Chao-Ping Hsu,  Yousung Jung,  Jing Kong,  D. S. Lambrecht,  
 WanZhen Liang,  C. Ochsenfeld,  V. A. Rassolov,  L. V. Slipchenko,  
 J. E. Subotnik,  T. Van Voorhis,  J. M. Herbert,  A. I. Krylov,  
 P. M. W. Gill,  M. Head-Gordon

 Contributors to earlier versions of Q-Chem not listed above: 
 R. D. Adamson,  B. Austin,  J. Baker,  G. J. O. Beran,  K. Brandhorst,  
 S. T. Brown,  E. F. C. Byrd,  A. K. Chakraborty,  C.-L. Cheng,  
 Siu Hung Chien,  D. M. Chipman,  D. L. Crittenden,  H. Dachsel,  
 R. J. Doerksen,  A. D. Dutoi,  L. Fusti-Molnar,  W. A. Goddard III,  
 A. Golubeva-Zadorozhnaya,  S. R. Gwaltney,  G. Hawkins,  A. Heyden,  
 S. Hirata,  G. Kedziora,  F. J. Keil,  C. Kelley,  Jihan Kim,  R. A. King,  
 R. Z. Khaliullin,  P. P. Korambath,  W. Kurlancheek,  A. M. Lee,  M. S. Lee,  
 S. V. Levchenko,  Ching Yeh Lin,  D. Liotard,  R. C. Lochan,  I. Lotan,  
 P. E. Maslen,  N. Nair,  D. P. O'Neill,  D. Neuhauser,  E. Neuscamman,  
 C. M. Oana,  R. Olson,  B. Peters,  R. Peverati,  P. A. Pieniazek,  
 Y. M. Rhee,  J. Ritchie,  M. A. Rohrdanz,  E. Rosta,  N. J. Russ,  
 H. F. Schaefer III,  N. E. Schultz,  N. Shenvi,  A. C. Simmonett,  A. Sodt,  
 D. Stuck,  K. S. Thanthiriwatte,  V. Vanovschi,  Tao Wang,  A. Warshel,  
 C. F. Williams,  Q. Wu,  X. Xu,  W. Zhang

 Please cite Q-Chem as follows:
 Y. Shao et al., Mol. Phys. 113, 184-215 (2015)
 DOI: 10.1080/00268976.2014.952696

 Q-Chem 5.2.0 for Intel X86 EM64T Linux

 Parts of Q-Chem use Armadillo 8.300.2 (Tropical Shenanigans).
 http://arma.sourceforge.net/

 Q-Chem begins on Sun Sep 26 12:09:00 2021  

Host: cori01
0

     Scratch files written to /tmp/qchem30749//Frg1//
 May1019 |scratch|qcdevops|jenkins|workspace|build_RNUM -1
Processing $rem in /global/common/cori/software/qchem/5.2/config/preferences:
	 MEM_TOTAL  96000 
NAlpha2: 32
NElect   32
Mult     1
Symmetry turned off for PCM/SM12/SMD calculation

Checking the input file for inconsistencies... 	...done.

--------------------------------------------------------------
User input:
--------------------------------------------------------------
$molecule
-1 1
 6	2.0717463120	-3.5339714438	-0.0173603108
 6	3.0387463120	-2.4729714438	0.4896396892
 8	4.1787463120	-2.7889714438	0.8506396892
 8	2.6737463120	-1.2909714438	0.5086396892
 1	2.2247463120	-3.6379714438	-1.0923603108
 1	1.0487463120	-3.1939714438	0.1396396892
 1	2.2262563120	-4.5188141438	0.4476196892
$end
$rem
EDA2		1
METHOD		WB97X-V
BASIS		DEF2-TZVPD
XC_GRID		000099000590
NL_GRID		1
UNRESTRICTED		FALSE
MAX_SCF_CYCLES		200
SYMMETRY		FALSE
SYM_IGNORE		TRUE
BASIS_LIN_DEP_THRESH		6
THRESH		14
SCF_CONVERGENCE		8
SCF_PRINT_FRGM		TRUE
SOLVENT_METHOD		PCM
!required keywords
JOBTYPE		SP
SYM_IGNORE		TRUE
SUBSYSTEM		TRUE
GEN_SCFMAN		TRUE
CHILD_INSTRUCTION		2
SYM_IGNORE		TRUE
SCFMI		0
RI_K 0		
PARI_K 0		
MIN_PARI_K 0		
IARI_K 0		
OCC_RI_K 0		
PURECART		1111
MEM_STATIC		2000
MEM_TOTAL		96000
GUI		0
CHILD_MP		1
CHILD_MP_ORDERS		232
FRZ_RELAX		0
FRZ_RELAX_METHOD		0
EDA_CLS_ELEC		1
EDA_CLS_DISP		0
FRZ_ORTHO_DECOMP		1
EDA2		FALSE
FRGM_METHOD		FALSE
CIS_N_ROOTS  0
LOCAL_CIS    0
CIS_RLX_DNS  1
$end
$pcm
THEORY                  CPCM
METHOD                  SWIG
SOLVER                  INVERSION
RADII                   UFF
HPOINTS                 302
HEAVYPOINTS             302
PRINTLEVEL              0
$end
$solvent
DIELECTRIC              78.390000 ! water
$end
--------------------------------------------------------------
 ----------------------------------------------------------------
             Standard Nuclear Orientation (Angstroms)
    I     Atom           X                Y                Z
 ----------------------------------------------------------------
    1      C       2.0717463120    -3.5339714438    -0.0173603108
    2      C       3.0387463120    -2.4729714438     0.4896396892
    3      O       4.1787463120    -2.7889714438     0.8506396892
    4      O       2.6737463120    -1.2909714438     0.5086396892
    5      H       2.2247463120    -3.6379714438    -1.0923603108
    6      H       1.0487463120    -3.1939714438     0.1396396892
    7      H       2.2262563120    -4.5188141438     0.4476196892
 ----------------------------------------------------------------
 Nuclear Repulsion Energy =         113.43278776 hartrees
 There are       16 alpha and       16 beta electrons
 Requested basis set is def2-TZVPD
 There are 69 shells and 181 basis functions

 Total QAlloc Memory Limit  96000 MB
 Mega-Array Size      1956 MB
 MEM_STATIC part      2000 MB
 Discretize the solute cavity surface with Lebedev spheres
	Using 302 Lebedev grid points for each H atom
	Using 302 Lebedev grid points for other atoms
	Atomic van der Waals radii will be scaled by 1.20
 Remove points where switching function is < 1.0e-08
 Keep 999 surface tesserae and discard 1115 interior tesserae
 Molecular Surface Area = 119.653 Angst**2

                       Distance Matrix (Angstroms)
             C (  1)   C (  2)   O (  3)   O (  4)   H (  5)   H (  6)
   C (  2)  1.522452
   O (  3)  2.397477  1.236842
   O (  4)  2.381203  1.237219  2.150812
   H (  5)  1.090802  2.126628  2.883430  2.876319
   H (  6)  1.089393  2.145330  3.235189  2.529465  1.760095
   H (  7)  1.099998  2.201676  2.639507  3.259285  1.774098  1.799052

 
 A cutoff of  1.0D-14 yielded   2394 shell pairs
 There are     16706 function pairs (     21504 Cartesian)
 Smallest overlap matrix eigenvalue = 1.66E-05

 Scale SEOQF with 1.000000e-01/1.000000e-01/1.000000e-01

 Standard Electronic Orientation quadrupole field applied
 Nucleus-field energy     =     0.0000000257 hartrees
 Guess from superposition of atomic densities
 Warning:  Energy on first SCF cycle will be non-variational
 SAD guess density has 30.625312 electrons

 -----------------------------------------------------------------------
  General SCF calculation program by
  Eric Jon Sundstrom, Paul Horn, Yuezhi Mao, Dmitri Zuev, Alec White,
  David Stuck, Shaama M.S., Shane Yost, Joonho Lee, David Small,
  Daniel Levine, Susi Lehtola, Hugh Burton, Evgeny Epifanovsky
 -----------------------------------------------------------------------
 Exchange:     0.1670 Hartree-Fock + 1.0000 wB97X-V + LR-HF
 Correlation:  1.0000 wB97X-V
 Using Euler-Maclaurin-Lebedev (99,590) quadrature formula
 Nonlocal Correlation:  VV10 with C = 0.0100 and b = 6.00 and scale = 1.00000
 Grid used for NLC:  SG-1 standard quadrature
Energy prior to optimization (guess energy) = -227.762913763038
Begin Timing: Total SCF Calculation
begin iterations for algorithm: DIIS         
the SCF tolerance is set to 1.00e-08
    1    -227.7629137630      1.66e-02     00000 
    2    -225.5763208157      2.56e-02     00000 
    3    -228.5739755444      4.13e-03     00000 
    4    -228.6334944577      1.37e-03     00000 
    5    -228.6395998154      1.91e-04     00000 
    6    -228.6398438056      7.33e-05     00000 
    7    -228.6398623483      4.70e-05     00000 
    8    -228.6398694112      1.52e-05     00000 
    9    -228.6398707724      3.00e-06     00000 
   10    -228.6398708830      4.13e-07     00000 
   11    -228.6398708857      1.66e-07     00000 
   12    -228.6398708860      5.69e-08     00000 
   13    -228.6398708861      1.93e-08     00000 
   14    -228.6398708861      2.92e-09     00000 Convergence criterion met
Timing for Total SCF: 303.00s (wall), 591.65s (cpu)

************** Final PCM Free Energy Summary **************
 G_electrostatic  =      -0.10225527 hartree =     -64.16614877 kcal/mol
 G_cavitation     =       0.00000000 hartree =       0.00000000 kcal/mol
 G_dispersion     =       0.00000000 hartree =       0.00000000 kcal/mol
 G_repulsion      =       0.00000000 hartree =       0.00000000 kcal/mol
 --------------------------------------------------
 Non-electrostatic Free Energy =       0.00000000 hartree =       0.00000000 kcal/mol
 Total                         =      -0.10225527 hartree =     -64.16614877 kcal/mol
 --------------------------------------------------
 SCF Energy (H0 + V/2)                       =    -228.63987089 
 Solute Internal Energy (H0)                 =    -228.53761562 
 Total Free Energy (H0 + V/2 + non-elec)     =    -228.63987089 hartree
                                             = -143473.68442924 kcal/mol
***********************************************************

E_pcm = -0.1022552674
Multipole orders to be included
        2
        3
computing dipole RHS
computing quadrupole RHS
total number of RHS in solve_reponses: 8
RHS batch sizes
        8
Beginning Block Conjugate Gradient Iterations. Batch Number: 0
computing hessian-vector products by finite difference
              1      6.42e-01     00000 Conjugate Gradient Iteration
computing hessian-vector products by finite difference
              2      2.41e-01     00000 Conjugate Gradient Iteration
computing hessian-vector products by finite difference
              3      6.31e-02     00000 Conjugate Gradient Iteration
computing hessian-vector products by finite difference
              4      1.61e-02     00000 Conjugate Gradient Iteration
computing hessian-vector products by finite difference
              5      2.76e-03     00000 Conjugate Gradient Iteration
computing hessian-vector products by finite difference
              6      6.10e-04     00000 Conjugate Gradient Iteration
computing hessian-vector products by finite difference
              7      9.88e-05     00000 Conjugate Gradient Iteration
computing hessian-vector products by finite difference
              8      1.19e-05     00000 Conjugate Gradient Iteration
computing hessian-vector products by finite difference
              9      1.84e-06     00000 Conjugate Gradient Iteration
computing hessian-vector products by finite difference
             10      2.27e-07     00000 Conjugate Gradient Iteration
computing hessian-vector products by finite difference
             11      3.59e-08     00000 Conjugate Gradient Iteration
computing hessian-vector products by finite difference
             12      9.18e-09     00000 CG Converged
batch 0 complete
Done Calculating Responses
TESTING ORTHOGONALIZATION OF MULTIPOLE BASIS
Multipole virts passed orthogonality test
Virts Per Order
        48
        80
 
 --------------------------------------------------------------
 
                    Orbital Energies (a.u.)
 --------------------------------------------------------------
 
 Alpha MOs
 -- Occupied --
-19.1173 -19.1169 -10.3193 -10.2398  -1.1395  -1.0317  -0.8296  -0.5904
 -0.5299  -0.5193  -0.5163  -0.4639  -0.4449  -0.3273  -0.3272  -0.3036
 -- Virtual --
  0.0635   0.0954   0.0955   0.1054   0.1301   0.1405   0.1425   0.1462
  0.1718   0.1922   0.2006   0.2196   0.2334   0.2357   0.2632   0.2702
  0.3010   0.3102   0.3342   0.3494   0.3569   0.3675   0.3722   0.3747
  0.3869   0.4085   0.4245   0.4306   0.4339   0.4595   0.4732   0.4774
  0.4924   0.4957   0.5031   0.5245   0.5618   0.5845   0.6062   0.6143
  0.6399   0.6470   0.6514   0.6604   0.6729   0.6818   0.6942   0.7150
  0.7232   0.7366   0.7917   0.7988   0.8118   0.8272   0.8551   0.8622
  0.8729   0.9854   0.9953   1.0054   1.0075   1.0416   1.0748   1.1059
  1.1518   1.2406   1.2538   1.2676   1.2993   1.3189   1.3582   1.3911
  1.4420   1.5576   1.6120   1.7418   1.8331   1.8706   1.8961   1.9252
  1.9363   1.9586   1.9641   1.9751   2.0203   2.1197   2.1309   2.1973
  2.2072   2.2306   2.3206   2.3400   2.4270   2.4665   2.4939   2.5128
  2.5632   2.6071   2.6461   2.6519   2.7999   2.8266   2.8569   2.9253
  2.9464   3.0520   3.1052   3.1497   3.2291   3.2404   3.2815   3.2882
  3.3518   3.3591   3.3920   3.4105   3.4347   3.5310   3.6022   3.6050
  3.6306   3.7072   3.7347   3.7602   3.7727   3.8526   3.9751   4.0619
  4.0892   4.2166   4.3519   4.5841   4.6156   4.6693   4.7842   4.8281
  4.9896   5.3357   5.3614   5.3731   5.3823   5.5026   5.7288   5.8331
  5.8596   6.0923   6.2500   6.3750   6.4064   6.6377   6.6509   6.7535
  6.7573   6.7731   6.9864   6.9972   7.0550   7.2779   7.3465   7.4246
  7.4344  22.5891  23.8291  44.2320  44.3995
 --------------------------------------------------------------
 
          Ground-State Mulliken Net Atomic Charges

     Atom                 Charge (a.u.)
  ----------------------------------------
      1 C                    -0.409752
      2 C                     0.288417
      3 O                    -0.673539
      4 O                    -0.672223
      5 H                     0.127930
      6 H                     0.163678
      7 H                     0.175489
  ----------------------------------------
  Sum of atomic charges =    -1.000000

 -----------------------------------------------------------------
                    Cartesian Multipole Moments
 -----------------------------------------------------------------
    Charge (ESU x 10^10)
                -4.8032
    Dipole Moment (Debye)
         X     -17.5119      Y       8.6424      Z      -3.8311
       Tot      19.9007
    Quadrupole Moments (Debye-Ang)
        XX     -94.4373     XY      36.6528     YY     -46.0618
        XZ     -15.0652     YZ       8.1350     ZZ     -28.6946
    Octopole Moments (Debye-Ang^2)
       XXX    -508.4872    XXY     227.1323    XYY    -169.3346
       YYY     257.5082    XXZ     -71.8680    XYZ      35.2387
       YYZ     -30.9751    XZZ     -87.5975    YZZ      73.0814
       ZZZ     -36.1757
    Hexadecapole Moments (Debye-Ang^3)
      XXXX   -2655.7071   XXXY    1283.7101   XXYY    -877.8073
      XYYY     845.9419   YYYY   -1365.6866   XXXZ    -368.7559
      XXYZ     175.5904   XYYZ    -131.6830   YYYZ     125.1941
      XXZZ    -310.2496   XYZZ     221.2018   YYZZ    -228.3494
      XZZZ    -130.3714   YZZZ      82.2170   ZZZZ     -83.3408
 -----------------------------------------------------------------
Archival summary:
1\1\nid00544\SP\ProcedureUnspecified\BasisUnspecified\223(1-,1)\meili\SunSep2613:32:062021SunSep2613:32:062021\0\\#,ProcedureUnspecified,BasisUnspecified,\\-1,1\C\O,1,1.23684\O,1,1.23722,2,120.765\C,1,1.52245,2,120.303,3,178.558,0\H,4,1.08939,1,109.327,2,154.641,0\H,4,1.0908,1,107.791,2,-88.5943,0\H,4,1.1,1,113.201,2,30.9764,0\\\@

 Total job time:  4986.88s(wall), 9764.91s(cpu) 
 Sun Sep 26 13:32:07 2021

        *************************************************************
        *                                                           *
        *  Thank you very much for using Q-Chem.  Have a nice day.  *
        *                                                           *
        *************************************************************


Done Job For Fragment 0
calling putenv with: QCSCRATCH=/global/cscratch1/sd/meili 
calling putenv with: QCLOCALSCR=/tmp 
calling putenv with: QCTHREADS=32 
Creating input file /tmp/qchem30749/Frg2.input
using default PutDataFrgm: nothing
calling putenv with: QCSCRATCH=/tmp/qchem30749/ 
calling putenv with: QCLOCALSCR=/tmp/qchem30749/ 
Spawning Job For Fragment 1
                  Welcome to Q-Chem
     A Quantum Leap Into The Future Of Chemistry


 Q-Chem 5.2, Q-Chem, Inc., Pleasanton, CA (2019)

 License issued to: National Energy Research Scientific Computing Center

 Yihan Shao,  Zhengting Gan,  E. Epifanovsky,  A. T. B. Gilbert,  M. Wormit,  
 J. Kussmann,  A. W. Lange,  A. Behn,  Jia Deng,  Xintian Feng,  D. Ghosh,  
 M. Goldey,  P. R. Horn,  L. D. Jacobson,  I. Kaliman,  T. Kus,  A. Landau,  
 Jie Liu,  E. I. Proynov,  R. M. Richard,  R. P. Steele,  E. J. Sundstrom,  
 H. L. Woodcock III,  P. M. Zimmerman,  D. Zuev,  B. Albrecht,  E. Alguire,  
 S. A. Baeppler,  D. Barton,  Z. Benda,  Y. A. Bernard,  E. J. Berquist,  
 K. B. Bravaya,  H. Burton,  D. Casanova,  Chun-Min Chang,  Yunqing Chen,  
 A. Chien,  K. D. Closser,  M. P. Coons,  S. Coriani,  S. Dasgupta,  
 A. L. Dempwolff,  M. Diedenhofen,  Hainam Do,  R. G. Edgar,  Po-Tung Fang,  
 S. Faraji,  S. Fatehi,  Qingguo Feng,  K. D. Fenk,  J. Fosso-Tande,  
 J. Gayvert,  Qinghui Ge,  A. Ghysels,  G. Gidofalvi,  J. Gomes,  
 J. Gonthier,  A. Gunina,  D. Hait,  M. W. D. Hanson-Heine,  
 P. H. P. Harbach,  A. W. Hauser,  M. F. Herbst,  J. E. Herr,  
 E. G. Hohenstein,  Z. C. Holden,  Kerwin Hui,  B. C. Huynh,  T.-C. Jagau,  
 Hyunjun Ji,  B. Kaduk,  K. Khistyaev,  Jaehoon Kim,  P. Klunzinger,  K. Koh,  
 D. Kosenkov,  L. Koulias,  T. Kowalczyk,  C. M. Krauter,  A. Kunitsa,  
 Ka Un Lao,  A. Laurent,  K. V. Lawler,  Joonho Lee,  D. Lefrancois,  
 S. Lehtola,  D. S. Levine,  Yi-Pei Li,  You-Sheng Lin,  Fenglai Liu,  
 E. Livshits,  A. Luenser,  P. Manohar,  E. Mansoor,  S. F. Manzer,  
 Shan-Ping Mao,  Yuezhi Mao,  N. Mardirossian,  A. V. Marenich,  
 T. Markovich,  L. A. Martinez-Martinez,  S. A. Maurer,  N. J. Mayhall,  
 S. C. McKenzie,  J.-M. Mewes,  P. Morgante,  A. F. Morrison,  
 J. W. Mullinax,  K. Nanda,  T. S. Nguyen-Beck,  R. Olivares-Amaya,  
 J. A. Parkhill,  Zheng Pei,  T. M. Perrine,  F. Plasser,  P. Pokhilko,  
 S. Prager,  A. Prociuk,  E. Ramos,  D. R. Rehn,  F. Rob,  M. Scheurer,  
 M. Schneider,  N. Sergueev,  S. M. Sharada,  S. Sharma,  D. W. Small,  
 T. Stauch,  T. Stein,  Yu-Chuan Su,  A. J. W. Thom,  A. Tkatchenko,  
 T. Tsuchimochi,  N. M. Tubman,  L. Vogt,  M. L. Vidal,  O. Vydrov,  
 M. A. Watson,  J. Wenzel,  M. de Wergifosse,  T. A. Wesolowski,  A. White,  
 J. Witte,  A. Yamada,  Jun Yang,  K. Yao,  S. Yeganeh,  S. R. Yost,  
 Zhi-Qiang You,  A. Zech,  Igor Ying Zhang,  Xing Zhang,  Yan Zhao,  
 Ying Zhu,  B. R. Brooks,  G. K. L. Chan,  C. J. Cramer,  M. S. Gordon,  
 W. J. Hehre,  A. Klamt,  M. W. Schmidt,  C. D. Sherrill,  D. G. Truhlar,  
 A. Aspuru-Guzik,  R. Baer,  A. T. Bell,  N. A. Besley,  Jeng-Da Chai,  
 A. E. DePrince, III,  R. A. DiStasio Jr.,  A. Dreuw,  B. D. Dunietz,  
 T. R. Furlani,  Chao-Ping Hsu,  Yousung Jung,  Jing Kong,  D. S. Lambrecht,  
 WanZhen Liang,  C. Ochsenfeld,  V. A. Rassolov,  L. V. Slipchenko,  
 J. E. Subotnik,  T. Van Voorhis,  J. M. Herbert,  A. I. Krylov,  
 P. M. W. Gill,  M. Head-Gordon

 Contributors to earlier versions of Q-Chem not listed above: 
 R. D. Adamson,  B. Austin,  J. Baker,  G. J. O. Beran,  K. Brandhorst,  
 S. T. Brown,  E. F. C. Byrd,  A. K. Chakraborty,  C.-L. Cheng,  
 Siu Hung Chien,  D. M. Chipman,  D. L. Crittenden,  H. Dachsel,  
 R. J. Doerksen,  A. D. Dutoi,  L. Fusti-Molnar,  W. A. Goddard III,  
 A. Golubeva-Zadorozhnaya,  S. R. Gwaltney,  G. Hawkins,  A. Heyden,  
 S. Hirata,  G. Kedziora,  F. J. Keil,  C. Kelley,  Jihan Kim,  R. A. King,  
 R. Z. Khaliullin,  P. P. Korambath,  W. Kurlancheek,  A. M. Lee,  M. S. Lee,  
 S. V. Levchenko,  Ching Yeh Lin,  D. Liotard,  R. C. Lochan,  I. Lotan,  
 P. E. Maslen,  N. Nair,  D. P. O'Neill,  D. Neuhauser,  E. Neuscamman,  
 C. M. Oana,  R. Olson,  B. Peters,  R. Peverati,  P. A. Pieniazek,  
 Y. M. Rhee,  J. Ritchie,  M. A. Rohrdanz,  E. Rosta,  N. J. Russ,  
 H. F. Schaefer III,  N. E. Schultz,  N. Shenvi,  A. C. Simmonett,  A. Sodt,  
 D. Stuck,  K. S. Thanthiriwatte,  V. Vanovschi,  Tao Wang,  A. Warshel,  
 C. F. Williams,  Q. Wu,  X. Xu,  W. Zhang

 Please cite Q-Chem as follows:
 Y. Shao et al., Mol. Phys. 113, 184-215 (2015)
 DOI: 10.1080/00268976.2014.952696

 Q-Chem 5.2.0 for Intel X86 EM64T Linux

 Parts of Q-Chem use Armadillo 8.300.2 (Tropical Shenanigans).
 http://arma.sourceforge.net/

 Q-Chem begins on Sun Sep 26 13:32:08 2021  

Host: cori01
0

     Scratch files written to /tmp/qchem30749//Frg2//
 May1019 |scratch|qcdevops|jenkins|workspace|build_RNUM -1
Processing $rem in /global/common/cori/software/qchem/5.2/config/preferences:
	 MEM_TOTAL  96000 
NAlpha2: 70
NElect   70
Mult     1
Symmetry turned off for PCM/SM12/SMD calculation

Checking the input file for inconsistencies... 	...done.

--------------------------------------------------------------
User input:
--------------------------------------------------------------
$molecule
0 1
 6	1.2007463120	2.1660285562	0.7976396892
 6	0.3997463120	0.0590285562	-0.3423603108
 6	0.1957463120	1.2770285562	0.2056396892
 6	-1.7462536880	0.3910285562	-0.5453603108
 6	-1.2002536880	1.5570285562	0.0766396892
 6	-3.0372536880	0.0970285562	-0.9023603108
 6	-2.0542536880	2.6110285562	0.3906396892
 6	-3.6552536880	1.2220285562	-0.7783603108
 6	-3.2772536880	2.4790285562	-0.0993603108
 7	-0.7332536880	-0.4709714438	-0.7623603108
 1	1.3437463120	-0.2739714438	-0.6923603108
 1	-0.8012536880	-1.3419714438	-1.2703603108
 1	1.6137463120	1.7000285562	1.6936396892
 1	0.6927463120	3.0830285562	1.0986396892
 1	-3.3492536880	-0.7519714438	-1.4773603108
 1	-1.6902536880	3.5420285562	0.8006396892
 1	-4.0702536880	1.2330285562	-1.7563603108
 1	-3.7942536880	3.3710285562	-0.3233603108
 1	2.0035063120	2.4025235562	0.0837496892
$end
$rem
EDA2		1
METHOD		WB97X-V
BASIS		DEF2-TZVPD
XC_GRID		000099000590
NL_GRID		1
UNRESTRICTED		FALSE
MAX_SCF_CYCLES		200
SYMMETRY		FALSE
SYM_IGNORE		TRUE
BASIS_LIN_DEP_THRESH		6
THRESH		14
SCF_CONVERGENCE		8
SCF_PRINT_FRGM		TRUE
SOLVENT_METHOD		PCM
!required keywords
JOBTYPE		SP
SYM_IGNORE		TRUE
SUBSYSTEM		TRUE
GEN_SCFMAN		TRUE
CHILD_INSTRUCTION		2
SYM_IGNORE		TRUE
SCFMI		0
RI_K 0		
PARI_K 0		
MIN_PARI_K 0		
IARI_K 0		
OCC_RI_K 0		
PURECART		1111
MEM_STATIC		2000
MEM_TOTAL		96000
GUI		0
CHILD_MP		1
CHILD_MP_ORDERS		232
FRZ_RELAX		0
FRZ_RELAX_METHOD		0
EDA_CLS_ELEC		1
EDA_CLS_DISP		0
FRZ_ORTHO_DECOMP		1
EDA2		FALSE
FRGM_METHOD		FALSE
CIS_N_ROOTS  0
LOCAL_CIS    0
CIS_RLX_DNS  1
$end
$pcm
THEORY                  CPCM
METHOD                  SWIG
SOLVER                  INVERSION
RADII                   UFF
HPOINTS                 302
HEAVYPOINTS             302
PRINTLEVEL              0
$end
$solvent
DIELECTRIC              78.390000 ! water
$end
--------------------------------------------------------------
 ----------------------------------------------------------------
             Standard Nuclear Orientation (Angstroms)
    I     Atom           X                Y                Z
 ----------------------------------------------------------------
    1      C       1.2007463120     2.1660285562     0.7976396892
    2      C       0.3997463120     0.0590285562    -0.3423603108
    3      C       0.1957463120     1.2770285562     0.2056396892
    4      C      -1.7462536880     0.3910285562    -0.5453603108
    5      C      -1.2002536880     1.5570285562     0.0766396892
    6      C      -3.0372536880     0.0970285562    -0.9023603108
    7      C      -2.0542536880     2.6110285562     0.3906396892
    8      C      -3.6552536880     1.2220285562    -0.7783603108
    9      C      -3.2772536880     2.4790285562    -0.0993603108
   10      N      -0.7332536880    -0.4709714438    -0.7623603108
   11      H       1.3437463120    -0.2739714438    -0.6923603108
   12      H      -0.8012536880    -1.3419714438    -1.2703603108
   13      H       1.6137463120     1.7000285562     1.6936396892
   14      H       0.6927463120     3.0830285562     1.0986396892
   15      H      -3.3492536880    -0.7519714438    -1.4773603108
   16      H      -1.6902536880     3.5420285562     0.8006396892
   17      H      -4.0702536880     1.2330285562    -1.7563603108
   18      H      -3.7942536880     3.3710285562    -0.3233603108
   19      H       2.0035063120     2.4025235562     0.0837496892
 ----------------------------------------------------------------
 Nuclear Repulsion Energy =         495.11440653 hartrees
 There are       35 alpha and       35 beta electrons
 Requested basis set is def2-TZVPD
 There are 175 shells and 451 basis functions

 Total QAlloc Memory Limit  96000 MB
 Mega-Array Size      1956 MB
 MEM_STATIC part      2000 MB
 Discretize the solute cavity surface with Lebedev spheres
	Using 302 Lebedev grid points for each H atom
	Using 302 Lebedev grid points for other atoms
	Atomic van der Waals radii will be scaled by 1.20
 Remove points where switching function is < 1.0e-08
 Keep 2125 surface tesserae and discard 3613 interior tesserae
 Molecular Surface Area = 210.787 Angst**2
 A cutoff of  1.0D-14 yielded  14565 shell pairs
 There are     98899 function pairs (    127272 Cartesian)
 Smallest overlap matrix eigenvalue = 5.17E-07
 Linear dependence detected in AO basis
 Tighter screening thresholds may be required for diffuse basis sets
 Use S2THRESH > 14 and THRESH = 14 in case of SCF convergence issues
 Number of orthogonalized atomic orbitals = 448
 Maximum deviation from orthogonality = 8.808E-11

 Scale SEOQF with 1.000000e-01/1.000000e-01/1.000000e-01

 Standard Electronic Orientation quadrupole field applied
 Nucleus-field energy     =     0.0000000214 hartrees
 Guess from superposition of atomic densities
 Warning:  Energy on first SCF cycle will be non-variational
 SAD guess density has 69.692991 electrons

 -----------------------------------------------------------------------
  General SCF calculation program by
  Eric Jon Sundstrom, Paul Horn, Yuezhi Mao, Dmitri Zuev, Alec White,
  David Stuck, Shaama M.S., Shane Yost, Joonho Lee, David Small,
  Daniel Levine, Susi Lehtola, Hugh Burton, Evgeny Epifanovsky
 -----------------------------------------------------------------------
 Exchange:     0.1670 Hartree-Fock + 1.0000 wB97X-V + LR-HF
 Correlation:  1.0000 wB97X-V
 Using Euler-Maclaurin-Lebedev (99,590) quadrature formula
 Nonlocal Correlation:  VV10 with C = 0.0100 and b = 6.00 and scale = 1.00000
 Grid used for NLC:  SG-1 standard quadrature
Energy prior to optimization (guess energy) = -402.798084794353
Begin Timing: Total SCF Calculation
begin iterations for algorithm: DIIS         
the SCF tolerance is set to 1.00e-08
    1    -402.7980847944      3.45e-03     00000 
    2    -402.8428257995      3.19e-03     00000 
    3    -403.0584955468      3.94e-04     00000 
    4    -403.0620952846      1.61e-04     00000 
    5    -403.0628163642      3.09e-05     00000 
    6    -403.0628543990      1.59e-05     00000 
    7    -403.0628655440      3.92e-06     00000 
    8    -403.0628676781      2.23e-06     00000 
    9    -403.0628681095      9.13e-07     00000 
   10    -403.0628682551      3.22e-07     00000 
   11    -403.0628682732      1.19e-07     00000 
   12    -403.0628682748      5.58e-08     00000 
   13    -403.0628682750      1.22e-08     00000 
   14    -403.0628682751      4.66e-09     00000 Convergence criterion met
Timing for Total SCF: 4526.00s (wall), 8997.15s (cpu)

************** Final PCM Free Energy Summary **************
 G_electrostatic  =      -0.00708172 hartree =      -4.44384745 kcal/mol
 G_cavitation     =       0.00000000 hartree =       0.00000000 kcal/mol
 G_dispersion     =       0.00000000 hartree =       0.00000000 kcal/mol
 G_repulsion      =       0.00000000 hartree =       0.00000000 kcal/mol
 --------------------------------------------------
 Non-electrostatic Free Energy =       0.00000000 hartree =       0.00000000 kcal/mol
 Total                         =      -0.00708172 hartree =      -4.44384745 kcal/mol
 --------------------------------------------------
 SCF Energy (H0 + V/2)                       =    -403.06286828 
 Solute Internal Energy (H0)                 =    -403.05578655 
 Total Free Energy (H0 + V/2 + non-elec)     =    -403.06286828 hartree
                                             = -252925.76725103 kcal/mol
***********************************************************

E_pcm = -0.0070817217
Multipole orders to be included
        2
        3
computing dipole RHS
computing quadrupole RHS
total number of RHS in solve_reponses: 8
RHS batch sizes
        8
Beginning Block Conjugate Gradient Iterations. Batch Number: 0
computing hessian-vector products by finite difference
              1      6.27e-01     00000 Conjugate Gradient Iteration
computing hessian-vector products by finite difference
              2      2.25e-01     00000 Conjugate Gradient Iteration
computing hessian-vector products by finite difference
              3      7.14e-02     00000 Conjugate Gradient Iteration
computing hessian-vector products by finite difference
              4      2.63e-02     00000 Conjugate Gradient Iteration
computing hessian-vector products by finite difference
              5      1.11e-02     00000 Conjugate Gradient Iteration
computing hessian-vector products by finite difference
              6      3.53e-03     00000 Conjugate Gradient Iteration
computing hessian-vector products by finite difference
              7      1.02e-03     00000 Conjugate Gradient Iteration
computing hessian-vector products by finite difference
              8      1.84e-04     00000 Conjugate Gradient Iteration
computing hessian-vector products by finite difference
              9      3.28e-05     00000 Conjugate Gradient Iteration
computing hessian-vector products by finite difference
             10      6.86e-06     00000 Conjugate Gradient Iteration
computing hessian-vector products by finite difference
             11      1.22e-06     00000 Conjugate Gradient Iteration
computing hessian-vector products by finite difference
             12      1.81e-07     00000 Conjugate Gradient Iteration
computing hessian-vector products by finite difference
             13      3.84e-08     00000 Conjugate Gradient Iteration
computing hessian-vector products by finite difference
             14      7.51e-09     00000 CG Converged
batch 0 complete
Done Calculating Responses
TESTING ORTHOGONALIZATION OF MULTIPOLE BASIS
Multipole virts passed orthogonality test
Virts Per Order
          105
          175
 
 --------------------------------------------------------------
 
                    Orbital Energies (a.u.)
 --------------------------------------------------------------
 
 Alpha MOs
 -- Occupied --
-14.4424 -10.2953 -10.2760 -10.2678 -10.2640 -10.2627 -10.2601 -10.2571
-10.2546 -10.2518  -1.1327  -0.9999  -0.9448  -0.8957  -0.8541  -0.8215
 -0.7432  -0.7141  -0.6871  -0.6613  -0.5992  -0.5841  -0.5738  -0.5609
 -0.5460  -0.5193  -0.5132  -0.4991  -0.4838  -0.4575  -0.4434  -0.4216
 -0.3717  -0.3092  -0.2810
 -- Virtual --
  0.0521   0.0628   0.0760   0.0764   0.0827   0.0986   0.1027   0.1068
  0.1188   0.1283   0.1325   0.1443   0.1553   0.1616   0.1632   0.1704
  0.1835   0.1858   0.1920   0.2033   0.2150   0.2251   0.2293   0.2353
  0.2431   0.2478   0.2549   0.2618   0.2687   0.2708   0.2745   0.2810
  0.2837   0.2870   0.2962   0.2986   0.3000   0.3082   0.3118   0.3158
  0.3232   0.3263   0.3348   0.3399   0.3446   0.3486   0.3520   0.3575
  0.3596   0.3633   0.3699   0.3770   0.3841   0.3860   0.3948   0.3977
  0.4006   0.4033   0.4084   0.4153   0.4219   0.4245   0.4283   0.4370
  0.4415   0.4436   0.4477   0.4612   0.4662   0.4697   0.4785   0.4878
  0.4899   0.4983   0.5003   0.5023   0.5078   0.5109   0.5184   0.5242
  0.5319   0.5370   0.5415   0.5454   0.5465   0.5541   0.5624   0.5691
  0.5722   0.5783   0.5862   0.5880   0.6000   0.6066   0.6114   0.6208
  0.6306   0.6376   0.6463   0.6495   0.6606   0.6655   0.6769   0.6809
  0.6881   0.6938   0.7062   0.7094   0.7156   0.7242   0.7288   0.7300
  0.7359   0.7400   0.7425   0.7517   0.7595   0.7645   0.7694   0.7720
  0.7826   0.7831   0.7877   0.7976   0.8048   0.8080   0.8112   0.8177
  0.8231   0.8254   0.8368   0.8412   0.8475   0.8514   0.8556   0.8618
  0.8705   0.8886   0.8924   0.8977   0.9068   0.9190   0.9287   0.9397
  0.9498   0.9594   0.9627   0.9749   0.9882   0.9948   1.0065   1.0203
  1.0267   1.0328   1.0477   1.0582   1.0700   1.0820   1.1040   1.1099
  1.1234   1.1334   1.1538   1.1609   1.1638   1.2098   1.2189   1.2283
  1.2361   1.2639   1.2806   1.3189   1.3262   1.3451   1.3610   1.3649
  1.3939   1.4050   1.4097   1.4307   1.4456   1.4466   1.4658   1.4792
  1.5011   1.5301   1.5501   1.5519   1.5734   1.5812   1.6117   1.6275
  1.6359   1.6708   1.6747   1.6930   1.7080   1.7307   1.7536   1.7614
  1.7840   1.7986   1.8245   1.8425   1.8641   1.8872   1.8973   1.9099
  1.9115   1.9364   1.9397   1.9625   1.9708   1.9811   1.9860   2.0079
  2.0155   2.0326   2.0487   2.0586   2.0703   2.0785   2.0987   2.1018
  2.1355   2.1468   2.1547   2.1642   2.2084   2.2178   2.2301   2.2356
  2.2625   2.2822   2.2876   2.3114   2.3191   2.3246   2.3546   2.3750
  2.3920   2.4321   2.4582   2.4712   2.4838   2.5084   2.5137   2.5338
  2.5491   2.5731   2.6000   2.6101   2.6249   2.6289   2.6424   2.6476
  2.6806   2.6968   2.7251   2.7336   2.7678   2.7697   2.7898   2.8073
  2.8260   2.8531   2.8581   2.8852   2.8962   2.8979   2.9209   2.9295
  2.9399   2.9685   2.9785   2.9877   2.9955   3.0042   3.0361   3.0406
  3.0567   3.0722   3.0881   3.1108   3.1215   3.1241   3.1643   3.1657
  3.1899   3.1968   3.2091   3.2270   3.2342   3.2634   3.2692   3.2843
  3.2863   3.2973   3.3088   3.3362   3.3577   3.3614   3.3781   3.3852
  3.4086   3.4263   3.4357   3.4411   3.4491   3.4617   3.4775   3.5064
  3.5163   3.5184   3.5280   3.5402   3.5456   3.5618   3.5704   3.5842
  3.5899   3.6179   3.6312   3.6503   3.6614   3.6695   3.6851   3.7001
  3.7271   3.7426   3.7482   3.7630   3.7967   3.8235   3.8429   3.8654
  3.8807   3.9023   3.9140   3.9418   3.9541   3.9860   4.0147   4.0476
  4.0831   4.0917   4.1201   4.1395   4.1807   4.2029   4.2244   4.2481
  4.2620   4.2934   4.3071   4.3327   4.3890   4.4162   4.4284   4.4392
  4.4772   4.5046   4.5369   4.5533   4.5700   4.6053   4.6174   4.6410
  4.6969   4.7159   4.7589   4.8017   4.8216   4.8431   4.9022   4.9230
  4.9552   4.9971   5.0164   5.0420   5.0617   5.0866   5.0961   5.1028
  5.1537   5.1938   5.2265   5.2630   5.3214   5.3548   5.4208   5.4552
  5.4895   5.5298   5.6045   5.6435   5.7069   5.7595   5.8232   5.9055
  6.0025   6.2587   6.3668  22.7189  22.8079  22.8678  23.0521  23.2084
 23.3539  23.3981  23.5644  23.7792  32.8621
 --------------------------------------------------------------
 
          Ground-State Mulliken Net Atomic Charges

     Atom                 Charge (a.u.)
  ----------------------------------------
      1 C                    -0.956346
      2 C                    -0.524400
      3 C                     0.496258
      4 C                     0.277578
      5 C                     0.643654
      6 C                    -0.857761
      7 C                    -0.467765
      8 C                    -0.254448
      9 C                    -0.647021
     10 N                     0.115086
     11 H                     0.258336
     12 H                     0.197502
     13 H                     0.214267
     14 H                     0.228942
     15 H                     0.275592
     16 H                     0.290462
     17 H                     0.189265
     18 H                     0.294813
     19 H                     0.225986
  ----------------------------------------
  Sum of atomic charges =     0.000000

 -----------------------------------------------------------------
                    Cartesian Multipole Moments
 -----------------------------------------------------------------
    Charge (ESU x 10^10)
                -0.0000
    Dipole Moment (Debye)
         X       1.9630      Y      -2.0232      Z      -2.2778
       Tot       3.6242
    Quadrupole Moments (Debye-Ang)
        XX     -67.2342     XY       4.6383     YY     -54.2753
        XZ       4.7912     YZ       3.9590     ZZ     -57.7632
    Octopole Moments (Debye-Ang^2)
       XXX     289.8763    XXY     -87.8710    XYY      73.2604
       YYY    -197.7489    XXZ      -6.6982    XYZ      -2.1393
       YYZ      10.3978    XZZ      76.0646    YZZ     -76.6627
       ZZZ      28.1665
    Hexadecapole Moments (Debye-Ang^3)
      XXXX   -1988.5834   XXXY     384.8282   XXYY    -451.7167
      XYYY     272.5908   YYYY    -932.1984   XXXZ    -100.9205
      XXYZ     -21.4483   XYYZ     -44.3042   YYYZ     -29.3868
      XXZZ    -310.0672   XYZZ     112.9798   YYZZ    -205.2419
      XZZZ    -131.8602   YZZZ     -47.7197   ZZZZ    -215.1177
 -----------------------------------------------------------------
Archival summary:
1\1\nid00544\SP\ProcedureUnspecified\BasisUnspecified\199\meili\MonSep2712:03:122021MonSep2712:03:122021\0\\#,ProcedureUnspecified,BasisUnspecified,\\0,1\C\N,1,1.3477\H,2,1.01061,1,125.564\C,2,1.31947,1,109.71,3,173.015,0\H,4,1.06044,2,122.222,1,-158.952,0\C,4,1.35109,2,111.196,1,1.68866,0\C,1,1.37134,2,121.909,3,6.27768,0\H,7,1.07181,1,125.699,2,-8.00408,0\C,7,1.28954,1,103.833,2,-168.36,0\H,9,1.06246,7,96.1833,1,126.883,0\C,6,1.42964,4,106.702,2,-2.0426,0\C,11,1.39242,6,136.619,4,-178.288,0\H,12,1.08044,11,122.087,6,3.98262,0\C,12,1.3241,11,114.053,6,171.036,0\H,14,1.05505,12,116.544,11,-150.428,0\C,6,1.46656,4,127.353,2,179.095,0\H,16,1.09067,6,107.57,4,177.413,0\H,16,1.09112,6,109.389,4,-65.5366,0\H,16,1.1,6,111.62,4,56.938,0\\\@

 Total job time:  81066.07s(wall), 161184.68s(cpu) 
 Mon Sep 27 12:03:14 2021

        *************************************************************
        *                                                           *
        *  Thank you very much for using Q-Chem.  Have a nice day.  *
        *                                                           *
        *************************************************************


Done Job For Fragment 1
calling putenv with: QCSCRATCH=/global/cscratch1/sd/meili 
calling putenv with: QCLOCALSCR=/tmp 
calling putenv with: QCTHREADS=32 
Doing General SCFMI
 Exchange:     0.1670 Hartree-Fock + 1.0000 wB97X-V + LR-HF
 Correlation:  1.0000 wB97X-V
 Using Euler-Maclaurin-Lebedev (99,590) quadrature formula
 Nonlocal Correlation:  VV10 with C = 0.0100 and b = 6.00 and scale = 1.00000
 Grid used for NLC:  SG-1 standard quadrature
performing fock build before subrot guess so that all methods have access
Printing subrot_rss_gen Method Specification:
Occupied Subspace Method is 0
Virtual Subspace Method is 0
Energy of the unrelaxed supersystem initial determinant -631.590362156945
performing fock build before subrot guess so that all methods have access
Printing subrot_rss_gen Method Specification:
Occupied Subspace Method is 0
Virtual Subspace Method is 0
Energy of the unrelaxed supersystem initial determinant w/ solvent -631.691597746896
write pseudocanon occs and virts to disk
write pseudocanon orbital energies to disk
Tolerance of ortho_decomp_scf: 1.00e-06
GDM subspace size: 20
Beginning the Orthogonal Decomposition of the Initial Supersystem Wavefunction
    1    -631.5230446431      7.35e-02     ortho_decomp Preconditoned Steepest Descent
    2    -631.5406944947      2.45e-03     ortho_decomp BFGS Step
    3    -631.5407979638      2.36e-04     ortho_decomp BFGS Step
    4    -631.5407982103      1.21e-05     ortho_decomp BFGS Step
    5    -631.5407982114      4.69e-07     ortho_decomp 00000 Convergence criterion met
 Hartree-Fock
 Hartree-Fock
 Hartree-Fock
Doing General SCFMI
 Exchange:     0.1670 Hartree-Fock + 1.0000 wB97X-V + LR-HF
 Correlation:  1.0000 wB97X-V
 Using Euler-Maclaurin-Lebedev (99,590) quadrature formula
 Nonlocal Correlation:  VV10 with C = 0.0100 and b = 6.00 and scale = 1.00000
 Grid used for NLC:  SG-1 standard quadrature
performing fock build at end of subrot_r(subrot) constructor so that all methods have access
<S^2> of initial wavefunction before polarization iterations 0.0000000000
Beginning iterations for the determination of the polarized wavefunction
Energy prior to optimization (guess energy) = -631.691597746896
Begin Timing: Total SCF Calculation
begin iterations for algorithm: DIIS         
the SCF tolerance is set to 1.00e-08
    1    -631.6915977469      1.57e-04     00000 
    2    -631.6940185083      1.29e-04     00000 
    3    -631.6948659718      4.31e-05     00000 
    4    -631.6950610170      1.95e-05     00000 
    5    -631.6951181783      1.03e-05     00000 
    6    -631.6951388510      3.98e-06     00000 
    7    -631.6951423157      1.95e-06     00000 
    8    -631.6951428969      6.22e-07     00000 
    9    -631.6951429627      2.60e-07     00000 
   10    -631.6951429715      9.71e-08     00000 
   11    -631.6951429731      4.63e-08     00000 
   12    -631.6951429734      2.09e-08     00000 
   13    -631.6951429734      8.54e-09     00000 Convergence criterion met
write pseudocanon occs and virts to disk
write pseudocanon orbital energies to disk
Timing for Total SCF: 9732.00s (wall), 19355.30s (cpu)
<S^2> of polarized wavefunction after polarization iterations 0.0000000000
relaxing scfmi constraint to allow all rotations in the entire AO span
Doing General SCFMI
 Exchange:     0.1670 Hartree-Fock + 1.0000 wB97X-V + LR-HF
 Correlation:  1.0000 wB97X-V
 Using Euler-Maclaurin-Lebedev (99,590) quadrature formula
 Nonlocal Correlation:  VV10 with C = 0.0100 and b = 6.00 and scale = 1.00000
 Grid used for NLC:  SG-1 standard quadrature
performing fock build at end of subrot_r(subrot) constructor so that all methods have access
<S^2> of polarized wavefunction before ct-allowed iterations 0.0000000000
Beginning iterations for the determination of the CT-Allowed wavefunction
Energy prior to optimization (guess energy) = -631.695142973390
Begin Timing: Total SCF Calculation
begin iterations for algorithm: DIIS         
the SCF tolerance is set to 1.00e-08
    1    -631.6951429734      9.42e-05     00000 
    2    -631.6972379968      1.36e-05     00000 
    3    -631.6973283869      6.05e-06     00000 
    4    -631.6973340988      3.80e-06     00000 
    5    -631.6973366824      7.36e-07     00000 
    6    -631.6973368088      3.19e-07     00000 
    7    -631.6973368434      1.09e-07     00000 
    8    -631.6973368479      3.63e-08     00000 
    9    -631.6973368490      1.54e-08     00000 
   10    -631.6973368492      6.17e-09     00000 Convergence criterion met
write pseudocanon occs and virts to disk
write pseudocanon orbital energies to disk
Timing for Total SCF: 7223.00s (wall), 14366.43s (cpu)
<S^2> of ct_allowed wavefunction after ct-allowed iterations 0.0000000000

================================
        Results of EDA2         
================================
Basic EDA Quantities
--------------------
Fragment Energies (Ha):
1 -228.6398708861
2 -403.0628682751
--------------------
  E_prp (kJ/mol) = 0.0000
  E_sol (kJ/mol) = 21.2705
  E_frz (kJ/mol) = 7.9817
  E_pol (kJ/mol) = -9.3081
  E_vct (kJ/mol) = -5.7601
  E_int (kJ/mol) = 14.1839
--------------------


Initial Wavefunction Decomposition
--------------------
  --------------------
  Orthogonal Fragment Subspace Decomposition:
  --------------------
     E_elec   (ELEC)   (kJ/mol) = -86.2964
     E_pauli  (PAULI)  (kJ/mol) = 113.9377
     E_disp   (DISP)   (kJ/mol) = -19.6596
     --------------------
     Terms summing to E_pauli:
     --------------------
        E_kep_pauli       (kJ/mol) = 138.1133
        E_disp_free_pauli (kJ/mol) = -24.1756
  --------------------
  Classical Frozen Decomposition:
  --------------------
     E_cls_elec  (CLS ELEC)  (kJ/mol) = -42.5994
     E_cls_pauli (CLS PAULI) (kJ/mol) = 50.5810
    [E_mod_pauli (MOD PAULI) (kJ/mol) = 70.2406 (CLS PAULI - DISP from orthogonal decomposition) ]
  --------------------
--------------------

Simplified EDA Summary (kJ/mol)
--------------------
 PREPARATION     0.0000
 SOLVATION       21.2705
 FROZEN          27.6413      (does not include dispersion)
[PAULI           113.9377]     (if this is negligible, then frozen describes electrostatics)
 DISPERSION      -19.6596
 POLARIZATION    -9.3081
 CHARGE TRANSFER -5.7601
 TOTAL           14.1839     (PRP + SOL + FRZ + DISP + POL + CT)
--------------------
 
 --------------------------------------------------------------
 
                    Orbital Energies (a.u.)
 --------------------------------------------------------------
 
 Alpha MOs
 -- Occupied --
-19.1164 -19.1118 -14.4326 -10.3179 -10.2868 -10.2618 -10.2587 -10.2570
-10.2554 -10.2550 -10.2498 -10.2483 -10.2400 -10.2375  -1.1383  -1.1225
 -1.0306  -0.9934  -0.9361  -0.8884  -0.8450  -0.8296  -0.8121  -0.7358
 -0.7050  -0.6790  -0.6528  -0.5940  -0.5891  -0.5751  -0.5663  -0.5537
 -0.5395  -0.5297  -0.5195  -0.5170  -0.5121  -0.4967  -0.4911  -0.4758
 -0.4619  -0.4510  -0.4444  -0.4314  -0.4143  -0.3642  -0.3264  -0.3255
 -0.3030  -0.3001  -0.2680
 -- Virtual --
  0.0565   0.0626   0.0696   0.0748   0.0850   0.0874   0.0940   0.0946
  0.1030   0.1098   0.1137   0.1220   0.1260   0.1290   0.1366   0.1443
  0.1486   0.1509   0.1596   0.1616   0.1692   0.1759   0.1784   0.1845
  0.1869   0.1970   0.2042   0.2072   0.2134   0.2180   0.2247   0.2267
  0.2352   0.2369   0.2472   0.2519   0.2565   0.2579   0.2669   0.2711
  0.2724   0.2748   0.2786   0.2838   0.2907   0.2915   0.2952   0.2961
  0.3038   0.3078   0.3104   0.3159   0.3180   0.3231   0.3251   0.3284
  0.3329   0.3397   0.3428   0.3474   0.3512   0.3546   0.3568   0.3626
  0.3643   0.3666   0.3694   0.3738   0.3785   0.3834   0.3860   0.3903
  0.3925   0.3953   0.4009   0.4063   0.4079   0.4138   0.4164   0.4183
  0.4212   0.4251   0.4278   0.4302   0.4331   0.4426   0.4449   0.4502
  0.4546   0.4554   0.4586   0.4656   0.4715   0.4803   0.4840   0.4881
  0.4923   0.4967   0.5000   0.5003   0.5025   0.5062   0.5096   0.5137
  0.5178   0.5212   0.5250   0.5318   0.5339   0.5439   0.5451   0.5499
  0.5539   0.5597   0.5637   0.5694   0.5705   0.5772   0.5813   0.5831
  0.5870   0.5936   0.6008   0.6037   0.6083   0.6176   0.6188   0.6262
  0.6302   0.6359   0.6407   0.6426   0.6462   0.6527   0.6579   0.6662
  0.6735   0.6753   0.6799   0.6856   0.6859   0.6984   0.6998   0.7073
  0.7110   0.7134   0.7167   0.7196   0.7217   0.7238   0.7318   0.7346
  0.7366   0.7434   0.7469   0.7498   0.7549   0.7630   0.7667   0.7690
  0.7732   0.7763   0.7814   0.7847   0.7875   0.7912   0.7942   0.8008
  0.8078   0.8109   0.8120   0.8183   0.8218   0.8275   0.8317   0.8342
  0.8370   0.8481   0.8488   0.8505   0.8614   0.8676   0.8716   0.8777
  0.8862   0.8921   0.8999   0.9019   0.9041   0.9143   0.9202   0.9248
  0.9294   0.9376   0.9447   0.9497   0.9580   0.9638   0.9762   0.9790
  0.9924   0.9938   1.0049   1.0098   1.0255   1.0304   1.0350   1.0452
  1.0507   1.0572   1.0609   1.0639   1.0763   1.0839   1.0927   1.1029
  1.1142   1.1210   1.1320   1.1376   1.1474   1.1609   1.1649   1.1722
  1.1834   1.2001   1.2090   1.2327   1.2346   1.2427   1.2591   1.2670
  1.2789   1.2936   1.2969   1.3039   1.3159   1.3279   1.3398   1.3428
  1.3637   1.3685   1.3771   1.3848   1.4055   1.4177   1.4180   1.4219
  1.4332   1.4361   1.4475   1.4570   1.4663   1.4765   1.5001   1.5105
  1.5181   1.5255   1.5515   1.5754   1.5836   1.6033   1.6177   1.6329
  1.6470   1.6545   1.6627   1.6698   1.6907   1.7033   1.7230   1.7313
  1.7652   1.7753   1.7841   1.8112   1.8249   1.8338   1.8603   1.8735
  1.8854   1.8936   1.9109   1.9223   1.9254   1.9325   1.9456   1.9536
  1.9589   1.9637   1.9742   1.9803   1.9853   1.9960   2.0056   2.0141
  2.0175   2.0238   2.0327   2.0488   2.0568   2.0685   2.0787   2.0845
  2.0947   2.1006   2.1166   2.1303   2.1383   2.1573   2.1625   2.1689
  2.1806   2.1940   2.2206   2.2311   2.2408   2.2493   2.2566   2.2700
  2.2740   2.2907   2.3041   2.3072   2.3145   2.3323   2.3422   2.3531
  2.3616   2.3825   2.4003   2.4079   2.4347   2.4694   2.4845   2.4907
  2.4956   2.5162   2.5254   2.5371   2.5473   2.5596   2.5698   2.5801
  2.6013   2.6092   2.6184   2.6208   2.6444   2.6516   2.6543   2.6586
  2.6619   2.6820   2.7028   2.7123   2.7179   2.7253   2.7542   2.7637
  2.7921   2.8036   2.8110   2.8300   2.8430   2.8539   2.8705   2.8857
  2.8884   2.8986   2.9115   2.9144   2.9276   2.9407   2.9459   2.9663
  2.9715   2.9857   2.9956   2.9988   3.0095   3.0196   3.0325   3.0485
  3.0675   3.0813   3.0907   3.1045   3.1187   3.1290   3.1390   3.1513
  3.1631   3.1738   3.1844   3.2064   3.2124   3.2156   3.2297   3.2541
  3.2575   3.2659   3.2785   3.2831   3.2909   3.3047   3.3138   3.3179
  3.3279   3.3432   3.3544   3.3712   3.3753   3.3871   3.3938   3.4023
  3.4133   3.4151   3.4304   3.4354   3.4438   3.4478   3.4570   3.4635
  3.4687   3.4767   3.4961   3.5061   3.5240   3.5346   3.5371   3.5449
  3.5533   3.5691   3.5765   3.5818   3.5917   3.6026   3.6078   3.6380
  3.6466   3.6472   3.6725   3.6798   3.6845   3.6931   3.7070   3.7149
  3.7271   3.7405   3.7475   3.7496   3.7565   3.7736   3.7995   3.8067
  3.8176   3.8341   3.8503   3.8661   3.8846   3.8930   3.9069   3.9337
  3.9553   3.9704   3.9860   4.0031   4.0065   4.0320   4.0638   4.0997
  4.1046   4.1075   4.1120   4.1453   4.1644   4.2006   4.2354   4.2492
  4.2593   4.2684   4.2845   4.3137   4.3234   4.3474   4.3846   4.4078
  4.4256   4.4459   4.4602   4.4871   4.5284   4.5491   4.5673   4.5881
  4.6107   4.6221   4.6464   4.6517   4.6591   4.7031   4.7152   4.7393
  4.7760   4.8143   4.8264   4.8417   4.8572   4.9159   4.9239   4.9472
  4.9693   5.0120   5.0165   5.0338   5.0677   5.0890   5.1025   5.1238
  5.1289   5.1703   5.2117   5.2506   5.2781   5.3330   5.3457   5.3669
  5.3743   5.3842   5.3960   5.4372   5.4727   5.5067   5.5147   5.5571
  5.6249   5.6847   5.7216   5.7380   5.7925   5.8436   5.8610   5.8701
  5.9429   6.0318   6.1259   6.2758   6.2977   6.3858   6.4138   6.4524
  6.6664   6.7044   6.7847   6.7876   6.8159   7.0154   7.0353   7.0783
  7.3105   7.3674   7.4504   7.5247  22.6350  22.7524  22.8244  22.8853
 23.1101  23.2199  23.3653  23.4477  23.5913  23.7983  23.8749  32.9204
 44.3764  44.4759
 --------------------------------------------------------------
 
          Ground-State Mulliken Net Atomic Charges

     Atom                 Charge (a.u.)
  ----------------------------------------
      1 C                    -0.343506
      2 C                     0.205703
      3 O                    -0.701942
      4 O                    -0.599502
      5 H                     0.135204
      6 H                     0.107727
      7 H                     0.182442
      8 C                    -0.895011
      9 C                    -0.490474
     10 C                     0.599600
     11 C                     0.101568
     12 C                     0.697957
     13 C                    -0.920159
     14 C                    -0.486197
     15 C                    -0.240977
     16 C                    -0.672466
     17 N                     0.235737
     18 H                     0.208449
     19 H                     0.236650
     20 H                     0.166266
     21 H                     0.243217
     22 H                     0.268163
     23 H                     0.291016
     24 H                     0.179735
     25 H                     0.289524
     26 H                     0.201277
  ----------------------------------------
  Sum of atomic charges =    -1.000000

 -----------------------------------------------------------------
                    Cartesian Multipole Moments
 -----------------------------------------------------------------
    Charge (ESU x 10^10)
                -4.8032
    Dipole Moment (Debye)
         X     -14.4566      Y       5.8897      Z      -6.0077
       Tot      16.7264
    Quadrupole Moments (Debye-Ang)
        XX    -164.3618     XY      42.0295     YY    -102.2106
        XZ     -10.7564     YZ      11.8990     ZZ     -87.0272
    Octopole Moments (Debye-Ang^2)
       XXX    -208.7654    XXY     135.7332    XYY     -94.3646
       YYY      54.8886    XXZ     -77.7683    XYZ      33.0388
       YYZ     -21.1275    XZZ     -10.4658    YZZ      -4.4940
       ZZZ      -7.8035
    Hexadecapole Moments (Debye-Ang^3)
      XXXX   -4705.8508   XXXY    1688.6916   XXYY   -1346.0193
      XYYY    1127.3650   YYYY   -2320.5752   XXXZ    -477.6268
      XXYZ     155.5743   XYYZ    -177.6355   YYYZ      93.6432
      XXZZ    -625.4668   XYZZ     335.3185   YYZZ    -436.7820
      XZZZ    -264.3975   YZZZ      33.7517   ZZZZ    -301.5032
 -----------------------------------------------------------------
Archival summary:
1\1\nid00544\SP\ProcedureUnspecified\BasisUnspecified\211112(1-,1)\meili\MonSep2720:01:192021MonSep2720:01:192021\0\\#,ProcedureUnspecified,BasisUnspecified,\\-1,1\N\H,1,1.01061\C,1,1.31947,2,124.331\H,3,1.06044,1,122.222,2,14.1681,0\C,1,1.3477,2,125.564,3,172.031,0\C,3,1.35109,1,111.196,2,174.809,0\C,5,1.37134,1,121.909,2,6.27768,0\H,7,1.07181,5,125.699,1,-8.00408,0\C,7,1.28954,5,103.833,1,-168.36,0\H,9,1.06246,7,96.1833,5,126.883,0\C,6,1.42964,3,106.702,1,-2.0426,0\C,11,1.39242,6,136.619,3,-178.288,0\H,12,1.08044,11,122.087,6,3.98262,0\C,12,1.3241,11,114.053,6,171.036,0\H,14,1.05505,12,116.544,11,-150.428,0\C,6,1.46656,3,127.353,1,179.095,0\H,16,1.09067,6,107.57,3,177.413,0\H,16,1.09112,6,109.389,3,-65.5366,0\H,16,1.1,6,111.62,3,56.938,0\O,4,2.06048,3,122.495,1,-110.947,0\C,20,1.23722,4,130.77,3,109.848,0\O,21,1.23684,20,120.765,4,148.885,0\C,21,1.52245,20,118.916,4,-29.6935,0\H,23,1.08939,21,109.327,20,-26.7738,0\H,23,1.0908,21,107.791,20,89.9905,0\H,23,1.1,21,113.201,20,-150.439,0\\\@

 Total job time:  114748.94s(wall), 57091.57s(cpu) 
 Mon Sep 27 20:01:21 2021

        *************************************************************
        *                                                           *
        *  Thank you very much for using Q-Chem.  Have a nice day.  *
        *                                                           *
        *************************************************************


