
Running Job 1 of 1 SSI-043TYR-186TYR-1_SMD_TZVPD.in
qchem SSI-043TYR-186TYR-1_SMD_TZVPD.in_57189.0 /tmp/qchem57189/ 0
/global/common/cori/software/qchem/5.2/exe/qcprog.exe_s SSI-043TYR-186TYR-1_SMD_TZVPD.in_57189.0 /tmp/qchem57189/
                  Welcome to Q-Chem
     A Quantum Leap Into The Future Of Chemistry


 Q-Chem 5.2, Q-Chem, Inc., Pleasanton, CA (2019)

 License issued to: National Energy Research Scientific Computing Center

 Yihan Shao,  Zhengting Gan,  E. Epifanovsky,  A. T. B. Gilbert,  M. Wormit,  
 J. Kussmann,  A. W. Lange,  A. Behn,  Jia Deng,  Xintian Feng,  D. Ghosh,  
 M. Goldey,  P. R. Horn,  L. D. Jacobson,  I. Kaliman,  T. Kus,  A. Landau,  
 Jie Liu,  E. I. Proynov,  R. M. Richard,  R. P. Steele,  E. J. Sundstrom,  
 H. L. Woodcock III,  P. M. Zimmerman,  D. Zuev,  B. Albrecht,  E. Alguire,  
 S. A. Baeppler,  D. Barton,  Z. Benda,  Y. A. Bernard,  E. J. Berquist,  
 K. B. Bravaya,  H. Burton,  D. Casanova,  Chun-Min Chang,  Yunqing Chen,  
 A. Chien,  K. D. Closser,  M. P. Coons,  S. Coriani,  S. Dasgupta,  
 A. L. Dempwolff,  M. Diedenhofen,  Hainam Do,  R. G. Edgar,  Po-Tung Fang,  
 S. Faraji,  S. Fatehi,  Qingguo Feng,  K. D. Fenk,  J. Fosso-Tande,  
 J. Gayvert,  Qinghui Ge,  A. Ghysels,  G. Gidofalvi,  J. Gomes,  
 J. Gonthier,  A. Gunina,  D. Hait,  M. W. D. Hanson-Heine,  
 P. H. P. Harbach,  A. W. Hauser,  M. F. Herbst,  J. E. Herr,  
 E. G. Hohenstein,  Z. C. Holden,  Kerwin Hui,  B. C. Huynh,  T.-C. Jagau,  
 Hyunjun Ji,  B. Kaduk,  K. Khistyaev,  Jaehoon Kim,  P. Klunzinger,  K. Koh,  
 D. Kosenkov,  L. Koulias,  T. Kowalczyk,  C. M. Krauter,  A. Kunitsa,  
 Ka Un Lao,  A. Laurent,  K. V. Lawler,  Joonho Lee,  D. Lefrancois,  
 S. Lehtola,  D. S. Levine,  Yi-Pei Li,  You-Sheng Lin,  Fenglai Liu,  
 E. Livshits,  A. Luenser,  P. Manohar,  E. Mansoor,  S. F. Manzer,  
 Shan-Ping Mao,  Yuezhi Mao,  N. Mardirossian,  A. V. Marenich,  
 T. Markovich,  L. A. Martinez-Martinez,  S. A. Maurer,  N. J. Mayhall,  
 S. C. McKenzie,  J.-M. Mewes,  P. Morgante,  A. F. Morrison,  
 J. W. Mullinax,  K. Nanda,  T. S. Nguyen-Beck,  R. Olivares-Amaya,  
 J. A. Parkhill,  Zheng Pei,  T. M. Perrine,  F. Plasser,  P. Pokhilko,  
 S. Prager,  A. Prociuk,  E. Ramos,  D. R. Rehn,  F. Rob,  M. Scheurer,  
 M. Schneider,  N. Sergueev,  S. M. Sharada,  S. Sharma,  D. W. Small,  
 T. Stauch,  T. Stein,  Yu-Chuan Su,  A. J. W. Thom,  A. Tkatchenko,  
 T. Tsuchimochi,  N. M. Tubman,  L. Vogt,  M. L. Vidal,  O. Vydrov,  
 M. A. Watson,  J. Wenzel,  M. de Wergifosse,  T. A. Wesolowski,  A. White,  
 J. Witte,  A. Yamada,  Jun Yang,  K. Yao,  S. Yeganeh,  S. R. Yost,  
 Zhi-Qiang You,  A. Zech,  Igor Ying Zhang,  Xing Zhang,  Yan Zhao,  
 Ying Zhu,  B. R. Brooks,  G. K. L. Chan,  C. J. Cramer,  M. S. Gordon,  
 W. J. Hehre,  A. Klamt,  M. W. Schmidt,  C. D. Sherrill,  D. G. Truhlar,  
 A. Aspuru-Guzik,  R. Baer,  A. T. Bell,  N. A. Besley,  Jeng-Da Chai,  
 A. E. DePrince, III,  R. A. DiStasio Jr.,  A. Dreuw,  B. D. Dunietz,  
 T. R. Furlani,  Chao-Ping Hsu,  Yousung Jung,  Jing Kong,  D. S. Lambrecht,  
 WanZhen Liang,  C. Ochsenfeld,  V. A. Rassolov,  L. V. Slipchenko,  
 J. E. Subotnik,  T. Van Voorhis,  J. M. Herbert,  A. I. Krylov,  
 P. M. W. Gill,  M. Head-Gordon

 Contributors to earlier versions of Q-Chem not listed above: 
 R. D. Adamson,  B. Austin,  J. Baker,  G. J. O. Beran,  K. Brandhorst,  
 S. T. Brown,  E. F. C. Byrd,  A. K. Chakraborty,  C.-L. Cheng,  
 Siu Hung Chien,  D. M. Chipman,  D. L. Crittenden,  H. Dachsel,  
 R. J. Doerksen,  A. D. Dutoi,  L. Fusti-Molnar,  W. A. Goddard III,  
 A. Golubeva-Zadorozhnaya,  S. R. Gwaltney,  G. Hawkins,  A. Heyden,  
 S. Hirata,  G. Kedziora,  F. J. Keil,  C. Kelley,  Jihan Kim,  R. A. King,  
 R. Z. Khaliullin,  P. P. Korambath,  W. Kurlancheek,  A. M. Lee,  M. S. Lee,  
 S. V. Levchenko,  Ching Yeh Lin,  D. Liotard,  R. C. Lochan,  I. Lotan,  
 P. E. Maslen,  N. Nair,  D. P. O'Neill,  D. Neuhauser,  E. Neuscamman,  
 C. M. Oana,  R. Olson,  B. Peters,  R. Peverati,  P. A. Pieniazek,  
 Y. M. Rhee,  J. Ritchie,  M. A. Rohrdanz,  E. Rosta,  N. J. Russ,  
 H. F. Schaefer III,  N. E. Schultz,  N. Shenvi,  A. C. Simmonett,  A. Sodt,  
 D. Stuck,  K. S. Thanthiriwatte,  V. Vanovschi,  Tao Wang,  A. Warshel,  
 C. F. Williams,  Q. Wu,  X. Xu,  W. Zhang

 Please cite Q-Chem as follows:
 Y. Shao et al., Mol. Phys. 113, 184-215 (2015)
 DOI: 10.1080/00268976.2014.952696

 Q-Chem 5.2.0 for Intel X86 EM64T Linux

 Parts of Q-Chem use Armadillo 8.300.2 (Tropical Shenanigans).
 http://arma.sourceforge.net/

 Q-Chem begins on Sun Sep 26 07:53:34 2021  

Host: cori01
0

     Scratch files written to /tmp/qchem57189//
 May1019 |scratch|qcdevops|jenkins|workspace|build_RNUM -1
Processing $rem in /global/common/cori/software/qchem/5.2/config/preferences:
	 MEM_TOTAL  96000 
NAlpha2: 116
NElect   116
Mult     1
Symmetry turned off for PCM/SM12/SMD calculation

 Q-Chem warning in module libgen/rem_setup.C, line 2803:

 Neither GIA nor STOLL is specified by user. Use STOLL as the default


Checking the input file for inconsistencies... 	...done.

--------------------------------------------------------------
User input:
--------------------------------------------------------------
$comment
SSI-043TYR-186TYR-1.pdb
$end

$molecule
0 1
--
0 1
C   -2.339616101196    1.060343459200   -2.012642499823
C   -1.331616101196   -0.102656540800   -0.014642499823
C   -2.322616101196   -0.070656540800   -0.998642499823
C   -1.325616101196   -1.097656540800    0.962357500177
C   -3.313616101196   -1.067656540800   -1.006642499823
C   -2.317616101196   -2.089656540800    0.977357500177
C   -3.323616101196   -2.079656540800   -0.011642499823
O   -2.253616101196   -3.041656540800    1.967357500177
H   -0.563616101196    0.654343459200   -0.014642499823
H   -0.550616101196   -1.107656540800    1.716357500177
H   -2.569616101196    0.650343459200   -2.995642499823
H   -1.353616101196    1.527343459200   -2.043642499823
H   -4.071616101196   -1.055656540800   -1.780642499823
H   -4.092616101196   -2.841656540800    0.001357500177
H   -2.966616101196   -3.697656540800    1.916357500177
H   -3.085926101196    1.850213459200   -1.841952499823
--
0 1
C    4.060383898804   -0.726656540800   -1.532642499823
C    1.532383898804    1.955343459200    0.722357500177
C    1.749383898804    2.160343459200   -0.647642499823
C    2.105383898804    0.850343459200    1.363357500177
C    2.541383898804    1.271343459200   -1.374642499823
C    2.898383898804   -0.041656540800    0.622357500177
C    3.124383898804    0.168343459200   -0.750642499823
O    0.739383898804    2.844343459200    1.399357500177
H    1.310383898804    3.015343459200   -1.137642499823
H    0.395383898804    3.547343459200    0.851357500177
H    1.936383898804    0.690343459200    2.419357500177
H    2.711383898804    1.436343459200   -2.429642499823
H    3.347383898804   -0.896656540800    1.113357500177
H    4.370383898804   -1.558656540800   -0.902642499823
H    4.946383898804   -0.150656540800   -1.817642499823
H    3.581893898804   -1.191536540800   -2.407242499823
$end

$rem
JOBTYPE			EDA
EDA2			1
method			wB97X-V
BASIS			def2-TZVPD
XC_GRID			000099000590
NL_GRID			1
UNRESTRICTED		FALSE
MAX_SCF_CYCLES		200
SYMMETRY		FALSE
SYM_IGNORE		TRUE
MEM_STATIC		2000
BASIS_LIN_DEP_THRESH 	6
THRESH 			14
SCF_CONVERGENCE 	8
SCF_PRINT_FRGM 		TRUE
SOLVENT_METHOD          SMD
$end

$SMX
SOLVENT			WATER
$END
--------------------------------------------------------------
 ----------------------------------------------------------------
             Standard Nuclear Orientation (Angstroms)
    I     Atom           X                Y                Z
 ----------------------------------------------------------------
    1      C      -2.3396161012     1.0603434592    -2.0126424998
    2      C      -1.3316161012    -0.1026565408    -0.0146424998
    3      C      -2.3226161012    -0.0706565408    -0.9986424998
    4      C      -1.3256161012    -1.0976565408     0.9623575002
    5      C      -3.3136161012    -1.0676565408    -1.0066424998
    6      C      -2.3176161012    -2.0896565408     0.9773575002
    7      C      -3.3236161012    -2.0796565408    -0.0116424998
    8      O      -2.2536161012    -3.0416565408     1.9673575002
    9      H      -0.5636161012     0.6543434592    -0.0146424998
   10      H      -0.5506161012    -1.1076565408     1.7163575002
   11      H      -2.5696161012     0.6503434592    -2.9956424998
   12      H      -1.3536161012     1.5273434592    -2.0436424998
   13      H      -4.0716161012    -1.0556565408    -1.7806424998
   14      H      -4.0926161012    -2.8416565408     0.0013575002
   15      H      -2.9666161012    -3.6976565408     1.9163575002
   16      H      -3.0859261012     1.8502134592    -1.8419524998
   17      C       4.0603838988    -0.7266565408    -1.5326424998
   18      C       1.5323838988     1.9553434592     0.7223575002
   19      C       1.7493838988     2.1603434592    -0.6476424998
   20      C       2.1053838988     0.8503434592     1.3633575002
   21      C       2.5413838988     1.2713434592    -1.3746424998
   22      C       2.8983838988    -0.0416565408     0.6223575002
   23      C       3.1243838988     0.1683434592    -0.7506424998
   24      O       0.7393838988     2.8443434592     1.3993575002
   25      H       1.3103838988     3.0153434592    -1.1376424998
   26      H       0.3953838988     3.5473434592     0.8513575002
   27      H       1.9363838988     0.6903434592     2.4193575002
   28      H       2.7113838988     1.4363434592    -2.4296424998
   29      H       3.3473838988    -0.8966565408     1.1133575002
   30      H       4.3703838988    -1.5586565408    -0.9026424998
   31      H       4.9463838988    -0.1506565408    -1.8176424998
   32      H       3.5818938988    -1.1915365408    -2.4072424998
 ----------------------------------------------------------------
 Nuclear Repulsion Energy =        1002.46114410 hartrees
 There are       58 alpha and       58 beta electrons
 Requested basis set is def2-TZVPD
 There are 290 shells and 742 basis functions

 Total QAlloc Memory Limit  96000 MB
 Mega-Array Size      1956 MB
 MEM_STATIC part      2000 MB
 
 Citation of the SMD model:
 Marenich, A.V.; Cramer, C.J.; Truhlar, D.G.
 J. Phys. Chem. B 2009, 113, 6378-6396.
 iSolventCode=           1
 Solvent: water                                                           
 
 vradii
            1           2           3           4           5           6
    1   1.8500000   1.8500000   1.8500000   1.8500000   1.8500000   1.8500000
            7           8           9          10          11          12
    1   1.8500000   1.5200000   1.2000000   1.2000000   1.2000000   1.2000000
           13          14          15          16          17          18
    1   1.2000000   1.2000000   1.2000000   1.2000000   1.8500000   1.8500000
           19          20          21          22          23          24
    1   1.8500000   1.8500000   1.8500000   1.8500000   1.8500000   1.5200000
           25          26          27          28          29          30
    1   1.2000000   1.2000000   1.2000000   1.2000000   1.2000000   1.2000000
           31          32
    1   1.2000000   1.2000000
 Changing PCM_VDW_RADII to SMD_RADIUS
 Discretize the solute cavity surface with Lebedev spheres
	Using 110 Lebedev grid points for each H atom
	Using 194 Lebedev grid points for other atoms
	Atomic van der Waals radii will be scaled by 1.20
 Remove points where switching function is < 1.0e-08
 Keep 2395 surface tesserae and discard 2469 interior tesserae
 Molecular Surface Area = 279.453 Angst**2
 A cutoff of  1.0D-14 yielded  35406 shell pairs
 There are    232012 function pairs (    293340 Cartesian)
 Smallest overlap matrix eigenvalue = 4.70E-07
 Linear dependence detected in AO basis
 Tighter screening thresholds may be required for diffuse basis sets
 Use S2THRESH > 14 and THRESH = 14 in case of SCF convergence issues
 Number of orthogonalized atomic orbitals = 738
 Maximum deviation from orthogonality = 2.760E-10

 Scale SEOQF with 1.000000e-01/1.000000e-01/1.000000e-01

 Standard Electronic Orientation quadrupole field applied
 Nucleus-field energy     =     0.0000000301 hartrees

 -----------------------------------------------------------------------
  General SCF calculation program by
  Eric Jon Sundstrom, Paul Horn, Yuezhi Mao, Dmitri Zuev, Alec White,
  David Stuck, Shaama M.S., Shane Yost, Joonho Lee, David Small,
  Daniel Levine, Susi Lehtola, Hugh Burton, Evgeny Epifanovsky
 -----------------------------------------------------------------------
================================================================
                 ALMO-EDA with the EDA2 driver                  
================================================================
 The second-generation ALMO-EDA (for DFT):                      
 P. R. Horn, Y. Mao and M. Head-Gordon, PCCP, 18, 23067 (2016)  
 Decomposition of the frozen energy:                            
 P. R. Horn, Y. Mao and M. Head-Gordon, JCP, 144, 114107 (2016) 
 FERF model for polarization:                                   
 P. R. Horn and M. Head-Gordon, JCP, 143, 114111 (2015)         
Using eda2 option set 1
Option set summary: Frozen orbital wavefunction, initial wavefunction decomposition, and nDQ polarization.
--------------------------------
Printing EDA Options
--------------------------------
eda_child_super_basis      0
fragmo_guess_mode          0
child_mp                   1
child_mp_orders            232
cls_elec                   1
cls_disp                   0
scfmi_mode                 1
scfmi_occs                 0
scfmi_virts                0
frz_relax                  0
frz_relax_method           0
dc_pen_start               0
dc_pen_conv                0
dc_pen_increment           0
dc_pen_steps               0
dc_pen_thresh_factor       0
dc_pen_pre_newton_thresh   0
frz_ortho_decomp           1
frz_ortho_decomp_conv      6
frgm_method                2
scfmi_freeze_ss            0
separate_rehyb             0
plot_diff_den              0
eda_nocv                   0
eda_vct_relax              1
disp_free_x                0
disp_free_c                0
eda_bsse                   0
eda_pct_a                  0
eda_covp                   0
--------------------------------
Attempting to make child job directory: /tmp/qchem57189//Frg1/
Attempting to make child job directory: /tmp/qchem57189//Frg2/
Creating input file /tmp/qchem57189/Frg1.input
using default PutDataFrgm: nothing
calling putenv with: QCSCRATCH=/tmp/qchem57189/ 
calling putenv with: QCLOCALSCR=/tmp/qchem57189/ 
Spawning Job For Fragment 0
                  Welcome to Q-Chem
     A Quantum Leap Into The Future Of Chemistry


 Q-Chem 5.2, Q-Chem, Inc., Pleasanton, CA (2019)

 License issued to: National Energy Research Scientific Computing Center

 Yihan Shao,  Zhengting Gan,  E. Epifanovsky,  A. T. B. Gilbert,  M. Wormit,  
 J. Kussmann,  A. W. Lange,  A. Behn,  Jia Deng,  Xintian Feng,  D. Ghosh,  
 M. Goldey,  P. R. Horn,  L. D. Jacobson,  I. Kaliman,  T. Kus,  A. Landau,  
 Jie Liu,  E. I. Proynov,  R. M. Richard,  R. P. Steele,  E. J. Sundstrom,  
 H. L. Woodcock III,  P. M. Zimmerman,  D. Zuev,  B. Albrecht,  E. Alguire,  
 S. A. Baeppler,  D. Barton,  Z. Benda,  Y. A. Bernard,  E. J. Berquist,  
 K. B. Bravaya,  H. Burton,  D. Casanova,  Chun-Min Chang,  Yunqing Chen,  
 A. Chien,  K. D. Closser,  M. P. Coons,  S. Coriani,  S. Dasgupta,  
 A. L. Dempwolff,  M. Diedenhofen,  Hainam Do,  R. G. Edgar,  Po-Tung Fang,  
 S. Faraji,  S. Fatehi,  Qingguo Feng,  K. D. Fenk,  J. Fosso-Tande,  
 J. Gayvert,  Qinghui Ge,  A. Ghysels,  G. Gidofalvi,  J. Gomes,  
 J. Gonthier,  A. Gunina,  D. Hait,  M. W. D. Hanson-Heine,  
 P. H. P. Harbach,  A. W. Hauser,  M. F. Herbst,  J. E. Herr,  
 E. G. Hohenstein,  Z. C. Holden,  Kerwin Hui,  B. C. Huynh,  T.-C. Jagau,  
 Hyunjun Ji,  B. Kaduk,  K. Khistyaev,  Jaehoon Kim,  P. Klunzinger,  K. Koh,  
 D. Kosenkov,  L. Koulias,  T. Kowalczyk,  C. M. Krauter,  A. Kunitsa,  
 Ka Un Lao,  A. Laurent,  K. V. Lawler,  Joonho Lee,  D. Lefrancois,  
 S. Lehtola,  D. S. Levine,  Yi-Pei Li,  You-Sheng Lin,  Fenglai Liu,  
 E. Livshits,  A. Luenser,  P. Manohar,  E. Mansoor,  S. F. Manzer,  
 Shan-Ping Mao,  Yuezhi Mao,  N. Mardirossian,  A. V. Marenich,  
 T. Markovich,  L. A. Martinez-Martinez,  S. A. Maurer,  N. J. Mayhall,  
 S. C. McKenzie,  J.-M. Mewes,  P. Morgante,  A. F. Morrison,  
 J. W. Mullinax,  K. Nanda,  T. S. Nguyen-Beck,  R. Olivares-Amaya,  
 J. A. Parkhill,  Zheng Pei,  T. M. Perrine,  F. Plasser,  P. Pokhilko,  
 S. Prager,  A. Prociuk,  E. Ramos,  D. R. Rehn,  F. Rob,  M. Scheurer,  
 M. Schneider,  N. Sergueev,  S. M. Sharada,  S. Sharma,  D. W. Small,  
 T. Stauch,  T. Stein,  Yu-Chuan Su,  A. J. W. Thom,  A. Tkatchenko,  
 T. Tsuchimochi,  N. M. Tubman,  L. Vogt,  M. L. Vidal,  O. Vydrov,  
 M. A. Watson,  J. Wenzel,  M. de Wergifosse,  T. A. Wesolowski,  A. White,  
 J. Witte,  A. Yamada,  Jun Yang,  K. Yao,  S. Yeganeh,  S. R. Yost,  
 Zhi-Qiang You,  A. Zech,  Igor Ying Zhang,  Xing Zhang,  Yan Zhao,  
 Ying Zhu,  B. R. Brooks,  G. K. L. Chan,  C. J. Cramer,  M. S. Gordon,  
 W. J. Hehre,  A. Klamt,  M. W. Schmidt,  C. D. Sherrill,  D. G. Truhlar,  
 A. Aspuru-Guzik,  R. Baer,  A. T. Bell,  N. A. Besley,  Jeng-Da Chai,  
 A. E. DePrince, III,  R. A. DiStasio Jr.,  A. Dreuw,  B. D. Dunietz,  
 T. R. Furlani,  Chao-Ping Hsu,  Yousung Jung,  Jing Kong,  D. S. Lambrecht,  
 WanZhen Liang,  C. Ochsenfeld,  V. A. Rassolov,  L. V. Slipchenko,  
 J. E. Subotnik,  T. Van Voorhis,  J. M. Herbert,  A. I. Krylov,  
 P. M. W. Gill,  M. Head-Gordon

 Contributors to earlier versions of Q-Chem not listed above: 
 R. D. Adamson,  B. Austin,  J. Baker,  G. J. O. Beran,  K. Brandhorst,  
 S. T. Brown,  E. F. C. Byrd,  A. K. Chakraborty,  C.-L. Cheng,  
 Siu Hung Chien,  D. M. Chipman,  D. L. Crittenden,  H. Dachsel,  
 R. J. Doerksen,  A. D. Dutoi,  L. Fusti-Molnar,  W. A. Goddard III,  
 A. Golubeva-Zadorozhnaya,  S. R. Gwaltney,  G. Hawkins,  A. Heyden,  
 S. Hirata,  G. Kedziora,  F. J. Keil,  C. Kelley,  Jihan Kim,  R. A. King,  
 R. Z. Khaliullin,  P. P. Korambath,  W. Kurlancheek,  A. M. Lee,  M. S. Lee,  
 S. V. Levchenko,  Ching Yeh Lin,  D. Liotard,  R. C. Lochan,  I. Lotan,  
 P. E. Maslen,  N. Nair,  D. P. O'Neill,  D. Neuhauser,  E. Neuscamman,  
 C. M. Oana,  R. Olson,  B. Peters,  R. Peverati,  P. A. Pieniazek,  
 Y. M. Rhee,  J. Ritchie,  M. A. Rohrdanz,  E. Rosta,  N. J. Russ,  
 H. F. Schaefer III,  N. E. Schultz,  N. Shenvi,  A. C. Simmonett,  A. Sodt,  
 D. Stuck,  K. S. Thanthiriwatte,  V. Vanovschi,  Tao Wang,  A. Warshel,  
 C. F. Williams,  Q. Wu,  X. Xu,  W. Zhang

 Please cite Q-Chem as follows:
 Y. Shao et al., Mol. Phys. 113, 184-215 (2015)
 DOI: 10.1080/00268976.2014.952696

 Q-Chem 5.2.0 for Intel X86 EM64T Linux

 Parts of Q-Chem use Armadillo 8.300.2 (Tropical Shenanigans).
 http://arma.sourceforge.net/

 Q-Chem begins on Sun Sep 26 07:53:43 2021  

Host: cori01
0

     Scratch files written to /tmp/qchem57189//Frg1//
 May1019 |scratch|qcdevops|jenkins|workspace|build_RNUM -1
Processing $rem in /global/common/cori/software/qchem/5.2/config/preferences:
	 MEM_TOTAL  96000 
NAlpha2: 58
NElect   58
Mult     1
Symmetry turned off for PCM/SM12/SMD calculation

Checking the input file for inconsistencies... 	...done.

--------------------------------------------------------------
User input:
--------------------------------------------------------------
$molecule
0 1
 6	-2.3396161012	1.0603434592	-2.0126424998
 6	-1.3316161012	-0.1026565408	-0.0146424998
 6	-2.3226161012	-0.0706565408	-0.9986424998
 6	-1.3256161012	-1.0976565408	0.9623575002
 6	-3.3136161012	-1.0676565408	-1.0066424998
 6	-2.3176161012	-2.0896565408	0.9773575002
 6	-3.3236161012	-2.0796565408	-0.0116424998
 8	-2.2536161012	-3.0416565408	1.9673575002
 1	-0.5636161012	0.6543434592	-0.0146424998
 1	-0.5506161012	-1.1076565408	1.7163575002
 1	-2.5696161012	0.6503434592	-2.9956424998
 1	-1.3536161012	1.5273434592	-2.0436424998
 1	-4.0716161012	-1.0556565408	-1.7806424998
 1	-4.0926161012	-2.8416565408	0.0013575002
 1	-2.9666161012	-3.6976565408	1.9163575002
 1	-3.0859261012	1.8502134592	-1.8419524998
$end
$rem
EDA2		1
METHOD		WB97X-V
BASIS		DEF2-TZVPD
XC_GRID		000099000590
NL_GRID		1
UNRESTRICTED		FALSE
MAX_SCF_CYCLES		200
SYMMETRY		FALSE
SYM_IGNORE		TRUE
BASIS_LIN_DEP_THRESH		6
THRESH		14
SCF_CONVERGENCE		8
SCF_PRINT_FRGM		TRUE
SOLVENT_METHOD		SMD
!required keywords
JOBTYPE		SP
SYM_IGNORE		TRUE
SUBSYSTEM		TRUE
GEN_SCFMAN		TRUE
CHILD_INSTRUCTION		2
SYM_IGNORE		TRUE
SCFMI		0
RI_K 0		
PARI_K 0		
MIN_PARI_K 0		
IARI_K 0		
OCC_RI_K 0		
PURECART		1111
MEM_STATIC		2000
MEM_TOTAL		96000
GUI		0
CHILD_MP		1
CHILD_MP_ORDERS		232
FRZ_RELAX		0
FRZ_RELAX_METHOD		0
EDA_CLS_ELEC		1
EDA_CLS_DISP		0
FRZ_ORTHO_DECOMP		1
EDA2		FALSE
FRGM_METHOD		FALSE
CIS_N_ROOTS  0
LOCAL_CIS    0
CIS_RLX_DNS  1
$end
$smx
SOLVENT			WATER
$end
--------------------------------------------------------------
 ----------------------------------------------------------------
             Standard Nuclear Orientation (Angstroms)
    I     Atom           X                Y                Z
 ----------------------------------------------------------------
    1      C      -2.3396161012     1.0603434592    -2.0126424998
    2      C      -1.3316161012    -0.1026565408    -0.0146424998
    3      C      -2.3226161012    -0.0706565408    -0.9986424998
    4      C      -1.3256161012    -1.0976565408     0.9623575002
    5      C      -3.3136161012    -1.0676565408    -1.0066424998
    6      C      -2.3176161012    -2.0896565408     0.9773575002
    7      C      -3.3236161012    -2.0796565408    -0.0116424998
    8      O      -2.2536161012    -3.0416565408     1.9673575002
    9      H      -0.5636161012     0.6543434592    -0.0146424998
   10      H      -0.5506161012    -1.1076565408     1.7163575002
   11      H      -2.5696161012     0.6503434592    -2.9956424998
   12      H      -1.3536161012     1.5273434592    -2.0436424998
   13      H      -4.0716161012    -1.0556565408    -1.7806424998
   14      H      -4.0926161012    -2.8416565408     0.0013575002
   15      H      -2.9666161012    -3.6976565408     1.9163575002
   16      H      -3.0859261012     1.8502134592    -1.8419524998
 ----------------------------------------------------------------
 Nuclear Repulsion Energy =         340.36120253 hartrees
 There are       29 alpha and       29 beta electrons
 Requested basis set is def2-TZVPD
 There are 145 shells and 371 basis functions

 Total QAlloc Memory Limit  96000 MB
 Mega-Array Size      1956 MB
 MEM_STATIC part      2000 MB
 
 Citation of the SMD model:
 Marenich, A.V.; Cramer, C.J.; Truhlar, D.G.
 J. Phys. Chem. B 2009, 113, 6378-6396.
 iSolventCode=           1
 Solvent: water                                                           
 
 vradii
            1           2           3           4           5           6
    1   1.8500000   1.8500000   1.8500000   1.8500000   1.8500000   1.8500000
            7           8           9          10          11          12
    1   1.8500000   1.5200000   1.2000000   1.2000000   1.2000000   1.2000000
           13          14          15          16
    1   1.2000000   1.2000000   1.2000000   1.2000000
 Changing PCM_VDW_RADII to SMD_RADIUS
 Discretize the solute cavity surface with Lebedev spheres
	Using 110 Lebedev grid points for each H atom
	Using 194 Lebedev grid points for other atoms
	Atomic van der Waals radii will be scaled by 1.20
 Remove points where switching function is < 1.0e-08
 Keep 1215 surface tesserae and discard 1217 interior tesserae
 Molecular Surface Area = 142.192 Angst**2
 A cutoff of  1.0D-14 yielded  10033 shell pairs
 There are     66987 function pairs (     85656 Cartesian)
 Smallest overlap matrix eigenvalue = 6.25E-07
 Linear dependence detected in AO basis
 Tighter screening thresholds may be required for diffuse basis sets
 Use S2THRESH > 14 and THRESH = 14 in case of SCF convergence issues
 Number of orthogonalized atomic orbitals = 370
 Maximum deviation from orthogonality = 2.426E-10

 Scale SEOQF with 1.000000e-01/1.000000e-01/1.000000e-01

 Standard Electronic Orientation quadrupole field applied
 Nucleus-field energy     =     0.0000000140 hartrees
 Guess from superposition of atomic densities
 Warning:  Energy on first SCF cycle will be non-variational
 SAD guess density has 57.738434 electrons

 -----------------------------------------------------------------------
  General SCF calculation program by
  Eric Jon Sundstrom, Paul Horn, Yuezhi Mao, Dmitri Zuev, Alec White,
  David Stuck, Shaama M.S., Shane Yost, Joonho Lee, David Small,
  Daniel Levine, Susi Lehtola, Hugh Burton, Evgeny Epifanovsky
 -----------------------------------------------------------------------
 Exchange:     0.1670 Hartree-Fock + 1.0000 wB97X-V + LR-HF
 Correlation:  1.0000 wB97X-V
 Using Euler-Maclaurin-Lebedev (99,590) quadrature formula
 Nonlocal Correlation:  VV10 with C = 0.0100 and b = 6.00 and scale = 1.00000
 Grid used for NLC:  SG-1 standard quadrature
Energy prior to optimization (guess energy) = -346.495569204302
Begin Timing: Total SCF Calculation
begin iterations for algorithm: DIIS         
the SCF tolerance is set to 1.00e-08
    1    -346.4955692043      5.17e-03     00000 
    2    -346.4241106557      5.66e-03     00000 
    3    -346.8192582739      5.32e-04     00000 
    4    -346.8242359464      1.75e-04     00000 
    5    -346.8249467474      3.85e-05     00000 
    6    -346.8250001455      1.41e-05     00000 
    7    -346.8250053266      5.15e-06     00000 
    8    -346.8250061111      1.55e-06     00000 
    9    -346.8250062009      4.95e-07     00000 
   10    -346.8250062119      2.47e-07     00000 
   11    -346.8250062149      6.53e-08     00000 
   12    -346.8250062153      3.40e-08     00000 
   13    -346.8250062154      1.30e-08     00000 
   14    -346.8250062155      4.01e-09     00000 Convergence criterion met
Timing for Total SCF: 2150.00s (wall), 4211.74s (cpu)
(3)  G-ENP(liq) elect-nuc-pol free energy of system     -346.825006215 a.u.
(4)  G-CDS(liq) cavity-dispersion-solvent structure 
     free energy                                                3.7952 kcal/mol
(6)  G-S(liq) free energy of system                     -346.818958190 a.u.
E_pcm = -0.0178532371
E_cds = 0.0060480255
Multipole orders to be included
        2
        3
computing dipole RHS
computing quadrupole RHS
total number of RHS in solve_reponses: 8
RHS batch sizes
        8
Beginning Block Conjugate Gradient Iterations. Batch Number: 0
computing hessian-vector products by finite difference
              1      6.09e-01     00000 Conjugate Gradient Iteration
computing hessian-vector products by finite difference
              2      1.74e-01     00000 Conjugate Gradient Iteration
computing hessian-vector products by finite difference
              3      4.54e-02     00000 Conjugate Gradient Iteration
computing hessian-vector products by finite difference
              4      1.44e-02     00000 Conjugate Gradient Iteration
computing hessian-vector products by finite difference
              5      4.07e-03     00000 Conjugate Gradient Iteration
computing hessian-vector products by finite difference
              6      1.63e-03     00000 Conjugate Gradient Iteration
computing hessian-vector products by finite difference
              7      3.52e-04     00000 Conjugate Gradient Iteration
computing hessian-vector products by finite difference
              8      6.27e-05     00000 Conjugate Gradient Iteration
computing hessian-vector products by finite difference
              9      1.08e-05     00000 Conjugate Gradient Iteration
computing hessian-vector products by finite difference
             10      1.67e-06     00000 Conjugate Gradient Iteration
computing hessian-vector products by finite difference
             11      2.42e-07     00000 Conjugate Gradient Iteration
computing hessian-vector products by finite difference
             12      3.67e-08     00000 Conjugate Gradient Iteration
computing hessian-vector products by finite difference
             13      1.52e-08     00000 Conjugate Gradient Iteration
computing hessian-vector products by finite difference
             14      2.69e-09     00000 CG Converged
batch 0 complete
Done Calculating Responses
TESTING ORTHOGONALIZATION OF MULTIPOLE BASIS
Multipole virts passed orthogonality test
Virts Per Order
           87
          145
 
 --------------------------------------------------------------
 
                    Orbital Energies (a.u.)
 --------------------------------------------------------------
 
 Alpha MOs
 -- Occupied --
-19.2416 -10.3365 -10.2753 -10.2747 -10.2739 -10.2696 -10.2681 -10.2540
 -1.1841  -0.9863  -0.8936  -0.8758  -0.8037  -0.7414  -0.7076  -0.6572
 -0.5933  -0.5740  -0.5461  -0.5321  -0.5257  -0.5104  -0.5052  -0.4729
 -0.4511  -0.4374  -0.4348  -0.3477  -0.3101
 -- Virtual --
  0.0603   0.0632   0.0740   0.0792   0.0889   0.0993   0.1143   0.1155
  0.1183   0.1363   0.1504   0.1565   0.1613   0.1776   0.1825   0.1978
  0.2038   0.2093   0.2199   0.2302   0.2397   0.2442   0.2548   0.2590
  0.2663   0.2734   0.2782   0.2802   0.2851   0.2980   0.2995   0.3072
  0.3094   0.3124   0.3169   0.3281   0.3374   0.3437   0.3467   0.3532
  0.3586   0.3602   0.3656   0.3754   0.3789   0.3838   0.3870   0.3939
  0.3986   0.3999   0.4042   0.4094   0.4141   0.4204   0.4301   0.4346
  0.4386   0.4550   0.4579   0.4675   0.4752   0.4767   0.4793   0.4846
  0.4892   0.4969   0.5002   0.5026   0.5135   0.5185   0.5304   0.5400
  0.5436   0.5480   0.5523   0.5577   0.5659   0.5735   0.5845   0.5953
  0.6059   0.6077   0.6185   0.6338   0.6419   0.6595   0.6668   0.6759
  0.6816   0.6881   0.6916   0.6952   0.6956   0.7054   0.7224   0.7303
  0.7330   0.7390   0.7502   0.7533   0.7626   0.7729   0.7832   0.7890
  0.7918   0.7943   0.7994   0.8011   0.8079   0.8174   0.8291   0.8384
  0.8439   0.8503   0.8549   0.8588   0.8677   0.8747   0.8862   0.8941
  0.9049   0.9154   0.9303   0.9495   0.9603   0.9812   0.9971   1.0157
  1.0184   1.0366   1.0391   1.0489   1.0585   1.0692   1.0751   1.0887
  1.1028   1.1148   1.1416   1.1744   1.1930   1.2352   1.2667   1.2949
  1.3084   1.3087   1.3313   1.3499   1.3660   1.3867   1.3960   1.4344
  1.4524   1.4614   1.4708   1.4842   1.5269   1.5598   1.6018   1.6234
  1.6301   1.6390   1.6852   1.6888   1.6968   1.7303   1.7808   1.8012
  1.8214   1.8265   1.8351   1.8604   1.8666   1.8797   1.9196   1.9252
  1.9375   1.9559   1.9691   1.9861   1.9954   2.0277   2.0496   2.0552
  2.0582   2.0776   2.0899   2.1062   2.1136   2.1709   2.1979   2.1985
  2.2180   2.2434   2.2646   2.2780   2.2912   2.3201   2.3470   2.3680
  2.3918   2.3983   2.4326   2.4564   2.4967   2.5063   2.5184   2.5507
  2.5683   2.6017   2.6264   2.6517   2.6576   2.6726   2.6898   2.7341
  2.7503   2.7549   2.7750   2.7891   2.8118   2.8305   2.8687   2.8749
  2.8996   2.9176   2.9351   2.9408   2.9610   2.9761   2.9801   3.0005
  3.0184   3.0383   3.0574   3.0697   3.0881   3.1196   3.1493   3.1621
  3.1751   3.1911   3.2095   3.2252   3.2515   3.2676   3.2881   3.2930
  3.3241   3.3435   3.3802   3.3855   3.3914   3.3931   3.4420   3.4523
  3.4618   3.4701   3.4847   3.5026   3.5158   3.5233   3.5314   3.5403
  3.5512   3.5681   3.5747   3.5921   3.5976   3.6193   3.6378   3.6680
  3.6758   3.6926   3.7351   3.7597   3.8017   3.8182   3.8371   3.9004
  3.9324   3.9518   3.9641   3.9792   4.0214   4.0742   4.1097   4.1284
  4.2362   4.2527   4.2817   4.2973   4.3079   4.3096   4.3211   4.3352
  4.3603   4.3630   4.4142   4.4433   4.4624   4.4990   4.5926   4.6170
  4.7100   4.7183   4.7676   4.7813   4.8555   4.9199   5.0067   5.0449
  5.0739   5.1353   5.1447   5.2835   5.2957   5.3708   5.4266   5.5311
  5.6035   5.6134   5.6861   5.7606   5.9224   6.1938   6.4449   6.5870
  6.6217   6.8672   6.9729   7.3099   7.4478  22.6622  22.6729  22.9024
 22.9376  23.0000  23.1233  23.4383  44.4097
 --------------------------------------------------------------
 
          Ground-State Mulliken Net Atomic Charges

     Atom                 Charge (a.u.)
  ----------------------------------------
      1 C                    -1.077936
      2 C                    -0.488767
      3 C                     0.542981
      4 C                    -0.734827
      5 C                    -0.554777
      6 C                     0.604733
      7 C                    -0.469767
      8 O                    -0.538246
      9 H                     0.376390
     10 H                     0.403709
     11 H                     0.281221
     12 H                     0.295288
     13 H                     0.402675
     14 H                     0.370893
     15 H                     0.339899
     16 H                     0.246531
  ----------------------------------------
  Sum of atomic charges =     0.000000

 -----------------------------------------------------------------
                    Cartesian Multipole Moments
 -----------------------------------------------------------------
    Charge (ESU x 10^10)
                -0.0000
    Dipole Moment (Debye)
         X      -1.6271      Y      -0.4068      Z      -1.1080
       Tot       2.0101
    Quadrupole Moments (Debye-Ang)
        XX     -36.9757     XY      10.1171     YY     -40.5521
        XZ       2.6955     YZ      -1.8605     ZZ     -49.2556
    Octopole Moments (Debye-Ang^2)
       XXX     283.6851    XXY      -2.0656    XYY      63.8482
       YYY     106.3663    XXZ      -1.2490    XYZ      12.9806
       YYZ      14.1244    XZZ     107.1168    YZZ      52.3201
       ZZZ       0.7340
    Hexadecapole Moments (Debye-Ang^3)
      XXXX   -1586.6561   XXXY    -170.0662   XXYY    -235.3477
      XYYY    -181.1126   YYYY    -682.8083   XXXZ     -56.8913
      XXYZ       8.2295   XYYZ     -90.5176   YYYZ     129.8052
      XXZZ    -350.7372   XYZZ    -112.9785   YYZZ    -233.1695
      XZZZ     -46.1880   YZZZ     210.6666   ZZZZ    -561.4075
 -----------------------------------------------------------------
Archival summary:
1\1\nid00546\SP\ProcedureUnspecified\BasisUnspecified\178\meili\SunSep2618:27:552021SunSep2618:27:552021\0\\#,ProcedureUnspecified,BasisUnspecified,\\0,1\C\O,1,1.37495\H,2,0.970209,1,113.334\C,1,1.40298,2,117.668,3,-179.765,0\H,4,1.08131,1,119.523,2,-0.0021417,0\C,4,1.39449,1,120.594,2,179.979,0\H,6,1.07837,4,119.856,1,179.968,0\C,6,1.39691,4,120.859,1,-0.0118221,0\C,8,1.40576,6,119.201,4,-0.782329,0\H,9,1.08341,8,119.303,6,-178.803,0\C,1,1.41076,2,122.879,3,-0.143143,0\H,11,1.08267,1,119.544,2,0.67922,0\C,8,1.51909,6,119.682,4,177.278,0\H,13,1.08963,8,108.929,6,138.55,0\H,13,1.09144,8,109.112,6,19.6259,0\H,13,1.1,8,116.016,6,-102.671,0\\\@

 Total job time:  38056.84s(wall), 75597.60s(cpu) 
 Sun Sep 26 18:27:59 2021

        *************************************************************
        *                                                           *
        *  Thank you very much for using Q-Chem.  Have a nice day.  *
        *                                                           *
        *************************************************************


Done Job For Fragment 0
calling putenv with: QCSCRATCH=/global/cscratch1/sd/meili 
calling putenv with: QCLOCALSCR=/tmp 
calling putenv with: QCTHREADS=32 
Creating input file /tmp/qchem57189/Frg2.input
using default PutDataFrgm: nothing
calling putenv with: QCSCRATCH=/tmp/qchem57189/ 
calling putenv with: QCLOCALSCR=/tmp/qchem57189/ 
Spawning Job For Fragment 1
                  Welcome to Q-Chem
     A Quantum Leap Into The Future Of Chemistry


 Q-Chem 5.2, Q-Chem, Inc., Pleasanton, CA (2019)

 License issued to: National Energy Research Scientific Computing Center

 Yihan Shao,  Zhengting Gan,  E. Epifanovsky,  A. T. B. Gilbert,  M. Wormit,  
 J. Kussmann,  A. W. Lange,  A. Behn,  Jia Deng,  Xintian Feng,  D. Ghosh,  
 M. Goldey,  P. R. Horn,  L. D. Jacobson,  I. Kaliman,  T. Kus,  A. Landau,  
 Jie Liu,  E. I. Proynov,  R. M. Richard,  R. P. Steele,  E. J. Sundstrom,  
 H. L. Woodcock III,  P. M. Zimmerman,  D. Zuev,  B. Albrecht,  E. Alguire,  
 S. A. Baeppler,  D. Barton,  Z. Benda,  Y. A. Bernard,  E. J. Berquist,  
 K. B. Bravaya,  H. Burton,  D. Casanova,  Chun-Min Chang,  Yunqing Chen,  
 A. Chien,  K. D. Closser,  M. P. Coons,  S. Coriani,  S. Dasgupta,  
 A. L. Dempwolff,  M. Diedenhofen,  Hainam Do,  R. G. Edgar,  Po-Tung Fang,  
 S. Faraji,  S. Fatehi,  Qingguo Feng,  K. D. Fenk,  J. Fosso-Tande,  
 J. Gayvert,  Qinghui Ge,  A. Ghysels,  G. Gidofalvi,  J. Gomes,  
 J. Gonthier,  A. Gunina,  D. Hait,  M. W. D. Hanson-Heine,  
 P. H. P. Harbach,  A. W. Hauser,  M. F. Herbst,  J. E. Herr,  
 E. G. Hohenstein,  Z. C. Holden,  Kerwin Hui,  B. C. Huynh,  T.-C. Jagau,  
 Hyunjun Ji,  B. Kaduk,  K. Khistyaev,  Jaehoon Kim,  P. Klunzinger,  K. Koh,  
 D. Kosenkov,  L. Koulias,  T. Kowalczyk,  C. M. Krauter,  A. Kunitsa,  
 Ka Un Lao,  A. Laurent,  K. V. Lawler,  Joonho Lee,  D. Lefrancois,  
 S. Lehtola,  D. S. Levine,  Yi-Pei Li,  You-Sheng Lin,  Fenglai Liu,  
 E. Livshits,  A. Luenser,  P. Manohar,  E. Mansoor,  S. F. Manzer,  
 Shan-Ping Mao,  Yuezhi Mao,  N. Mardirossian,  A. V. Marenich,  
 T. Markovich,  L. A. Martinez-Martinez,  S. A. Maurer,  N. J. Mayhall,  
 S. C. McKenzie,  J.-M. Mewes,  P. Morgante,  A. F. Morrison,  
 J. W. Mullinax,  K. Nanda,  T. S. Nguyen-Beck,  R. Olivares-Amaya,  
 J. A. Parkhill,  Zheng Pei,  T. M. Perrine,  F. Plasser,  P. Pokhilko,  
 S. Prager,  A. Prociuk,  E. Ramos,  D. R. Rehn,  F. Rob,  M. Scheurer,  
 M. Schneider,  N. Sergueev,  S. M. Sharada,  S. Sharma,  D. W. Small,  
 T. Stauch,  T. Stein,  Yu-Chuan Su,  A. J. W. Thom,  A. Tkatchenko,  
 T. Tsuchimochi,  N. M. Tubman,  L. Vogt,  M. L. Vidal,  O. Vydrov,  
 M. A. Watson,  J. Wenzel,  M. de Wergifosse,  T. A. Wesolowski,  A. White,  
 J. Witte,  A. Yamada,  Jun Yang,  K. Yao,  S. Yeganeh,  S. R. Yost,  
 Zhi-Qiang You,  A. Zech,  Igor Ying Zhang,  Xing Zhang,  Yan Zhao,  
 Ying Zhu,  B. R. Brooks,  G. K. L. Chan,  C. J. Cramer,  M. S. Gordon,  
 W. J. Hehre,  A. Klamt,  M. W. Schmidt,  C. D. Sherrill,  D. G. Truhlar,  
 A. Aspuru-Guzik,  R. Baer,  A. T. Bell,  N. A. Besley,  Jeng-Da Chai,  
 A. E. DePrince, III,  R. A. DiStasio Jr.,  A. Dreuw,  B. D. Dunietz,  
 T. R. Furlani,  Chao-Ping Hsu,  Yousung Jung,  Jing Kong,  D. S. Lambrecht,  
 WanZhen Liang,  C. Ochsenfeld,  V. A. Rassolov,  L. V. Slipchenko,  
 J. E. Subotnik,  T. Van Voorhis,  J. M. Herbert,  A. I. Krylov,  
 P. M. W. Gill,  M. Head-Gordon

 Contributors to earlier versions of Q-Chem not listed above: 
 R. D. Adamson,  B. Austin,  J. Baker,  G. J. O. Beran,  K. Brandhorst,  
 S. T. Brown,  E. F. C. Byrd,  A. K. Chakraborty,  C.-L. Cheng,  
 Siu Hung Chien,  D. M. Chipman,  D. L. Crittenden,  H. Dachsel,  
 R. J. Doerksen,  A. D. Dutoi,  L. Fusti-Molnar,  W. A. Goddard III,  
 A. Golubeva-Zadorozhnaya,  S. R. Gwaltney,  G. Hawkins,  A. Heyden,  
 S. Hirata,  G. Kedziora,  F. J. Keil,  C. Kelley,  Jihan Kim,  R. A. King,  
 R. Z. Khaliullin,  P. P. Korambath,  W. Kurlancheek,  A. M. Lee,  M. S. Lee,  
 S. V. Levchenko,  Ching Yeh Lin,  D. Liotard,  R. C. Lochan,  I. Lotan,  
 P. E. Maslen,  N. Nair,  D. P. O'Neill,  D. Neuhauser,  E. Neuscamman,  
 C. M. Oana,  R. Olson,  B. Peters,  R. Peverati,  P. A. Pieniazek,  
 Y. M. Rhee,  J. Ritchie,  M. A. Rohrdanz,  E. Rosta,  N. J. Russ,  
 H. F. Schaefer III,  N. E. Schultz,  N. Shenvi,  A. C. Simmonett,  A. Sodt,  
 D. Stuck,  K. S. Thanthiriwatte,  V. Vanovschi,  Tao Wang,  A. Warshel,  
 C. F. Williams,  Q. Wu,  X. Xu,  W. Zhang

 Please cite Q-Chem as follows:
 Y. Shao et al., Mol. Phys. 113, 184-215 (2015)
 DOI: 10.1080/00268976.2014.952696

 Q-Chem 5.2.0 for Intel X86 EM64T Linux

 Parts of Q-Chem use Armadillo 8.300.2 (Tropical Shenanigans).
 http://arma.sourceforge.net/

 Q-Chem begins on Sun Sep 26 18:28:04 2021  

Host: cori01
0

     Scratch files written to /tmp/qchem57189//Frg2//
 May1019 |scratch|qcdevops|jenkins|workspace|build_RNUM -1
Processing $rem in /global/common/cori/software/qchem/5.2/config/preferences:
	 MEM_TOTAL  96000 
NAlpha2: 58
NElect   58
Mult     1
Symmetry turned off for PCM/SM12/SMD calculation

Checking the input file for inconsistencies... 	...done.

--------------------------------------------------------------
User input:
--------------------------------------------------------------
$molecule
0 1
 6	4.0603838988	-0.7266565408	-1.5326424998
 6	1.5323838988	1.9553434592	0.7223575002
 6	1.7493838988	2.1603434592	-0.6476424998
 6	2.1053838988	0.8503434592	1.3633575002
 6	2.5413838988	1.2713434592	-1.3746424998
 6	2.8983838988	-0.0416565408	0.6223575002
 6	3.1243838988	0.1683434592	-0.7506424998
 8	0.7393838988	2.8443434592	1.3993575002
 1	1.3103838988	3.0153434592	-1.1376424998
 1	0.3953838988	3.5473434592	0.8513575002
 1	1.9363838988	0.6903434592	2.4193575002
 1	2.7113838988	1.4363434592	-2.4296424998
 1	3.3473838988	-0.8966565408	1.1133575002
 1	4.3703838988	-1.5586565408	-0.9026424998
 1	4.9463838988	-0.1506565408	-1.8176424998
 1	3.5818938988	-1.1915365408	-2.4072424998
$end
$rem
EDA2		1
METHOD		WB97X-V
BASIS		DEF2-TZVPD
XC_GRID		000099000590
NL_GRID		1
UNRESTRICTED		FALSE
MAX_SCF_CYCLES		200
SYMMETRY		FALSE
SYM_IGNORE		TRUE
BASIS_LIN_DEP_THRESH		6
THRESH		14
SCF_CONVERGENCE		8
SCF_PRINT_FRGM		TRUE
SOLVENT_METHOD		SMD
!required keywords
JOBTYPE		SP
SYM_IGNORE		TRUE
SUBSYSTEM		TRUE
GEN_SCFMAN		TRUE
CHILD_INSTRUCTION		2
SYM_IGNORE		TRUE
SCFMI		0
RI_K 0		
PARI_K 0		
MIN_PARI_K 0		
IARI_K 0		
OCC_RI_K 0		
PURECART		1111
MEM_STATIC		2000
MEM_TOTAL		96000
GUI		0
CHILD_MP		1
CHILD_MP_ORDERS		232
FRZ_RELAX		0
FRZ_RELAX_METHOD		0
EDA_CLS_ELEC		1
EDA_CLS_DISP		0
FRZ_ORTHO_DECOMP		1
EDA2		FALSE
FRGM_METHOD		FALSE
CIS_N_ROOTS  0
LOCAL_CIS    0
CIS_RLX_DNS  1
$end
$smx
SOLVENT			WATER
$end
--------------------------------------------------------------
 ----------------------------------------------------------------
             Standard Nuclear Orientation (Angstroms)
    I     Atom           X                Y                Z
 ----------------------------------------------------------------
    1      C       4.0603838988    -0.7266565408    -1.5326424998
    2      C       1.5323838988     1.9553434592     0.7223575002
    3      C       1.7493838988     2.1603434592    -0.6476424998
    4      C       2.1053838988     0.8503434592     1.3633575002
    5      C       2.5413838988     1.2713434592    -1.3746424998
    6      C       2.8983838988    -0.0416565408     0.6223575002
    7      C       3.1243838988     0.1683434592    -0.7506424998
    8      O       0.7393838988     2.8443434592     1.3993575002
    9      H       1.3103838988     3.0153434592    -1.1376424998
   10      H       0.3953838988     3.5473434592     0.8513575002
   11      H       1.9363838988     0.6903434592     2.4193575002
   12      H       2.7113838988     1.4363434592    -2.4296424998
   13      H       3.3473838988    -0.8966565408     1.1133575002
   14      H       4.3703838988    -1.5586565408    -0.9026424998
   15      H       4.9463838988    -0.1506565408    -1.8176424998
   16      H       3.5818938988    -1.1915365408    -2.4072424998
 ----------------------------------------------------------------
 Nuclear Repulsion Energy =         341.59527918 hartrees
 There are       29 alpha and       29 beta electrons
 Requested basis set is def2-TZVPD
 There are 145 shells and 371 basis functions

 Total QAlloc Memory Limit  96000 MB
 Mega-Array Size      1956 MB
 MEM_STATIC part      2000 MB
 
 Citation of the SMD model:
 Marenich, A.V.; Cramer, C.J.; Truhlar, D.G.
 J. Phys. Chem. B 2009, 113, 6378-6396.
 iSolventCode=           1
 Solvent: water                                                           
 
 vradii
            1           2           3           4           5           6
    1   1.8500000   1.8500000   1.8500000   1.8500000   1.8500000   1.8500000
            7           8           9          10          11          12
    1   1.8500000   1.5200000   1.2000000   1.2000000   1.2000000   1.2000000
           13          14          15          16
    1   1.2000000   1.2000000   1.2000000   1.2000000
 Changing PCM_VDW_RADII to SMD_RADIUS
 Discretize the solute cavity surface with Lebedev spheres
	Using 110 Lebedev grid points for each H atom
	Using 194 Lebedev grid points for other atoms
	Atomic van der Waals radii will be scaled by 1.20
 Remove points where switching function is < 1.0e-08
 Keep 1189 surface tesserae and discard 1243 interior tesserae
 Molecular Surface Area = 142.097 Angst**2
 A cutoff of  1.0D-14 yielded  10042 shell pairs
 There are     67058 function pairs (     85748 Cartesian)
 Smallest overlap matrix eigenvalue = 6.04E-07
 Linear dependence detected in AO basis
 Tighter screening thresholds may be required for diffuse basis sets
 Use S2THRESH > 14 and THRESH = 14 in case of SCF convergence issues
 Number of orthogonalized atomic orbitals = 370
 Maximum deviation from orthogonality = 1.811E-10

 Scale SEOQF with 1.000000e-01/1.000000e-01/1.000000e-01

 Standard Electronic Orientation quadrupole field applied
 Nucleus-field energy     =     0.0000000160 hartrees
 Guess from superposition of atomic densities
 Warning:  Energy on first SCF cycle will be non-variational
 SAD guess density has 57.738434 electrons

 -----------------------------------------------------------------------
  General SCF calculation program by
  Eric Jon Sundstrom, Paul Horn, Yuezhi Mao, Dmitri Zuev, Alec White,
  David Stuck, Shaama M.S., Shane Yost, Joonho Lee, David Small,
  Daniel Levine, Susi Lehtola, Hugh Burton, Evgeny Epifanovsky
 -----------------------------------------------------------------------
 Exchange:     0.1670 Hartree-Fock + 1.0000 wB97X-V + LR-HF
 Correlation:  1.0000 wB97X-V
 Using Euler-Maclaurin-Lebedev (99,590) quadrature formula
 Nonlocal Correlation:  VV10 with C = 0.0100 and b = 6.00 and scale = 1.00000
 Grid used for NLC:  SG-1 standard quadrature
Energy prior to optimization (guess energy) = -346.496128760217
Begin Timing: Total SCF Calculation
begin iterations for algorithm: DIIS         
the SCF tolerance is set to 1.00e-08
    1    -346.4961287602      5.17e-03     00000 
    2    -346.4361086972      5.59e-03     00000 
    3    -346.8190846812      5.28e-04     00000 
    4    -346.8239118984      1.74e-04     00000 
    5    -346.8245980495      3.66e-05     00000 
    6    -346.8246471043      1.30e-05     00000 
    7    -346.8246517558      4.91e-06     00000 
    8    -346.8246524715      1.42e-06     00000 
    9    -346.8246525617      4.95e-07     00000 
   10    -346.8246525747      2.53e-07     00000 
   11    -346.8246525787      7.59e-08     00000 
   12    -346.8246525794      3.71e-08     00000 
   13    -346.8246525796      1.44e-08     00000 
   14    -346.8246525796      3.71e-09     00000 Convergence criterion met
Timing for Total SCF: 2108.00s (wall), 4192.12s (cpu)
(3)  G-ENP(liq) elect-nuc-pol free energy of system     -346.824652580 a.u.
(4)  G-CDS(liq) cavity-dispersion-solvent structure 
     free energy                                                3.7642 kcal/mol
(6)  G-S(liq) free energy of system                     -346.818654025 a.u.
E_pcm = -0.0175779774
E_cds = 0.0059985549
Multipole orders to be included
        2
        3
computing dipole RHS
computing quadrupole RHS
total number of RHS in solve_reponses: 8
RHS batch sizes
        8
Beginning Block Conjugate Gradient Iterations. Batch Number: 0
computing hessian-vector products by finite difference
              1      6.52e-01     00000 Conjugate Gradient Iteration
computing hessian-vector products by finite difference
              2      2.00e-01     00000 Conjugate Gradient Iteration
computing hessian-vector products by finite difference
              3      5.21e-02     00000 Conjugate Gradient Iteration
computing hessian-vector products by finite difference
              4      1.60e-02     00000 Conjugate Gradient Iteration
computing hessian-vector products by finite difference
              5      4.39e-03     00000 Conjugate Gradient Iteration
computing hessian-vector products by finite difference
              6      1.60e-03     00000 Conjugate Gradient Iteration
computing hessian-vector products by finite difference
              7      3.52e-04     00000 Conjugate Gradient Iteration
computing hessian-vector products by finite difference
              8      6.68e-05     00000 Conjugate Gradient Iteration
computing hessian-vector products by finite difference
              9      1.31e-05     00000 Conjugate Gradient Iteration
computing hessian-vector products by finite difference
             10      2.04e-06     00000 Conjugate Gradient Iteration
computing hessian-vector products by finite difference
             11      2.81e-07     00000 Conjugate Gradient Iteration
computing hessian-vector products by finite difference
             12      3.96e-08     00000 Conjugate Gradient Iteration
computing hessian-vector products by finite difference
             13      1.12e-08     00000 Conjugate Gradient Iteration
computing hessian-vector products by finite difference
             14      3.48e-09     00000 CG Converged
batch 0 complete
Done Calculating Responses
TESTING ORTHOGONALIZATION OF MULTIPOLE BASIS
Multipole virts passed orthogonality test
Virts Per Order
           87
          145
 
 --------------------------------------------------------------
 
                    Orbital Energies (a.u.)
 --------------------------------------------------------------
 
 Alpha MOs
 -- Occupied --
-19.2389 -10.3347 -10.2736 -10.2728 -10.2706 -10.2688 -10.2674 -10.2536
 -1.1878  -0.9879  -0.8948  -0.8773  -0.8037  -0.7411  -0.7091  -0.6602
 -0.5961  -0.5735  -0.5443  -0.5365  -0.5269  -0.5171  -0.5026  -0.4687
 -0.4484  -0.4392  -0.4341  -0.3488  -0.3096
 -- Virtual --
  0.0620   0.0636   0.0741   0.0806   0.0889   0.0995   0.1140   0.1156
  0.1184   0.1365   0.1499   0.1555   0.1607   0.1778   0.1863   0.1967
  0.2039   0.2095   0.2218   0.2335   0.2359   0.2433   0.2519   0.2599
  0.2686   0.2738   0.2784   0.2819   0.2843   0.2997   0.3011   0.3064
  0.3094   0.3154   0.3160   0.3294   0.3363   0.3456   0.3492   0.3562
  0.3598   0.3619   0.3676   0.3740   0.3788   0.3830   0.3883   0.3954
  0.3999   0.4028   0.4065   0.4094   0.4176   0.4233   0.4309   0.4349
  0.4382   0.4574   0.4620   0.4662   0.4770   0.4822   0.4852   0.4890
  0.4943   0.4984   0.5057   0.5064   0.5158   0.5159   0.5292   0.5396
  0.5463   0.5498   0.5538   0.5564   0.5630   0.5689   0.5797   0.5919
  0.6064   0.6090   0.6199   0.6245   0.6483   0.6601   0.6632   0.6689
  0.6820   0.6861   0.6982   0.7014   0.7028   0.7121   0.7198   0.7318
  0.7361   0.7419   0.7504   0.7534   0.7628   0.7726   0.7842   0.7884
  0.7914   0.7943   0.7952   0.7993   0.8073   0.8217   0.8287   0.8403
  0.8460   0.8543   0.8593   0.8623   0.8718   0.8751   0.8832   0.8922
  0.9067   0.9157   0.9419   0.9484   0.9584   0.9921   1.0069   1.0161
  1.0171   1.0428   1.0464   1.0524   1.0592   1.0609   1.0841   1.0952
  1.0989   1.1194   1.1383   1.1623   1.2051   1.2334   1.2777   1.3024
  1.3087   1.3191   1.3269   1.3588   1.3689   1.3818   1.4052   1.4401
  1.4488   1.4669   1.4697   1.4917   1.5262   1.5677   1.6153   1.6272
  1.6426   1.6521   1.6665   1.6771   1.6996   1.7359   1.7603   1.8025
  1.8221   1.8286   1.8409   1.8480   1.8650   1.8801   1.9187   1.9288
  1.9422   1.9644   1.9809   1.9894   1.9967   2.0322   2.0420   2.0561
  2.0575   2.0758   2.0846   2.1171   2.1190   2.1671   2.2009   2.2042
  2.2241   2.2472   2.2712   2.2902   2.2993   2.3262   2.3411   2.3744
  2.3986   2.4021   2.4394   2.4617   2.4793   2.5029   2.5269   2.5569
  2.5763   2.6034   2.6267   2.6495   2.6628   2.6740   2.6936   2.7441
  2.7564   2.7658   2.7690   2.8146   2.8181   2.8352   2.8595   2.8697
  2.9179   2.9254   2.9330   2.9483   2.9688   2.9788   2.9859   3.0137
  3.0285   3.0393   3.0601   3.0825   3.0965   3.1389   3.1518   3.1606
  3.1763   3.2030   3.2063   3.2176   3.2443   3.2558   3.2923   3.2985
  3.3042   3.3723   3.3855   3.3955   3.4046   3.4237   3.4429   3.4509
  3.4590   3.4781   3.4858   3.5116   3.5185   3.5247   3.5402   3.5412
  3.5502   3.5651   3.5697   3.5935   3.6011   3.6251   3.6417   3.6831
  3.6925   3.6961   3.7437   3.7445   3.7912   3.8118   3.8425   3.9187
  3.9343   3.9571   3.9747   4.0008   4.0286   4.0785   4.1541   4.1816
  4.2431   4.2633   4.2671   4.2948   4.3218   4.3248   4.3342   4.3460
  4.3630   4.3765   4.4179   4.4656   4.4717   4.5271   4.5651   4.6238
  4.7267   4.7561   4.7832   4.8089   4.8353   4.9300   5.0129   5.0494
  5.0823   5.1292   5.1612   5.2908   5.3207   5.3831   5.4335   5.5333
  5.6227   5.6258   5.6979   5.7588   5.9329   6.2181   6.4712   6.6180
  6.6269   6.8714   7.0078   7.3091   7.4561  22.6792  22.6825  22.9161
 22.9699  23.0099  23.1464  23.4648  44.4163
 --------------------------------------------------------------
 
          Ground-State Mulliken Net Atomic Charges

     Atom                 Charge (a.u.)
  ----------------------------------------
      1 C                    -1.075461
      2 C                     0.648585
      3 C                    -0.328168
      4 C                    -0.816474
      5 C                    -0.598546
      6 C                    -0.462671
      7 C                     0.475594
      8 O                    -0.538898
      9 H                     0.372223
     10 H                     0.324099
     11 H                     0.404831
     12 H                     0.409589
     13 H                     0.369911
     14 H                     0.294729
     15 H                     0.244782
     16 H                     0.275876
  ----------------------------------------
  Sum of atomic charges =     0.000000

 -----------------------------------------------------------------
                    Cartesian Multipole Moments
 -----------------------------------------------------------------
    Charge (ESU x 10^10)
                 0.0000
    Dipole Moment (Debye)
         X       0.1604      Y       0.6620      Z      -1.9356
       Tot       2.0520
    Quadrupole Moments (Debye-Ang)
        XX     -47.0341     XY      -4.7078     YY     -39.4341
        XZ      -3.0625     YZ      -6.1146     ZZ     -47.2872
    Octopole Moments (Debye-Ang^2)
       XXX    -342.5834    XXY     -66.4107    XYY    -119.6615
       YYY    -104.5312    XXZ      -5.3670    XYZ      -9.4519
       YYZ     -10.5871    XZZ    -106.1929    YZZ     -56.2302
       ZZZ       2.2097
    Hexadecapole Moments (Debye-Ang^3)
      XXXX   -2020.5988   XXXY    -232.6383   XXYY    -489.4309
      XYYY    -190.1902   YYYY    -604.9425   XXXZ     110.3539
      XXYZ     -46.5220   XYYZ      29.2618   YYYZ    -106.2837
      XXZZ    -393.1342   XYZZ     -59.7777   YYZZ    -233.6916
      XZZZ     131.2849   YZZZ    -106.3242   ZZZZ    -458.4000
 -----------------------------------------------------------------
Archival summary:
1\1\nid00546\SP\ProcedureUnspecified\BasisUnspecified\178\meili\MonSep2704:38:232021MonSep2704:38:232021\0\\#,ProcedureUnspecified,BasisUnspecified,\\0,1\C\O,1,1.37022\H,2,0.955431,1,113.726\C,1,1.40008,2,121.514,3,-179.024,0\H,4,1.08134,1,119.995,2,-0.796225,0\C,1,1.40215,2,118.52,3,0.0404609,0\H,6,1.07882,1,119.781,2,1.2141,0\C,6,1.39503,1,120.257,2,-179.461,0\H,8,1.08127,6,120.032,1,-179.617,0\C,8,1.39495,6,120.534,1,0.117412,0\C,4,1.40485,1,119.384,2,179.251,0\H,11,1.08338,4,119.735,1,179.786,0\C,10,1.51283,8,119.679,6,-175.566,0\H,13,1.08868,10,109.218,8,-176.866,0\H,13,1.09453,10,108.911,8,64.4298,0\H,13,1.1,10,113.072,8,-60.192,0\\\@

 Total job time:  36621.47s(wall), 72671.69s(cpu) 
 Mon Sep 27 04:38:26 2021

        *************************************************************
        *                                                           *
        *  Thank you very much for using Q-Chem.  Have a nice day.  *
        *                                                           *
        *************************************************************


Done Job For Fragment 1
calling putenv with: QCSCRATCH=/global/cscratch1/sd/meili 
calling putenv with: QCLOCALSCR=/tmp 
calling putenv with: QCTHREADS=32 
Doing General SCFMI
 Exchange:     0.1670 Hartree-Fock + 1.0000 wB97X-V + LR-HF
 Correlation:  1.0000 wB97X-V
 Using Euler-Maclaurin-Lebedev (99,590) quadrature formula
 Nonlocal Correlation:  VV10 with C = 0.0100 and b = 6.00 and scale = 1.00000
 Grid used for NLC:  SG-1 standard quadrature
performing fock build before subrot guess so that all methods have access
Printing subrot_rss_gen Method Specification:
Occupied Subspace Method is 0
Virtual Subspace Method is 0
Energy of the unrelaxed supersystem initial determinant -693.616768822290
performing fock build before subrot guess so that all methods have access
Printing subrot_rss_gen Method Specification:
Occupied Subspace Method is 0
Virtual Subspace Method is 0
Energy of the unrelaxed supersystem initial determinant w/ solvent -693.652215080400
write pseudocanon occs and virts to disk
write pseudocanon orbital energies to disk
Tolerance of ortho_decomp_scf: 1.00e-06
GDM subspace size: 20
Beginning the Orthogonal Decomposition of the Initial Supersystem Wavefunction
    1    -693.5997142166      1.56e-02     ortho_decomp Preconditoned Steepest Descent
    2    -693.6010901132      3.79e-04     ortho_decomp BFGS Step
    3    -693.6010942866      2.95e-05     ortho_decomp BFGS Step
    4    -693.6010942957      1.28e-06     ortho_decomp BFGS Step
    5    -693.6010942958      5.00e-08     ortho_decomp 00000 Convergence criterion met
 Hartree-Fock
 Hartree-Fock
 Hartree-Fock
Doing General SCFMI
 Exchange:     0.1670 Hartree-Fock + 1.0000 wB97X-V + LR-HF
 Correlation:  1.0000 wB97X-V
 Using Euler-Maclaurin-Lebedev (99,590) quadrature formula
 Nonlocal Correlation:  VV10 with C = 0.0100 and b = 6.00 and scale = 1.00000
 Grid used for NLC:  SG-1 standard quadrature
performing fock build at end of subrot_r(subrot) constructor so that all methods have access
<S^2> of initial wavefunction before polarization iterations 0.0000000000
Beginning iterations for the determination of the polarized wavefunction
Energy prior to optimization (guess energy) = -693.652215080400
Begin Timing: Total SCF Calculation
begin iterations for algorithm: DIIS         
the SCF tolerance is set to 1.00e-08
    1    -693.6522150804      3.71e-05     00000 
    2    -693.6524128044      1.41e-05     00000 
    3    -693.6524339438      8.38e-06     00000 
    4    -693.6524410308      2.25e-06     00000 
    5    -693.6524419390      1.16e-06     00000 
    6    -693.6524421665      4.14e-07     00000 
    7    -693.6524421921      2.05e-07     00000 
    8    -693.6524421959      9.69e-08     00000 
    9    -693.6524421965      4.46e-08     00000 
   10    -693.6524421966      2.39e-08     00000 
   11    -693.6524421967      9.29e-09     00000 Convergence criterion met
write pseudocanon occs and virts to disk
write pseudocanon orbital energies to disk
Timing for Total SCF: 12618.00s (wall), 25123.23s (cpu)
<S^2> of polarized wavefunction after polarization iterations 0.0000000000
relaxing scfmi constraint to allow all rotations in the entire AO span
Doing General SCFMI
 Exchange:     0.1670 Hartree-Fock + 1.0000 wB97X-V + LR-HF
 Correlation:  1.0000 wB97X-V
 Using Euler-Maclaurin-Lebedev (99,590) quadrature formula
 Nonlocal Correlation:  VV10 with C = 0.0100 and b = 6.00 and scale = 1.00000
 Grid used for NLC:  SG-1 standard quadrature
performing fock build at end of subrot_r(subrot) constructor so that all methods have access
<S^2> of polarized wavefunction before ct-allowed iterations 0.0000000000
Beginning iterations for the determination of the CT-Allowed wavefunction
Energy prior to optimization (guess energy) = -693.652442196653
Begin Timing: Total SCF Calculation
begin iterations for algorithm: DIIS         
the SCF tolerance is set to 1.00e-08
    1    -693.6524421967      6.02e-05     00000 
    2    -693.6533612123      6.18e-06     00000 
    3    -693.6533895568      1.11e-06     00000 
    4    -693.6533906572      5.43e-07     00000 
    5    -693.6533907555      1.53e-07     00000 
    6    -693.6533907705      5.34e-08     00000 
    7    -693.6533907716      1.65e-08     00000 
    8    -693.6533907718      7.09e-09     00000 Convergence criterion met
write pseudocanon occs and virts to disk
write pseudocanon orbital energies to disk
Timing for Total SCF: 8498.00s (wall), 16910.32s (cpu)
<S^2> of ct_allowed wavefunction after ct-allowed iterations 0.0000000000

================================
        Results of EDA2         
================================
Basic EDA Quantities
--------------------
Fragment Energies (Ha):
1 -346.8189581900
2 -346.8186540246
--------------------
  E_prp (kJ/mol) = 0.0000
  E_sol (kJ/mol) = -1.7688
  E_frz (kJ/mol) = -6.6721
  E_pol (kJ/mol) = -0.5963
  E_vct (kJ/mol) = -2.4905
  E_int (kJ/mol) = -11.5277
--------------------


Initial Wavefunction Decomposition
--------------------
  --------------------
  Orthogonal Fragment Subspace Decomposition:
  --------------------
     E_elec   (ELEC)   (kJ/mol) = -15.8044
     E_pauli  (PAULI)  (kJ/mol) = 26.4348
     E_disp   (DISP)   (kJ/mol) = -17.3025
     --------------------
     Terms summing to E_pauli:
     --------------------
        E_kep_pauli       (kJ/mol) = 34.4818
        E_disp_free_pauli (kJ/mol) = -8.0470
  --------------------
  Classical Frozen Decomposition:
  --------------------
     E_cls_elec  (CLS ELEC)  (kJ/mol) = -5.2063
     E_cls_pauli (CLS PAULI) (kJ/mol) = -1.4658
    [E_mod_pauli (MOD PAULI) (kJ/mol) = 15.8368 (CLS PAULI - DISP from orthogonal decomposition) ]
  --------------------
--------------------

Simplified EDA Summary (kJ/mol)
--------------------
 PREPARATION     0.0000
 SOLVATION       -1.7688
 FROZEN          10.6304      (does not include dispersion)
[PAULI           26.4348]     (if this is negligible, then frozen describes electrostatics)
 DISPERSION      -17.3025
 POLARIZATION    -0.5963
 CHARGE TRANSFER -2.4905
 TOTAL           -11.5277     (PRP + SOL + FRZ + DISP + POL + CT)
--------------------
 
 --------------------------------------------------------------
 
                    Orbital Energies (a.u.)
 --------------------------------------------------------------
 
 Alpha MOs
 -- Occupied --
-19.2415 -19.2396 -10.3365 -10.3348 -10.2750 -10.2745 -10.2743 -10.2737
-10.2734 -10.2710 -10.2695 -10.2686 -10.2679 -10.2678 -10.2541 -10.2538
 -1.1883  -1.1840  -0.9886  -0.9860  -0.8954  -0.8934  -0.8778  -0.8755
 -0.8042  -0.8034  -0.7418  -0.7410  -0.7096  -0.7073  -0.6606  -0.6574
 -0.5966  -0.5932  -0.5742  -0.5737  -0.5496  -0.5446  -0.5376  -0.5320
 -0.5273  -0.5253  -0.5154  -0.5103  -0.5039  -0.5029  -0.4728  -0.4689
 -0.4511  -0.4487  -0.4399  -0.4370  -0.4348  -0.4338  -0.3494  -0.3473
 -0.3100  -0.3098
 -- Virtual --
  0.0575   0.0586   0.0614   0.0674   0.0708   0.0736   0.0798   0.0815
  0.0903   0.0955   0.1022   0.1061   0.1091   0.1158   0.1232   0.1240
  0.1347   0.1359   0.1415   0.1453   0.1501   0.1583   0.1600   0.1631
  0.1659   0.1761   0.1770   0.1884   0.2006   0.2013   0.2056   0.2061
  0.2104   0.2136   0.2154   0.2233   0.2254   0.2312   0.2374   0.2421
  0.2448   0.2495   0.2575   0.2597   0.2624   0.2677   0.2697   0.2727
  0.2760   0.2792   0.2802   0.2820   0.2856   0.2914   0.2924   0.2977
  0.3039   0.3057   0.3098   0.3123   0.3150   0.3178   0.3204   0.3224
  0.3245   0.3296   0.3310   0.3352   0.3366   0.3385   0.3424   0.3458
  0.3524   0.3548   0.3595   0.3604   0.3641   0.3669   0.3692   0.3730
  0.3747   0.3786   0.3797   0.3818   0.3838   0.3886   0.3931   0.3967
  0.3971   0.3997   0.4007   0.4032   0.4088   0.4120   0.4138   0.4156
  0.4199   0.4202   0.4248   0.4260   0.4332   0.4362   0.4379   0.4426
  0.4451   0.4473   0.4516   0.4528   0.4580   0.4638   0.4651   0.4733
  0.4735   0.4768   0.4812   0.4832   0.4848   0.4864   0.4891   0.4943
  0.4952   0.4989   0.5047   0.5066   0.5093   0.5126   0.5144   0.5160
  0.5198   0.5250   0.5323   0.5354   0.5376   0.5409   0.5461   0.5493
  0.5517   0.5553   0.5590   0.5622   0.5665   0.5695   0.5744   0.5776
  0.5848   0.5872   0.5940   0.5989   0.6010   0.6017   0.6088   0.6168
  0.6215   0.6246   0.6275   0.6288   0.6303   0.6400   0.6444   0.6498
  0.6526   0.6563   0.6623   0.6631   0.6722   0.6770   0.6820   0.6858
  0.6913   0.6929   0.6962   0.6999   0.7039   0.7107   0.7124   0.7178
  0.7206   0.7254   0.7285   0.7305   0.7359   0.7429   0.7459   0.7490
  0.7505   0.7552   0.7605   0.7634   0.7643   0.7687   0.7703   0.7741
  0.7786   0.7791   0.7833   0.7872   0.7885   0.7946   0.7976   0.8026
  0.8058   0.8071   0.8116   0.8149   0.8183   0.8228   0.8268   0.8308
  0.8352   0.8374   0.8385   0.8397   0.8480   0.8502   0.8554   0.8599
  0.8659   0.8674   0.8708   0.8777   0.8798   0.8813   0.8837   0.8853
  0.8881   0.8933   0.9057   0.9087   0.9117   0.9185   0.9235   0.9262
  0.9346   0.9394   0.9406   0.9476   0.9550   0.9582   0.9647   0.9699
  0.9768   0.9793   0.9827   0.9940   1.0047   1.0112   1.0212   1.0222
  1.0298   1.0322   1.0434   1.0495   1.0496   1.0556   1.0628   1.0680
  1.0709   1.0820   1.0861   1.0895   1.0943   1.0983   1.1100   1.1168
  1.1209   1.1290   1.1342   1.1439   1.1511   1.1552   1.1658   1.1767
  1.1879   1.1909   1.2001   1.2093   1.2260   1.2409   1.2552   1.2664
  1.2721   1.2771   1.3074   1.3211   1.3233   1.3339   1.3364   1.3443
  1.3607   1.3670   1.3762   1.3841   1.3899   1.3977   1.4114   1.4129
  1.4250   1.4369   1.4447   1.4555   1.4675   1.4717   1.4810   1.4909
  1.4918   1.5024   1.5093   1.5163   1.5311   1.5366   1.5468   1.5599
  1.5774   1.5864   1.6285   1.6308   1.6460   1.6491   1.6554   1.6622
  1.6761   1.6964   1.7042   1.7070   1.7237   1.7301   1.7413   1.7443
  1.7545   1.7725   1.8129   1.8196   1.8300   1.8320   1.8477   1.8590
  1.8602   1.8747   1.8780   1.8859   1.8987   1.9032   1.9149   1.9173
  1.9239   1.9326   1.9478   1.9536   1.9591   1.9668   1.9765   1.9890
  1.9954   2.0068   2.0150   2.0182   2.0233   2.0390   2.0456   2.0494
  2.0571   2.0647   2.0717   2.0819   2.0964   2.1023   2.1050   2.1099
  2.1283   2.1305   2.1420   2.1512   2.1601   2.1676   2.1878   2.2015
  2.2057   2.2141   2.2280   2.2293   2.2387   2.2571   2.2655   2.2798
  2.2836   2.2868   2.2940   2.2976   2.3101   2.3318   2.3366   2.3389
  2.3470   2.3567   2.3677   2.3971   2.4001   2.4050   2.4137   2.4238
  2.4263   2.4470   2.4580   2.4627   2.4826   2.4880   2.5077   2.5121
  2.5344   2.5362   2.5540   2.5616   2.5760   2.5842   2.5883   2.6093
  2.6242   2.6374   2.6494   2.6595   2.6700   2.6764   2.6818   2.6852
  2.6984   2.7106   2.7125   2.7310   2.7512   2.7548   2.7648   2.7727
  2.7786   2.7857   2.8006   2.8110   2.8171   2.8258   2.8355   2.8437
  2.8545   2.8581   2.8754   2.8887   2.8982   2.9155   2.9231   2.9307
  2.9343   2.9439   2.9482   2.9635   2.9698   2.9779   2.9820   2.9894
  2.9990   3.0057   3.0175   3.0237   3.0270   3.0391   3.0479   3.0593
  3.0692   3.0738   3.0856   3.0924   3.1017   3.1035   3.1150   3.1307
  3.1368   3.1630   3.1682   3.1773   3.1854   3.1903   3.2008   3.2168
  3.2211   3.2234   3.2347   3.2375   3.2498   3.2574   3.2696   3.2715
  3.2926   3.3076   3.3099   3.3116   3.3210   3.3320   3.3482   3.3601
  3.3779   3.3861   3.3885   3.4019   3.4048   3.4111   3.4149   3.4224
  3.4435   3.4561   3.4605   3.4617   3.4654   3.4700   3.4840   3.4868
  3.4943   3.5001   3.5042   3.5212   3.5261   3.5302   3.5341   3.5412
  3.5498   3.5557   3.5586   3.5591   3.5620   3.5704   3.5797   3.5830
  3.5850   3.5899   3.6050   3.6081   3.6181   3.6204   3.6261   3.6293
  3.6413   3.6555   3.6660   3.6727   3.6847   3.7036   3.7051   3.7124
  3.7260   3.7311   3.7523   3.7546   3.7589   3.7786   3.7990   3.8140
  3.8327   3.8471   3.8514   3.8561   3.9172   3.9260   3.9477   3.9523
  3.9652   3.9719   3.9884   3.9949   4.0037   4.0185   4.0311   4.0512
  4.0941   4.1016   4.1192   4.1584   4.1680   4.2003   4.2444   4.2554
  4.2660   4.2727   4.2804   4.2988   4.3082   4.3135   4.3213   4.3264
  4.3296   4.3376   4.3415   4.3429   4.3533   4.3621   4.3673   4.3678
  4.3836   4.3959   4.4280   4.4398   4.4618   4.4674   4.4790   4.4862
  4.5204   4.5394   4.5722   4.6153   4.6335   4.6461   4.7220   4.7317
  4.7475   4.7608   4.7797   4.7917   4.8013   4.8181   4.8427   4.8688
  4.9448   4.9622   5.0227   5.0266   5.0507   5.0621   5.0911   5.1052
  5.1379   5.1570   5.1629   5.1726   5.2936   5.2948   5.3032   5.3240
  5.3726   5.3935   5.4359   5.4405   5.5340   5.5402   5.6144   5.6175
  5.6308   5.6372   5.7036   5.7089   5.7559   5.7695   5.9245   5.9457
  6.1976   6.2252   6.4458   6.4712   6.5932   6.6262   6.6272   6.6668
  6.8705   6.8929   6.9738   7.0276   7.3084   7.3286   7.4547   7.4704
 22.6844  22.6945  22.7312  22.7933  22.9308  22.9691  22.9788  23.0115
 23.0353  23.0460  23.1589  23.1816  23.4679  23.4748  44.4295  44.5181
 --------------------------------------------------------------
 
          Ground-State Mulliken Net Atomic Charges

     Atom                 Charge (a.u.)
  ----------------------------------------
      1 C                    -1.070000
      2 C                     0.072506
      3 C                     0.047304
      4 C                    -0.536169
      5 C                    -0.720374
      6 C                     0.376147
      7 C                    -0.455719
      8 O                    -0.525328
      9 H                     0.308353
     10 H                     0.507473
     11 H                     0.288654
     12 H                     0.243237
     13 H                     0.441537
     14 H                     0.386573
     15 H                     0.336826
     16 H                     0.253778
     17 C                    -1.202890
     18 C                     0.545151
     19 C                    -0.244990
     20 C                    -0.626306
     21 C                    -0.670529
     22 C                    -0.529202
     23 C                     0.559124
     24 O                    -0.569224
     25 H                     0.376097
     26 H                     0.359833
     27 H                     0.395624
     28 H                     0.424164
     29 H                     0.380246
     30 H                     0.304013
     31 H                     0.267968
     32 H                     0.276122
  ----------------------------------------
  Sum of atomic charges =     0.000000

 -----------------------------------------------------------------
                    Cartesian Multipole Moments
 -----------------------------------------------------------------
    Charge (ESU x 10^10)
                 0.0000
    Dipole Moment (Debye)
         X      -1.3756      Y       0.2772      Z      -3.0451
       Tot       3.3529
    Quadrupole Moments (Debye-Ang)
        XX     -83.8359     XY       5.4172     YY     -79.9979
        XZ      -0.4095     YZ      -7.9698     ZZ     -96.5443
    Octopole Moments (Debye-Ang^2)
       XXX     -57.6621    XXY     -68.4654    XYY     -55.6302
       YYY       2.0191    XXZ      -6.8095    XYZ       3.5060
       YYZ       3.5369    XZZ       1.1786    YZZ      -3.8590
       ZZZ       2.9080
    Hexadecapole Moments (Debye-Ang^3)
      XXXX   -3604.3352   XXXY    -403.3172   XXYY    -724.9919
      XYYY    -371.4477   YYYY   -1287.7479   XXXZ      52.4088
      XXYZ     -38.4259   XYYZ     -61.3842   YYYZ      23.7247
      XXZZ    -743.4676   XYZZ    -172.7203   YYZZ    -466.8108
      XZZZ      84.8467   YZZZ     104.4343   ZZZZ   -1019.9211
 -----------------------------------------------------------------
Archival summary:
1\1\nid00546\SP\ProcedureUnspecified\BasisUnspecified\21416\meili\MonSep2715:39:242021MonSep2715:39:242021\0\\#,ProcedureUnspecified,BasisUnspecified,\\0,1\O\H,1,0.955431\C,1,1.37022,2,113.726\C,3,1.40008,1,121.514,2,-179.024,0\H,4,1.08134,3,119.995,1,-0.796225,0\C,3,1.40215,1,118.52,2,0.0404609,0\H,6,1.07882,3,119.781,1,1.2141,0\C,6,1.39503,3,120.257,1,-179.461,0\H,8,1.08127,6,120.032,3,-179.617,0\C,8,1.39495,6,120.534,3,0.117412,0\C,4,1.40485,3,119.384,1,179.251,0\H,11,1.08338,4,119.735,3,179.786,0\C,10,1.51283,8,119.679,6,-175.566,0\H,13,1.08868,10,109.218,8,-176.866,0\H,13,1.09453,10,108.911,8,64.4298,0\H,13,1.1,10,113.072,8,-60.192,0\H,3,2.57468,1,89.893,2,-84.689,0\C,17,1.07837,3,159.147,1,-97.2665,0\C,18,1.39449,17,119.856,3,0.357499,0\H,19,1.08131,18,119.882,17,-0.0507724,0\C,18,1.39691,17,119.285,3,-179.662,0\C,19,1.40298,18,120.594,17,179.968,0\O,22,1.37495,19,117.668,18,179.979,0\H,23,0.970209,22,113.334,19,-179.765,0\C,21,1.40576,18,119.201,17,179.237,0\H,25,1.08341,21,119.303,18,-178.803,0\C,22,1.41076,19,119.452,18,0.343193,0\H,27,1.08267,22,119.544,19,-179.705,0\C,21,1.51909,18,119.682,17,-2.70271,0\H,29,1.08963,21,108.929,18,138.55,0\H,29,1.09144,21,109.112,18,19.6259,0\H,29,1.1,21,116.016,18,-102.671,0\\\@

 Total job time:  114350.80s(wall), 79004.74s(cpu) 
 Mon Sep 27 15:39:25 2021

        *************************************************************
        *                                                           *
        *  Thank you very much for using Q-Chem.  Have a nice day.  *
        *                                                           *
        *************************************************************


