
Running Job 1 of 1 SSI-052TYR-061ASP-1_PCM_TZVPD.in
qchem SSI-052TYR-061ASP-1_PCM_TZVPD.in_48082.0 /tmp/qchem48082/ 0
/global/common/cori/software/qchem/5.2/exe/qcprog.exe_s SSI-052TYR-061ASP-1_PCM_TZVPD.in_48082.0 /tmp/qchem48082/
                  Welcome to Q-Chem
     A Quantum Leap Into The Future Of Chemistry


 Q-Chem 5.2, Q-Chem, Inc., Pleasanton, CA (2019)

 License issued to: National Energy Research Scientific Computing Center

 Yihan Shao,  Zhengting Gan,  E. Epifanovsky,  A. T. B. Gilbert,  M. Wormit,  
 J. Kussmann,  A. W. Lange,  A. Behn,  Jia Deng,  Xintian Feng,  D. Ghosh,  
 M. Goldey,  P. R. Horn,  L. D. Jacobson,  I. Kaliman,  T. Kus,  A. Landau,  
 Jie Liu,  E. I. Proynov,  R. M. Richard,  R. P. Steele,  E. J. Sundstrom,  
 H. L. Woodcock III,  P. M. Zimmerman,  D. Zuev,  B. Albrecht,  E. Alguire,  
 S. A. Baeppler,  D. Barton,  Z. Benda,  Y. A. Bernard,  E. J. Berquist,  
 K. B. Bravaya,  H. Burton,  D. Casanova,  Chun-Min Chang,  Yunqing Chen,  
 A. Chien,  K. D. Closser,  M. P. Coons,  S. Coriani,  S. Dasgupta,  
 A. L. Dempwolff,  M. Diedenhofen,  Hainam Do,  R. G. Edgar,  Po-Tung Fang,  
 S. Faraji,  S. Fatehi,  Qingguo Feng,  K. D. Fenk,  J. Fosso-Tande,  
 J. Gayvert,  Qinghui Ge,  A. Ghysels,  G. Gidofalvi,  J. Gomes,  
 J. Gonthier,  A. Gunina,  D. Hait,  M. W. D. Hanson-Heine,  
 P. H. P. Harbach,  A. W. Hauser,  M. F. Herbst,  J. E. Herr,  
 E. G. Hohenstein,  Z. C. Holden,  Kerwin Hui,  B. C. Huynh,  T.-C. Jagau,  
 Hyunjun Ji,  B. Kaduk,  K. Khistyaev,  Jaehoon Kim,  P. Klunzinger,  K. Koh,  
 D. Kosenkov,  L. Koulias,  T. Kowalczyk,  C. M. Krauter,  A. Kunitsa,  
 Ka Un Lao,  A. Laurent,  K. V. Lawler,  Joonho Lee,  D. Lefrancois,  
 S. Lehtola,  D. S. Levine,  Yi-Pei Li,  You-Sheng Lin,  Fenglai Liu,  
 E. Livshits,  A. Luenser,  P. Manohar,  E. Mansoor,  S. F. Manzer,  
 Shan-Ping Mao,  Yuezhi Mao,  N. Mardirossian,  A. V. Marenich,  
 T. Markovich,  L. A. Martinez-Martinez,  S. A. Maurer,  N. J. Mayhall,  
 S. C. McKenzie,  J.-M. Mewes,  P. Morgante,  A. F. Morrison,  
 J. W. Mullinax,  K. Nanda,  T. S. Nguyen-Beck,  R. Olivares-Amaya,  
 J. A. Parkhill,  Zheng Pei,  T. M. Perrine,  F. Plasser,  P. Pokhilko,  
 S. Prager,  A. Prociuk,  E. Ramos,  D. R. Rehn,  F. Rob,  M. Scheurer,  
 M. Schneider,  N. Sergueev,  S. M. Sharada,  S. Sharma,  D. W. Small,  
 T. Stauch,  T. Stein,  Yu-Chuan Su,  A. J. W. Thom,  A. Tkatchenko,  
 T. Tsuchimochi,  N. M. Tubman,  L. Vogt,  M. L. Vidal,  O. Vydrov,  
 M. A. Watson,  J. Wenzel,  M. de Wergifosse,  T. A. Wesolowski,  A. White,  
 J. Witte,  A. Yamada,  Jun Yang,  K. Yao,  S. Yeganeh,  S. R. Yost,  
 Zhi-Qiang You,  A. Zech,  Igor Ying Zhang,  Xing Zhang,  Yan Zhao,  
 Ying Zhu,  B. R. Brooks,  G. K. L. Chan,  C. J. Cramer,  M. S. Gordon,  
 W. J. Hehre,  A. Klamt,  M. W. Schmidt,  C. D. Sherrill,  D. G. Truhlar,  
 A. Aspuru-Guzik,  R. Baer,  A. T. Bell,  N. A. Besley,  Jeng-Da Chai,  
 A. E. DePrince, III,  R. A. DiStasio Jr.,  A. Dreuw,  B. D. Dunietz,  
 T. R. Furlani,  Chao-Ping Hsu,  Yousung Jung,  Jing Kong,  D. S. Lambrecht,  
 WanZhen Liang,  C. Ochsenfeld,  V. A. Rassolov,  L. V. Slipchenko,  
 J. E. Subotnik,  T. Van Voorhis,  J. M. Herbert,  A. I. Krylov,  
 P. M. W. Gill,  M. Head-Gordon

 Contributors to earlier versions of Q-Chem not listed above: 
 R. D. Adamson,  B. Austin,  J. Baker,  G. J. O. Beran,  K. Brandhorst,  
 S. T. Brown,  E. F. C. Byrd,  A. K. Chakraborty,  C.-L. Cheng,  
 Siu Hung Chien,  D. M. Chipman,  D. L. Crittenden,  H. Dachsel,  
 R. J. Doerksen,  A. D. Dutoi,  L. Fusti-Molnar,  W. A. Goddard III,  
 A. Golubeva-Zadorozhnaya,  S. R. Gwaltney,  G. Hawkins,  A. Heyden,  
 S. Hirata,  G. Kedziora,  F. J. Keil,  C. Kelley,  Jihan Kim,  R. A. King,  
 R. Z. Khaliullin,  P. P. Korambath,  W. Kurlancheek,  A. M. Lee,  M. S. Lee,  
 S. V. Levchenko,  Ching Yeh Lin,  D. Liotard,  R. C. Lochan,  I. Lotan,  
 P. E. Maslen,  N. Nair,  D. P. O'Neill,  D. Neuhauser,  E. Neuscamman,  
 C. M. Oana,  R. Olson,  B. Peters,  R. Peverati,  P. A. Pieniazek,  
 Y. M. Rhee,  J. Ritchie,  M. A. Rohrdanz,  E. Rosta,  N. J. Russ,  
 H. F. Schaefer III,  N. E. Schultz,  N. Shenvi,  A. C. Simmonett,  A. Sodt,  
 D. Stuck,  K. S. Thanthiriwatte,  V. Vanovschi,  Tao Wang,  A. Warshel,  
 C. F. Williams,  Q. Wu,  X. Xu,  W. Zhang

 Please cite Q-Chem as follows:
 Y. Shao et al., Mol. Phys. 113, 184-215 (2015)
 DOI: 10.1080/00268976.2014.952696

 Q-Chem 5.2.0 for Intel X86 EM64T Linux

 Parts of Q-Chem use Armadillo 8.300.2 (Tropical Shenanigans).
 http://arma.sourceforge.net/

 Q-Chem begins on Sun Sep 26 08:27:56 2021  

Host: cori01
0

     Scratch files written to /tmp/qchem48082//
 May1019 |scratch|qcdevops|jenkins|workspace|build_RNUM -1
Processing $rem in /global/common/cori/software/qchem/5.2/config/preferences:
	 MEM_TOTAL  96000 
NAlpha2: 90
NElect   90
Mult     1
Symmetry turned off for PCM/SM12/SMD calculation

 Q-Chem warning in module libgen/rem_setup.C, line 2803:

 Neither GIA nor STOLL is specified by user. Use STOLL as the default


Checking the input file for inconsistencies... 	...done.

--------------------------------------------------------------
User input:
--------------------------------------------------------------
$comment
SSI-052TYR-061ASP-1.pdb
$end

$molecule
-1 1
--
0 1
C   -0.688710708432    4.480401770471    1.583536164730
C   -0.123710708432    0.250401770471    1.067536164730
C    0.308289291568    1.133401770471    0.085536164730
C   -0.737710708432    0.734401770471    2.216536164730
C    0.127289291568    2.500401770471    0.258536164730
C   -0.916710708432    2.104401770471    2.383536164730
C   -0.475710708432    2.999401770471    1.413536164730
O    0.050289291568   -1.088598229529    0.901536164730
H    0.359289291568   -1.290598229529   -0.009463835270
H    0.780289291568    0.755401770471   -0.809463835270
H   -1.100710708432    0.035401770471    2.946536164730
H    0.468289291568    3.181401770471   -0.511463835270
H   -1.397710708432    2.473401770471    3.278536164730
H    0.073289291568    5.011401770471    1.011536164730
H   -0.560710708432    4.758401770471    2.631536164730
H   -1.679734708432    4.799461770471    1.228466164730
--
-1 1
C   -0.408710708432   -3.914598229529   -1.810463835270
C    0.600289291568   -2.872598229529   -2.273463835270
O    0.773289291568   -1.859598229529   -1.558463835270
O    1.228289291568   -3.068598229529   -3.336463835270
H   -1.380710708432   -3.448598229529   -1.648463835270
H   -0.058710708432   -4.323598229529   -0.867463835270
H   -0.498473108432   -4.757648229529   -2.511323835270
$end

$rem
JOBTYPE			EDA
EDA2			1
method			wB97X-V
BASIS			def2-TZVPD
XC_GRID			000099000590
NL_GRID			1
UNRESTRICTED		FALSE
MAX_SCF_CYCLES		200
SYMMETRY		FALSE
SYM_IGNORE		TRUE
MEM_STATIC		2000
BASIS_LIN_DEP_THRESH 	6
THRESH 			14
SCF_CONVERGENCE 	8
SCF_PRINT_FRGM 		TRUE
SOLVENT_METHOD          PCM
$end

$PCM
THEORY                  CPCM
METHOD                  SWIG
SOLVER                  INVERSION
RADII                   UFF
HPOINTS                 302
HEAVYPOINTS             302
PRINTLEVEL              0
$END

$SOLVENT
DIELECTRIC              78.390000 ! water
$END
--------------------------------------------------------------
 ----------------------------------------------------------------
             Standard Nuclear Orientation (Angstroms)
    I     Atom           X                Y                Z
 ----------------------------------------------------------------
    1      C      -0.6887107084     4.4804017705     1.5835361647
    2      C      -0.1237107084     0.2504017705     1.0675361647
    3      C       0.3082892916     1.1334017705     0.0855361647
    4      C      -0.7377107084     0.7344017705     2.2165361647
    5      C       0.1272892916     2.5004017705     0.2585361647
    6      C      -0.9167107084     2.1044017705     2.3835361647
    7      C      -0.4757107084     2.9994017705     1.4135361647
    8      O       0.0502892916    -1.0885982295     0.9015361647
    9      H       0.3592892916    -1.2905982295    -0.0094638353
   10      H       0.7802892916     0.7554017705    -0.8094638353
   11      H      -1.1007107084     0.0354017705     2.9465361647
   12      H       0.4682892916     3.1814017705    -0.5114638353
   13      H      -1.3977107084     2.4734017705     3.2785361647
   14      H       0.0732892916     5.0114017705     1.0115361647
   15      H      -0.5607107084     4.7584017705     2.6315361647
   16      H      -1.6797347084     4.7994617705     1.2284661647
   17      C      -0.4087107084    -3.9145982295    -1.8104638353
   18      C       0.6002892916    -2.8725982295    -2.2734638353
   19      O       0.7732892916    -1.8595982295    -1.5584638353
   20      O       1.2282892916    -3.0685982295    -3.3364638353
   21      H      -1.3807107084    -3.4485982295    -1.6484638353
   22      H      -0.0587107084    -4.3235982295    -0.8674638353
   23      H      -0.4984731084    -4.7576482295    -2.5113238353
 ----------------------------------------------------------------
 Nuclear Repulsion Energy =         631.23856598 hartrees
 There are       45 alpha and       45 beta electrons
 Requested basis set is def2-TZVPD
 There are 214 shells and 552 basis functions

 Total QAlloc Memory Limit  96000 MB
 Mega-Array Size      1956 MB
 MEM_STATIC part      2000 MB
 Discretize the solute cavity surface with Lebedev spheres
	Using 302 Lebedev grid points for each H atom
	Using 302 Lebedev grid points for other atoms
	Atomic van der Waals radii will be scaled by 1.20
 Remove points where switching function is < 1.0e-08
 Keep 2708 surface tesserae and discard 4238 interior tesserae
 Molecular Surface Area = 279.309 Angst**2
 A cutoff of  1.0D-14 yielded  19254 shell pairs
 There are    128700 function pairs (    163292 Cartesian)
 Smallest overlap matrix eigenvalue = 4.95E-07
 Linear dependence detected in AO basis
 Tighter screening thresholds may be required for diffuse basis sets
 Use S2THRESH > 14 and THRESH = 14 in case of SCF convergence issues
 Number of orthogonalized atomic orbitals = 551
 Maximum deviation from orthogonality = 2.145E-10

 Scale SEOQF with 1.000000e-01/1.000000e-01/1.000000e-01

 Standard Electronic Orientation quadrupole field applied
 Nucleus-field energy     =     0.0000000152 hartrees

 -----------------------------------------------------------------------
  General SCF calculation program by
  Eric Jon Sundstrom, Paul Horn, Yuezhi Mao, Dmitri Zuev, Alec White,
  David Stuck, Shaama M.S., Shane Yost, Joonho Lee, David Small,
  Daniel Levine, Susi Lehtola, Hugh Burton, Evgeny Epifanovsky
 -----------------------------------------------------------------------
================================================================
                 ALMO-EDA with the EDA2 driver                  
================================================================
 The second-generation ALMO-EDA (for DFT):                      
 P. R. Horn, Y. Mao and M. Head-Gordon, PCCP, 18, 23067 (2016)  
 Decomposition of the frozen energy:                            
 P. R. Horn, Y. Mao and M. Head-Gordon, JCP, 144, 114107 (2016) 
 FERF model for polarization:                                   
 P. R. Horn and M. Head-Gordon, JCP, 143, 114111 (2015)         
Using eda2 option set 1
Option set summary: Frozen orbital wavefunction, initial wavefunction decomposition, and nDQ polarization.
--------------------------------
Printing EDA Options
--------------------------------
eda_child_super_basis      0
fragmo_guess_mode          0
child_mp                   1
child_mp_orders            232
cls_elec                   1
cls_disp                   0
scfmi_mode                 1
scfmi_occs                 0
scfmi_virts                0
frz_relax                  0
frz_relax_method           0
dc_pen_start               0
dc_pen_conv                0
dc_pen_increment           0
dc_pen_steps               0
dc_pen_thresh_factor       0
dc_pen_pre_newton_thresh   0
frz_ortho_decomp           1
frz_ortho_decomp_conv      6
frgm_method                2
scfmi_freeze_ss            0
separate_rehyb             0
plot_diff_den              0
eda_nocv                   0
eda_vct_relax              1
disp_free_x                0
disp_free_c                0
eda_bsse                   0
eda_pct_a                  0
eda_covp                   0
--------------------------------
Attempting to make child job directory: /tmp/qchem48082//Frg1/
Attempting to make child job directory: /tmp/qchem48082//Frg2/
Creating input file /tmp/qchem48082/Frg1.input
using default PutDataFrgm: nothing
calling putenv with: QCSCRATCH=/tmp/qchem48082/ 
calling putenv with: QCLOCALSCR=/tmp/qchem48082/ 
Spawning Job For Fragment 0
                  Welcome to Q-Chem
     A Quantum Leap Into The Future Of Chemistry


 Q-Chem 5.2, Q-Chem, Inc., Pleasanton, CA (2019)

 License issued to: National Energy Research Scientific Computing Center

 Yihan Shao,  Zhengting Gan,  E. Epifanovsky,  A. T. B. Gilbert,  M. Wormit,  
 J. Kussmann,  A. W. Lange,  A. Behn,  Jia Deng,  Xintian Feng,  D. Ghosh,  
 M. Goldey,  P. R. Horn,  L. D. Jacobson,  I. Kaliman,  T. Kus,  A. Landau,  
 Jie Liu,  E. I. Proynov,  R. M. Richard,  R. P. Steele,  E. J. Sundstrom,  
 H. L. Woodcock III,  P. M. Zimmerman,  D. Zuev,  B. Albrecht,  E. Alguire,  
 S. A. Baeppler,  D. Barton,  Z. Benda,  Y. A. Bernard,  E. J. Berquist,  
 K. B. Bravaya,  H. Burton,  D. Casanova,  Chun-Min Chang,  Yunqing Chen,  
 A. Chien,  K. D. Closser,  M. P. Coons,  S. Coriani,  S. Dasgupta,  
 A. L. Dempwolff,  M. Diedenhofen,  Hainam Do,  R. G. Edgar,  Po-Tung Fang,  
 S. Faraji,  S. Fatehi,  Qingguo Feng,  K. D. Fenk,  J. Fosso-Tande,  
 J. Gayvert,  Qinghui Ge,  A. Ghysels,  G. Gidofalvi,  J. Gomes,  
 J. Gonthier,  A. Gunina,  D. Hait,  M. W. D. Hanson-Heine,  
 P. H. P. Harbach,  A. W. Hauser,  M. F. Herbst,  J. E. Herr,  
 E. G. Hohenstein,  Z. C. Holden,  Kerwin Hui,  B. C. Huynh,  T.-C. Jagau,  
 Hyunjun Ji,  B. Kaduk,  K. Khistyaev,  Jaehoon Kim,  P. Klunzinger,  K. Koh,  
 D. Kosenkov,  L. Koulias,  T. Kowalczyk,  C. M. Krauter,  A. Kunitsa,  
 Ka Un Lao,  A. Laurent,  K. V. Lawler,  Joonho Lee,  D. Lefrancois,  
 S. Lehtola,  D. S. Levine,  Yi-Pei Li,  You-Sheng Lin,  Fenglai Liu,  
 E. Livshits,  A. Luenser,  P. Manohar,  E. Mansoor,  S. F. Manzer,  
 Shan-Ping Mao,  Yuezhi Mao,  N. Mardirossian,  A. V. Marenich,  
 T. Markovich,  L. A. Martinez-Martinez,  S. A. Maurer,  N. J. Mayhall,  
 S. C. McKenzie,  J.-M. Mewes,  P. Morgante,  A. F. Morrison,  
 J. W. Mullinax,  K. Nanda,  T. S. Nguyen-Beck,  R. Olivares-Amaya,  
 J. A. Parkhill,  Zheng Pei,  T. M. Perrine,  F. Plasser,  P. Pokhilko,  
 S. Prager,  A. Prociuk,  E. Ramos,  D. R. Rehn,  F. Rob,  M. Scheurer,  
 M. Schneider,  N. Sergueev,  S. M. Sharada,  S. Sharma,  D. W. Small,  
 T. Stauch,  T. Stein,  Yu-Chuan Su,  A. J. W. Thom,  A. Tkatchenko,  
 T. Tsuchimochi,  N. M. Tubman,  L. Vogt,  M. L. Vidal,  O. Vydrov,  
 M. A. Watson,  J. Wenzel,  M. de Wergifosse,  T. A. Wesolowski,  A. White,  
 J. Witte,  A. Yamada,  Jun Yang,  K. Yao,  S. Yeganeh,  S. R. Yost,  
 Zhi-Qiang You,  A. Zech,  Igor Ying Zhang,  Xing Zhang,  Yan Zhao,  
 Ying Zhu,  B. R. Brooks,  G. K. L. Chan,  C. J. Cramer,  M. S. Gordon,  
 W. J. Hehre,  A. Klamt,  M. W. Schmidt,  C. D. Sherrill,  D. G. Truhlar,  
 A. Aspuru-Guzik,  R. Baer,  A. T. Bell,  N. A. Besley,  Jeng-Da Chai,  
 A. E. DePrince, III,  R. A. DiStasio Jr.,  A. Dreuw,  B. D. Dunietz,  
 T. R. Furlani,  Chao-Ping Hsu,  Yousung Jung,  Jing Kong,  D. S. Lambrecht,  
 WanZhen Liang,  C. Ochsenfeld,  V. A. Rassolov,  L. V. Slipchenko,  
 J. E. Subotnik,  T. Van Voorhis,  J. M. Herbert,  A. I. Krylov,  
 P. M. W. Gill,  M. Head-Gordon

 Contributors to earlier versions of Q-Chem not listed above: 
 R. D. Adamson,  B. Austin,  J. Baker,  G. J. O. Beran,  K. Brandhorst,  
 S. T. Brown,  E. F. C. Byrd,  A. K. Chakraborty,  C.-L. Cheng,  
 Siu Hung Chien,  D. M. Chipman,  D. L. Crittenden,  H. Dachsel,  
 R. J. Doerksen,  A. D. Dutoi,  L. Fusti-Molnar,  W. A. Goddard III,  
 A. Golubeva-Zadorozhnaya,  S. R. Gwaltney,  G. Hawkins,  A. Heyden,  
 S. Hirata,  G. Kedziora,  F. J. Keil,  C. Kelley,  Jihan Kim,  R. A. King,  
 R. Z. Khaliullin,  P. P. Korambath,  W. Kurlancheek,  A. M. Lee,  M. S. Lee,  
 S. V. Levchenko,  Ching Yeh Lin,  D. Liotard,  R. C. Lochan,  I. Lotan,  
 P. E. Maslen,  N. Nair,  D. P. O'Neill,  D. Neuhauser,  E. Neuscamman,  
 C. M. Oana,  R. Olson,  B. Peters,  R. Peverati,  P. A. Pieniazek,  
 Y. M. Rhee,  J. Ritchie,  M. A. Rohrdanz,  E. Rosta,  N. J. Russ,  
 H. F. Schaefer III,  N. E. Schultz,  N. Shenvi,  A. C. Simmonett,  A. Sodt,  
 D. Stuck,  K. S. Thanthiriwatte,  V. Vanovschi,  Tao Wang,  A. Warshel,  
 C. F. Williams,  Q. Wu,  X. Xu,  W. Zhang

 Please cite Q-Chem as follows:
 Y. Shao et al., Mol. Phys. 113, 184-215 (2015)
 DOI: 10.1080/00268976.2014.952696

 Q-Chem 5.2.0 for Intel X86 EM64T Linux

 Parts of Q-Chem use Armadillo 8.300.2 (Tropical Shenanigans).
 http://arma.sourceforge.net/

 Q-Chem begins on Sun Sep 26 08:28:00 2021  

Host: cori01
0

     Scratch files written to /tmp/qchem48082//Frg1//
 May1019 |scratch|qcdevops|jenkins|workspace|build_RNUM -1
Processing $rem in /global/common/cori/software/qchem/5.2/config/preferences:
	 MEM_TOTAL  96000 
NAlpha2: 58
NElect   58
Mult     1
Symmetry turned off for PCM/SM12/SMD calculation

Checking the input file for inconsistencies... 	...done.

--------------------------------------------------------------
User input:
--------------------------------------------------------------
$molecule
0 1
 6	-0.6887107084	4.4804017705	1.5835361647
 6	-0.1237107084	0.2504017705	1.0675361647
 6	0.3082892916	1.1334017705	0.0855361647
 6	-0.7377107084	0.7344017705	2.2165361647
 6	0.1272892916	2.5004017705	0.2585361647
 6	-0.9167107084	2.1044017705	2.3835361647
 6	-0.4757107084	2.9994017705	1.4135361647
 8	0.0502892916	-1.0885982295	0.9015361647
 1	0.3592892916	-1.2905982295	-0.0094638353
 1	0.7802892916	0.7554017705	-0.8094638353
 1	-1.1007107084	0.0354017705	2.9465361647
 1	0.4682892916	3.1814017705	-0.5114638353
 1	-1.3977107084	2.4734017705	3.2785361647
 1	0.0732892916	5.0114017705	1.0115361647
 1	-0.5607107084	4.7584017705	2.6315361647
 1	-1.6797347084	4.7994617705	1.2284661647
$end
$rem
EDA2		1
METHOD		WB97X-V
BASIS		DEF2-TZVPD
XC_GRID		000099000590
NL_GRID		1
UNRESTRICTED		FALSE
MAX_SCF_CYCLES		200
SYMMETRY		FALSE
SYM_IGNORE		TRUE
BASIS_LIN_DEP_THRESH		6
THRESH		14
SCF_CONVERGENCE		8
SCF_PRINT_FRGM		TRUE
SOLVENT_METHOD		PCM
!required keywords
JOBTYPE		SP
SYM_IGNORE		TRUE
SUBSYSTEM		TRUE
GEN_SCFMAN		TRUE
CHILD_INSTRUCTION		2
SYM_IGNORE		TRUE
SCFMI		0
RI_K 0		
PARI_K 0		
MIN_PARI_K 0		
IARI_K 0		
OCC_RI_K 0		
PURECART		1111
MEM_STATIC		2000
MEM_TOTAL		96000
GUI		0
CHILD_MP		1
CHILD_MP_ORDERS		232
FRZ_RELAX		0
FRZ_RELAX_METHOD		0
EDA_CLS_ELEC		1
EDA_CLS_DISP		0
FRZ_ORTHO_DECOMP		1
EDA2		FALSE
FRGM_METHOD		FALSE
CIS_N_ROOTS  0
LOCAL_CIS    0
CIS_RLX_DNS  1
$end
$pcm
THEORY                  CPCM
METHOD                  SWIG
SOLVER                  INVERSION
RADII                   UFF
HPOINTS                 302
HEAVYPOINTS             302
PRINTLEVEL              0
$end
$solvent
DIELECTRIC              78.390000 ! water
$end
--------------------------------------------------------------
 ----------------------------------------------------------------
             Standard Nuclear Orientation (Angstroms)
    I     Atom           X                Y                Z
 ----------------------------------------------------------------
    1      C      -0.6887107084     4.4804017705     1.5835361647
    2      C      -0.1237107084     0.2504017705     1.0675361647
    3      C       0.3082892916     1.1334017705     0.0855361647
    4      C      -0.7377107084     0.7344017705     2.2165361647
    5      C       0.1272892916     2.5004017705     0.2585361647
    6      C      -0.9167107084     2.1044017705     2.3835361647
    7      C      -0.4757107084     2.9994017705     1.4135361647
    8      O       0.0502892916    -1.0885982295     0.9015361647
    9      H       0.3592892916    -1.2905982295    -0.0094638353
   10      H       0.7802892916     0.7554017705    -0.8094638353
   11      H      -1.1007107084     0.0354017705     2.9465361647
   12      H       0.4682892916     3.1814017705    -0.5114638353
   13      H      -1.3977107084     2.4734017705     3.2785361647
   14      H       0.0732892916     5.0114017705     1.0115361647
   15      H      -0.5607107084     4.7584017705     2.6315361647
   16      H      -1.6797347084     4.7994617705     1.2284661647
 ----------------------------------------------------------------
 Nuclear Repulsion Energy =         343.48017698 hartrees
 There are       29 alpha and       29 beta electrons
 Requested basis set is def2-TZVPD
 There are 145 shells and 371 basis functions

 Total QAlloc Memory Limit  96000 MB
 Mega-Array Size      1956 MB
 MEM_STATIC part      2000 MB
 Discretize the solute cavity surface with Lebedev spheres
	Using 302 Lebedev grid points for each H atom
	Using 302 Lebedev grid points for other atoms
	Atomic van der Waals radii will be scaled by 1.20
 Remove points where switching function is < 1.0e-08
 Keep 1873 surface tesserae and discard 2959 interior tesserae
 Molecular Surface Area = 190.331 Angst**2
 A cutoff of  1.0D-14 yielded  10046 shell pairs
 There are     67096 function pairs (     85798 Cartesian)
 Smallest overlap matrix eigenvalue = 5.43E-07
 Linear dependence detected in AO basis
 Tighter screening thresholds may be required for diffuse basis sets
 Use S2THRESH > 14 and THRESH = 14 in case of SCF convergence issues
 Number of orthogonalized atomic orbitals = 370
 Maximum deviation from orthogonality = 3.232E-10

 Scale SEOQF with 1.000000e-01/1.000000e-01/1.000000e-01

 Standard Electronic Orientation quadrupole field applied
 Nucleus-field energy     =     0.0000000113 hartrees
 Guess from superposition of atomic densities
 Warning:  Energy on first SCF cycle will be non-variational
 SAD guess density has 57.738434 electrons

 -----------------------------------------------------------------------
  General SCF calculation program by
  Eric Jon Sundstrom, Paul Horn, Yuezhi Mao, Dmitri Zuev, Alec White,
  David Stuck, Shaama M.S., Shane Yost, Joonho Lee, David Small,
  Daniel Levine, Susi Lehtola, Hugh Burton, Evgeny Epifanovsky
 -----------------------------------------------------------------------
 Exchange:     0.1670 Hartree-Fock + 1.0000 wB97X-V + LR-HF
 Correlation:  1.0000 wB97X-V
 Using Euler-Maclaurin-Lebedev (99,590) quadrature formula
 Nonlocal Correlation:  VV10 with C = 0.0100 and b = 6.00 and scale = 1.00000
 Grid used for NLC:  SG-1 standard quadrature
Energy prior to optimization (guess energy) = -346.495251756015
Begin Timing: Total SCF Calculation
begin iterations for algorithm: DIIS         
the SCF tolerance is set to 1.00e-08
    1    -346.4952517560      5.17e-03     00000 
    2    -346.4253435443      5.64e-03     00000 
    3    -346.8120299584      5.39e-04     00000 
    4    -346.8162165521      1.83e-04     00000 
    5    -346.8168358623      2.53e-05     00000 
    6    -346.8168555159      1.29e-05     00000 
    7    -346.8168589437      4.01e-06     00000 
    8    -346.8168593831      1.27e-06     00000 
    9    -346.8168594417      5.62e-07     00000 
   10    -346.8168594522      1.41e-07     00000 
   11    -346.8168594540      6.29e-08     00000 
   12    -346.8168594543      3.32e-08     00000 
   13    -346.8168594543      7.05e-09     00000 Convergence criterion met
Timing for Total SCF: 2162.00s (wall), 4291.74s (cpu)

************** Final PCM Free Energy Summary **************
 G_electrostatic  =      -0.00560593 hartree =      -3.51777577 kcal/mol
 G_cavitation     =       0.00000000 hartree =       0.00000000 kcal/mol
 G_dispersion     =       0.00000000 hartree =       0.00000000 kcal/mol
 G_repulsion      =       0.00000000 hartree =       0.00000000 kcal/mol
 --------------------------------------------------
 Non-electrostatic Free Energy =       0.00000000 hartree =       0.00000000 kcal/mol
 Total                         =      -0.00560593 hartree =      -3.51777577 kcal/mol
 --------------------------------------------------
 SCF Energy (H0 + V/2)                       =    -346.81685945 
 Solute Internal Energy (H0)                 =    -346.81125352 
 Total Free Energy (H0 + V/2 + non-elec)     =    -346.81685945 hartree
                                             = -217630.86401006 kcal/mol
***********************************************************

E_pcm = -0.0056059325
Multipole orders to be included
        2
        3
computing dipole RHS
computing quadrupole RHS
total number of RHS in solve_reponses: 8
RHS batch sizes
        8
Beginning Block Conjugate Gradient Iterations. Batch Number: 0
computing hessian-vector products by finite difference
              1      6.32e-01     00000 Conjugate Gradient Iteration
computing hessian-vector products by finite difference
              2      1.96e-01     00000 Conjugate Gradient Iteration
computing hessian-vector products by finite difference
              3      4.88e-02     00000 Conjugate Gradient Iteration
computing hessian-vector products by finite difference
              4      1.41e-02     00000 Conjugate Gradient Iteration
computing hessian-vector products by finite difference
              5      4.28e-03     00000 Conjugate Gradient Iteration
computing hessian-vector products by finite difference
              6      1.60e-03     00000 Conjugate Gradient Iteration
computing hessian-vector products by finite difference
              7      3.98e-04     00000 Conjugate Gradient Iteration
computing hessian-vector products by finite difference
              8      7.71e-05     00000 Conjugate Gradient Iteration
computing hessian-vector products by finite difference
              9      1.39e-05     00000 Conjugate Gradient Iteration
computing hessian-vector products by finite difference
             10      1.80e-06     00000 Conjugate Gradient Iteration
computing hessian-vector products by finite difference
             11      3.44e-07     00000 Conjugate Gradient Iteration
computing hessian-vector products by finite difference
             12      7.24e-08     00000 Conjugate Gradient Iteration
computing hessian-vector products by finite difference
             13      1.09e-08     00000 Conjugate Gradient Iteration
computing hessian-vector products by finite difference
             14      3.44e-09     00000 CG Converged
batch 0 complete
Done Calculating Responses
TESTING ORTHOGONALIZATION OF MULTIPOLE BASIS
Multipole virts passed orthogonality test
Virts Per Order
           87
          145
 
 --------------------------------------------------------------
 
                    Orbital Energies (a.u.)
 --------------------------------------------------------------
 
 Alpha MOs
 -- Occupied --
-19.2467 -10.3341 -10.2755 -10.2742 -10.2740 -10.2713 -10.2702 -10.2613
 -1.1936  -0.9961  -0.9017  -0.8850  -0.8097  -0.7489  -0.7138  -0.6648
 -0.6038  -0.5816  -0.5500  -0.5425  -0.5348  -0.5224  -0.5109  -0.4768
 -0.4557  -0.4448  -0.4397  -0.3534  -0.3131
 -- Virtual --
  0.0572   0.0594   0.0682   0.0783   0.0830   0.0944   0.1083   0.1099
  0.1140   0.1312   0.1445   0.1507   0.1532   0.1703   0.1731   0.1922
  0.1990   0.2043   0.2166   0.2228   0.2353   0.2396   0.2491   0.2530
  0.2627   0.2635   0.2705   0.2723   0.2836   0.2945   0.2954   0.3008
  0.3040   0.3091   0.3132   0.3251   0.3334   0.3399   0.3411   0.3462
  0.3541   0.3579   0.3589   0.3724   0.3756   0.3768   0.3823   0.3910
  0.3921   0.3947   0.4001   0.4101   0.4117   0.4211   0.4237   0.4323
  0.4374   0.4462   0.4562   0.4578   0.4695   0.4713   0.4779   0.4794
  0.4839   0.4950   0.4988   0.5041   0.5124   0.5178   0.5226   0.5335
  0.5398   0.5472   0.5508   0.5608   0.5633   0.5665   0.5838   0.5973
  0.5982   0.6054   0.6199   0.6261   0.6444   0.6544   0.6568   0.6751
  0.6768   0.6808   0.6875   0.6925   0.6955   0.7002   0.7128   0.7272
  0.7319   0.7436   0.7453   0.7504   0.7563   0.7779   0.7816   0.7860
  0.7876   0.7905   0.7985   0.8010   0.8070   0.8133   0.8294   0.8347
  0.8376   0.8459   0.8550   0.8567   0.8669   0.8719   0.8830   0.8942
  0.8974   0.9115   0.9235   0.9502   0.9579   0.9694   0.9866   1.0079
  1.0266   1.0357   1.0418   1.0472   1.0532   1.0686   1.0752   1.0790
  1.1036   1.1185   1.1394   1.1774   1.1997   1.2378   1.2470   1.2920
  1.3063   1.3084   1.3316   1.3546   1.3608   1.3859   1.3929   1.4326
  1.4562   1.4637   1.4763   1.4822   1.5310   1.5639   1.6007   1.6158
  1.6274   1.6354   1.6854   1.6896   1.7061   1.7225   1.7884   1.7983
  1.8168   1.8235   1.8362   1.8564   1.8733   1.8831   1.9225   1.9251
  1.9426   1.9519   1.9689   1.9937   1.9951   2.0311   2.0332   2.0516
  2.0593   2.0738   2.0934   2.1003   2.1162   2.1523   2.1931   2.2075
  2.2181   2.2377   2.2701   2.2758   2.2924   2.3055   2.3526   2.3644
  2.4025   2.4108   2.4305   2.4558   2.4952   2.4993   2.5197   2.5508
  2.5855   2.6007   2.6142   2.6447   2.6513   2.6681   2.6847   2.7403
  2.7447   2.7678   2.7744   2.7999   2.8231   2.8370   2.8623   2.8766
  2.8999   2.9199   2.9377   2.9526   2.9590   2.9664   2.9724   3.0062
  3.0180   3.0413   3.0692   3.0823   3.1022   3.1265   3.1462   3.1684
  3.1826   3.2032   3.2174   3.2317   3.2433   3.2606   3.2706   3.2927
  3.3247   3.3567   3.3796   3.3877   3.3946   3.4196   3.4473   3.4559
  3.4644   3.4721   3.4950   3.5120   3.5166   3.5264   3.5337   3.5486
  3.5672   3.5700   3.5801   3.5985   3.6006   3.6192   3.6494   3.6621
  3.6881   3.7039   3.7360   3.7601   3.7925   3.8272   3.8410   3.8870
  3.9390   3.9616   3.9805   3.9962   4.0429   4.0856   4.1243   4.1479
  4.2566   4.2706   4.2925   4.3053   4.3176   4.3288   4.3440   4.3691
  4.3815   4.3879   4.4385   4.4525   4.4898   4.5539   4.5983   4.6161
  4.7383   4.7412   4.7827   4.8159   4.8821   4.9157   5.0311   5.0672
  5.0913   5.1277   5.1539   5.3076   5.3308   5.4134   5.4535   5.5342
  5.5942   5.6600   5.7101   5.7624   5.9556   6.1799   6.4872   6.5451
  6.6497   6.8763   7.0024   7.2962   7.4396  22.6615  22.6748  22.9438
 23.0001  23.0437  23.1937  23.5227  44.4197
 --------------------------------------------------------------
 
          Ground-State Mulliken Net Atomic Charges

     Atom                 Charge (a.u.)
  ----------------------------------------
      1 C                    -1.044118
      2 C                     0.822715
      3 C                    -0.425430
      4 C                    -0.719735
      5 C                    -0.637319
      6 C                    -0.404758
      7 C                     0.593776
      8 O                    -0.497978
      9 H                     0.304800
     10 H                     0.268792
     11 H                     0.337424
     12 H                     0.307449
     13 H                     0.329517
     14 H                     0.278140
     15 H                     0.275644
     16 H                     0.211081
  ----------------------------------------
  Sum of atomic charges =     0.000000

 -----------------------------------------------------------------
                    Cartesian Multipole Moments
 -----------------------------------------------------------------
    Charge (ESU x 10^10)
                -0.0000
    Dipole Moment (Debye)
         X       0.3501      Y       0.8025      Z      -1.5434
       Tot       1.7744
    Quadrupole Moments (Debye-Ang)
        XX     -49.4837     XY      -1.3791     YY     -43.5020
        XZ      -3.7715     YZ       3.0170     ZZ     -45.8548
    Octopole Moments (Debye-Ang^2)
       XXX      46.2433    XXY     -84.6682    XYY      13.3345
       YYY    -225.8897    XXZ     -60.0826    XYZ      -5.4265
       YYZ     -58.1448    XZZ       5.7717    YZZ     -75.1406
       ZZZ    -167.0881
    Hexadecapole Moments (Debye-Ang^3)
      XXXX    -161.2276   XXXY     124.6820   XXYY    -322.9558
      XYYY     115.9987   YYYY   -1707.2730   XXXZ     115.3272
      XXYZ    -115.6374   XYYZ      20.5812   YYYZ    -319.4249
      XXZZ    -140.5624   XYZZ      28.7360   YYZZ    -397.0782
      XZZZ      79.1344   YZZZ    -320.9805   ZZZZ    -675.8162
 -----------------------------------------------------------------
Archival summary:
1\1\nid00504\SP\ProcedureUnspecified\BasisUnspecified\178\meili\SunSep2619:59:312021SunSep2619:59:312021\0\\#,ProcedureUnspecified,BasisUnspecified,\\0,1\C\O,1,1.36042\H,2,0.982958,1,110.828\C,1,1.38947,2,119.966,3,-9.00049,0\H,4,1.08014,1,119.939,2,0.107836,0\C,4,1.38974,1,119.777,2,179.932,0\H,6,1.08302,4,119.274,1,179.92,0\C,1,1.38977,2,120.011,3,170.762,0\H,8,1.0739,1,118.99,2,-2.20346,0\C,8,1.3917,1,119.925,2,-179.898,0\H,10,1.08099,8,119.512,1,179.822,0\C,10,1.39155,8,120.579,1,-0.540451,0\C,12,1.50587,10,120.599,8,179.022,0\H,13,1.09077,12,108.709,10,154.649,0\H,13,1.09177,12,110.012,10,37.4142,0\H,13,1.1,12,112.102,10,-85.2901,0\\\@

 Total job time:  41495.10s(wall), 82373.91s(cpu) 
 Sun Sep 26 19:59:35 2021

        *************************************************************
        *                                                           *
        *  Thank you very much for using Q-Chem.  Have a nice day.  *
        *                                                           *
        *************************************************************


Done Job For Fragment 0
calling putenv with: QCSCRATCH=/global/cscratch1/sd/meili 
calling putenv with: QCLOCALSCR=/tmp 
calling putenv with: QCTHREADS=32 
Creating input file /tmp/qchem48082/Frg2.input
using default PutDataFrgm: nothing
calling putenv with: QCSCRATCH=/tmp/qchem48082/ 
calling putenv with: QCLOCALSCR=/tmp/qchem48082/ 
Spawning Job For Fragment 1
                  Welcome to Q-Chem
     A Quantum Leap Into The Future Of Chemistry


 Q-Chem 5.2, Q-Chem, Inc., Pleasanton, CA (2019)

 License issued to: National Energy Research Scientific Computing Center

 Yihan Shao,  Zhengting Gan,  E. Epifanovsky,  A. T. B. Gilbert,  M. Wormit,  
 J. Kussmann,  A. W. Lange,  A. Behn,  Jia Deng,  Xintian Feng,  D. Ghosh,  
 M. Goldey,  P. R. Horn,  L. D. Jacobson,  I. Kaliman,  T. Kus,  A. Landau,  
 Jie Liu,  E. I. Proynov,  R. M. Richard,  R. P. Steele,  E. J. Sundstrom,  
 H. L. Woodcock III,  P. M. Zimmerman,  D. Zuev,  B. Albrecht,  E. Alguire,  
 S. A. Baeppler,  D. Barton,  Z. Benda,  Y. A. Bernard,  E. J. Berquist,  
 K. B. Bravaya,  H. Burton,  D. Casanova,  Chun-Min Chang,  Yunqing Chen,  
 A. Chien,  K. D. Closser,  M. P. Coons,  S. Coriani,  S. Dasgupta,  
 A. L. Dempwolff,  M. Diedenhofen,  Hainam Do,  R. G. Edgar,  Po-Tung Fang,  
 S. Faraji,  S. Fatehi,  Qingguo Feng,  K. D. Fenk,  J. Fosso-Tande,  
 J. Gayvert,  Qinghui Ge,  A. Ghysels,  G. Gidofalvi,  J. Gomes,  
 J. Gonthier,  A. Gunina,  D. Hait,  M. W. D. Hanson-Heine,  
 P. H. P. Harbach,  A. W. Hauser,  M. F. Herbst,  J. E. Herr,  
 E. G. Hohenstein,  Z. C. Holden,  Kerwin Hui,  B. C. Huynh,  T.-C. Jagau,  
 Hyunjun Ji,  B. Kaduk,  K. Khistyaev,  Jaehoon Kim,  P. Klunzinger,  K. Koh,  
 D. Kosenkov,  L. Koulias,  T. Kowalczyk,  C. M. Krauter,  A. Kunitsa,  
 Ka Un Lao,  A. Laurent,  K. V. Lawler,  Joonho Lee,  D. Lefrancois,  
 S. Lehtola,  D. S. Levine,  Yi-Pei Li,  You-Sheng Lin,  Fenglai Liu,  
 E. Livshits,  A. Luenser,  P. Manohar,  E. Mansoor,  S. F. Manzer,  
 Shan-Ping Mao,  Yuezhi Mao,  N. Mardirossian,  A. V. Marenich,  
 T. Markovich,  L. A. Martinez-Martinez,  S. A. Maurer,  N. J. Mayhall,  
 S. C. McKenzie,  J.-M. Mewes,  P. Morgante,  A. F. Morrison,  
 J. W. Mullinax,  K. Nanda,  T. S. Nguyen-Beck,  R. Olivares-Amaya,  
 J. A. Parkhill,  Zheng Pei,  T. M. Perrine,  F. Plasser,  P. Pokhilko,  
 S. Prager,  A. Prociuk,  E. Ramos,  D. R. Rehn,  F. Rob,  M. Scheurer,  
 M. Schneider,  N. Sergueev,  S. M. Sharada,  S. Sharma,  D. W. Small,  
 T. Stauch,  T. Stein,  Yu-Chuan Su,  A. J. W. Thom,  A. Tkatchenko,  
 T. Tsuchimochi,  N. M. Tubman,  L. Vogt,  M. L. Vidal,  O. Vydrov,  
 M. A. Watson,  J. Wenzel,  M. de Wergifosse,  T. A. Wesolowski,  A. White,  
 J. Witte,  A. Yamada,  Jun Yang,  K. Yao,  S. Yeganeh,  S. R. Yost,  
 Zhi-Qiang You,  A. Zech,  Igor Ying Zhang,  Xing Zhang,  Yan Zhao,  
 Ying Zhu,  B. R. Brooks,  G. K. L. Chan,  C. J. Cramer,  M. S. Gordon,  
 W. J. Hehre,  A. Klamt,  M. W. Schmidt,  C. D. Sherrill,  D. G. Truhlar,  
 A. Aspuru-Guzik,  R. Baer,  A. T. Bell,  N. A. Besley,  Jeng-Da Chai,  
 A. E. DePrince, III,  R. A. DiStasio Jr.,  A. Dreuw,  B. D. Dunietz,  
 T. R. Furlani,  Chao-Ping Hsu,  Yousung Jung,  Jing Kong,  D. S. Lambrecht,  
 WanZhen Liang,  C. Ochsenfeld,  V. A. Rassolov,  L. V. Slipchenko,  
 J. E. Subotnik,  T. Van Voorhis,  J. M. Herbert,  A. I. Krylov,  
 P. M. W. Gill,  M. Head-Gordon

 Contributors to earlier versions of Q-Chem not listed above: 
 R. D. Adamson,  B. Austin,  J. Baker,  G. J. O. Beran,  K. Brandhorst,  
 S. T. Brown,  E. F. C. Byrd,  A. K. Chakraborty,  C.-L. Cheng,  
 Siu Hung Chien,  D. M. Chipman,  D. L. Crittenden,  H. Dachsel,  
 R. J. Doerksen,  A. D. Dutoi,  L. Fusti-Molnar,  W. A. Goddard III,  
 A. Golubeva-Zadorozhnaya,  S. R. Gwaltney,  G. Hawkins,  A. Heyden,  
 S. Hirata,  G. Kedziora,  F. J. Keil,  C. Kelley,  Jihan Kim,  R. A. King,  
 R. Z. Khaliullin,  P. P. Korambath,  W. Kurlancheek,  A. M. Lee,  M. S. Lee,  
 S. V. Levchenko,  Ching Yeh Lin,  D. Liotard,  R. C. Lochan,  I. Lotan,  
 P. E. Maslen,  N. Nair,  D. P. O'Neill,  D. Neuhauser,  E. Neuscamman,  
 C. M. Oana,  R. Olson,  B. Peters,  R. Peverati,  P. A. Pieniazek,  
 Y. M. Rhee,  J. Ritchie,  M. A. Rohrdanz,  E. Rosta,  N. J. Russ,  
 H. F. Schaefer III,  N. E. Schultz,  N. Shenvi,  A. C. Simmonett,  A. Sodt,  
 D. Stuck,  K. S. Thanthiriwatte,  V. Vanovschi,  Tao Wang,  A. Warshel,  
 C. F. Williams,  Q. Wu,  X. Xu,  W. Zhang

 Please cite Q-Chem as follows:
 Y. Shao et al., Mol. Phys. 113, 184-215 (2015)
 DOI: 10.1080/00268976.2014.952696

 Q-Chem 5.2.0 for Intel X86 EM64T Linux

 Parts of Q-Chem use Armadillo 8.300.2 (Tropical Shenanigans).
 http://arma.sourceforge.net/

 Q-Chem begins on Sun Sep 26 19:59:41 2021  

Host: cori01
0

     Scratch files written to /tmp/qchem48082//Frg2//
 May1019 |scratch|qcdevops|jenkins|workspace|build_RNUM -1
Processing $rem in /global/common/cori/software/qchem/5.2/config/preferences:
	 MEM_TOTAL  96000 
NAlpha2: 32
NElect   32
Mult     1
Symmetry turned off for PCM/SM12/SMD calculation

Checking the input file for inconsistencies... 	...done.

--------------------------------------------------------------
User input:
--------------------------------------------------------------
$molecule
-1 1
 6	-0.4087107084	-3.9145982295	-1.8104638353
 6	0.6002892916	-2.8725982295	-2.2734638353
 8	0.7732892916	-1.8595982295	-1.5584638353
 8	1.2282892916	-3.0685982295	-3.3364638353
 1	-1.3807107084	-3.4485982295	-1.6484638353
 1	-0.0587107084	-4.3235982295	-0.8674638353
 1	-0.4984731084	-4.7576482295	-2.5113238353
$end
$rem
EDA2		1
METHOD		WB97X-V
BASIS		DEF2-TZVPD
XC_GRID		000099000590
NL_GRID		1
UNRESTRICTED		FALSE
MAX_SCF_CYCLES		200
SYMMETRY		FALSE
SYM_IGNORE		TRUE
BASIS_LIN_DEP_THRESH		6
THRESH		14
SCF_CONVERGENCE		8
SCF_PRINT_FRGM		TRUE
SOLVENT_METHOD		PCM
!required keywords
JOBTYPE		SP
SYM_IGNORE		TRUE
SUBSYSTEM		TRUE
GEN_SCFMAN		TRUE
CHILD_INSTRUCTION		2
SYM_IGNORE		TRUE
SCFMI		0
RI_K 0		
PARI_K 0		
MIN_PARI_K 0		
IARI_K 0		
OCC_RI_K 0		
PURECART		1111
MEM_STATIC		2000
MEM_TOTAL		96000
GUI		0
CHILD_MP		1
CHILD_MP_ORDERS		232
FRZ_RELAX		0
FRZ_RELAX_METHOD		0
EDA_CLS_ELEC		1
EDA_CLS_DISP		0
FRZ_ORTHO_DECOMP		1
EDA2		FALSE
FRGM_METHOD		FALSE
CIS_N_ROOTS  0
LOCAL_CIS    0
CIS_RLX_DNS  1
$end
$pcm
THEORY                  CPCM
METHOD                  SWIG
SOLVER                  INVERSION
RADII                   UFF
HPOINTS                 302
HEAVYPOINTS             302
PRINTLEVEL              0
$end
$solvent
DIELECTRIC              78.390000 ! water
$end
--------------------------------------------------------------
 ----------------------------------------------------------------
             Standard Nuclear Orientation (Angstroms)
    I     Atom           X                Y                Z
 ----------------------------------------------------------------
    1      C      -0.4087107084    -3.9145982295    -1.8104638353
    2      C       0.6002892916    -2.8725982295    -2.2734638353
    3      O       0.7732892916    -1.8595982295    -1.5584638353
    4      O       1.2282892916    -3.0685982295    -3.3364638353
    5      H      -1.3807107084    -3.4485982295    -1.6484638353
    6      H      -0.0587107084    -4.3235982295    -0.8674638353
    7      H      -0.4984731084    -4.7576482295    -2.5113238353
 ----------------------------------------------------------------
 Nuclear Repulsion Energy =         112.66444144 hartrees
 There are       16 alpha and       16 beta electrons
 Requested basis set is def2-TZVPD
 There are 69 shells and 181 basis functions

 Total QAlloc Memory Limit  96000 MB
 Mega-Array Size      1956 MB
 MEM_STATIC part      2000 MB
 Discretize the solute cavity surface with Lebedev spheres
	Using 302 Lebedev grid points for each H atom
	Using 302 Lebedev grid points for other atoms
	Atomic van der Waals radii will be scaled by 1.20
 Remove points where switching function is < 1.0e-08
 Keep 1020 surface tesserae and discard 1094 interior tesserae
 Molecular Surface Area = 120.052 Angst**2

                       Distance Matrix (Angstroms)
             C (  1)   C (  2)   O (  3)   O (  4)   H (  5)   H (  6)
   C (  2)  1.522568
   O (  3)  2.384041  1.251928
   O (  4)  2.392522  1.250108  2.197724
   H (  5)  1.090039  2.155635  2.678197  3.130595
   H (  6)  1.085831  2.125210  2.690911  3.054072  1.767278
   H (  7)  1.099998  2.194828  3.305150  2.552539  1.799023  1.756151

 
 A cutoff of  1.0D-14 yielded   2391 shell pairs
 There are     16695 function pairs (     21491 Cartesian)
 Smallest overlap matrix eigenvalue = 1.64E-05

 Scale SEOQF with 1.000000e-01/1.000000e-01/1.000000e-01

 Standard Electronic Orientation quadrupole field applied
 Nucleus-field energy     =     0.0000000040 hartrees
 Guess from superposition of atomic densities
 Warning:  Energy on first SCF cycle will be non-variational
 SAD guess density has 30.625312 electrons

 -----------------------------------------------------------------------
  General SCF calculation program by
  Eric Jon Sundstrom, Paul Horn, Yuezhi Mao, Dmitri Zuev, Alec White,
  David Stuck, Shaama M.S., Shane Yost, Joonho Lee, David Small,
  Daniel Levine, Susi Lehtola, Hugh Burton, Evgeny Epifanovsky
 -----------------------------------------------------------------------
 Exchange:     0.1670 Hartree-Fock + 1.0000 wB97X-V + LR-HF
 Correlation:  1.0000 wB97X-V
 Using Euler-Maclaurin-Lebedev (99,590) quadrature formula
 Nonlocal Correlation:  VV10 with C = 0.0100 and b = 6.00 and scale = 1.00000
 Grid used for NLC:  SG-1 standard quadrature
Energy prior to optimization (guess energy) = -227.763598083411
Begin Timing: Total SCF Calculation
begin iterations for algorithm: DIIS         
the SCF tolerance is set to 1.00e-08
    1    -227.7635980834      1.66e-02     00000 
    2    -225.5942008016      2.54e-02     00000 
    3    -228.5767896965      4.15e-03     00000 
    4    -228.6358054228      1.43e-03     00000 
    5    -228.6421566882      3.51e-04     00000 
    6    -228.6424665070      2.53e-04     00000 
    7    -228.6426471354      4.57e-05     00000 
    8    -228.6426573512      1.39e-05     00000 
    9    -228.6426586543      2.86e-06     00000 
   10    -228.6426587573      4.18e-07     00000 
   11    -228.6426587601      1.80e-07     00000 
   12    -228.6426587604      5.86e-08     00000 
   13    -228.6426587604      1.83e-08     00000 
   14    -228.6426587604      2.70e-09     00000 Convergence criterion met
Timing for Total SCF: 305.00s (wall), 595.12s (cpu)

************** Final PCM Free Energy Summary **************
 G_electrostatic  =      -0.10184809 hartree =     -63.91064149 kcal/mol
 G_cavitation     =       0.00000000 hartree =       0.00000000 kcal/mol
 G_dispersion     =       0.00000000 hartree =       0.00000000 kcal/mol
 G_repulsion      =       0.00000000 hartree =       0.00000000 kcal/mol
 --------------------------------------------------
 Non-electrostatic Free Energy =       0.00000000 hartree =       0.00000000 kcal/mol
 Total                         =      -0.10184809 hartree =     -63.91064149 kcal/mol
 --------------------------------------------------
 SCF Energy (H0 + V/2)                       =    -228.64265876 
 Solute Internal Energy (H0)                 =    -228.54081067 
 Total Free Energy (H0 + V/2 + non-elec)     =    -228.64265876 hartree
                                             = -143475.43384679 kcal/mol
***********************************************************

E_pcm = -0.1018480907
Multipole orders to be included
        2
        3
computing dipole RHS
computing quadrupole RHS
total number of RHS in solve_reponses: 8
RHS batch sizes
        8
Beginning Block Conjugate Gradient Iterations. Batch Number: 0
computing hessian-vector products by finite difference
              1      6.69e-01     00000 Conjugate Gradient Iteration
computing hessian-vector products by finite difference
              2      2.33e-01     00000 Conjugate Gradient Iteration
computing hessian-vector products by finite difference
              3      6.17e-02     00000 Conjugate Gradient Iteration
computing hessian-vector products by finite difference
              4      1.64e-02     00000 Conjugate Gradient Iteration
computing hessian-vector products by finite difference
              5      2.86e-03     00000 Conjugate Gradient Iteration
computing hessian-vector products by finite difference
              6      6.83e-04     00000 Conjugate Gradient Iteration
computing hessian-vector products by finite difference
              7      1.11e-04     00000 Conjugate Gradient Iteration
computing hessian-vector products by finite difference
              8      1.35e-05     00000 Conjugate Gradient Iteration
computing hessian-vector products by finite difference
              9      2.12e-06     00000 Conjugate Gradient Iteration
computing hessian-vector products by finite difference
             10      2.42e-07     00000 Conjugate Gradient Iteration
computing hessian-vector products by finite difference
             11      6.17e-08     00000 Conjugate Gradient Iteration
computing hessian-vector products by finite difference
             12      1.45e-08     00000 Conjugate Gradient Iteration
computing hessian-vector products by finite difference
             13      1.57e-09     00000 CG Converged
batch 0 complete
Done Calculating Responses
TESTING ORTHOGONALIZATION OF MULTIPOLE BASIS
Multipole virts passed orthogonality test
Virts Per Order
        48
        80
 
 --------------------------------------------------------------
 
                    Orbital Energies (a.u.)
 --------------------------------------------------------------
 
 Alpha MOs
 -- Occupied --
-19.1220 -19.1210 -10.3248 -10.2390  -1.1322  -1.0312  -0.8292  -0.5923
 -0.5303  -0.5165  -0.5161  -0.4627  -0.4435  -0.3289  -0.3259  -0.3084
 -- Virtual --
  0.0633   0.0953   0.0958   0.1054   0.1304   0.1403   0.1434   0.1450
  0.1699   0.1907   0.1981   0.2249   0.2298   0.2361   0.2649   0.2673
  0.2988   0.3140   0.3348   0.3479   0.3515   0.3620   0.3726   0.3854
  0.3946   0.4008   0.4239   0.4280   0.4322   0.4621   0.4748   0.4778
  0.4920   0.4975   0.5059   0.5208   0.5600   0.5783   0.6000   0.6164
  0.6179   0.6397   0.6445   0.6687   0.6738   0.6801   0.6928   0.7165
  0.7218   0.7399   0.7740   0.8000   0.8125   0.8196   0.8467   0.8617
  0.8694   0.9787   0.9863   0.9942   1.0044   1.0540   1.0584   1.1341
  1.1847   1.2012   1.2630   1.2859   1.3031   1.3168   1.3471   1.3491
  1.4575   1.5804   1.6079   1.7408   1.8259   1.8600   1.8718   1.9250
  1.9291   1.9623   1.9663   1.9720   2.0212   2.1224   2.1340   2.1656
  2.2171   2.2257   2.3307   2.3520   2.4137   2.4442   2.4936   2.5101
  2.5766   2.5897   2.6245   2.6720   2.7991   2.8171   2.8846   2.9406
  2.9496   2.9995   3.0338   3.1970   3.2035   3.2537   3.2887   3.3299
  3.3400   3.3450   3.4036   3.4182   3.4402   3.5518   3.5684   3.5819
  3.6253   3.6534   3.7045   3.7384   3.7857   3.9057   3.9373   4.0510
  4.0858   4.2011   4.3699   4.5448   4.6303   4.6758   4.8119   4.8415
  4.9918   5.3339   5.3603   5.3706   5.3763   5.5031   5.7181   5.7745
  5.8240   6.0283   6.2413   6.3492   6.3527   6.6256   6.6311   6.7230
  6.7454   6.7613   6.9589   6.9796   7.0425   7.2518   7.3582   7.3926
  7.4179  22.6003  23.7462  44.2222  44.3444
 --------------------------------------------------------------
 
          Ground-State Mulliken Net Atomic Charges

     Atom                 Charge (a.u.)
  ----------------------------------------
      1 C                    -0.394533
      2 C                     0.291069
      3 O                    -0.681435
      4 O                    -0.672178
      5 H                     0.154754
      6 H                     0.140237
      7 H                     0.162087
  ----------------------------------------
  Sum of atomic charges =    -1.000000

 -----------------------------------------------------------------
                    Cartesian Multipole Moments
 -----------------------------------------------------------------
    Charge (ESU x 10^10)
                -4.8032
    Dipole Moment (Debye)
         X      -5.8875      Y      10.6857      Z      12.2507
       Tot      17.2895
    Quadrupole Moments (Debye-Ang)
        XX     -33.1738     XY      14.2749     YY     -52.4353
        XZ      16.7643     YZ     -32.0699     ZZ     -63.7649
    Octopole Moments (Debye-Ang^2)
       XXX     -47.7988    XXY      96.8338    XYY     -49.7775
       YYY     305.8091    XXZ      79.1050    XYZ     -45.6977
       YYZ     148.7440    XZZ     -65.3319    YZZ     186.3700
       ZZZ     300.1762
    Hexadecapole Moments (Debye-Ang^3)
      XXXX    -153.7481   XXXY     111.1040   XXYY    -334.6379
      XYYY     187.8831   YYYY   -1746.9676   XXXZ     136.6405
      XXYZ    -235.4677   XYYZ     168.2538   YYYZ    -797.4869
      XXZZ    -239.6229   XYZZ     181.3079   YYZZ    -728.5812
      XZZZ     281.2111   YZZZ    -907.3105   ZZZZ   -1323.5787
 -----------------------------------------------------------------
Archival summary:
1\1\nid00504\SP\ProcedureUnspecified\BasisUnspecified\223(1-,1)\meili\SunSep2621:23:462021SunSep2621:23:462021\0\\#,ProcedureUnspecified,BasisUnspecified,\\-1,1\C\O,1,1.25011\O,1,1.25193,2,122.894\C,1,1.52257,2,118.959,3,-179.194,0\H,4,1.08583,1,107.955,2,116.257,0\H,4,1.09004,1,110.094,2,-125.316,0\H,4,1.1,1,112.634,2,-1.54887,0\\\@

 Total job time:  5050.20s(wall), 9868.29s(cpu) 
 Sun Sep 26 21:23:51 2021

        *************************************************************
        *                                                           *
        *  Thank you very much for using Q-Chem.  Have a nice day.  *
        *                                                           *
        *************************************************************


Done Job For Fragment 1
calling putenv with: QCSCRATCH=/global/cscratch1/sd/meili 
calling putenv with: QCLOCALSCR=/tmp 
calling putenv with: QCTHREADS=32 
Doing General SCFMI
 Exchange:     0.1670 Hartree-Fock + 1.0000 wB97X-V + LR-HF
 Correlation:  1.0000 wB97X-V
 Using Euler-Maclaurin-Lebedev (99,590) quadrature formula
 Nonlocal Correlation:  VV10 with C = 0.0100 and b = 6.00 and scale = 1.00000
 Grid used for NLC:  SG-1 standard quadrature
performing fock build before subrot guess so that all methods have access
Printing subrot_rss_gen Method Specification:
Occupied Subspace Method is 0
Virtual Subspace Method is 0
Energy of the unrelaxed supersystem initial determinant -575.370423494341
performing fock build before subrot guess so that all methods have access
Printing subrot_rss_gen Method Specification:
Occupied Subspace Method is 0
Virtual Subspace Method is 0
Energy of the unrelaxed supersystem initial determinant w/ solvent -575.464705668890
write pseudocanon occs and virts to disk
write pseudocanon orbital energies to disk
Tolerance of ortho_decomp_scf: 1.00e-06
GDM subspace size: 20
Beginning the Orthogonal Decomposition of the Initial Supersystem Wavefunction
    1    -575.2693118429      8.70e-02     ortho_decomp Preconditoned Steepest Descent
    2    -575.2825612717      1.76e-03     ortho_decomp BFGS Step
    3    -575.2825941694      1.47e-04     ortho_decomp BFGS Step
    4    -575.2825942478      5.87e-06     ortho_decomp BFGS Step
    5    -575.2825942480      2.19e-07     ortho_decomp 00000 Convergence criterion met
 Hartree-Fock
 Hartree-Fock
 Hartree-Fock
Doing General SCFMI
 Exchange:     0.1670 Hartree-Fock + 1.0000 wB97X-V + LR-HF
 Correlation:  1.0000 wB97X-V
 Using Euler-Maclaurin-Lebedev (99,590) quadrature formula
 Nonlocal Correlation:  VV10 with C = 0.0100 and b = 6.00 and scale = 1.00000
 Grid used for NLC:  SG-1 standard quadrature
performing fock build at end of subrot_r(subrot) constructor so that all methods have access
<S^2> of initial wavefunction before polarization iterations 0.0000000000
Beginning iterations for the determination of the polarized wavefunction
Energy prior to optimization (guess energy) = -575.464705668891
Begin Timing: Total SCF Calculation
begin iterations for algorithm: DIIS         
the SCF tolerance is set to 1.00e-08
    1    -575.4647056689      2.41e-04     00000 
    2    -575.4700175526      8.97e-05     00000 
    3    -575.4705896189      6.06e-05     00000 
    4    -575.4707857316      1.84e-05     00000 
    5    -575.4708187442      8.00e-06     00000 
    6    -575.4708270131      3.59e-06     00000 
    7    -575.4708287687      1.89e-06     00000 
    8    -575.4708290754      9.84e-07     00000 
    9    -575.4708291404      2.79e-07     00000 
   10    -575.4708291453      1.22e-07     00000 
   11    -575.4708291466      4.41e-08     00000 
   12    -575.4708291468      2.33e-08     00000 
   13    -575.4708291469      8.90e-09     00000 Convergence criterion met
write pseudocanon occs and virts to disk
write pseudocanon orbital energies to disk
Timing for Total SCF: 5999.00s (wall), 11914.90s (cpu)
<S^2> of polarized wavefunction after polarization iterations 0.0000000000
relaxing scfmi constraint to allow all rotations in the entire AO span
Doing General SCFMI
 Exchange:     0.1670 Hartree-Fock + 1.0000 wB97X-V + LR-HF
 Correlation:  1.0000 wB97X-V
 Using Euler-Maclaurin-Lebedev (99,590) quadrature formula
 Nonlocal Correlation:  VV10 with C = 0.0100 and b = 6.00 and scale = 1.00000
 Grid used for NLC:  SG-1 standard quadrature
performing fock build at end of subrot_r(subrot) constructor so that all methods have access
<S^2> of polarized wavefunction before ct-allowed iterations 0.0000000000
Beginning iterations for the determination of the CT-Allowed wavefunction
Energy prior to optimization (guess energy) = -575.470829146889
Begin Timing: Total SCF Calculation
begin iterations for algorithm: DIIS         
the SCF tolerance is set to 1.00e-08
    1    -575.4708291469      2.18e-04     00000 
    2    -575.4786402770      3.59e-05     00000 
    3    -575.4789378558      2.14e-05     00000 
    4    -575.4789826283      7.88e-06     00000 
    5    -575.4789914874      2.43e-06     00000 
    6    -575.4789922808      7.79e-07     00000 
    7    -575.4789924039      3.26e-07     00000 
    8    -575.4789924262      6.26e-08     00000 
    9    -575.4789924280      2.53e-08     00000 
   10    -575.4789924283      1.18e-08     00000 
   11    -575.4789924284      4.01e-09     00000 Convergence criterion met
write pseudocanon occs and virts to disk
write pseudocanon orbital energies to disk
Timing for Total SCF: 5046.00s (wall), 10008.45s (cpu)
<S^2> of ct_allowed wavefunction after ct-allowed iterations 0.0000000000

================================
        Results of EDA2         
================================
Basic EDA Quantities
--------------------
Fragment Energies (Ha):
1 -346.8168594543
2 -228.6426587604
--------------------
  E_prp (kJ/mol) = 0.0000
  E_sol (kJ/mol) = 34.5831
  E_frz (kJ/mol) = -48.2029
  E_pol (kJ/mol) = -16.0774
  E_vct (kJ/mol) = -21.4329
  E_int (kJ/mol) = -51.1302
--------------------


Initial Wavefunction Decomposition
--------------------
  --------------------
  Orthogonal Fragment Subspace Decomposition:
  --------------------
     E_elec   (ELEC)   (kJ/mol) = -181.4832
     E_pauli  (PAULI)  (kJ/mol) = 151.5381
     E_disp   (DISP)   (kJ/mol) = -18.2578
     --------------------
     Terms summing to E_pauli:
     --------------------
        E_kep_pauli       (kJ/mol) = 182.3955
        E_disp_free_pauli (kJ/mol) = -30.8574
  --------------------
  Classical Frozen Decomposition:
  --------------------
     E_cls_elec  (CLS ELEC)  (kJ/mol) = -116.3582
     E_cls_pauli (CLS PAULI) (kJ/mol) = 68.1553
    [E_mod_pauli (MOD PAULI) (kJ/mol) = 86.4131 (CLS PAULI - DISP from orthogonal decomposition) ]
  --------------------
--------------------

Simplified EDA Summary (kJ/mol)
--------------------
 PREPARATION     0.0000
 SOLVATION       34.5831
 FROZEN          -29.9451      (does not include dispersion)
[PAULI           151.5381]     (if this is negligible, then frozen describes electrostatics)
 DISPERSION      -18.2578
 POLARIZATION    -16.0774
 CHARGE TRANSFER -21.4329
 TOTAL           -51.1302     (PRP + SOL + FRZ + DISP + POL + CT)
--------------------
 
 --------------------------------------------------------------
 
                    Orbital Energies (a.u.)
 --------------------------------------------------------------
 
 Alpha MOs
 -- Occupied --
-19.2096 -19.1390 -19.1315 -10.3380 -10.3204 -10.2675 -10.2667 -10.2664
-10.2601 -10.2588 -10.2577 -10.2441  -1.1642  -1.1457  -1.0464  -0.9868
 -0.8926  -0.8759  -0.8354  -0.8006  -0.7380  -0.7025  -0.6513  -0.6065
 -0.5904  -0.5722  -0.5454  -0.5383  -0.5339  -0.5300  -0.5244  -0.5235
 -0.5084  -0.4976  -0.4752  -0.4616  -0.4529  -0.4462  -0.4316  -0.4247
 -0.3462  -0.3430  -0.3403  -0.3220  -0.2998
 -- Virtual --
  0.0571   0.0660   0.0679   0.0773   0.0846   0.0882   0.0933   0.0985
  0.1086   0.1131   0.1153   0.1257   0.1285   0.1379   0.1454   0.1514
  0.1538   0.1591   0.1617   0.1731   0.1808   0.1849   0.1939   0.1950
  0.2024   0.2132   0.2181   0.2263   0.2293   0.2325   0.2352   0.2388
  0.2439   0.2499   0.2556   0.2593   0.2635   0.2699   0.2749   0.2781
  0.2803   0.2865   0.2966   0.2995   0.3013   0.3084   0.3127   0.3187
  0.3203   0.3239   0.3300   0.3337   0.3385   0.3438   0.3481   0.3510
  0.3516   0.3575   0.3638   0.3666   0.3704   0.3738   0.3774   0.3822
  0.3836   0.3897   0.3959   0.3989   0.4009   0.4043   0.4075   0.4112
  0.4136   0.4178   0.4237   0.4257   0.4273   0.4338   0.4363   0.4436
  0.4482   0.4498   0.4517   0.4609   0.4663   0.4684   0.4741   0.4778
  0.4812   0.4879   0.4935   0.4944   0.4983   0.4995   0.5018   0.5080
  0.5151   0.5236   0.5290   0.5305   0.5333   0.5421   0.5444   0.5487
  0.5530   0.5615   0.5641   0.5697   0.5711   0.5789   0.5872   0.5894
  0.5991   0.6046   0.6063   0.6147   0.6168   0.6262   0.6324   0.6346
  0.6424   0.6455   0.6499   0.6687   0.6739   0.6786   0.6798   0.6815
  0.6877   0.6933   0.7007   0.7034   0.7090   0.7142   0.7211   0.7293
  0.7310   0.7353   0.7417   0.7452   0.7497   0.7560   0.7617   0.7643
  0.7718   0.7792   0.7899   0.7910   0.7966   0.8003   0.8017   0.8043
  0.8130   0.8181   0.8227   0.8315   0.8336   0.8366   0.8396   0.8434
  0.8464   0.8515   0.8547   0.8569   0.8578   0.8651   0.8781   0.8884
  0.8952   0.9025   0.9069   0.9091   0.9194   0.9250   0.9336   0.9372
  0.9459   0.9718   0.9788   0.9942   1.0020   1.0119   1.0157   1.0275
  1.0355   1.0512   1.0555   1.0636   1.0666   1.0698   1.0787   1.0852
  1.0934   1.1035   1.1108   1.1131   1.1259   1.1379   1.1441   1.1664
  1.1733   1.1986   1.2087   1.2294   1.2358   1.2567   1.2694   1.2903
  1.3069   1.3182   1.3336   1.3444   1.3509   1.3560   1.3677   1.3698
  1.3748   1.3971   1.4003   1.4135   1.4205   1.4304   1.4468   1.4659
  1.4804   1.4901   1.4971   1.5301   1.5360   1.5517   1.5842   1.6275
  1.6355   1.6411   1.6511   1.6652   1.6783   1.7098   1.7237   1.7326
  1.7510   1.7625   1.8093   1.8205   1.8366   1.8479   1.8500   1.8555
  1.8875   1.9015   1.9114   1.9244   1.9265   1.9453   1.9539   1.9539
  1.9690   1.9762   1.9781   1.9811   1.9938   2.0042   2.0119   2.0187
  2.0247   2.0563   2.0579   2.0723   2.0921   2.0985   2.1079   2.1117
  2.1216   2.1477   2.1619   2.1740   2.1816   2.2117   2.2176   2.2377
  2.2420   2.2524   2.2571   2.2665   2.2926   2.3124   2.3367   2.3678
  2.3777   2.3911   2.4091   2.4223   2.4284   2.4483   2.4534   2.4636
  2.4782   2.5127   2.5167   2.5277   2.5376   2.5601   2.5806   2.5940
  2.6028   2.6124   2.6155   2.6224   2.6308   2.6542   2.6691   2.6802
  2.6960   2.7099   2.7635   2.7648   2.7827   2.7910   2.8064   2.8195
  2.8321   2.8360   2.8558   2.8711   2.8897   2.9033   2.9133   2.9385
  2.9488   2.9541   2.9575   2.9676   2.9789   2.9854   2.9936   3.0086
  3.0129   3.0298   3.0631   3.0836   3.0902   3.1016   3.1284   3.1428
  3.1637   3.1787   3.1868   3.2069   3.2226   3.2318   3.2423   3.2441
  3.2480   3.2693   3.2800   3.2878   3.2970   3.3098   3.3292   3.3488
  3.3555   3.3684   3.3728   3.3807   3.3975   3.4082   3.4178   3.4251
  3.4441   3.4606   3.4647   3.4747   3.4864   3.4900   3.5169   3.5232
  3.5279   3.5348   3.5458   3.5505   3.5724   3.5815   3.5853   3.5950
  3.6061   3.6116   3.6207   3.6253   3.6331   3.6493   3.6548   3.6731
  3.6777   3.6947   3.7137   3.7282   3.7504   3.7602   3.7815   3.7870
  3.8121   3.8184   3.8450   3.8647   3.8958   3.9296   3.9440   3.9612
  3.9791   4.0061   4.0222   4.0600   4.0707   4.0906   4.1157   4.1475
  4.2030   4.2659   4.2804   4.2927   4.3145   4.3218   4.3283   4.3438
  4.3576   4.3848   4.3885   4.4050   4.4137   4.4555   4.4826   4.5270
  4.5481   4.5787   4.6122   4.6279   4.6706   4.6888   4.7534   4.7602
  4.8125   4.8308   4.8485   4.8959   4.9189   4.9307   5.0164   5.0570
  5.0875   5.1128   5.1530   5.1817   5.3179   5.3241   5.3423   5.3560
  5.3653   5.3795   5.4458   5.4675   5.4932   5.5473   5.6352   5.6795
  5.7158   5.7386   5.7630   5.7946   5.8314   5.9982   6.0351   6.2616
  6.2696   6.3603   6.4125   6.5288   6.5909   6.6467   6.6831   6.7093
  6.7558   6.7623   6.8072   6.9344   6.9878   7.0100   7.0435   7.0840
  7.2612   7.3786   7.3871   7.4362   7.4608   7.6782  22.6300  22.6711
 22.7091  22.9645  23.0269  23.0642  23.2133  23.5437  23.7798  44.3862
 44.4077  44.5574
 --------------------------------------------------------------
 
          Ground-State Mulliken Net Atomic Charges

     Atom                 Charge (a.u.)
  ----------------------------------------
      1 C                    -1.058468
      2 C                     0.468282
      3 C                    -0.178927
      4 C                    -0.777548
      5 C                    -0.563380
      6 C                    -0.427575
      7 C                     0.574403
      8 O                    -0.490995
      9 H                     0.348608
     10 H                     0.409114
     11 H                     0.333083
     12 H                     0.306994
     13 H                     0.329210
     14 H                     0.279967
     15 H                     0.273979
     16 H                     0.213123
     17 C                    -0.422049
     18 C                     0.258253
     19 O                    -0.664344
     20 O                    -0.677116
     21 H                     0.166304
     22 H                     0.140247
     23 H                     0.158836
  ----------------------------------------
  Sum of atomic charges =    -1.000000

 -----------------------------------------------------------------
                    Cartesian Multipole Moments
 -----------------------------------------------------------------
    Charge (ESU x 10^10)
                -4.8032
    Dipole Moment (Debye)
         X      -5.1493      Y      10.0705      Z       9.2803
       Tot      14.6306
    Quadrupole Moments (Debye-Ang)
        XX     -82.5286     XY      12.7087     YY     -95.3660
        XZ      12.7780     YZ     -27.4732     ZZ    -109.0406
    Octopole Moments (Debye-Ang^2)
       XXX       0.1208    XXY       9.2333    XYY     -33.9918
       YYY      57.8068    XXZ      16.2401    XYZ     -48.7402
       YYZ      79.0868    XZZ     -56.0408    YZZ     101.9370
       ZZZ     119.3481
    Hexadecapole Moments (Debye-Ang^3)
      XXXX    -313.8420   XXXY     234.7395   XXYY    -655.2858
      XYYY     306.0238   YYYY   -3442.2410   XXXZ     250.6011
      XXYZ    -347.5396   XYYZ     186.6809   YYYZ   -1097.7986
      XXZZ    -377.3819   XYZZ     205.6063   YYZZ   -1109.9829
      XZZZ     355.1135   YZZZ   -1208.0969   ZZZZ   -1981.9632
 -----------------------------------------------------------------
Archival summary:
1\1\nid00504\SP\ProcedureUnspecified\BasisUnspecified\3911(1-,1)\meili\MonSep2702:27:132021MonSep2702:27:132021\0\\#,ProcedureUnspecified,BasisUnspecified,\\-1,1\O\H,1,0.982958\C,1,1.36042,2,110.828\C,3,1.38947,1,119.966,2,-9.00049,0\H,4,1.08014,3,119.939,1,0.107836,0\C,4,1.38974,3,119.777,1,179.932,0\H,6,1.08302,4,119.274,3,179.92,0\C,3,1.38977,1,120.011,2,170.762,0\H,8,1.0739,3,118.99,1,-2.20346,0\C,8,1.3917,3,119.925,1,-179.898,0\H,10,1.08099,8,119.512,3,179.822,0\C,10,1.39155,8,120.579,3,-0.540451,0\C,12,1.50587,10,120.599,8,179.022,0\H,13,1.09077,12,108.709,10,154.649,0\H,13,1.09177,12,110.012,10,37.4142,0\H,13,1.1,12,112.102,10,-85.2901,0\O,2,1.70134,1,171.506,3,-150.148,0\C,17,1.25193,2,139.198,1,-0.380966,0\O,18,1.25011,17,122.894,2,-168.55,0\C,18,1.52257,17,118.142,2,10.65,0\H,20,1.08583,18,107.955,17,-62.9751,0\H,20,1.09004,18,110.094,17,55.452,0\H,20,1.1,18,112.634,17,179.219,0\\\@

 Total job time:  64760.74s(wall), 36185.20s(cpu) 
 Mon Sep 27 02:27:17 2021

        *************************************************************
        *                                                           *
        *  Thank you very much for using Q-Chem.  Have a nice day.  *
        *                                                           *
        *************************************************************


