                  Welcome to Q-Chem
     A Quantum Leap Into The Future Of Chemistry


 Q-Chem 5.2 (devel), Q-Chem, Inc., Pleasanton, CA (2019)

 Yihan Shao,  Zhengting Gan,  E. Epifanovsky,  A. T. B. Gilbert,  M. Wormit,  
 J. Kussmann,  A. W. Lange,  A. Behn,  Jia Deng,  Xintian Feng,  D. Ghosh,  
 M. Goldey,  P. R. Horn,  L. D. Jacobson,  I. Kaliman,  T. Kus,  A. Landau,  
 Jie Liu,  E. I. Proynov,  R. M. Richard,  R. P. Steele,  E. J. Sundstrom,  
 H. L. Woodcock III,  P. M. Zimmerman,  D. Zuev,  B. Albrecht,  E. Alguire,  
 S. A. Baeppler,  D. Barton,  Z. Benda,  Y. A. Bernard,  E. J. Berquist,  
 K. B. Bravaya,  H. Burton,  D. Casanova,  Chun-Min Chang,  Yunqing Chen,  
 A. Chien,  K. D. Closser,  M. P. Coons,  S. Coriani,  S. Dasgupta,  
 A. L. Dempwolff,  M. Diedenhofen,  Hainam Do,  R. G. Edgar,  Po-Tung Fang,  
 S. Faraji,  S. Fatehi,  Qingguo Feng,  K. D. Fenk,  J. Fosso-Tande,  
 J. Gayvert,  Qinghui Ge,  A. Ghysels,  G. Gidofalvi,  J. Gomes,  
 J. Gonthier,  A. Gunina,  D. Hait,  M. W. D. Hanson-Heine,  
 P. H. P. Harbach,  A. W. Hauser,  M. F. Herbst,  J. E. Herr,  
 E. G. Hohenstein,  Z. C. Holden,  Kerwin Hui,  B. C. Huynh,  T.-C. Jagau,  
 Hyunjun Ji,  B. Kaduk,  K. Khistyaev,  Jaehoon Kim,  P. Klunzinger,  K. Koh,  
 D. Kosenkov,  L. Koulias,  T. Kowalczyk,  C. M. Krauter,  A. Kunitsa,  
 Ka Un Lao,  A. Laurent,  K. V. Lawler,  Joonho Lee,  D. Lefrancois,  
 S. Lehtola,  D. S. Levine,  Yi-Pei Li,  You-Sheng Lin,  Fenglai Liu,  
 E. Livshits,  A. Luenser,  P. Manohar,  E. Mansoor,  S. F. Manzer,  
 Shan-Ping Mao,  Yuezhi Mao,  N. Mardirossian,  A. V. Marenich,  
 T. Markovich,  L. A. Martinez-Martinez,  S. A. Maurer,  N. J. Mayhall,  
 S. C. McKenzie,  J.-M. Mewes,  P. Morgante,  A. F. Morrison,  
 J. W. Mullinax,  K. Nanda,  T. S. Nguyen-Beck,  R. Olivares-Amaya,  
 J. A. Parkhill,  Zheng Pei,  T. M. Perrine,  F. Plasser,  P. Pokhilko,  
 S. Prager,  A. Prociuk,  E. Ramos,  D. R. Rehn,  F. Rob,  M. Scheurer,  
 M. Schneider,  N. Sergueev,  S. M. Sharada,  S. Sharma,  D. W. Small,  
 T. Stauch,  T. Stein,  Yu-Chuan Su,  A. J. W. Thom,  A. Tkatchenko,  
 T. Tsuchimochi,  N. M. Tubman,  L. Vogt,  M. L. Vidal,  O. Vydrov,  
 M. A. Watson,  J. Wenzel,  M. de Wergifosse,  T. A. Wesolowski,  A. White,  
 J. Witte,  A. Yamada,  Jun Yang,  K. Yao,  S. Yeganeh,  S. R. Yost,  
 Zhi-Qiang You,  A. Zech,  Igor Ying Zhang,  Xing Zhang,  Yan Zhao,  
 Ying Zhu,  B. R. Brooks,  G. K. L. Chan,  C. J. Cramer,  M. S. Gordon,  
 W. J. Hehre,  A. Klamt,  M. W. Schmidt,  C. D. Sherrill,  D. G. Truhlar,  
 A. Aspuru-Guzik,  R. Baer,  A. T. Bell,  N. A. Besley,  Jeng-Da Chai,  
 A. E. DePrince, III,  R. A. DiStasio Jr.,  A. Dreuw,  B. D. Dunietz,  
 T. R. Furlani,  Chao-Ping Hsu,  Yousung Jung,  Jing Kong,  D. S. Lambrecht,  
 WanZhen Liang,  C. Ochsenfeld,  V. A. Rassolov,  L. V. Slipchenko,  
 J. E. Subotnik,  T. Van Voorhis,  J. M. Herbert,  A. I. Krylov,  
 P. M. W. Gill,  M. Head-Gordon

 Contributors to earlier versions of Q-Chem not listed above: 
 R. D. Adamson,  B. Austin,  J. Baker,  G. J. O. Beran,  K. Brandhorst,  
 S. T. Brown,  E. F. C. Byrd,  A. K. Chakraborty,  C.-L. Cheng,  
 Siu Hung Chien,  D. M. Chipman,  D. L. Crittenden,  H. Dachsel,  
 R. J. Doerksen,  A. D. Dutoi,  L. Fusti-Molnar,  W. A. Goddard III,  
 A. Golubeva-Zadorozhnaya,  S. R. Gwaltney,  G. Hawkins,  A. Heyden,  
 S. Hirata,  G. Kedziora,  F. J. Keil,  C. Kelley,  Jihan Kim,  R. A. King,  
 R. Z. Khaliullin,  P. P. Korambath,  W. Kurlancheek,  A. M. Lee,  M. S. Lee,  
 S. V. Levchenko,  Ching Yeh Lin,  D. Liotard,  R. C. Lochan,  I. Lotan,  
 P. E. Maslen,  N. Nair,  D. P. O'Neill,  D. Neuhauser,  E. Neuscamman,  
 C. M. Oana,  R. Olson,  B. Peters,  R. Peverati,  P. A. Pieniazek,  
 Y. M. Rhee,  J. Ritchie,  M. A. Rohrdanz,  E. Rosta,  N. J. Russ,  
 H. F. Schaefer III,  N. E. Schultz,  N. Shenvi,  A. C. Simmonett,  A. Sodt,  
 D. Stuck,  K. S. Thanthiriwatte,  V. Vanovschi,  Tao Wang,  A. Warshel,  
 C. F. Williams,  Q. Wu,  X. Xu,  W. Zhang

 Please cite Q-Chem as follows:
 Y. Shao et al., Mol. Phys. 113, 184-215 (2015)
 DOI: 10.1080/00268976.2014.952696

 Q-Chem 5.2.1 for Intel X86 EM64T Linux

 Parts of Q-Chem use Armadillo 8.300.2 (Tropical Shenanigans).
 http://arma.sourceforge.net/

 Q-Chem begins on Wed Sep 29 14:56:31 2021  

compute-0-1.local
Host: 0

     Scratch files written to /home/meili/scratch/qchem40206//
NAlpha2: 116
NElect   116
Mult     1
Symmetry turned off for PCM/SM12/SMD calculation

 Q-Chem warning in module libgen/rem_setup.C, line 2813:

 Neither GIA nor STOLL is specified by user. Use STOLL as the default


Checking the input file for inconsistencies... 	...done.

--------------------------------------------------------------
User input:
--------------------------------------------------------------
$comment
SSI-064TYR-164PHE-1.pdb
$end

$molecule
0 1
--
0 1
C   -0.889094887603    0.677613860779   -2.071915282231
C   -1.483094887603    0.130613860779   -3.369915282231
C   -1.733094887603    0.494613860779   -0.817915282231
C   -1.788094887603    1.498613860779    0.148084717769
C   -2.436094887603   -0.685386139221   -0.595915282231
C   -2.541094887603    1.345613860779    1.304084717769
C   -3.185094887603   -0.854386139221    0.565084717769
C   -3.231094887603    0.163613860779    1.516084717769
O   -3.967094887603    0.005613860779    2.652084717769
H    0.073905112397    0.194613860779   -1.908915282231
H   -0.703094887603    1.735613860779   -2.207915282231
H   -1.598094887603   -0.948386139221   -3.262915282231
H   -1.242094887603    2.414613860779   -0.008915282231
H   -2.393094887603   -1.496386139221   -1.306915282231
H   -2.576094887603    2.139613860779    2.038084717769
H   -3.736094887603   -1.767386139221    0.734084717769
H   -3.917094887603    0.778613860779    3.226084717769
H   -0.807525887603    0.354293860779   -4.208705282231
H   -2.470361887603    0.579173860779   -3.554575282231
--
0 1
C    5.392905112397    0.557613860779   -0.016915282231
C    1.454905112397   -1.134386139221    0.165084717769
C    1.651905112397    0.202613860779    0.478084717769
C    2.537905112397   -1.927386139221   -0.197915282231
C    2.930905112397    0.752613860779    0.407084717769
C    3.813905112397   -1.380386139221   -0.245915282231
C    4.015905112397   -0.033386139221    0.030084717769
H    0.460905112397   -1.560386139221    0.212084717769
H    0.814905112397    0.817613860779    0.777084717769
H    2.391905112397   -2.973386139221   -0.431915282231
H    3.076905112397    1.796613860779    0.647084717769
H    4.653905112397   -2.008386139221   -0.497915282231
H    5.322905112397    1.562613860779   -0.433915282231
H    6.014905112397   -0.030386139221   -0.691915282231
H    5.875415112397    0.605863860779    0.970434717769
$end

$rem
JOBTYPE			EDA
EDA2			1
method			wB97X-V
BASIS			def2-TZVPD
XC_GRID			000099000590
NL_GRID			1
UNRESTRICTED		FALSE
MAX_SCF_CYCLES		200
SYMMETRY		FALSE
SYM_IGNORE		TRUE
MEM_STATIC		2000
BASIS_LIN_DEP_THRESH 	6
THRESH 			14
SCF_CONVERGENCE 	8
SCF_PRINT_FRGM 		TRUE
SOLVENT_METHOD          PCM
$end

$PCM
THEORY                  CPCM
METHOD                  SWIG
SOLVER                  INVERSION
RADII                   UFF
HPOINTS                 302
HEAVYPOINTS             302
PRINTLEVEL              0
$END

$SOLVENT
DIELECTRIC              78.390000 ! water
$END
--------------------------------------------------------------
 ----------------------------------------------------------------
             Standard Nuclear Orientation (Angstroms)
    I     Atom           X                Y                Z
 ----------------------------------------------------------------
    1      C      -0.8890948876     0.6776138608    -2.0719152822
    2      C      -1.4830948876     0.1306138608    -3.3699152822
    3      C      -1.7330948876     0.4946138608    -0.8179152822
    4      C      -1.7880948876     1.4986138608     0.1480847178
    5      C      -2.4360948876    -0.6853861392    -0.5959152822
    6      C      -2.5410948876     1.3456138608     1.3040847178
    7      C      -3.1850948876    -0.8543861392     0.5650847178
    8      C      -3.2310948876     0.1636138608     1.5160847178
    9      O      -3.9670948876     0.0056138608     2.6520847178
   10      H       0.0739051124     0.1946138608    -1.9089152822
   11      H      -0.7030948876     1.7356138608    -2.2079152822
   12      H      -1.5980948876    -0.9483861392    -3.2629152822
   13      H      -1.2420948876     2.4146138608    -0.0089152822
   14      H      -2.3930948876    -1.4963861392    -1.3069152822
   15      H      -2.5760948876     2.1396138608     2.0380847178
   16      H      -3.7360948876    -1.7673861392     0.7340847178
   17      H      -3.9170948876     0.7786138608     3.2260847178
   18      H      -0.8075258876     0.3542938608    -4.2087052822
   19      H      -2.4703618876     0.5791738608    -3.5545752822
   20      C       5.3929051124     0.5576138608    -0.0169152822
   21      C       1.4549051124    -1.1343861392     0.1650847178
   22      C       1.6519051124     0.2026138608     0.4780847178
   23      C       2.5379051124    -1.9273861392    -0.1979152822
   24      C       2.9309051124     0.7526138608     0.4070847178
   25      C       3.8139051124    -1.3803861392    -0.2459152822
   26      C       4.0159051124    -0.0333861392     0.0300847178
   27      H       0.4609051124    -1.5603861392     0.2120847178
   28      H       0.8149051124     0.8176138608     0.7770847178
   29      H       2.3919051124    -2.9733861392    -0.4319152822
   30      H       3.0769051124     1.7966138608     0.6470847178
   31      H       4.6539051124    -2.0083861392    -0.4979152822
   32      H       5.3229051124     1.5626138608    -0.4339152822
   33      H       6.0149051124    -0.0303861392    -0.6919152822
   34      H       5.8754151124     0.6058638608     0.9704347178
 ----------------------------------------------------------------
 Nuclear Repulsion Energy =         993.81606760 hartrees
 There are       58 alpha and       58 beta electrons
 Requested basis set is def2-TZVPD
 There are 299 shells and 757 basis functions

 Total QAlloc Memory Limit   2000 MB
 Mega-Array Size      1956 MB
 MEM_STATIC part      2000 MB
 Discretize the solute cavity surface with Lebedev spheres
	Using 302 Lebedev grid points for each H atom
	Using 302 Lebedev grid points for other atoms
	Atomic van der Waals radii will be scaled by 1.20
 Remove points where switching function is < 1.0e-08
 Keep 3639 surface tesserae and discard 6629 interior tesserae
 Molecular Surface Area = 349.694 Angst**2
 A cutoff of  1.0D-14 yielded  37260 shell pairs
 There are    238788 function pairs (    300479 Cartesian)
 Smallest overlap matrix eigenvalue = 4.27E-07
 Linear dependence detected in AO basis
 Tighter screening thresholds may be required for diffuse basis sets
 Use S2THRESH > 14 and THRESH = 14 in case of SCF convergence issues
 Number of orthogonalized atomic orbitals = 753
 Maximum deviation from orthogonality = 2.161E-10

 Scale SEOQF with 1.000000e-02/1.000000e-01/1.000000e-01

 Standard Electronic Orientation quadrupole field applied
 Nucleus-field energy     =    -0.0000000146 hartrees

 -----------------------------------------------------------------------
  General SCF calculation program by
  Eric Jon Sundstrom, Paul Horn, Yuezhi Mao, Dmitri Zuev, Alec White,
  David Stuck, Shaama M.S., Shane Yost, Joonho Lee, David Small,
  Daniel Levine, Susi Lehtola, Hugh Burton, Evgeny Epifanovsky,
  Bang C. Huynh
 -----------------------------------------------------------------------
================================================================
                 ALMO-EDA with the EDA2 driver                  
================================================================
 The second-generation ALMO-EDA (for DFT):                      
 P. R. Horn, Y. Mao and M. Head-Gordon, PCCP, 18, 23067 (2016)  
 Decomposition of the frozen energy:                            
 P. R. Horn, Y. Mao and M. Head-Gordon, JCP, 144, 114107 (2016) 
 FERF model for polarization:                                   
 P. R. Horn and M. Head-Gordon, JCP, 143, 114111 (2015)         
Using eda2 option set 1
Option set summary: Frozen orbital wavefunction, initial wavefunction decomposition, and nDQ polarization.
--------------------------------
Printing EDA Options
--------------------------------
eda_child_super_basis      0
fragmo_guess_mode          0
child_mp                   1
child_mp_orders            232
cls_elec                   1
cls_disp                   0
scfmi_mode                 1
scfmi_occs                 0
scfmi_virts                0
frz_relax                  0
frz_relax_method           0
dc_pen_start               0
dc_pen_conv                0
dc_pen_increment           0
dc_pen_steps               0
dc_pen_thresh_factor       0
dc_pen_pre_newton_thresh   0
frz_ortho_decomp           1
frz_ortho_decomp_conv      6
frgm_method                2
scfmi_freeze_ss            0
separate_rehyb             0
plot_diff_den              0
eda_nocv                   0
eda_vct_relax              1
disp_free_x                0
disp_free_c                0
eda_bsse                   0
eda_pct_a                  0
eda_covp                   0
--------------------------------
Attempting to make child job directory: /home/meili/scratch/qchem40206//Frg1/
Attempting to make child job directory: /home/meili/scratch/qchem40206//Frg2/
Creating input file /home/meili/scratch/qchem40206/Frg1.input
using default PutDataFrgm: nothing
calling putenv with: QCSCRATCH=/home/meili/scratch/qchem40206/ 
Spawning Job For Fragment 0
                  Welcome to Q-Chem
     A Quantum Leap Into The Future Of Chemistry


 Q-Chem 5.2 (devel), Q-Chem, Inc., Pleasanton, CA (2019)

 Yihan Shao,  Zhengting Gan,  E. Epifanovsky,  A. T. B. Gilbert,  M. Wormit,  
 J. Kussmann,  A. W. Lange,  A. Behn,  Jia Deng,  Xintian Feng,  D. Ghosh,  
 M. Goldey,  P. R. Horn,  L. D. Jacobson,  I. Kaliman,  T. Kus,  A. Landau,  
 Jie Liu,  E. I. Proynov,  R. M. Richard,  R. P. Steele,  E. J. Sundstrom,  
 H. L. Woodcock III,  P. M. Zimmerman,  D. Zuev,  B. Albrecht,  E. Alguire,  
 S. A. Baeppler,  D. Barton,  Z. Benda,  Y. A. Bernard,  E. J. Berquist,  
 K. B. Bravaya,  H. Burton,  D. Casanova,  Chun-Min Chang,  Yunqing Chen,  
 A. Chien,  K. D. Closser,  M. P. Coons,  S. Coriani,  S. Dasgupta,  
 A. L. Dempwolff,  M. Diedenhofen,  Hainam Do,  R. G. Edgar,  Po-Tung Fang,  
 S. Faraji,  S. Fatehi,  Qingguo Feng,  K. D. Fenk,  J. Fosso-Tande,  
 J. Gayvert,  Qinghui Ge,  A. Ghysels,  G. Gidofalvi,  J. Gomes,  
 J. Gonthier,  A. Gunina,  D. Hait,  M. W. D. Hanson-Heine,  
 P. H. P. Harbach,  A. W. Hauser,  M. F. Herbst,  J. E. Herr,  
 E. G. Hohenstein,  Z. C. Holden,  Kerwin Hui,  B. C. Huynh,  T.-C. Jagau,  
 Hyunjun Ji,  B. Kaduk,  K. Khistyaev,  Jaehoon Kim,  P. Klunzinger,  K. Koh,  
 D. Kosenkov,  L. Koulias,  T. Kowalczyk,  C. M. Krauter,  A. Kunitsa,  
 Ka Un Lao,  A. Laurent,  K. V. Lawler,  Joonho Lee,  D. Lefrancois,  
 S. Lehtola,  D. S. Levine,  Yi-Pei Li,  You-Sheng Lin,  Fenglai Liu,  
 E. Livshits,  A. Luenser,  P. Manohar,  E. Mansoor,  S. F. Manzer,  
 Shan-Ping Mao,  Yuezhi Mao,  N. Mardirossian,  A. V. Marenich,  
 T. Markovich,  L. A. Martinez-Martinez,  S. A. Maurer,  N. J. Mayhall,  
 S. C. McKenzie,  J.-M. Mewes,  P. Morgante,  A. F. Morrison,  
 J. W. Mullinax,  K. Nanda,  T. S. Nguyen-Beck,  R. Olivares-Amaya,  
 J. A. Parkhill,  Zheng Pei,  T. M. Perrine,  F. Plasser,  P. Pokhilko,  
 S. Prager,  A. Prociuk,  E. Ramos,  D. R. Rehn,  F. Rob,  M. Scheurer,  
 M. Schneider,  N. Sergueev,  S. M. Sharada,  S. Sharma,  D. W. Small,  
 T. Stauch,  T. Stein,  Yu-Chuan Su,  A. J. W. Thom,  A. Tkatchenko,  
 T. Tsuchimochi,  N. M. Tubman,  L. Vogt,  M. L. Vidal,  O. Vydrov,  
 M. A. Watson,  J. Wenzel,  M. de Wergifosse,  T. A. Wesolowski,  A. White,  
 J. Witte,  A. Yamada,  Jun Yang,  K. Yao,  S. Yeganeh,  S. R. Yost,  
 Zhi-Qiang You,  A. Zech,  Igor Ying Zhang,  Xing Zhang,  Yan Zhao,  
 Ying Zhu,  B. R. Brooks,  G. K. L. Chan,  C. J. Cramer,  M. S. Gordon,  
 W. J. Hehre,  A. Klamt,  M. W. Schmidt,  C. D. Sherrill,  D. G. Truhlar,  
 A. Aspuru-Guzik,  R. Baer,  A. T. Bell,  N. A. Besley,  Jeng-Da Chai,  
 A. E. DePrince, III,  R. A. DiStasio Jr.,  A. Dreuw,  B. D. Dunietz,  
 T. R. Furlani,  Chao-Ping Hsu,  Yousung Jung,  Jing Kong,  D. S. Lambrecht,  
 WanZhen Liang,  C. Ochsenfeld,  V. A. Rassolov,  L. V. Slipchenko,  
 J. E. Subotnik,  T. Van Voorhis,  J. M. Herbert,  A. I. Krylov,  
 P. M. W. Gill,  M. Head-Gordon

 Contributors to earlier versions of Q-Chem not listed above: 
 R. D. Adamson,  B. Austin,  J. Baker,  G. J. O. Beran,  K. Brandhorst,  
 S. T. Brown,  E. F. C. Byrd,  A. K. Chakraborty,  C.-L. Cheng,  
 Siu Hung Chien,  D. M. Chipman,  D. L. Crittenden,  H. Dachsel,  
 R. J. Doerksen,  A. D. Dutoi,  L. Fusti-Molnar,  W. A. Goddard III,  
 A. Golubeva-Zadorozhnaya,  S. R. Gwaltney,  G. Hawkins,  A. Heyden,  
 S. Hirata,  G. Kedziora,  F. J. Keil,  C. Kelley,  Jihan Kim,  R. A. King,  
 R. Z. Khaliullin,  P. P. Korambath,  W. Kurlancheek,  A. M. Lee,  M. S. Lee,  
 S. V. Levchenko,  Ching Yeh Lin,  D. Liotard,  R. C. Lochan,  I. Lotan,  
 P. E. Maslen,  N. Nair,  D. P. O'Neill,  D. Neuhauser,  E. Neuscamman,  
 C. M. Oana,  R. Olson,  B. Peters,  R. Peverati,  P. A. Pieniazek,  
 Y. M. Rhee,  J. Ritchie,  M. A. Rohrdanz,  E. Rosta,  N. J. Russ,  
 H. F. Schaefer III,  N. E. Schultz,  N. Shenvi,  A. C. Simmonett,  A. Sodt,  
 D. Stuck,  K. S. Thanthiriwatte,  V. Vanovschi,  Tao Wang,  A. Warshel,  
 C. F. Williams,  Q. Wu,  X. Xu,  W. Zhang

 Please cite Q-Chem as follows:
 Y. Shao et al., Mol. Phys. 113, 184-215 (2015)
 DOI: 10.1080/00268976.2014.952696

 Q-Chem 5.2.1 for Intel X86 EM64T Linux

 Parts of Q-Chem use Armadillo 8.300.2 (Tropical Shenanigans).
 http://arma.sourceforge.net/

 Q-Chem begins on Wed Sep 29 14:56:40 2021  

compute-0-1.local
Host: 0

     Scratch files written to /home/meili/scratch/qchem40206//Frg1//
NAlpha2: 66
NElect   66
Mult     1
Symmetry turned off for PCM/SM12/SMD calculation

Checking the input file for inconsistencies... 	...done.

--------------------------------------------------------------
User input:
--------------------------------------------------------------
$molecule
0 1
 6	-0.8890948876	0.6776138608	-2.0719152822
 6	-1.4830948876	0.1306138608	-3.3699152822
 6	-1.7330948876	0.4946138608	-0.8179152822
 6	-1.7880948876	1.4986138608	0.1480847178
 6	-2.4360948876	-0.6853861392	-0.5959152822
 6	-2.5410948876	1.3456138608	1.3040847178
 6	-3.1850948876	-0.8543861392	0.5650847178
 6	-3.2310948876	0.1636138608	1.5160847178
 8	-3.9670948876	0.0056138608	2.6520847178
 1	0.0739051124	0.1946138608	-1.9089152822
 1	-0.7030948876	1.7356138608	-2.2079152822
 1	-1.5980948876	-0.9483861392	-3.2629152822
 1	-1.2420948876	2.4146138608	-0.0089152822
 1	-2.3930948876	-1.4963861392	-1.3069152822
 1	-2.5760948876	2.1396138608	2.0380847178
 1	-3.7360948876	-1.7673861392	0.7340847178
 1	-3.9170948876	0.7786138608	3.2260847178
 1	-0.8075258876	0.3542938608	-4.2087052822
 1	-2.4703618876	0.5791738608	-3.5545752822
$end
$rem
EDA2		1
METHOD		WB97X-V
BASIS		DEF2-TZVPD
XC_GRID		000099000590
NL_GRID		1
UNRESTRICTED		FALSE
MAX_SCF_CYCLES		200
SYMMETRY		FALSE
SYM_IGNORE		TRUE
BASIS_LIN_DEP_THRESH		6
THRESH		14
SCF_CONVERGENCE		8
SCF_PRINT_FRGM		TRUE
SOLVENT_METHOD		PCM
!required keywords
JOBTYPE		SP
SYM_IGNORE		TRUE
SUBSYSTEM		TRUE
GEN_SCFMAN		TRUE
CHILD_INSTRUCTION		2
SYM_IGNORE		TRUE
SCFMI		0
RI_K 0		
PARI_K 0		
MIN_PARI_K 0		
IARI_K 0		
OCC_RI_K 0		
PURECART		1111
MEM_STATIC		2000
MEM_TOTAL		2000
GUI		0
CHILD_MP		1
CHILD_MP_ORDERS		232
FRZ_RELAX		0
FRZ_RELAX_METHOD		0
EDA_CLS_ELEC		1
EDA_CLS_DISP		0
FRZ_ORTHO_DECOMP		1
EDA2		FALSE
FRGM_METHOD		FALSE
CIS_N_ROOTS  0
LOCAL_CIS    0
CIS_RLX_DNS  1
$end
$pcm
THEORY                  CPCM
METHOD                  SWIG
SOLVER                  INVERSION
RADII                   UFF
HPOINTS                 302
HEAVYPOINTS             302
PRINTLEVEL              0
$end
$solvent
DIELECTRIC              78.390000 ! water
$end
--------------------------------------------------------------
 ----------------------------------------------------------------
             Standard Nuclear Orientation (Angstroms)
    I     Atom           X                Y                Z
 ----------------------------------------------------------------
    1      C      -0.8890948876     0.6776138608    -2.0719152822
    2      C      -1.4830948876     0.1306138608    -3.3699152822
    3      C      -1.7330948876     0.4946138608    -0.8179152822
    4      C      -1.7880948876     1.4986138608     0.1480847178
    5      C      -2.4360948876    -0.6853861392    -0.5959152822
    6      C      -2.5410948876     1.3456138608     1.3040847178
    7      C      -3.1850948876    -0.8543861392     0.5650847178
    8      C      -3.2310948876     0.1636138608     1.5160847178
    9      O      -3.9670948876     0.0056138608     2.6520847178
   10      H       0.0739051124     0.1946138608    -1.9089152822
   11      H      -0.7030948876     1.7356138608    -2.2079152822
   12      H      -1.5980948876    -0.9483861392    -3.2629152822
   13      H      -1.2420948876     2.4146138608    -0.0089152822
   14      H      -2.3930948876    -1.4963861392    -1.3069152822
   15      H      -2.5760948876     2.1396138608     2.0380847178
   16      H      -3.7360948876    -1.7673861392     0.7340847178
   17      H      -3.9170948876     0.7786138608     3.2260847178
   18      H      -0.8075258876     0.3542938608    -4.2087052822
   19      H      -2.4703618876     0.5791738608    -3.5545752822
 ----------------------------------------------------------------
 Nuclear Repulsion Energy =         418.80875295 hartrees
 There are       33 alpha and       33 beta electrons
 Requested basis set is def2-TZVPD
 There are 168 shells and 426 basis functions

 Total QAlloc Memory Limit   2000 MB
 Mega-Array Size      1956 MB
 MEM_STATIC part      2000 MB
 Discretize the solute cavity surface with Lebedev spheres
	Using 302 Lebedev grid points for each H atom
	Using 302 Lebedev grid points for other atoms
	Atomic van der Waals radii will be scaled by 1.20
 Remove points where switching function is < 1.0e-08
 Keep 2131 surface tesserae and discard 3607 interior tesserae
 Molecular Surface Area = 211.714 Angst**2
 A cutoff of  1.0D-14 yielded  13207 shell pairs
 There are     86427 function pairs (    109819 Cartesian)
 Smallest overlap matrix eigenvalue = 4.97E-07
 Linear dependence detected in AO basis
 Tighter screening thresholds may be required for diffuse basis sets
 Use S2THRESH > 14 and THRESH = 14 in case of SCF convergence issues
 Number of orthogonalized atomic orbitals = 425
 Maximum deviation from orthogonality = 2.353E-10

 Scale SEOQF with 1.000000e-01/1.000000e-01/1.000000e-01

 Standard Electronic Orientation quadrupole field applied
 Nucleus-field energy     =    -0.0000000072 hartrees
 Guess from superposition of atomic densities
 Warning:  Energy on first SCF cycle will be non-variational
 SAD guess density has 66.000000 electrons

 -----------------------------------------------------------------------
  General SCF calculation program by
  Eric Jon Sundstrom, Paul Horn, Yuezhi Mao, Dmitri Zuev, Alec White,
  David Stuck, Shaama M.S., Shane Yost, Joonho Lee, David Small,
  Daniel Levine, Susi Lehtola, Hugh Burton, Evgeny Epifanovsky,
  Bang C. Huynh
 -----------------------------------------------------------------------
 Exchange:     0.1670 Hartree-Fock + 1.0000 wB97X-V + LR-HF
 Correlation:  1.0000 wB97X-V
 Using Euler-Maclaurin-Lebedev (99,590) quadrature formula
 Nonlocal Correlation:  VV10 with C = 0.0100 and b = 6.00 and scale = 1.00000
 Grid used for NLC:  SG-1 standard quadrature
Energy prior to optimization (guess energy) = -386.040397406716
Begin Timing: Total SCF Calculation
begin iterations for algorithm: DIIS         
the SCF tolerance is set to 1.00e-08
    1    -386.0403974067      1.99e-03     00000 
    2    -386.0917616529      1.52e-03     00000 
    3    -386.1311307038      2.52e-04     00000 
    4    -386.1322834060      1.20e-04     00000 
    5    -386.1325905317      2.08e-05     00000 
    6    -386.1326029040      7.00e-06     00000 
    7    -386.1326043986      3.34e-06     00000 
    8    -386.1326047273      7.54e-07     00000 
    9    -386.1326047592      3.69e-07     00000 
   10    -386.1326047655      1.32e-07     00000 
   11    -386.1326047668      4.32e-08     00000 
   12    -386.1326047669      1.69e-08     00000 
   13    -386.1326047670      4.92e-09     00000 Convergence criterion met
Timing for Total SCF: 1257.00s (wall), 7435.68s (cpu)

************** Final PCM Free Energy Summary **************
 G_electrostatic  =      -0.00564639 hartree =      -3.54316106 kcal/mol
 G_cavitation     =       0.00000000 hartree =       0.00000000 kcal/mol
 G_dispersion     =       0.00000000 hartree =       0.00000000 kcal/mol
 G_repulsion      =       0.00000000 hartree =       0.00000000 kcal/mol
 --------------------------------------------------
 Non-electrostatic Free Energy =       0.00000000 hartree =       0.00000000 kcal/mol
 Total                         =      -0.00564639 hartree =      -3.54316106 kcal/mol
 --------------------------------------------------
 SCF Energy (H0 + V/2)                       =    -386.13260477 
 Solute Internal Energy (H0)                 =    -386.12695838 
 Total Free Energy (H0 + V/2 + non-elec)     =    -386.13260477 hartree
                                             = -242301.86655316 kcal/mol
***********************************************************

E_pcm = -0.0056463866
Multipole orders to be included
        2
        3
computing dipole RHS
computing quadrupole RHS
total number of RHS in solve_reponses: 8
RHS batch sizes
        8
Beginning Block Conjugate Gradient Iterations. Batch Number: 0
computing hessian-vector products by finite difference
              1      5.70e-01     00000 Conjugate Gradient Iteration
computing hessian-vector products by finite difference
              2      1.82e-01     00000 Conjugate Gradient Iteration
computing hessian-vector products by finite difference
              3      4.73e-02     00000 Conjugate Gradient Iteration
computing hessian-vector products by finite difference
              4      1.39e-02     00000 Conjugate Gradient Iteration
computing hessian-vector products by finite difference
              5      4.20e-03     00000 Conjugate Gradient Iteration
computing hessian-vector products by finite difference
              6      1.59e-03     00000 Conjugate Gradient Iteration
computing hessian-vector products by finite difference
              7      4.00e-04     00000 Conjugate Gradient Iteration
computing hessian-vector products by finite difference
              8      7.88e-05     00000 Conjugate Gradient Iteration
computing hessian-vector products by finite difference
              9      1.38e-05     00000 Conjugate Gradient Iteration
computing hessian-vector products by finite difference
             10      1.80e-06     00000 Conjugate Gradient Iteration
computing hessian-vector products by finite difference
             11      2.87e-07     00000 Conjugate Gradient Iteration
computing hessian-vector products by finite difference
             12      5.07e-08     00000 Conjugate Gradient Iteration
computing hessian-vector products by finite difference
             13      1.03e-08     00000 Conjugate Gradient Iteration
computing hessian-vector products by finite difference
             14      3.16e-09     00000 CG Converged
batch 0 complete
Done Calculating Responses
TESTING ORTHOGONALIZATION OF MULTIPOLE BASIS
Multipole virts passed orthogonality test
Virts Per Order
           99
          165

 --------------------------------------------------------------

                    Orbital Energies (a.u.)
 --------------------------------------------------------------

 Alpha MOs
 -- Occupied --
-19.2449 -10.3350 -10.2747 -10.2740 -10.2735 -10.2715 -10.2710 -10.2655
-10.2579  -1.1951  -0.9973  -0.9185  -0.8856  -0.8511  -0.7668  -0.7387
 -0.7079  -0.6676  -0.6005  -0.5879  -0.5626  -0.5544  -0.5357  -0.5326
 -0.5066  -0.5012  -0.4759  -0.4571  -0.4420  -0.4350  -0.4332  -0.3536
 -0.3133
 -- Virtual --
  0.0570   0.0591   0.0674   0.0789   0.0796   0.0904   0.0978   0.1085
  0.1126   0.1145   0.1285   0.1408   0.1506   0.1630   0.1697   0.1782
  0.1862   0.1883   0.1987   0.2071   0.2094   0.2177   0.2267   0.2311
  0.2374   0.2446   0.2591   0.2625   0.2653   0.2726   0.2780   0.2829
  0.2860   0.2919   0.2980   0.3027   0.3068   0.3117   0.3160   0.3225
  0.3264   0.3336   0.3387   0.3446   0.3489   0.3502   0.3545   0.3583
  0.3653   0.3697   0.3736   0.3755   0.3838   0.3889   0.3917   0.3966
  0.4026   0.4083   0.4094   0.4153   0.4204   0.4277   0.4360   0.4401
  0.4458   0.4561   0.4575   0.4605   0.4629   0.4703   0.4745   0.4772
  0.4826   0.4903   0.4963   0.4990   0.5028   0.5087   0.5210   0.5286
  0.5333   0.5387   0.5428   0.5468   0.5577   0.5624   0.5657   0.5703
  0.5789   0.5840   0.5870   0.5926   0.6003   0.6139   0.6251   0.6306
  0.6415   0.6537   0.6624   0.6643   0.6684   0.6736   0.6817   0.6916
  0.6956   0.6987   0.7053   0.7178   0.7261   0.7272   0.7318   0.7438
  0.7474   0.7550   0.7661   0.7682   0.7732   0.7764   0.7825   0.7851
  0.7952   0.7961   0.8005   0.8059   0.8115   0.8182   0.8252   0.8322
  0.8346   0.8466   0.8516   0.8571   0.8649   0.8675   0.8682   0.8845
  0.8947   0.9013   0.9093   0.9161   0.9207   0.9303   0.9637   0.9747
  0.9850   0.9937   1.0041   1.0269   1.0328   1.0424   1.0487   1.0527
  1.0556   1.0751   1.0813   1.0910   1.1006   1.1139   1.1353   1.1395
  1.1416   1.1741   1.2133   1.2448   1.2622   1.2820   1.2968   1.3125
  1.3177   1.3330   1.3727   1.3906   1.3923   1.3976   1.4127   1.4416
  1.4456   1.4655   1.4846   1.5078   1.5194   1.5353   1.5755   1.5827
  1.6276   1.6334   1.6537   1.6655   1.7017   1.7178   1.7456   1.7548
  1.7962   1.8188   1.8322   1.8384   1.8535   1.8694   1.8731   1.9029
  1.9127   1.9335   1.9424   1.9455   1.9637   1.9753   1.9847   1.9907
  2.0062   2.0126   2.0406   2.0494   2.0538   2.0611   2.0709   2.0845
  2.1157   2.1325   2.1471   2.1796   2.2002   2.2134   2.2425   2.2586
  2.2631   2.2795   2.3055   2.3121   2.3283   2.3494   2.3675   2.4129
  2.4184   2.4291   2.4453   2.4792   2.4998   2.5241   2.5520   2.5562
  2.5893   2.5943   2.6182   2.6420   2.6548   2.6679   2.6796   2.6943
  2.7091   2.7439   2.7635   2.7718   2.7794   2.8075   2.8319   2.8396
  2.8519   2.8730   2.8746   2.8882   2.9260   2.9362   2.9516   2.9533
  2.9640   2.9737   2.9800   3.0059   3.0067   3.0170   3.0381   3.0734
  3.0779   3.1048   3.1154   3.1229   3.1549   3.1755   3.1899   3.2100
  3.2286   3.2379   3.2494   3.2693   3.2874   3.3009   3.3215   3.3306
  3.3604   3.3955   3.3984   3.4165   3.4182   3.4426   3.4517   3.4696
  3.4734   3.4851   3.4981   3.5107   3.5211   3.5255   3.5362   3.5498
  3.5621   3.5710   3.5855   3.5876   3.6098   3.6218   3.6292   3.6643
  3.6669   3.6900   3.7004   3.7114   3.7197   3.7295   3.7811   3.7950
  3.8085   3.8417   3.8566   3.8927   3.9091   3.9615   3.9841   4.0070
  4.0501   4.1088   4.1196   4.1473   4.1656   4.1931   4.2186   4.2635
  4.2843   4.3096   4.3384   4.3446   4.3506   4.3755   4.3802   4.4004
  4.4154   4.4734   4.4794   4.5007   4.5728   4.5825   4.6329   4.6960
  4.7315   4.7624   4.7707   4.8123   4.8673   4.9256   4.9437   5.0267
  5.0725   5.0961   5.1091   5.1436   5.1691   5.3298   5.3511   5.3925
  5.4669   5.5499   5.6167   5.6594   5.7280   5.7769   5.9479   6.2132
  6.4931   6.5993   6.6278   6.8735   7.0149   7.3045   7.4584  22.6459
 22.7100  22.8291  22.9619  23.0249  23.0626  23.1997  23.5348  44.4312
 --------------------------------------------------------------

          Ground-State Mulliken Net Atomic Charges

     Atom                 Charge (a.u.)
  ----------------------------------------
      1 C                    -0.282729
      2 C                    -0.827727
      3 C                     0.528677
      4 C                    -0.712951
      5 C                    -0.217282
      6 C                    -0.404488
      7 C                    -0.914532
      8 C                     0.790593
      9 O                    -0.487189
     10 H                     0.191402
     11 H                     0.241471
     12 H                     0.216432
     13 H                     0.295067
     14 H                     0.231447
     15 H                     0.269782
     16 H                     0.339003
     17 H                     0.291521
     18 H                     0.215588
     19 H                     0.235914
  ----------------------------------------
  Sum of atomic charges =     0.000000

 -----------------------------------------------------------------
                    Cartesian Multipole Moments
 -----------------------------------------------------------------
    Charge (ESU x 10^10)
                -0.0000
    Dipole Moment (Debye)
         X       0.8647      Y       1.5549      Z       0.0266
       Tot       1.7794
    Quadrupole Moments (Debye-Ang)
        XX     -61.1385     XY      -3.7535     YY     -49.8223
        XZ      -2.4786     YZ       6.4310     ZZ     -49.4210
    Octopole Moments (Debye-Ang^2)
       XXX     416.7967    XXY      -5.4080    XYY     114.4578
       YYY     -47.1560    XXZ      17.4569    XYZ     -23.9250
       YYZ      16.5322    XZZ     113.1275    YZZ       4.6868
       ZZZ      51.8887
    Hexadecapole Moments (Debye-Ang^3)
      XXXX   -2333.8531   XXXY      18.5110   XXYY    -376.8221
      XYYY      67.9320   YYYY    -313.0041   XXXZ     173.5929
      XXYZ      84.6682   XYYZ      35.3290   YYYZ      10.2221
      XXZZ    -523.0385   XYZZ     -56.3418   YYZZ    -240.0737
      XZZZ      88.5020   YZZZ      54.7996   ZZZZ   -1162.1276
 -----------------------------------------------------------------
Archival summary:
1\1\compute-0-1.local\SP\ProcedureUnspecified\BasisUnspecified\1810\meili\WedSep2921:51:102021WedSep2921:51:102021\0\\#,ProcedureUnspecified,BasisUnspecified,\\0,1\C\C,1,1.39136\H,2,1.07939,1,120.796\C,2,1.39193,1,120.526,3,178.502,0\H,4,1.07969,2,120.52,1,179.574,0\C,4,1.39386,2,119.879,1,-0.131595,0\O,6,1.36278,4,120.125,2,179.738,0\H,7,0.964108,6,112.045,4,-179.958,0\C,6,1.38498,4,120.161,2,0.446543,0\H,9,1.08186,6,120.424,4,179.828,0\C,9,1.38808,6,119.46,4,-0.999434,0\H,11,1.07788,9,119.325,6,-179.244,0\C,1,1.52261,2,120.891,3,0.280177,0\H,13,1.0828,1,108.427,2,161.754,0\H,13,1.0896,1,108.266,2,-81.9461,0\C,13,1.52868,1,116.162,2,39.9237,0\H,16,1.09037,13,108.165,1,-62.3573,0\H,16,1.1,13,109.637,1,177.78,0\H,16,1.1,13,110.205,1,56.695,0\\\@

 Total job time:  24869.50s(wall), 147912.51s(cpu) 
 Wed Sep 29 21:51:10 2021

        *************************************************************
        *                                                           *
        *  Thank you very much for using Q-Chem.  Have a nice day.  *
        *                                                           *
        *************************************************************


Done Job For Fragment 0
calling putenv with: QCSCRATCH=/home/meili/scratch 
calling putenv with: QCTHREADS=8 
Creating input file /home/meili/scratch/qchem40206/Frg2.input
using default PutDataFrgm: nothing
calling putenv with: QCSCRATCH=/home/meili/scratch/qchem40206/ 
Spawning Job For Fragment 1
                  Welcome to Q-Chem
     A Quantum Leap Into The Future Of Chemistry


 Q-Chem 5.2 (devel), Q-Chem, Inc., Pleasanton, CA (2019)

 Yihan Shao,  Zhengting Gan,  E. Epifanovsky,  A. T. B. Gilbert,  M. Wormit,  
 J. Kussmann,  A. W. Lange,  A. Behn,  Jia Deng,  Xintian Feng,  D. Ghosh,  
 M. Goldey,  P. R. Horn,  L. D. Jacobson,  I. Kaliman,  T. Kus,  A. Landau,  
 Jie Liu,  E. I. Proynov,  R. M. Richard,  R. P. Steele,  E. J. Sundstrom,  
 H. L. Woodcock III,  P. M. Zimmerman,  D. Zuev,  B. Albrecht,  E. Alguire,  
 S. A. Baeppler,  D. Barton,  Z. Benda,  Y. A. Bernard,  E. J. Berquist,  
 K. B. Bravaya,  H. Burton,  D. Casanova,  Chun-Min Chang,  Yunqing Chen,  
 A. Chien,  K. D. Closser,  M. P. Coons,  S. Coriani,  S. Dasgupta,  
 A. L. Dempwolff,  M. Diedenhofen,  Hainam Do,  R. G. Edgar,  Po-Tung Fang,  
 S. Faraji,  S. Fatehi,  Qingguo Feng,  K. D. Fenk,  J. Fosso-Tande,  
 J. Gayvert,  Qinghui Ge,  A. Ghysels,  G. Gidofalvi,  J. Gomes,  
 J. Gonthier,  A. Gunina,  D. Hait,  M. W. D. Hanson-Heine,  
 P. H. P. Harbach,  A. W. Hauser,  M. F. Herbst,  J. E. Herr,  
 E. G. Hohenstein,  Z. C. Holden,  Kerwin Hui,  B. C. Huynh,  T.-C. Jagau,  
 Hyunjun Ji,  B. Kaduk,  K. Khistyaev,  Jaehoon Kim,  P. Klunzinger,  K. Koh,  
 D. Kosenkov,  L. Koulias,  T. Kowalczyk,  C. M. Krauter,  A. Kunitsa,  
 Ka Un Lao,  A. Laurent,  K. V. Lawler,  Joonho Lee,  D. Lefrancois,  
 S. Lehtola,  D. S. Levine,  Yi-Pei Li,  You-Sheng Lin,  Fenglai Liu,  
 E. Livshits,  A. Luenser,  P. Manohar,  E. Mansoor,  S. F. Manzer,  
 Shan-Ping Mao,  Yuezhi Mao,  N. Mardirossian,  A. V. Marenich,  
 T. Markovich,  L. A. Martinez-Martinez,  S. A. Maurer,  N. J. Mayhall,  
 S. C. McKenzie,  J.-M. Mewes,  P. Morgante,  A. F. Morrison,  
 J. W. Mullinax,  K. Nanda,  T. S. Nguyen-Beck,  R. Olivares-Amaya,  
 J. A. Parkhill,  Zheng Pei,  T. M. Perrine,  F. Plasser,  P. Pokhilko,  
 S. Prager,  A. Prociuk,  E. Ramos,  D. R. Rehn,  F. Rob,  M. Scheurer,  
 M. Schneider,  N. Sergueev,  S. M. Sharada,  S. Sharma,  D. W. Small,  
 T. Stauch,  T. Stein,  Yu-Chuan Su,  A. J. W. Thom,  A. Tkatchenko,  
 T. Tsuchimochi,  N. M. Tubman,  L. Vogt,  M. L. Vidal,  O. Vydrov,  
 M. A. Watson,  J. Wenzel,  M. de Wergifosse,  T. A. Wesolowski,  A. White,  
 J. Witte,  A. Yamada,  Jun Yang,  K. Yao,  S. Yeganeh,  S. R. Yost,  
 Zhi-Qiang You,  A. Zech,  Igor Ying Zhang,  Xing Zhang,  Yan Zhao,  
 Ying Zhu,  B. R. Brooks,  G. K. L. Chan,  C. J. Cramer,  M. S. Gordon,  
 W. J. Hehre,  A. Klamt,  M. W. Schmidt,  C. D. Sherrill,  D. G. Truhlar,  
 A. Aspuru-Guzik,  R. Baer,  A. T. Bell,  N. A. Besley,  Jeng-Da Chai,  
 A. E. DePrince, III,  R. A. DiStasio Jr.,  A. Dreuw,  B. D. Dunietz,  
 T. R. Furlani,  Chao-Ping Hsu,  Yousung Jung,  Jing Kong,  D. S. Lambrecht,  
 WanZhen Liang,  C. Ochsenfeld,  V. A. Rassolov,  L. V. Slipchenko,  
 J. E. Subotnik,  T. Van Voorhis,  J. M. Herbert,  A. I. Krylov,  
 P. M. W. Gill,  M. Head-Gordon

 Contributors to earlier versions of Q-Chem not listed above: 
 R. D. Adamson,  B. Austin,  J. Baker,  G. J. O. Beran,  K. Brandhorst,  
 S. T. Brown,  E. F. C. Byrd,  A. K. Chakraborty,  C.-L. Cheng,  
 Siu Hung Chien,  D. M. Chipman,  D. L. Crittenden,  H. Dachsel,  
 R. J. Doerksen,  A. D. Dutoi,  L. Fusti-Molnar,  W. A. Goddard III,  
 A. Golubeva-Zadorozhnaya,  S. R. Gwaltney,  G. Hawkins,  A. Heyden,  
 S. Hirata,  G. Kedziora,  F. J. Keil,  C. Kelley,  Jihan Kim,  R. A. King,  
 R. Z. Khaliullin,  P. P. Korambath,  W. Kurlancheek,  A. M. Lee,  M. S. Lee,  
 S. V. Levchenko,  Ching Yeh Lin,  D. Liotard,  R. C. Lochan,  I. Lotan,  
 P. E. Maslen,  N. Nair,  D. P. O'Neill,  D. Neuhauser,  E. Neuscamman,  
 C. M. Oana,  R. Olson,  B. Peters,  R. Peverati,  P. A. Pieniazek,  
 Y. M. Rhee,  J. Ritchie,  M. A. Rohrdanz,  E. Rosta,  N. J. Russ,  
 H. F. Schaefer III,  N. E. Schultz,  N. Shenvi,  A. C. Simmonett,  A. Sodt,  
 D. Stuck,  K. S. Thanthiriwatte,  V. Vanovschi,  Tao Wang,  A. Warshel,  
 C. F. Williams,  Q. Wu,  X. Xu,  W. Zhang

 Please cite Q-Chem as follows:
 Y. Shao et al., Mol. Phys. 113, 184-215 (2015)
 DOI: 10.1080/00268976.2014.952696

 Q-Chem 5.2.1 for Intel X86 EM64T Linux

 Parts of Q-Chem use Armadillo 8.300.2 (Tropical Shenanigans).
 http://arma.sourceforge.net/

 Q-Chem begins on Wed Sep 29 21:51:11 2021  

compute-0-1.local
Host: 0

     Scratch files written to /home/meili/scratch/qchem40206//Frg2//
NAlpha2: 50
NElect   50
Mult     1
Symmetry turned off for PCM/SM12/SMD calculation

Checking the input file for inconsistencies... 	...done.

--------------------------------------------------------------
User input:
--------------------------------------------------------------
$molecule
0 1
 6	5.3929051124	0.5576138608	-0.0169152822
 6	1.4549051124	-1.1343861392	0.1650847178
 6	1.6519051124	0.2026138608	0.4780847178
 6	2.5379051124	-1.9273861392	-0.1979152822
 6	2.9309051124	0.7526138608	0.4070847178
 6	3.8139051124	-1.3803861392	-0.2459152822
 6	4.0159051124	-0.0333861392	0.0300847178
 1	0.4609051124	-1.5603861392	0.2120847178
 1	0.8149051124	0.8176138608	0.7770847178
 1	2.3919051124	-2.9733861392	-0.4319152822
 1	3.0769051124	1.7966138608	0.6470847178
 1	4.6539051124	-2.0083861392	-0.4979152822
 1	5.3229051124	1.5626138608	-0.4339152822
 1	6.0149051124	-0.0303861392	-0.6919152822
 1	5.8754151124	0.6058638608	0.9704347178
$end
$rem
EDA2		1
METHOD		WB97X-V
BASIS		DEF2-TZVPD
XC_GRID		000099000590
NL_GRID		1
UNRESTRICTED		FALSE
MAX_SCF_CYCLES		200
SYMMETRY		FALSE
SYM_IGNORE		TRUE
BASIS_LIN_DEP_THRESH		6
THRESH		14
SCF_CONVERGENCE		8
SCF_PRINT_FRGM		TRUE
SOLVENT_METHOD		PCM
!required keywords
JOBTYPE		SP
SYM_IGNORE		TRUE
SUBSYSTEM		TRUE
GEN_SCFMAN		TRUE
CHILD_INSTRUCTION		2
SYM_IGNORE		TRUE
SCFMI		0
RI_K 0		
PARI_K 0		
MIN_PARI_K 0		
IARI_K 0		
OCC_RI_K 0		
PURECART		1111
MEM_STATIC		2000
MEM_TOTAL		2000
GUI		0
CHILD_MP		1
CHILD_MP_ORDERS		232
FRZ_RELAX		0
FRZ_RELAX_METHOD		0
EDA_CLS_ELEC		1
EDA_CLS_DISP		0
FRZ_ORTHO_DECOMP		1
EDA2		FALSE
FRGM_METHOD		FALSE
CIS_N_ROOTS  0
LOCAL_CIS    0
CIS_RLX_DNS  1
$end
$pcm
THEORY                  CPCM
METHOD                  SWIG
SOLVER                  INVERSION
RADII                   UFF
HPOINTS                 302
HEAVYPOINTS             302
PRINTLEVEL              0
$end
$solvent
DIELECTRIC              78.390000 ! water
$end
--------------------------------------------------------------
 ----------------------------------------------------------------
             Standard Nuclear Orientation (Angstroms)
    I     Atom           X                Y                Z
 ----------------------------------------------------------------
    1      C       5.3929051124     0.5576138608    -0.0169152822
    2      C       1.4549051124    -1.1343861392     0.1650847178
    3      C       1.6519051124     0.2026138608     0.4780847178
    4      C       2.5379051124    -1.9273861392    -0.1979152822
    5      C       2.9309051124     0.7526138608     0.4070847178
    6      C       3.8139051124    -1.3803861392    -0.2459152822
    7      C       4.0159051124    -0.0333861392     0.0300847178
    8      H       0.4609051124    -1.5603861392     0.2120847178
    9      H       0.8149051124     0.8176138608     0.7770847178
   10      H       2.3919051124    -2.9733861392    -0.4319152822
   11      H       3.0769051124     1.7966138608     0.6470847178
   12      H       4.6539051124    -2.0083861392    -0.4979152822
   13      H       5.3229051124     1.5626138608    -0.4339152822
   14      H       6.0149051124    -0.0303861392    -0.6919152822
   15      H       5.8754151124     0.6058638608     0.9704347178
 ----------------------------------------------------------------
 Nuclear Repulsion Energy =         270.32118554 hartrees
 There are       25 alpha and       25 beta electrons
 Requested basis set is def2-TZVPD
 There are 131 shells and 331 basis functions

 Total QAlloc Memory Limit   2000 MB
 Mega-Array Size      1956 MB
 MEM_STATIC part      2000 MB
 Discretize the solute cavity surface with Lebedev spheres
	Using 302 Lebedev grid points for each H atom
	Using 302 Lebedev grid points for other atoms
	Atomic van der Waals radii will be scaled by 1.20
 Remove points where switching function is < 1.0e-08
 Keep 1805 surface tesserae and discard 2725 interior tesserae
 Molecular Surface Area = 177.887 Angst**2

                       Distance Matrix (Angstroms)
             C (  1)   C (  2)   C (  3)   C (  4)   C (  5)   C (  6)
   C (  2)  4.289969
   C (  3)  3.790268  1.387208
   C (  4)  3.789329  1.390506  2.403928
   C (  5)  2.505842  2.407885  1.394052  2.775405
   C (  6)  2.510284  2.407139  2.775664  1.389132  2.399122
   C (  7)  1.499206  2.790904  2.417622  2.413235  1.391815  1.389744
   H (  8)  5.372429  1.082461  2.144156  2.148655  3.389527  3.388919
   H (  9)  4.653614  2.143466  1.080831  3.384432  2.149088  3.856389
   H ( 10)  4.652546  2.148557  3.385657  1.081752  3.857139  2.143439
   H ( 11)  2.709220  3.384371  2.144766  3.856517  1.081135  3.381412
   H ( 12)  2.713271  3.381870  3.853972  2.138695  3.377999  1.078651
   H ( 13)  1.090327  4.753318  4.019650  4.471244  2.661775  3.312654
   H ( 14)  1.090070  4.769367  4.523158  3.991513  3.366296  2.620270
   H ( 15)  1.100002  4.818503  4.271189  4.349870  3.001506  3.110389
             C (  7)   H (  8)   H (  9)   H ( 10)   H ( 11)   H ( 12)
   H (  8)  3.873355
   H (  9)  3.395381  2.469701
   H ( 10)  3.390342  2.477916  4.280221
   H ( 11)  2.147396  4.278099  2.468195  4.938255
   H ( 12)  2.141601  4.276219  4.934554  2.460127  4.275041
   H ( 13)  2.114417  5.814593  4.726903  5.400561  2.503564  3.633689
   H ( 14)  2.125393  5.831383  5.469649  4.674931  3.709811  2.408826
   H ( 15)  2.179605  5.880872  5.068627  5.187722  3.058447  3.237660
             H ( 13)   H ( 14)
   H ( 14)  1.755869
   H ( 15)  1.786851  1.785407

 A cutoff of  1.0D-14 yielded   8360 shell pairs
 There are     54504 function pairs (     69458 Cartesian)
 Smallest overlap matrix eigenvalue = 5.51E-07
 Linear dependence detected in AO basis
 Tighter screening thresholds may be required for diffuse basis sets
 Use S2THRESH > 14 and THRESH = 14 in case of SCF convergence issues
 Number of orthogonalized atomic orbitals = 330
 Maximum deviation from orthogonality = 1.560E-10

 Scale SEOQF with 1.000000e-02/1.000000e-01/1.000000e-01

 Standard Electronic Orientation quadrupole field applied
 Nucleus-field energy     =     0.0000000065 hartrees
 Guess from superposition of atomic densities
 Warning:  Energy on first SCF cycle will be non-variational
 SAD guess density has 50.000000 electrons

 -----------------------------------------------------------------------
  General SCF calculation program by
  Eric Jon Sundstrom, Paul Horn, Yuezhi Mao, Dmitri Zuev, Alec White,
  David Stuck, Shaama M.S., Shane Yost, Joonho Lee, David Small,
  Daniel Levine, Susi Lehtola, Hugh Burton, Evgeny Epifanovsky,
  Bang C. Huynh
 -----------------------------------------------------------------------
 Exchange:     0.1670 Hartree-Fock + 1.0000 wB97X-V + LR-HF
 Correlation:  1.0000 wB97X-V
 Using Euler-Maclaurin-Lebedev (99,590) quadrature formula
 Nonlocal Correlation:  VV10 with C = 0.0100 and b = 6.00 and scale = 1.00000
 Grid used for NLC:  SG-1 standard quadrature
Energy prior to optimization (guess energy) = -271.527095366318
Begin Timing: Total SCF Calculation
begin iterations for algorithm: DIIS         
the SCF tolerance is set to 1.00e-08
    1    -271.5270953663      1.84e-03     00000 
    2    -271.5630921979      1.14e-03     00000 
    3    -271.5812802023      1.41e-04     00000 
    4    -271.5817011501      4.27e-05     00000 
    5    -271.5817290923      1.47e-05     00000 
    6    -271.5817329922      3.16e-06     00000 
    7    -271.5817332470      9.75e-07     00000 
    8    -271.5817332648      3.71e-07     00000 
    9    -271.5817332674      6.46e-08     00000 
   10    -271.5817332675      2.90e-08     00000 
   11    -271.5817332675      6.09e-09     00000 Convergence criterion met
Timing for Total SCF: 522.00s (wall), 3018.54s (cpu)

************** Final PCM Free Energy Summary **************
 G_electrostatic  =      -0.00244794 hartree =      -1.53610479 kcal/mol
 G_cavitation     =       0.00000000 hartree =       0.00000000 kcal/mol
 G_dispersion     =       0.00000000 hartree =       0.00000000 kcal/mol
 G_repulsion      =       0.00000000 hartree =       0.00000000 kcal/mol
 --------------------------------------------------
 Non-electrostatic Free Energy =       0.00000000 hartree =       0.00000000 kcal/mol
 Total                         =      -0.00244794 hartree =      -1.53610479 kcal/mol
 --------------------------------------------------
 SCF Energy (H0 + V/2)                       =    -271.58173327 
 Solute Internal Energy (H0)                 =    -271.57928533 
 Total Free Energy (H0 + V/2 + non-elec)     =    -271.58173327 hartree
                                             = -170420.10977597 kcal/mol
***********************************************************

E_pcm = -0.0024479388
Multipole orders to be included
        2
        3
computing dipole RHS
computing quadrupole RHS
total number of RHS in solve_reponses: 8
RHS batch sizes
        8
Beginning Block Conjugate Gradient Iterations. Batch Number: 0
computing hessian-vector products by finite difference
              1      5.82e-01     00000 Conjugate Gradient Iteration
computing hessian-vector products by finite difference
              2      1.91e-01     00000 Conjugate Gradient Iteration
computing hessian-vector products by finite difference
              3      4.43e-02     00000 Conjugate Gradient Iteration
computing hessian-vector products by finite difference
              4      1.02e-02     00000 Conjugate Gradient Iteration
computing hessian-vector products by finite difference
              5      2.11e-03     00000 Conjugate Gradient Iteration
computing hessian-vector products by finite difference
              6      5.83e-04     00000 Conjugate Gradient Iteration
computing hessian-vector products by finite difference
              7      1.69e-04     00000 Conjugate Gradient Iteration
computing hessian-vector products by finite difference
              8      2.59e-05     00000 Conjugate Gradient Iteration
computing hessian-vector products by finite difference
              9      3.43e-06     00000 Conjugate Gradient Iteration
computing hessian-vector products by finite difference
             10      5.87e-07     00000 Conjugate Gradient Iteration
computing hessian-vector products by finite difference
             11      9.48e-08     00000 Conjugate Gradient Iteration
computing hessian-vector products by finite difference
             12      1.34e-08     00000 Conjugate Gradient Iteration
computing hessian-vector products by finite difference
             13      2.82e-09     00000 CG Converged
batch 0 complete
Done Calculating Responses
TESTING ORTHOGONALIZATION OF MULTIPOLE BASIS
Multipole virts passed orthogonality test
Virts Per Order
           75
          125

 --------------------------------------------------------------

                    Orbital Energies (a.u.)
 --------------------------------------------------------------

 Alpha MOs
 -- Occupied --
-10.2806 -10.2730 -10.2728 -10.2700 -10.2694 -10.2686 -10.2619  -0.9987
 -0.9086  -0.8797  -0.8138  -0.7313  -0.7061  -0.6307  -0.5749  -0.5673
 -0.5372  -0.5306  -0.5147  -0.4880  -0.4741  -0.4419  -0.4411  -0.3495
 -0.3386
 -- Virtual --
  0.0630   0.0631   0.0686   0.0791   0.0845   0.1044   0.1104   0.1136
  0.1355   0.1516   0.1654   0.1672   0.1861   0.1896   0.1948   0.2012
  0.2217   0.2254   0.2338   0.2392   0.2482   0.2575   0.2600   0.2702
  0.2769   0.2800   0.2841   0.2924   0.2938   0.3011   0.3051   0.3112
  0.3212   0.3240   0.3315   0.3347   0.3496   0.3531   0.3650   0.3726
  0.3775   0.3824   0.3836   0.3883   0.3907   0.4018   0.4026   0.4070
  0.4115   0.4279   0.4294   0.4353   0.4413   0.4476   0.4509   0.4531
  0.4624   0.4691   0.4748   0.4805   0.4927   0.4956   0.5119   0.5168
  0.5185   0.5241   0.5328   0.5379   0.5423   0.5480   0.5486   0.5658
  0.5816   0.5865   0.5958   0.5989   0.6021   0.6222   0.6389   0.6414
  0.6602   0.6734   0.6826   0.6856   0.6872   0.6982   0.7208   0.7245
  0.7292   0.7303   0.7436   0.7603   0.7639   0.7650   0.7784   0.7853
  0.7910   0.7942   0.7985   0.8023   0.8067   0.8220   0.8255   0.8321
  0.8336   0.8357   0.8429   0.8529   0.8571   0.8729   0.8905   0.8924
  0.9100   0.9151   0.9327   0.9473   0.9510   1.0088   1.0228   1.0385
  1.0457   1.0605   1.0720   1.0770   1.0885   1.0908   1.1037   1.1429
  1.1650   1.1776   1.2521   1.2761   1.2964   1.3207   1.3473   1.3500
  1.3806   1.4361   1.4493   1.4573   1.4686   1.4846   1.5263   1.5391
  1.5980   1.6032   1.6199   1.6236   1.6691   1.6773   1.7355   1.7779
  1.7894   1.7979   1.8070   1.8160   1.8309   1.8679   1.8821   1.9082
  1.9178   1.9288   1.9475   1.9621   1.9839   1.9961   2.0121   2.0227
  2.0330   2.0460   2.0693   2.0933   2.1106   2.1222   2.1728   2.1775
  2.1944   2.2350   2.2427   2.2678   2.2862   2.3127   2.3931   2.4010
  2.4078   2.4131   2.4808   2.5091   2.5363   2.5520   2.5668   2.6084
  2.6137   2.6317   2.6679   2.6710   2.6949   2.7112   2.7548   2.7718
  2.7867   2.8118   2.8214   2.8482   2.8614   2.9020   2.9090   2.9133
  2.9389   2.9423   2.9642   2.9766   2.9917   3.0154   3.0167   3.0495
  3.0639   3.0892   3.0991   3.1371   3.1793   3.1891   3.2019   3.2217
  3.2277   3.2409   3.2899   3.3033   3.3365   3.3567   3.3661   3.3792
  3.3996   3.4425   3.4472   3.4500   3.4600   3.4725   3.4876   3.5026
  3.5065   3.5287   3.5432   3.5445   3.5624   3.5789   3.5883   3.6042
  3.6169   3.6290   3.6580   3.6909   3.7101   3.7523   3.7816   3.8159
  3.8483   3.8898   3.9107   3.9603   3.9672   3.9951   4.0376   4.0567
  4.1179   4.2003   4.2687   4.2793   4.2926   4.3164   4.3236   4.3335
  4.3559   4.3757   4.3863   4.4057   4.4357   4.4516   4.4846   4.5369
  4.6013   4.6352   4.7559   4.7736   4.8344   4.8894   4.9051   4.9488
  5.0282   5.0500   5.1700   5.2658   5.3761   5.3869   5.5053   5.5345
  5.6730   5.8481  22.5770  22.6757  22.8933  22.9035  23.0207  23.0858
 23.4357
 --------------------------------------------------------------

          Ground-State Mulliken Net Atomic Charges

     Atom                 Charge (a.u.)
  ----------------------------------------
      1 C                    -1.032213
      2 C                    -0.469528
      3 C                    -0.496099
      4 C                    -0.504826
      5 C                    -0.339876
      6 C                    -0.390259
      7 C                     0.878230
      8 H                     0.330683
      9 H                     0.311521
     10 H                     0.308792
     11 H                     0.330544
     12 H                     0.316481
     13 H                     0.265877
     14 H                     0.277581
     15 H                     0.213092
  ----------------------------------------
  Sum of atomic charges =     0.000000

 -----------------------------------------------------------------
                    Cartesian Multipole Moments
 -----------------------------------------------------------------
    Charge (ESU x 10^10)
                -0.0000
    Dipole Moment (Debye)
         X       0.4470      Y       0.1887      Z       0.0429
       Tot       0.4871
    Quadrupole Moments (Debye-Ang)
        XX     -35.5016     XY       0.7470     YY     -38.8679
        XZ      -0.9099     YZ       1.8234     ZZ     -45.6298
    Octopole Moments (Debye-Ang^2)
       XXX    -356.6973    XXY      16.6726    XYY    -125.1381
       YYY      44.6118    XXZ      -7.7035    XYZ       5.6036
       YYZ      -5.9778    XZZ    -142.0157    YZZ      19.7407
       ZZZ     -11.4670
    Hexadecapole Moments (Debye-Ang^3)
      XXXX   -2872.0645   XXXY      81.5126   XXYY    -553.4351
      XYYY      85.0294   YYYY    -355.2655   XXXZ     -26.9346
      XXYZ      14.0830   XYYZ     -12.9661   YYYZ     -11.3515
      XXZZ    -551.9315   XYZZ      39.7078   YYZZ     -83.1636
      XZZZ      -8.0504   YZZZ     -23.3967   ZZZZ     -86.7415
 -----------------------------------------------------------------
Archival summary:
1\1\compute-0-1.local\SP\ProcedureUnspecified\BasisUnspecified\78\meili\ThuSep3000:57:442021ThuSep3000:57:442021\0\\#,ProcedureUnspecified,BasisUnspecified,\\0,1\C\C,1,1.38974\H,2,1.07865,1,119.835\C,2,1.38913,1,120.551,3,179.886,0\H,4,1.08175,2,119.819,1,178.924,0\C,4,1.39051,2,119.992,1,-1.81215,0\H,6,1.08246,4,120.139,2,-179.438,0\C,6,1.38721,4,119.865,2,0.0292785,0\H,8,1.08083,6,120.057,4,-178.948,0\C,1,1.39182,2,119.199,3,-177.391,0\H,10,1.08113,1,120.012,2,178.579,0\C,1,1.49921,2,120.621,3,-0.0853202,0\H,12,1.09007,1,109.321,2,25.7584,0\H,12,1.09033,1,108.444,2,142.419,0\H,12,1.1,1,113.082,2,-96.1521,0\\\@

 Total job time:  11193.08s(wall), 66570.16s(cpu) 
 Thu Sep 30 00:57:44 2021

        *************************************************************
        *                                                           *
        *  Thank you very much for using Q-Chem.  Have a nice day.  *
        *                                                           *
        *************************************************************


Done Job For Fragment 1
calling putenv with: QCSCRATCH=/home/meili/scratch 
calling putenv with: QCTHREADS=8 
Doing General SCFMI
 Exchange:     0.1670 Hartree-Fock + 1.0000 wB97X-V + LR-HF
 Correlation:  1.0000 wB97X-V
 Using Euler-Maclaurin-Lebedev (99,590) quadrature formula
 Nonlocal Correlation:  VV10 with C = 0.0100 and b = 6.00 and scale = 1.00000
 Grid used for NLC:  SG-1 standard quadrature
performing fock build before subrot guess so that all methods have access
Printing subrot_rss_gen Method Specification:
Occupied Subspace Method is 0
Virtual Subspace Method is 0
Energy of the unrelaxed supersystem initial determinant -657.709510485317
performing fock build before subrot guess so that all methods have access
Printing subrot_rss_gen Method Specification:
Occupied Subspace Method is 0
Virtual Subspace Method is 0
Energy of the unrelaxed supersystem initial determinant w/ solvent -657.717018035738
write pseudocanon occs and virts to disk
write pseudocanon orbital energies to disk
Tolerance of ortho_decomp_scf: 1.00e-06
GDM subspace size: 20
Beginning the Orthogonal Decomposition of the Initial Supersystem Wavefunction
    1    -657.6867666247      1.80e-02     ortho_decomp Preconditoned Steepest Descent
    2    -657.6886544293      4.55e-04     ortho_decomp BFGS Step
    3    -657.6886606219      3.61e-05     ortho_decomp BFGS Step
    4    -657.6886606350      1.53e-06     ortho_decomp BFGS Step
    5    -657.6886606350      5.17e-08     ortho_decomp 00000 Convergence criterion met
 Hartree-Fock
 Hartree-Fock
 Hartree-Fock
Doing General SCFMI
 Exchange:     0.1670 Hartree-Fock + 1.0000 wB97X-V + LR-HF
 Correlation:  1.0000 wB97X-V
 Using Euler-Maclaurin-Lebedev (99,590) quadrature formula
 Nonlocal Correlation:  VV10 with C = 0.0100 and b = 6.00 and scale = 1.00000
 Grid used for NLC:  SG-1 standard quadrature
performing fock build at end of subrot_r(subrot) constructor so that all methods have access
<S^2> of initial wavefunction before polarization iterations 0.0000000000
Beginning iterations for the determination of the polarized wavefunction
Energy prior to optimization (guess energy) = -657.717018035739
Begin Timing: Total SCF Calculation
begin iterations for algorithm: DIIS         
the SCF tolerance is set to 1.00e-08
    1    -657.7170180357      4.19e-05     00000 
    2    -657.7172573921      1.69e-05     00000 
    3    -657.7172809585      1.03e-05     00000 
    4    -657.7172906754      2.92e-06     00000 
    5    -657.7172916931      1.52e-06     00000 
    6    -657.7172919899      6.62e-07     00000 
    7    -657.7172920355      3.23e-07     00000 
    8    -657.7172920428      1.70e-07     00000 
    9    -657.7172920444      6.82e-08     00000 
   10    -657.7172920447      3.61e-08     00000 
   11    -657.7172920448      1.49e-08     00000 
   12    -657.7172920449      6.29e-09     00000 Convergence criterion met
write pseudocanon occs and virts to disk
write pseudocanon orbital energies to disk
Timing for Total SCF: 6074.00s (wall), 38144.94s (cpu)
<S^2> of polarized wavefunction after polarization iterations 0.0000000000
relaxing scfmi constraint to allow all rotations in the entire AO span
Doing General SCFMI
 Exchange:     0.1670 Hartree-Fock + 1.0000 wB97X-V + LR-HF
 Correlation:  1.0000 wB97X-V
 Using Euler-Maclaurin-Lebedev (99,590) quadrature formula
 Nonlocal Correlation:  VV10 with C = 0.0100 and b = 6.00 and scale = 1.00000
 Grid used for NLC:  SG-1 standard quadrature
performing fock build at end of subrot_r(subrot) constructor so that all methods have access
<S^2> of polarized wavefunction before ct-allowed iterations 0.0000000000
Beginning iterations for the determination of the CT-Allowed wavefunction
Energy prior to optimization (guess energy) = -657.717292044873
Begin Timing: Total SCF Calculation
begin iterations for algorithm: DIIS         
the SCF tolerance is set to 1.00e-08
    1    -657.7172920449      5.88e-05     00000 
    2    -657.7183158943      6.26e-06     00000 
    3    -657.7183478557      1.05e-06     00000 
    4    -657.7183489189      4.25e-07     00000 
    5    -657.7183489788      1.20e-07     00000 
    6    -657.7183489871      3.39e-08     00000 
    7    -657.7183489876      1.45e-08     00000 
    8    -657.7183489878      4.76e-09     00000 Convergence criterion met
write pseudocanon occs and virts to disk
write pseudocanon orbital energies to disk
Timing for Total SCF: 4044.00s (wall), 24704.78s (cpu)
<S^2> of ct_allowed wavefunction after ct-allowed iterations 0.0000000000

================================
        Results of EDA2         
================================
Basic EDA Quantities
--------------------
Fragment Energies (Ha):
1 -386.1326047670
2 -271.5817332675
--------------------
  E_prp (kJ/mol) = 0.0000
  E_sol (kJ/mol) = 1.5406
  E_frz (kJ/mol) = -8.5770
  E_pol (kJ/mol) = -0.7194
  E_vct (kJ/mol) = -2.7750
  E_int (kJ/mol) = -10.5309
--------------------


Initial Wavefunction Decomposition
--------------------
  --------------------
  Orthogonal Fragment Subspace Decomposition:
  --------------------
     E_elec   (ELEC)   (kJ/mol) = -24.2706
     E_pauli  (PAULI)  (kJ/mol) = 35.6326
     E_disp   (DISP)   (kJ/mol) = -19.9389
     --------------------
     Terms summing to E_pauli:
     --------------------
        E_kep_pauli       (kJ/mol) = 46.1649
        E_disp_free_pauli (kJ/mol) = -10.5323
  --------------------
  Classical Frozen Decomposition:
  --------------------
     E_cls_elec  (CLS ELEC)  (kJ/mol) = -10.0909
     E_cls_pauli (CLS PAULI) (kJ/mol) = 1.5139
    [E_mod_pauli (MOD PAULI) (kJ/mol) = 21.4529 (CLS PAULI - DISP from orthogonal decomposition) ]
  --------------------
--------------------

Simplified EDA Summary (kJ/mol)
--------------------
 PREPARATION     0.0000
 SOLVATION       1.5406
 FROZEN          11.3619      (does not include dispersion)
[PAULI           35.6326]     (if this is negligible, then frozen describes electrostatics)
 DISPERSION      -19.9389
 POLARIZATION    -0.7194
 CHARGE TRANSFER -2.7750
 TOTAL           -10.5309     (PRP + SOL + FRZ + DISP + POL + CT)
--------------------

 --------------------------------------------------------------

                    Orbital Energies (a.u.)
 --------------------------------------------------------------

 Alpha MOs
 -- Occupied --
-19.2452 -10.3356 -10.2801 -10.2750 -10.2744 -10.2740 -10.2723 -10.2721
-10.2717 -10.2711 -10.2687 -10.2686 -10.2680 -10.2636 -10.2617 -10.2575
 -1.1955  -0.9986  -0.9973  -0.9182  -0.9079  -0.8863  -0.8788  -0.8511
 -0.8133  -0.7669  -0.7392  -0.7306  -0.7078  -0.7053  -0.6681  -0.6304
 -0.6007  -0.5879  -0.5746  -0.5672  -0.5619  -0.5546  -0.5369  -0.5368
 -0.5331  -0.5292  -0.5142  -0.5065  -0.5012  -0.4877  -0.4788  -0.4700
 -0.4570  -0.4434  -0.4407  -0.4398  -0.4344  -0.4328  -0.3539  -0.3486
 -0.3375  -0.3136
 -- Virtual --
  0.0519   0.0560   0.0615   0.0639   0.0692   0.0701   0.0742   0.0770
  0.0854   0.0884   0.0962   0.1013   0.1040   0.1113   0.1119   0.1127
  0.1281   0.1328   0.1377   0.1397   0.1457   0.1552   0.1579   0.1644
  0.1660   0.1690   0.1755   0.1795   0.1899   0.1949   0.1992   0.2023
  0.2028   0.2088   0.2132   0.2174   0.2238   0.2243   0.2293   0.2320
  0.2339   0.2397   0.2434   0.2462   0.2523   0.2578   0.2628   0.2640
  0.2679   0.2708   0.2751   0.2760   0.2781   0.2835   0.2850   0.2876
  0.2914   0.2933   0.2964   0.2999   0.3090   0.3101   0.3120   0.3129
  0.3166   0.3211   0.3221   0.3279   0.3320   0.3327   0.3340   0.3362
  0.3379   0.3419   0.3462   0.3487   0.3518   0.3566   0.3588   0.3634
  0.3654   0.3660   0.3690   0.3705   0.3738   0.3753   0.3792   0.3811
  0.3841   0.3860   0.3893   0.3957   0.3986   0.4010   0.4026   0.4054
  0.4083   0.4106   0.4144   0.4167   0.4200   0.4233   0.4257   0.4320
  0.4341   0.4384   0.4396   0.4414   0.4457   0.4479   0.4513   0.4555
  0.4589   0.4614   0.4642   0.4673   0.4682   0.4721   0.4752   0.4767
  0.4782   0.4802   0.4855   0.4897   0.4908   0.4974   0.4987   0.5034
  0.5068   0.5104   0.5132   0.5141   0.5184   0.5195   0.5219   0.5318
  0.5350   0.5388   0.5392   0.5444   0.5475   0.5539   0.5593   0.5605
  0.5638   0.5661   0.5712   0.5721   0.5748   0.5779   0.5819   0.5828
  0.5874   0.5910   0.6003   0.6026   0.6084   0.6132   0.6178   0.6232
  0.6268   0.6287   0.6381   0.6408   0.6421   0.6465   0.6518   0.6591
  0.6611   0.6647   0.6700   0.6706   0.6750   0.6790   0.6817   0.6858
  0.6897   0.6908   0.6974   0.6998   0.7048   0.7127   0.7134   0.7199
  0.7227   0.7249   0.7284   0.7325   0.7377   0.7422   0.7459   0.7464
  0.7473   0.7522   0.7566   0.7614   0.7633   0.7665   0.7679   0.7728
  0.7777   0.7805   0.7822   0.7872   0.7885   0.7891   0.7937   0.7949
  0.8010   0.8063   0.8075   0.8119   0.8162   0.8186   0.8260   0.8276
  0.8324   0.8335   0.8366   0.8392   0.8442   0.8455   0.8489   0.8521
  0.8554   0.8579   0.8605   0.8671   0.8729   0.8749   0.8797   0.8827
  0.8931   0.8962   0.8988   0.9046   0.9071   0.9087   0.9139   0.9146
  0.9288   0.9301   0.9347   0.9392   0.9414   0.9466   0.9514   0.9536
  0.9630   0.9746   0.9780   0.9857   0.9947   1.0015   1.0050   1.0133
  1.0217   1.0231   1.0264   1.0283   1.0402   1.0466   1.0580   1.0586
  1.0688   1.0778   1.0788   1.0800   1.0851   1.0920   1.0969   1.1005
  1.1081   1.1124   1.1186   1.1226   1.1278   1.1437   1.1460   1.1602
  1.1708   1.1794   1.1906   1.1937   1.2056   1.2217   1.2345   1.2371
  1.2523   1.2689   1.2834   1.2898   1.3047   1.3183   1.3225   1.3331
  1.3409   1.3447   1.3613   1.3624   1.3693   1.3747   1.3858   1.3895
  1.3979   1.4224   1.4269   1.4310   1.4427   1.4473   1.4605   1.4724
  1.4819   1.4901   1.4975   1.5010   1.5134   1.5267   1.5307   1.5384
  1.5519   1.5592   1.5642   1.5767   1.5912   1.5993   1.6209   1.6265
  1.6408   1.6474   1.6617   1.6706   1.6776   1.6924   1.6940   1.7052
  1.7271   1.7379   1.7646   1.7873   1.7940   1.8064   1.8171   1.8239
  1.8293   1.8308   1.8387   1.8430   1.8577   1.8612   1.8829   1.8950
  1.9021   1.9157   1.9260   1.9345   1.9443   1.9473   1.9518   1.9610
  1.9671   1.9733   1.9837   1.9863   1.9910   1.9961   2.0044   2.0140
  2.0207   2.0240   2.0279   2.0357   2.0400   2.0473   2.0623   2.0648
  2.0697   2.0760   2.0816   2.0918   2.1066   2.1122   2.1242   2.1348
  2.1404   2.1441   2.1558   2.1675   2.1734   2.1903   2.1957   2.2071
  2.2144   2.2291   2.2368   2.2460   2.2622   2.2676   2.2696   2.2851
  2.2974   2.3019   2.3072   2.3153   2.3221   2.3287   2.3522   2.3609
  2.3710   2.3892   2.4104   2.4191   2.4268   2.4287   2.4419   2.4478
  2.4513   2.4638   2.4878   2.4983   2.5041   2.5210   2.5331   2.5641
  2.5722   2.5844   2.5902   2.5921   2.6116   2.6162   2.6261   2.6292
  2.6384   2.6504   2.6535   2.6603   2.6816   2.6875   2.6902   2.6973
  2.7188   2.7237   2.7289   2.7314   2.7437   2.7609   2.7693   2.7837
  2.7874   2.8043   2.8103   2.8225   2.8265   2.8330   2.8353   2.8518
  2.8534   2.8653   2.8784   2.8817   2.8962   2.9036   2.9071   2.9283
  2.9295   2.9395   2.9458   2.9509   2.9606   2.9681   2.9749   2.9854
  2.9857   2.9922   2.9989   3.0008   3.0113   3.0142   3.0287   3.0349
  3.0467   3.0562   3.0601   3.0639   3.0864   3.0955   3.1009   3.1035
  3.1137   3.1182   3.1244   3.1471   3.1526   3.1654   3.1810   3.1893
  3.2070   3.2099   3.2326   3.2424   3.2439   3.2482   3.2596   3.2655
  3.2711   3.2852   3.2872   3.3121   3.3146   3.3183   3.3353   3.3468
  3.3483   3.3575   3.3740   3.3820   3.3941   3.3980   3.4118   3.4194
  3.4211   3.4318   3.4355   3.4543   3.4587   3.4626   3.4696   3.4744
  3.4809   3.4861   3.4918   3.4962   3.5012   3.5052   3.5159   3.5238
  3.5275   3.5339   3.5394   3.5432   3.5504   3.5520   3.5560   3.5650
  3.5702   3.5771   3.5827   3.5894   3.5929   3.6089   3.6119   3.6153
  3.6199   3.6240   3.6325   3.6354   3.6405   3.6573   3.6610   3.6764
  3.6862   3.6977   3.7065   3.7145   3.7179   3.7220   3.7279   3.7346
  3.7405   3.7689   3.7898   3.7993   3.8140   3.8262   3.8370   3.8537
  3.8604   3.8774   3.8978   3.9060   3.9227   3.9398   3.9734   3.9836
  3.9883   3.9996   4.0111   4.0345   4.0571   4.0624   4.1030   4.1325
  4.1393   4.1430   4.1719   4.1790   4.2065   4.2318   4.2450   4.2772
  4.2912   4.2974   4.3033   4.3133   4.3283   4.3333   4.3442   4.3467
  4.3542   4.3561   4.3694   4.3769   4.3833   4.3926   4.3964   4.4030
  4.4199   4.4240   4.4340   4.4599   4.4728   4.4858   4.4899   4.5066
  4.5116   4.5608   4.5905   4.5985   4.6197   4.6427   4.6476   4.7113
  4.7506   4.7681   4.7728   4.7795   4.7828   4.8169   4.8414   4.8973
  4.8994   4.9267   4.9582   4.9682   4.9744   5.0414   5.0595   5.0761
  5.0820   5.1094   5.1256   5.1505   5.1766   5.1967   5.2814   5.3387
  5.3564   5.3907   5.3935   5.3942   5.4795   5.5155   5.5437   5.5573
  5.6183   5.6596   5.6969   5.7415   5.7654   5.8289   5.9488   6.2145
  6.4874   6.6023   6.6324   6.8792   7.0163   7.3086   7.4620  22.6434
 22.6774  22.6916  22.7871  22.9032  22.9349  22.9629  22.9964  23.0477
 23.0801  23.1022  23.1176  23.2193  23.4556  23.5484  44.4538
 --------------------------------------------------------------

          Ground-State Mulliken Net Atomic Charges

     Atom                 Charge (a.u.)
  ----------------------------------------
      1 C                     0.011064
      2 C                    -0.995942
      3 C                     0.134801
      4 C                    -0.432978
      5 C                    -0.101733
      6 C                    -0.509664
      7 C                    -0.786333
      8 C                     0.720497
      9 O                    -0.498003
     10 H                    -0.035353
     11 H                     0.256961
     12 H                     0.242298
     13 H                     0.328033
     14 H                     0.268541
     15 H                     0.270252
     16 H                     0.351473
     17 H                     0.299913
     18 H                     0.247931
     19 H                     0.230128
     20 C                    -1.076854
     21 C                    -0.300934
     22 C                    -0.271445
     23 C                    -0.558301
     24 C                    -0.602837
     25 C                    -0.399773
     26 C                     0.704921
     27 H                     0.356049
     28 H                     0.358416
     29 H                     0.330722
     30 H                     0.343927
     31 H                     0.344306
     32 H                     0.269053
     33 H                     0.285380
     34 H                     0.215486
  ----------------------------------------
  Sum of atomic charges =     0.000000

 -----------------------------------------------------------------
                    Cartesian Multipole Moments
 -----------------------------------------------------------------
    Charge (ESU x 10^10)
                 0.0000
    Dipole Moment (Debye)
         X       1.2171      Y       1.7539      Z       0.0824
       Tot       2.1364
    Quadrupole Moments (Debye-Ang)
        XX     -96.9192     XY      -2.9422     YY     -88.8298
        XZ      -3.5240     YZ       8.2809     ZZ     -95.2164
    Octopole Moments (Debye-Ang^2)
       XXX      57.7969    XXY      11.3697    XYY     -11.0206
       YYY      -2.4175    XXZ      10.1693    XYZ     -18.4409
       YYZ      10.6624    XZZ     -28.8795    YZZ      24.4232
       ZZZ      41.0183
    Hexadecapole Moments (Debye-Ang^3)
      XXXX   -5212.7207   XXXY     100.5766   XXYY    -931.2502
      XYYY     153.3438   YYYY    -669.3066   XXXZ     145.4577
      XXYZ      98.7942   XYYZ      22.1872   YYYZ      -0.9579
      XXZZ   -1075.7765   XYZZ     -16.4913   YYZZ    -323.7328
      XZZZ      78.7365   YZZZ      31.7416   ZZZZ   -1251.8010
 -----------------------------------------------------------------
Archival summary:
1\1\compute-0-1.local\SP\ProcedureUnspecified\BasisUnspecified\11518\meili\ThuSep3005:57:522021ThuSep3005:57:522021\0\\#,ProcedureUnspecified,BasisUnspecified,\\0,1\C\C,1,1.39136\H,2,1.07939,1,120.796\C,2,1.39193,1,120.526,3,178.502,0\H,4,1.07969,2,120.52,1,179.574,0\C,4,1.39386,2,119.879,1,-0.131595,0\O,6,1.36278,4,120.125,2,179.738,0\H,7,0.964108,6,112.045,4,-179.958,0\C,6,1.38498,4,120.161,2,0.446543,0\H,9,1.08186,6,120.424,4,179.828,0\C,9,1.38808,6,119.46,4,-0.999434,0\H,11,1.07788,9,119.325,6,-179.244,0\C,1,1.52261,2,120.891,3,0.280177,0\H,13,1.0828,1,108.427,2,161.754,0\H,13,1.0896,1,108.266,2,-81.9461,0\C,13,1.52868,1,116.162,2,39.9237,0\H,16,1.09037,13,108.165,1,-62.3573,0\H,16,1.1,13,109.637,1,177.78,0\H,16,1.1,13,110.205,1,56.695,0\H,12,2.72019,11,80.9117,9,102.22,0\C,20,1.08083,12,147.111,11,98.7596,0\C,21,1.38721,20,120.057,12,-86.6669,0\H,22,1.08246,21,119.994,20,0.519806,0\C,22,1.39051,21,119.865,20,-178.948,0\H,24,1.08175,22,120.185,21,179.29,0\C,24,1.38913,22,119.992,21,0.0292785,0\H,26,1.07865,24,119.613,22,178.074,0\C,26,1.38974,24,120.551,22,-1.81215,0\C,28,1.39182,26,119.199,24,2.49506,0\H,29,1.08113,28,120.012,26,178.579,0\C,28,1.49921,26,120.621,24,179.801,0\H,31,1.09007,28,109.321,26,25.7584,0\H,31,1.09033,28,108.444,26,142.419,0\H,31,1.1,28,113.082,26,-96.1521,0\\\@

 Total job time:  54081.41s(wall), 116804.24s(cpu) 
 Thu Sep 30 05:57:52 2021

        *************************************************************
        *                                                           *
        *  Thank you very much for using Q-Chem.  Have a nice day.  *
        *                                                           *
        *************************************************************


