
Running Job 1 of 1 SSI-083ASP-105TYR-1_PCM_TZVPD.in
qchem SSI-083ASP-105TYR-1_PCM_TZVPD.in_57350.0 /tmp/qchem57350/ 0
/global/common/cori/software/qchem/5.2/exe/qcprog.exe_s SSI-083ASP-105TYR-1_PCM_TZVPD.in_57350.0 /tmp/qchem57350/
                  Welcome to Q-Chem
     A Quantum Leap Into The Future Of Chemistry


 Q-Chem 5.2, Q-Chem, Inc., Pleasanton, CA (2019)

 License issued to: National Energy Research Scientific Computing Center

 Yihan Shao,  Zhengting Gan,  E. Epifanovsky,  A. T. B. Gilbert,  M. Wormit,  
 J. Kussmann,  A. W. Lange,  A. Behn,  Jia Deng,  Xintian Feng,  D. Ghosh,  
 M. Goldey,  P. R. Horn,  L. D. Jacobson,  I. Kaliman,  T. Kus,  A. Landau,  
 Jie Liu,  E. I. Proynov,  R. M. Richard,  R. P. Steele,  E. J. Sundstrom,  
 H. L. Woodcock III,  P. M. Zimmerman,  D. Zuev,  B. Albrecht,  E. Alguire,  
 S. A. Baeppler,  D. Barton,  Z. Benda,  Y. A. Bernard,  E. J. Berquist,  
 K. B. Bravaya,  H. Burton,  D. Casanova,  Chun-Min Chang,  Yunqing Chen,  
 A. Chien,  K. D. Closser,  M. P. Coons,  S. Coriani,  S. Dasgupta,  
 A. L. Dempwolff,  M. Diedenhofen,  Hainam Do,  R. G. Edgar,  Po-Tung Fang,  
 S. Faraji,  S. Fatehi,  Qingguo Feng,  K. D. Fenk,  J. Fosso-Tande,  
 J. Gayvert,  Qinghui Ge,  A. Ghysels,  G. Gidofalvi,  J. Gomes,  
 J. Gonthier,  A. Gunina,  D. Hait,  M. W. D. Hanson-Heine,  
 P. H. P. Harbach,  A. W. Hauser,  M. F. Herbst,  J. E. Herr,  
 E. G. Hohenstein,  Z. C. Holden,  Kerwin Hui,  B. C. Huynh,  T.-C. Jagau,  
 Hyunjun Ji,  B. Kaduk,  K. Khistyaev,  Jaehoon Kim,  P. Klunzinger,  K. Koh,  
 D. Kosenkov,  L. Koulias,  T. Kowalczyk,  C. M. Krauter,  A. Kunitsa,  
 Ka Un Lao,  A. Laurent,  K. V. Lawler,  Joonho Lee,  D. Lefrancois,  
 S. Lehtola,  D. S. Levine,  Yi-Pei Li,  You-Sheng Lin,  Fenglai Liu,  
 E. Livshits,  A. Luenser,  P. Manohar,  E. Mansoor,  S. F. Manzer,  
 Shan-Ping Mao,  Yuezhi Mao,  N. Mardirossian,  A. V. Marenich,  
 T. Markovich,  L. A. Martinez-Martinez,  S. A. Maurer,  N. J. Mayhall,  
 S. C. McKenzie,  J.-M. Mewes,  P. Morgante,  A. F. Morrison,  
 J. W. Mullinax,  K. Nanda,  T. S. Nguyen-Beck,  R. Olivares-Amaya,  
 J. A. Parkhill,  Zheng Pei,  T. M. Perrine,  F. Plasser,  P. Pokhilko,  
 S. Prager,  A. Prociuk,  E. Ramos,  D. R. Rehn,  F. Rob,  M. Scheurer,  
 M. Schneider,  N. Sergueev,  S. M. Sharada,  S. Sharma,  D. W. Small,  
 T. Stauch,  T. Stein,  Yu-Chuan Su,  A. J. W. Thom,  A. Tkatchenko,  
 T. Tsuchimochi,  N. M. Tubman,  L. Vogt,  M. L. Vidal,  O. Vydrov,  
 M. A. Watson,  J. Wenzel,  M. de Wergifosse,  T. A. Wesolowski,  A. White,  
 J. Witte,  A. Yamada,  Jun Yang,  K. Yao,  S. Yeganeh,  S. R. Yost,  
 Zhi-Qiang You,  A. Zech,  Igor Ying Zhang,  Xing Zhang,  Yan Zhao,  
 Ying Zhu,  B. R. Brooks,  G. K. L. Chan,  C. J. Cramer,  M. S. Gordon,  
 W. J. Hehre,  A. Klamt,  M. W. Schmidt,  C. D. Sherrill,  D. G. Truhlar,  
 A. Aspuru-Guzik,  R. Baer,  A. T. Bell,  N. A. Besley,  Jeng-Da Chai,  
 A. E. DePrince, III,  R. A. DiStasio Jr.,  A. Dreuw,  B. D. Dunietz,  
 T. R. Furlani,  Chao-Ping Hsu,  Yousung Jung,  Jing Kong,  D. S. Lambrecht,  
 WanZhen Liang,  C. Ochsenfeld,  V. A. Rassolov,  L. V. Slipchenko,  
 J. E. Subotnik,  T. Van Voorhis,  J. M. Herbert,  A. I. Krylov,  
 P. M. W. Gill,  M. Head-Gordon

 Contributors to earlier versions of Q-Chem not listed above: 
 R. D. Adamson,  B. Austin,  J. Baker,  G. J. O. Beran,  K. Brandhorst,  
 S. T. Brown,  E. F. C. Byrd,  A. K. Chakraborty,  C.-L. Cheng,  
 Siu Hung Chien,  D. M. Chipman,  D. L. Crittenden,  H. Dachsel,  
 R. J. Doerksen,  A. D. Dutoi,  L. Fusti-Molnar,  W. A. Goddard III,  
 A. Golubeva-Zadorozhnaya,  S. R. Gwaltney,  G. Hawkins,  A. Heyden,  
 S. Hirata,  G. Kedziora,  F. J. Keil,  C. Kelley,  Jihan Kim,  R. A. King,  
 R. Z. Khaliullin,  P. P. Korambath,  W. Kurlancheek,  A. M. Lee,  M. S. Lee,  
 S. V. Levchenko,  Ching Yeh Lin,  D. Liotard,  R. C. Lochan,  I. Lotan,  
 P. E. Maslen,  N. Nair,  D. P. O'Neill,  D. Neuhauser,  E. Neuscamman,  
 C. M. Oana,  R. Olson,  B. Peters,  R. Peverati,  P. A. Pieniazek,  
 Y. M. Rhee,  J. Ritchie,  M. A. Rohrdanz,  E. Rosta,  N. J. Russ,  
 H. F. Schaefer III,  N. E. Schultz,  N. Shenvi,  A. C. Simmonett,  A. Sodt,  
 D. Stuck,  K. S. Thanthiriwatte,  V. Vanovschi,  Tao Wang,  A. Warshel,  
 C. F. Williams,  Q. Wu,  X. Xu,  W. Zhang

 Please cite Q-Chem as follows:
 Y. Shao et al., Mol. Phys. 113, 184-215 (2015)
 DOI: 10.1080/00268976.2014.952696

 Q-Chem 5.2.0 for Intel X86 EM64T Linux

 Parts of Q-Chem use Armadillo 8.300.2 (Tropical Shenanigans).
 http://arma.sourceforge.net/

 Q-Chem begins on Sun Sep 26 11:44:11 2021  

Host: cori01
0

     Scratch files written to /tmp/qchem57350//
 May1019 |scratch|qcdevops|jenkins|workspace|build_RNUM -1
Processing $rem in /global/common/cori/software/qchem/5.2/config/preferences:
	 MEM_TOTAL  96000 
NAlpha2: 90
NElect   90
Mult     1
Symmetry turned off for PCM/SM12/SMD calculation

 Q-Chem warning in module libgen/rem_setup.C, line 2803:

 Neither GIA nor STOLL is specified by user. Use STOLL as the default


Checking the input file for inconsistencies... 	...done.

--------------------------------------------------------------
User input:
--------------------------------------------------------------
$comment
SSI-083ASP-105TYR-1.pdb
$end

$molecule
-1 1
--
-1 1
C    4.624728941990    0.178141213115    0.198085878367
C    3.463728941990    1.084141213115   -0.152914121633
O    2.317728941990    0.600141213115   -0.144914121633
O    3.714728941990    2.273141213115   -0.450914121633
H    5.246728941990    0.641141213115    0.967085878367
H    5.235728941990    0.069141213115   -0.698914121633
H    4.285878941990   -0.814668786885    0.529025878367
--
0 1
C   -3.890271058010   -2.488858786885    1.122085878367
C   -0.669271058010   -0.493858786885    0.669085878367
C   -1.003271058010    0.337141213115   -0.398914121633
C   -1.599271058010   -1.418858786885    1.144085878367
C   -2.867271058010   -1.524858786885    0.562085878367
C   -2.261271058010    0.241141213115   -0.992914121633
C   -3.188271058010   -0.684858786885   -0.508914121633
O   -0.115271058010    1.257141213115   -0.853914121633
H    0.306728941990   -0.409858786885    1.123085878367
H   -1.337271058010   -2.034858786885    1.991085878367
H   -2.521271058010    0.884141213115   -1.815914121633
H   -0.480271058010    1.777141213115   -1.573914121633
H   -4.810271058010   -1.936858786885    1.291085878367
H   -3.546271058010   -2.833858786885    2.098085878367
H   -4.174271058010   -0.720858786885   -0.953914121633
H   -4.118791058010   -3.369168786885    0.503355878367
$end

$rem
JOBTYPE			EDA
EDA2			1
method			wB97X-V
BASIS			def2-TZVPD
XC_GRID			000099000590
NL_GRID			1
UNRESTRICTED		FALSE
MAX_SCF_CYCLES		200
SYMMETRY		FALSE
SYM_IGNORE		TRUE
MEM_STATIC		2000
BASIS_LIN_DEP_THRESH 	6
THRESH 			14
SCF_CONVERGENCE 	8
SCF_PRINT_FRGM 		TRUE
SOLVENT_METHOD          PCM
$end

$PCM
THEORY                  CPCM
METHOD                  SWIG
SOLVER                  INVERSION
RADII                   UFF
HPOINTS                 302
HEAVYPOINTS             302
PRINTLEVEL              0
$END

$SOLVENT
DIELECTRIC              78.390000 ! water
$END
--------------------------------------------------------------
 ----------------------------------------------------------------
             Standard Nuclear Orientation (Angstroms)
    I     Atom           X                Y                Z
 ----------------------------------------------------------------
    1      C       4.6247289420     0.1781412131     0.1980858784
    2      C       3.4637289420     1.0841412131    -0.1529141216
    3      O       2.3177289420     0.6001412131    -0.1449141216
    4      O       3.7147289420     2.2731412131    -0.4509141216
    5      H       5.2467289420     0.6411412131     0.9670858784
    6      H       5.2357289420     0.0691412131    -0.6989141216
    7      H       4.2858789420    -0.8146687869     0.5290258784
    8      C      -3.8902710580    -2.4888587869     1.1220858784
    9      C      -0.6692710580    -0.4938587869     0.6690858784
   10      C      -1.0032710580     0.3371412131    -0.3989141216
   11      C      -1.5992710580    -1.4188587869     1.1440858784
   12      C      -2.8672710580    -1.5248587869     0.5620858784
   13      C      -2.2612710580     0.2411412131    -0.9929141216
   14      C      -3.1882710580    -0.6848587869    -0.5089141216
   15      O      -0.1152710580     1.2571412131    -0.8539141216
   16      H       0.3067289420    -0.4098587869     1.1230858784
   17      H      -1.3372710580    -2.0348587869     1.9910858784
   18      H      -2.5212710580     0.8841412131    -1.8159141216
   19      H      -0.4802710580     1.7771412131    -1.5739141216
   20      H      -4.8102710580    -1.9368587869     1.2910858784
   21      H      -3.5462710580    -2.8338587869     2.0980858784
   22      H      -4.1742710580    -0.7208587869    -0.9539141216
   23      H      -4.1187910580    -3.3691687869     0.5033558784
 ----------------------------------------------------------------
 Nuclear Repulsion Energy =         630.59711958 hartrees
 There are       45 alpha and       45 beta electrons
 Requested basis set is def2-TZVPD
 There are 214 shells and 552 basis functions

 Total QAlloc Memory Limit  96000 MB
 Mega-Array Size      1956 MB
 MEM_STATIC part      2000 MB
 Discretize the solute cavity surface with Lebedev spheres
	Using 302 Lebedev grid points for each H atom
	Using 302 Lebedev grid points for other atoms
	Atomic van der Waals radii will be scaled by 1.20
 Remove points where switching function is < 1.0e-08
 Keep 2717 surface tesserae and discard 4229 interior tesserae
 Molecular Surface Area = 281.437 Angst**2
 A cutoff of  1.0D-14 yielded  19192 shell pairs
 There are    128602 function pairs (    163204 Cartesian)
 Smallest overlap matrix eigenvalue = 5.38E-07
 Linear dependence detected in AO basis
 Tighter screening thresholds may be required for diffuse basis sets
 Use S2THRESH > 14 and THRESH = 14 in case of SCF convergence issues
 Number of orthogonalized atomic orbitals = 551
 Maximum deviation from orthogonality = 2.045E-10

 Scale SEOQF with 1.000000e-02/1.000000e-01/1.000000e-01

 Standard Electronic Orientation quadrupole field applied
 Nucleus-field energy     =     0.0000000085 hartrees

 -----------------------------------------------------------------------
  General SCF calculation program by
  Eric Jon Sundstrom, Paul Horn, Yuezhi Mao, Dmitri Zuev, Alec White,
  David Stuck, Shaama M.S., Shane Yost, Joonho Lee, David Small,
  Daniel Levine, Susi Lehtola, Hugh Burton, Evgeny Epifanovsky
 -----------------------------------------------------------------------
================================================================
                 ALMO-EDA with the EDA2 driver                  
================================================================
 The second-generation ALMO-EDA (for DFT):                      
 P. R. Horn, Y. Mao and M. Head-Gordon, PCCP, 18, 23067 (2016)  
 Decomposition of the frozen energy:                            
 P. R. Horn, Y. Mao and M. Head-Gordon, JCP, 144, 114107 (2016) 
 FERF model for polarization:                                   
 P. R. Horn and M. Head-Gordon, JCP, 143, 114111 (2015)         
Using eda2 option set 1
Option set summary: Frozen orbital wavefunction, initial wavefunction decomposition, and nDQ polarization.
--------------------------------
Printing EDA Options
--------------------------------
eda_child_super_basis      0
fragmo_guess_mode          0
child_mp                   1
child_mp_orders            232
cls_elec                   1
cls_disp                   0
scfmi_mode                 1
scfmi_occs                 0
scfmi_virts                0
frz_relax                  0
frz_relax_method           0
dc_pen_start               0
dc_pen_conv                0
dc_pen_increment           0
dc_pen_steps               0
dc_pen_thresh_factor       0
dc_pen_pre_newton_thresh   0
frz_ortho_decomp           1
frz_ortho_decomp_conv      6
frgm_method                2
scfmi_freeze_ss            0
separate_rehyb             0
plot_diff_den              0
eda_nocv                   0
eda_vct_relax              1
disp_free_x                0
disp_free_c                0
eda_bsse                   0
eda_pct_a                  0
eda_covp                   0
--------------------------------
Attempting to make child job directory: /tmp/qchem57350//Frg1/
Attempting to make child job directory: /tmp/qchem57350//Frg2/
Creating input file /tmp/qchem57350/Frg1.input
using default PutDataFrgm: nothing
calling putenv with: QCSCRATCH=/tmp/qchem57350/ 
calling putenv with: QCLOCALSCR=/tmp/qchem57350/ 
Spawning Job For Fragment 0
                  Welcome to Q-Chem
     A Quantum Leap Into The Future Of Chemistry


 Q-Chem 5.2, Q-Chem, Inc., Pleasanton, CA (2019)

 License issued to: National Energy Research Scientific Computing Center

 Yihan Shao,  Zhengting Gan,  E. Epifanovsky,  A. T. B. Gilbert,  M. Wormit,  
 J. Kussmann,  A. W. Lange,  A. Behn,  Jia Deng,  Xintian Feng,  D. Ghosh,  
 M. Goldey,  P. R. Horn,  L. D. Jacobson,  I. Kaliman,  T. Kus,  A. Landau,  
 Jie Liu,  E. I. Proynov,  R. M. Richard,  R. P. Steele,  E. J. Sundstrom,  
 H. L. Woodcock III,  P. M. Zimmerman,  D. Zuev,  B. Albrecht,  E. Alguire,  
 S. A. Baeppler,  D. Barton,  Z. Benda,  Y. A. Bernard,  E. J. Berquist,  
 K. B. Bravaya,  H. Burton,  D. Casanova,  Chun-Min Chang,  Yunqing Chen,  
 A. Chien,  K. D. Closser,  M. P. Coons,  S. Coriani,  S. Dasgupta,  
 A. L. Dempwolff,  M. Diedenhofen,  Hainam Do,  R. G. Edgar,  Po-Tung Fang,  
 S. Faraji,  S. Fatehi,  Qingguo Feng,  K. D. Fenk,  J. Fosso-Tande,  
 J. Gayvert,  Qinghui Ge,  A. Ghysels,  G. Gidofalvi,  J. Gomes,  
 J. Gonthier,  A. Gunina,  D. Hait,  M. W. D. Hanson-Heine,  
 P. H. P. Harbach,  A. W. Hauser,  M. F. Herbst,  J. E. Herr,  
 E. G. Hohenstein,  Z. C. Holden,  Kerwin Hui,  B. C. Huynh,  T.-C. Jagau,  
 Hyunjun Ji,  B. Kaduk,  K. Khistyaev,  Jaehoon Kim,  P. Klunzinger,  K. Koh,  
 D. Kosenkov,  L. Koulias,  T. Kowalczyk,  C. M. Krauter,  A. Kunitsa,  
 Ka Un Lao,  A. Laurent,  K. V. Lawler,  Joonho Lee,  D. Lefrancois,  
 S. Lehtola,  D. S. Levine,  Yi-Pei Li,  You-Sheng Lin,  Fenglai Liu,  
 E. Livshits,  A. Luenser,  P. Manohar,  E. Mansoor,  S. F. Manzer,  
 Shan-Ping Mao,  Yuezhi Mao,  N. Mardirossian,  A. V. Marenich,  
 T. Markovich,  L. A. Martinez-Martinez,  S. A. Maurer,  N. J. Mayhall,  
 S. C. McKenzie,  J.-M. Mewes,  P. Morgante,  A. F. Morrison,  
 J. W. Mullinax,  K. Nanda,  T. S. Nguyen-Beck,  R. Olivares-Amaya,  
 J. A. Parkhill,  Zheng Pei,  T. M. Perrine,  F. Plasser,  P. Pokhilko,  
 S. Prager,  A. Prociuk,  E. Ramos,  D. R. Rehn,  F. Rob,  M. Scheurer,  
 M. Schneider,  N. Sergueev,  S. M. Sharada,  S. Sharma,  D. W. Small,  
 T. Stauch,  T. Stein,  Yu-Chuan Su,  A. J. W. Thom,  A. Tkatchenko,  
 T. Tsuchimochi,  N. M. Tubman,  L. Vogt,  M. L. Vidal,  O. Vydrov,  
 M. A. Watson,  J. Wenzel,  M. de Wergifosse,  T. A. Wesolowski,  A. White,  
 J. Witte,  A. Yamada,  Jun Yang,  K. Yao,  S. Yeganeh,  S. R. Yost,  
 Zhi-Qiang You,  A. Zech,  Igor Ying Zhang,  Xing Zhang,  Yan Zhao,  
 Ying Zhu,  B. R. Brooks,  G. K. L. Chan,  C. J. Cramer,  M. S. Gordon,  
 W. J. Hehre,  A. Klamt,  M. W. Schmidt,  C. D. Sherrill,  D. G. Truhlar,  
 A. Aspuru-Guzik,  R. Baer,  A. T. Bell,  N. A. Besley,  Jeng-Da Chai,  
 A. E. DePrince, III,  R. A. DiStasio Jr.,  A. Dreuw,  B. D. Dunietz,  
 T. R. Furlani,  Chao-Ping Hsu,  Yousung Jung,  Jing Kong,  D. S. Lambrecht,  
 WanZhen Liang,  C. Ochsenfeld,  V. A. Rassolov,  L. V. Slipchenko,  
 J. E. Subotnik,  T. Van Voorhis,  J. M. Herbert,  A. I. Krylov,  
 P. M. W. Gill,  M. Head-Gordon

 Contributors to earlier versions of Q-Chem not listed above: 
 R. D. Adamson,  B. Austin,  J. Baker,  G. J. O. Beran,  K. Brandhorst,  
 S. T. Brown,  E. F. C. Byrd,  A. K. Chakraborty,  C.-L. Cheng,  
 Siu Hung Chien,  D. M. Chipman,  D. L. Crittenden,  H. Dachsel,  
 R. J. Doerksen,  A. D. Dutoi,  L. Fusti-Molnar,  W. A. Goddard III,  
 A. Golubeva-Zadorozhnaya,  S. R. Gwaltney,  G. Hawkins,  A. Heyden,  
 S. Hirata,  G. Kedziora,  F. J. Keil,  C. Kelley,  Jihan Kim,  R. A. King,  
 R. Z. Khaliullin,  P. P. Korambath,  W. Kurlancheek,  A. M. Lee,  M. S. Lee,  
 S. V. Levchenko,  Ching Yeh Lin,  D. Liotard,  R. C. Lochan,  I. Lotan,  
 P. E. Maslen,  N. Nair,  D. P. O'Neill,  D. Neuhauser,  E. Neuscamman,  
 C. M. Oana,  R. Olson,  B. Peters,  R. Peverati,  P. A. Pieniazek,  
 Y. M. Rhee,  J. Ritchie,  M. A. Rohrdanz,  E. Rosta,  N. J. Russ,  
 H. F. Schaefer III,  N. E. Schultz,  N. Shenvi,  A. C. Simmonett,  A. Sodt,  
 D. Stuck,  K. S. Thanthiriwatte,  V. Vanovschi,  Tao Wang,  A. Warshel,  
 C. F. Williams,  Q. Wu,  X. Xu,  W. Zhang

 Please cite Q-Chem as follows:
 Y. Shao et al., Mol. Phys. 113, 184-215 (2015)
 DOI: 10.1080/00268976.2014.952696

 Q-Chem 5.2.0 for Intel X86 EM64T Linux

 Parts of Q-Chem use Armadillo 8.300.2 (Tropical Shenanigans).
 http://arma.sourceforge.net/

 Q-Chem begins on Sun Sep 26 11:44:17 2021  

Host: cori01
0

     Scratch files written to /tmp/qchem57350//Frg1//
 May1019 |scratch|qcdevops|jenkins|workspace|build_RNUM -1
Processing $rem in /global/common/cori/software/qchem/5.2/config/preferences:
	 MEM_TOTAL  96000 
NAlpha2: 32
NElect   32
Mult     1
Symmetry turned off for PCM/SM12/SMD calculation

Checking the input file for inconsistencies... 	...done.

--------------------------------------------------------------
User input:
--------------------------------------------------------------
$molecule
-1 1
 6	4.6247289420	0.1781412131	0.1980858784
 6	3.4637289420	1.0841412131	-0.1529141216
 8	2.3177289420	0.6001412131	-0.1449141216
 8	3.7147289420	2.2731412131	-0.4509141216
 1	5.2467289420	0.6411412131	0.9670858784
 1	5.2357289420	0.0691412131	-0.6989141216
 1	4.2858789420	-0.8146687869	0.5290258784
$end
$rem
EDA2		1
METHOD		WB97X-V
BASIS		DEF2-TZVPD
XC_GRID		000099000590
NL_GRID		1
UNRESTRICTED		FALSE
MAX_SCF_CYCLES		200
SYMMETRY		FALSE
SYM_IGNORE		TRUE
BASIS_LIN_DEP_THRESH		6
THRESH		14
SCF_CONVERGENCE		8
SCF_PRINT_FRGM		TRUE
SOLVENT_METHOD		PCM
!required keywords
JOBTYPE		SP
SYM_IGNORE		TRUE
SUBSYSTEM		TRUE
GEN_SCFMAN		TRUE
CHILD_INSTRUCTION		2
SYM_IGNORE		TRUE
SCFMI		0
RI_K 0		
PARI_K 0		
MIN_PARI_K 0		
IARI_K 0		
OCC_RI_K 0		
PURECART		1111
MEM_STATIC		2000
MEM_TOTAL		96000
GUI		0
CHILD_MP		1
CHILD_MP_ORDERS		232
FRZ_RELAX		0
FRZ_RELAX_METHOD		0
EDA_CLS_ELEC		1
EDA_CLS_DISP		0
FRZ_ORTHO_DECOMP		1
EDA2		FALSE
FRGM_METHOD		FALSE
CIS_N_ROOTS  0
LOCAL_CIS    0
CIS_RLX_DNS  1
$end
$pcm
THEORY                  CPCM
METHOD                  SWIG
SOLVER                  INVERSION
RADII                   UFF
HPOINTS                 302
HEAVYPOINTS             302
PRINTLEVEL              0
$end
$solvent
DIELECTRIC              78.390000 ! water
$end
--------------------------------------------------------------
 ----------------------------------------------------------------
             Standard Nuclear Orientation (Angstroms)
    I     Atom           X                Y                Z
 ----------------------------------------------------------------
    1      C       4.6247289420     0.1781412131     0.1980858784
    2      C       3.4637289420     1.0841412131    -0.1529141216
    3      O       2.3177289420     0.6001412131    -0.1449141216
    4      O       3.7147289420     2.2731412131    -0.4509141216
    5      H       5.2467289420     0.6411412131     0.9670858784
    6      H       5.2357289420     0.0691412131    -0.6989141216
    7      H       4.2858789420    -0.8146687869     0.5290258784
 ----------------------------------------------------------------
 Nuclear Repulsion Energy =         113.02935262 hartrees
 There are       16 alpha and       16 beta electrons
 Requested basis set is def2-TZVPD
 There are 69 shells and 181 basis functions

 Total QAlloc Memory Limit  96000 MB
 Mega-Array Size      1956 MB
 MEM_STATIC part      2000 MB
 Discretize the solute cavity surface with Lebedev spheres
	Using 302 Lebedev grid points for each H atom
	Using 302 Lebedev grid points for other atoms
	Atomic van der Waals radii will be scaled by 1.20
 Remove points where switching function is < 1.0e-08
 Keep 1008 surface tesserae and discard 1106 interior tesserae
 Molecular Surface Area = 119.971 Angst**2

                       Distance Matrix (Angstroms)
             C (  1)   C (  2)   O (  3)   O (  4)   H (  5)   H (  6)
   C (  2)  1.513921
   O (  3)  2.370228  1.244040
   O (  4)  2.374516  1.251210  2.200948
   H (  5)  1.092069  2.151683  3.133252  2.649749
   H (  6)  1.090785  2.113841  3.017217  2.689342  1.761494
   H (  7)  1.100006  2.178635  2.515849  3.289539  1.798475  1.786385

 
 A cutoff of  1.0D-14 yielded   2391 shell pairs
 There are     16695 function pairs (     21491 Cartesian)
 Smallest overlap matrix eigenvalue = 1.61E-05

 Scale SEOQF with 1.000000e-02/1.000000e-01/1.000000e-01

 Standard Electronic Orientation quadrupole field applied
 Nucleus-field energy     =     0.0000000049 hartrees
 Guess from superposition of atomic densities
 Warning:  Energy on first SCF cycle will be non-variational
 SAD guess density has 30.625312 electrons

 -----------------------------------------------------------------------
  General SCF calculation program by
  Eric Jon Sundstrom, Paul Horn, Yuezhi Mao, Dmitri Zuev, Alec White,
  David Stuck, Shaama M.S., Shane Yost, Joonho Lee, David Small,
  Daniel Levine, Susi Lehtola, Hugh Burton, Evgeny Epifanovsky
 -----------------------------------------------------------------------
 Exchange:     0.1670 Hartree-Fock + 1.0000 wB97X-V + LR-HF
 Correlation:  1.0000 wB97X-V
 Using Euler-Maclaurin-Lebedev (99,590) quadrature formula
 Nonlocal Correlation:  VV10 with C = 0.0100 and b = 6.00 and scale = 1.00000
 Grid used for NLC:  SG-1 standard quadrature
Energy prior to optimization (guess energy) = -227.767792445608
Begin Timing: Total SCF Calculation
begin iterations for algorithm: DIIS         
the SCF tolerance is set to 1.00e-08
    1    -227.7677924456      1.66e-02     00000 
    2    -225.6126947549      2.53e-02     00000 
    3    -228.5773956495      4.13e-03     00000 
    4    -228.6363804220      1.38e-03     00000 
    5    -228.6424845364      2.62e-04     00000 
    6    -228.6427089688      2.08e-04     00000 
    7    -228.6428269926      4.84e-05     00000 
    8    -228.6428375630      1.36e-05     00000 
    9    -228.6428388405      2.82e-06     00000 
   10    -228.6428389429      5.50e-07     00000 
   11    -228.6428389461      2.54e-07     00000 
   12    -228.6428389467      5.95e-08     00000 
   13    -228.6428389467      1.68e-08     00000 
   14    -228.6428389468      2.70e-09     00000 Convergence criterion met
Timing for Total SCF: 315.00s (wall), 618.54s (cpu)

************** Final PCM Free Energy Summary **************
 G_electrostatic  =      -0.10153960 hartree =     -63.71705994 kcal/mol
 G_cavitation     =       0.00000000 hartree =       0.00000000 kcal/mol
 G_dispersion     =       0.00000000 hartree =       0.00000000 kcal/mol
 G_repulsion      =       0.00000000 hartree =       0.00000000 kcal/mol
 --------------------------------------------------
 Non-electrostatic Free Energy =       0.00000000 hartree =       0.00000000 kcal/mol
 Total                         =      -0.10153960 hartree =     -63.71705994 kcal/mol
 --------------------------------------------------
 SCF Energy (H0 + V/2)                       =    -228.64283895 
 Solute Internal Energy (H0)                 =    -228.54129935 
 Total Free Energy (H0 + V/2 + non-elec)     =    -228.64283895 hartree
                                             = -143475.54691541 kcal/mol
***********************************************************

E_pcm = -0.1015395988
Multipole orders to be included
        2
        3
computing dipole RHS
computing quadrupole RHS
total number of RHS in solve_reponses: 8
RHS batch sizes
        8
Beginning Block Conjugate Gradient Iterations. Batch Number: 0
computing hessian-vector products by finite difference
              1      6.57e-01     00000 Conjugate Gradient Iteration
computing hessian-vector products by finite difference
              2      2.39e-01     00000 Conjugate Gradient Iteration
computing hessian-vector products by finite difference
              3      6.24e-02     00000 Conjugate Gradient Iteration
computing hessian-vector products by finite difference
              4      1.63e-02     00000 Conjugate Gradient Iteration
computing hessian-vector products by finite difference
              5      2.92e-03     00000 Conjugate Gradient Iteration
computing hessian-vector products by finite difference
              6      6.80e-04     00000 Conjugate Gradient Iteration
computing hessian-vector products by finite difference
              7      1.13e-04     00000 Conjugate Gradient Iteration
computing hessian-vector products by finite difference
              8      1.39e-05     00000 Conjugate Gradient Iteration
computing hessian-vector products by finite difference
              9      2.13e-06     00000 Conjugate Gradient Iteration
computing hessian-vector products by finite difference
             10      2.45e-07     00000 Conjugate Gradient Iteration
computing hessian-vector products by finite difference
             11      3.54e-08     00000 Conjugate Gradient Iteration
computing hessian-vector products by finite difference
             12      9.77e-09     00000 CG Converged
batch 0 complete
Done Calculating Responses
TESTING ORTHOGONALIZATION OF MULTIPOLE BASIS
Multipole virts passed orthogonality test
Virts Per Order
        48
        80
 
 --------------------------------------------------------------
 
                    Orbital Energies (a.u.)
 --------------------------------------------------------------
 
 Alpha MOs
 -- Occupied --
-19.1219 -19.1203 -10.3228 -10.2379  -1.1336  -1.0335  -0.8289  -0.5912
 -0.5299  -0.5182  -0.5165  -0.4638  -0.4422  -0.3296  -0.3246  -0.3093
 -- Virtual --
  0.0633   0.0953   0.0960   0.1053   0.1305   0.1401   0.1431   0.1450
  0.1708   0.1925   0.1986   0.2236   0.2300   0.2373   0.2646   0.2681
  0.2997   0.3134   0.3347   0.3471   0.3530   0.3625   0.3744   0.3848
  0.3930   0.4030   0.4244   0.4280   0.4336   0.4632   0.4744   0.4774
  0.4907   0.4992   0.5056   0.5208   0.5608   0.5790   0.6017   0.6162
  0.6186   0.6428   0.6457   0.6654   0.6751   0.6852   0.6944   0.7159
  0.7238   0.7402   0.7766   0.8025   0.8117   0.8209   0.8471   0.8661
  0.8700   0.9771   0.9846   0.9947   1.0053   1.0532   1.0584   1.1337
  1.1809   1.2118   1.2640   1.2851   1.3043   1.3179   1.3501   1.3584
  1.4569   1.5826   1.6092   1.7354   1.8293   1.8636   1.8722   1.9247
  1.9312   1.9640   1.9678   1.9747   2.0192   2.1300   2.1349   2.1709
  2.2197   2.2290   2.3323   2.3546   2.4199   2.4470   2.4995   2.5097
  2.5728   2.5919   2.6172   2.6689   2.8081   2.8157   2.8881   2.9322
  2.9442   3.0082   3.0389   3.1960   3.2082   3.2632   3.2880   3.3242
  3.3411   3.3544   3.4089   3.4209   3.4427   3.5494   3.5736   3.5871
  3.6268   3.6645   3.7088   3.7391   3.7921   3.9043   3.9498   4.0646
  4.0935   4.2045   4.3768   4.5609   4.6317   4.6716   4.8078   4.8447
  4.9873   5.3335   5.3615   5.3716   5.3783   5.5140   5.7293   5.7707
  5.8305   6.0346   6.2597   6.3480   6.3627   6.6329   6.6437   6.7175
  6.7486   6.7625   6.9724   6.9783   7.0496   7.2515   7.3801   7.3963
  7.4241  22.6019  23.7800  44.2222  44.3552
 --------------------------------------------------------------
 
          Ground-State Mulliken Net Atomic Charges

     Atom                 Charge (a.u.)
  ----------------------------------------
      1 C                    -0.383812
      2 C                     0.283784
      3 O                    -0.667735
      4 O                    -0.684341
      5 H                     0.158770
      6 H                     0.134004
      7 H                     0.159330
  ----------------------------------------
  Sum of atomic charges =    -1.000000

 -----------------------------------------------------------------
                    Cartesian Multipole Moments
 -----------------------------------------------------------------
    Charge (ESU x 10^10)
                -4.8032
    Dipole Moment (Debye)
         X     -13.2837      Y      -7.9054      Z       1.8084
       Tot      15.5634
    Quadrupole Moments (Debye-Ang)
        XX     -66.6194     XY     -26.9099     YY     -44.7346
        XZ       5.8919     YZ       4.1537     ZZ     -26.3871
    Octopole Moments (Debye-Ang^2)
       XXX    -418.7450    XXY    -121.7419    XYY    -162.0555
       YYY    -122.3546    XXZ      23.2118    XYZ      15.1642
       YYZ      12.9378    XZZ     -94.2200    YZZ     -27.0364
       ZZZ       9.4592
    Hexadecapole Moments (Debye-Ang^3)
      XXXX   -2697.6386   XXXY    -621.7570   XXYY    -670.6747
      XYYY    -435.9617   YYYY    -405.3282   XXXZ      95.6051
      XXYZ      66.0798   XYYZ      44.3171   YYYZ      46.2072
      XXZZ    -370.6139   XYZZ     -93.9822   YYZZ     -61.9807
      XZZZ      25.4124   YZZZ      26.3993   ZZZZ     -47.5550
 -----------------------------------------------------------------
Archival summary:
1\1\nid00527\SP\ProcedureUnspecified\BasisUnspecified\223(1-,1)\meili\SunSep2613:08:512021SunSep2613:08:512021\0\\#,ProcedureUnspecified,BasisUnspecified,\\-1,1\C\O,1,1.24404\O,1,1.25121,2,123.782\C,1,1.51392,2,118.172,3,-179.059,0\H,4,1.09078,1,107.38,2,113.941,0\H,4,1.09207,1,110.263,2,-129.103,0\H,4,1.10001,1,111.941,2,-5.96706,0\\\@

 Total job time:  5074.36s(wall), 9960.24s(cpu) 
 Sun Sep 26 13:08:51 2021

        *************************************************************
        *                                                           *
        *  Thank you very much for using Q-Chem.  Have a nice day.  *
        *                                                           *
        *************************************************************


Done Job For Fragment 0
calling putenv with: QCSCRATCH=/global/cscratch1/sd/meili 
calling putenv with: QCLOCALSCR=/tmp 
calling putenv with: QCTHREADS=32 
Creating input file /tmp/qchem57350/Frg2.input
using default PutDataFrgm: nothing
calling putenv with: QCSCRATCH=/tmp/qchem57350/ 
calling putenv with: QCLOCALSCR=/tmp/qchem57350/ 
Spawning Job For Fragment 1
                  Welcome to Q-Chem
     A Quantum Leap Into The Future Of Chemistry


 Q-Chem 5.2, Q-Chem, Inc., Pleasanton, CA (2019)

 License issued to: National Energy Research Scientific Computing Center

 Yihan Shao,  Zhengting Gan,  E. Epifanovsky,  A. T. B. Gilbert,  M. Wormit,  
 J. Kussmann,  A. W. Lange,  A. Behn,  Jia Deng,  Xintian Feng,  D. Ghosh,  
 M. Goldey,  P. R. Horn,  L. D. Jacobson,  I. Kaliman,  T. Kus,  A. Landau,  
 Jie Liu,  E. I. Proynov,  R. M. Richard,  R. P. Steele,  E. J. Sundstrom,  
 H. L. Woodcock III,  P. M. Zimmerman,  D. Zuev,  B. Albrecht,  E. Alguire,  
 S. A. Baeppler,  D. Barton,  Z. Benda,  Y. A. Bernard,  E. J. Berquist,  
 K. B. Bravaya,  H. Burton,  D. Casanova,  Chun-Min Chang,  Yunqing Chen,  
 A. Chien,  K. D. Closser,  M. P. Coons,  S. Coriani,  S. Dasgupta,  
 A. L. Dempwolff,  M. Diedenhofen,  Hainam Do,  R. G. Edgar,  Po-Tung Fang,  
 S. Faraji,  S. Fatehi,  Qingguo Feng,  K. D. Fenk,  J. Fosso-Tande,  
 J. Gayvert,  Qinghui Ge,  A. Ghysels,  G. Gidofalvi,  J. Gomes,  
 J. Gonthier,  A. Gunina,  D. Hait,  M. W. D. Hanson-Heine,  
 P. H. P. Harbach,  A. W. Hauser,  M. F. Herbst,  J. E. Herr,  
 E. G. Hohenstein,  Z. C. Holden,  Kerwin Hui,  B. C. Huynh,  T.-C. Jagau,  
 Hyunjun Ji,  B. Kaduk,  K. Khistyaev,  Jaehoon Kim,  P. Klunzinger,  K. Koh,  
 D. Kosenkov,  L. Koulias,  T. Kowalczyk,  C. M. Krauter,  A. Kunitsa,  
 Ka Un Lao,  A. Laurent,  K. V. Lawler,  Joonho Lee,  D. Lefrancois,  
 S. Lehtola,  D. S. Levine,  Yi-Pei Li,  You-Sheng Lin,  Fenglai Liu,  
 E. Livshits,  A. Luenser,  P. Manohar,  E. Mansoor,  S. F. Manzer,  
 Shan-Ping Mao,  Yuezhi Mao,  N. Mardirossian,  A. V. Marenich,  
 T. Markovich,  L. A. Martinez-Martinez,  S. A. Maurer,  N. J. Mayhall,  
 S. C. McKenzie,  J.-M. Mewes,  P. Morgante,  A. F. Morrison,  
 J. W. Mullinax,  K. Nanda,  T. S. Nguyen-Beck,  R. Olivares-Amaya,  
 J. A. Parkhill,  Zheng Pei,  T. M. Perrine,  F. Plasser,  P. Pokhilko,  
 S. Prager,  A. Prociuk,  E. Ramos,  D. R. Rehn,  F. Rob,  M. Scheurer,  
 M. Schneider,  N. Sergueev,  S. M. Sharada,  S. Sharma,  D. W. Small,  
 T. Stauch,  T. Stein,  Yu-Chuan Su,  A. J. W. Thom,  A. Tkatchenko,  
 T. Tsuchimochi,  N. M. Tubman,  L. Vogt,  M. L. Vidal,  O. Vydrov,  
 M. A. Watson,  J. Wenzel,  M. de Wergifosse,  T. A. Wesolowski,  A. White,  
 J. Witte,  A. Yamada,  Jun Yang,  K. Yao,  S. Yeganeh,  S. R. Yost,  
 Zhi-Qiang You,  A. Zech,  Igor Ying Zhang,  Xing Zhang,  Yan Zhao,  
 Ying Zhu,  B. R. Brooks,  G. K. L. Chan,  C. J. Cramer,  M. S. Gordon,  
 W. J. Hehre,  A. Klamt,  M. W. Schmidt,  C. D. Sherrill,  D. G. Truhlar,  
 A. Aspuru-Guzik,  R. Baer,  A. T. Bell,  N. A. Besley,  Jeng-Da Chai,  
 A. E. DePrince, III,  R. A. DiStasio Jr.,  A. Dreuw,  B. D. Dunietz,  
 T. R. Furlani,  Chao-Ping Hsu,  Yousung Jung,  Jing Kong,  D. S. Lambrecht,  
 WanZhen Liang,  C. Ochsenfeld,  V. A. Rassolov,  L. V. Slipchenko,  
 J. E. Subotnik,  T. Van Voorhis,  J. M. Herbert,  A. I. Krylov,  
 P. M. W. Gill,  M. Head-Gordon

 Contributors to earlier versions of Q-Chem not listed above: 
 R. D. Adamson,  B. Austin,  J. Baker,  G. J. O. Beran,  K. Brandhorst,  
 S. T. Brown,  E. F. C. Byrd,  A. K. Chakraborty,  C.-L. Cheng,  
 Siu Hung Chien,  D. M. Chipman,  D. L. Crittenden,  H. Dachsel,  
 R. J. Doerksen,  A. D. Dutoi,  L. Fusti-Molnar,  W. A. Goddard III,  
 A. Golubeva-Zadorozhnaya,  S. R. Gwaltney,  G. Hawkins,  A. Heyden,  
 S. Hirata,  G. Kedziora,  F. J. Keil,  C. Kelley,  Jihan Kim,  R. A. King,  
 R. Z. Khaliullin,  P. P. Korambath,  W. Kurlancheek,  A. M. Lee,  M. S. Lee,  
 S. V. Levchenko,  Ching Yeh Lin,  D. Liotard,  R. C. Lochan,  I. Lotan,  
 P. E. Maslen,  N. Nair,  D. P. O'Neill,  D. Neuhauser,  E. Neuscamman,  
 C. M. Oana,  R. Olson,  B. Peters,  R. Peverati,  P. A. Pieniazek,  
 Y. M. Rhee,  J. Ritchie,  M. A. Rohrdanz,  E. Rosta,  N. J. Russ,  
 H. F. Schaefer III,  N. E. Schultz,  N. Shenvi,  A. C. Simmonett,  A. Sodt,  
 D. Stuck,  K. S. Thanthiriwatte,  V. Vanovschi,  Tao Wang,  A. Warshel,  
 C. F. Williams,  Q. Wu,  X. Xu,  W. Zhang

 Please cite Q-Chem as follows:
 Y. Shao et al., Mol. Phys. 113, 184-215 (2015)
 DOI: 10.1080/00268976.2014.952696

 Q-Chem 5.2.0 for Intel X86 EM64T Linux

 Parts of Q-Chem use Armadillo 8.300.2 (Tropical Shenanigans).
 http://arma.sourceforge.net/

 Q-Chem begins on Sun Sep 26 13:08:52 2021  

Host: cori01
0

     Scratch files written to /tmp/qchem57350//Frg2//
 May1019 |scratch|qcdevops|jenkins|workspace|build_RNUM -1
Processing $rem in /global/common/cori/software/qchem/5.2/config/preferences:
	 MEM_TOTAL  96000 
NAlpha2: 58
NElect   58
Mult     1
Symmetry turned off for PCM/SM12/SMD calculation

Checking the input file for inconsistencies... 	...done.

--------------------------------------------------------------
User input:
--------------------------------------------------------------
$molecule
0 1
 6	-3.8902710580	-2.4888587869	1.1220858784
 6	-0.6692710580	-0.4938587869	0.6690858784
 6	-1.0032710580	0.3371412131	-0.3989141216
 6	-1.5992710580	-1.4188587869	1.1440858784
 6	-2.8672710580	-1.5248587869	0.5620858784
 6	-2.2612710580	0.2411412131	-0.9929141216
 6	-3.1882710580	-0.6848587869	-0.5089141216
 8	-0.1152710580	1.2571412131	-0.8539141216
 1	0.3067289420	-0.4098587869	1.1230858784
 1	-1.3372710580	-2.0348587869	1.9910858784
 1	-2.5212710580	0.8841412131	-1.8159141216
 1	-0.4802710580	1.7771412131	-1.5739141216
 1	-4.8102710580	-1.9368587869	1.2910858784
 1	-3.5462710580	-2.8338587869	2.0980858784
 1	-4.1742710580	-0.7208587869	-0.9539141216
 1	-4.1187910580	-3.3691687869	0.5033558784
$end
$rem
EDA2		1
METHOD		WB97X-V
BASIS		DEF2-TZVPD
XC_GRID		000099000590
NL_GRID		1
UNRESTRICTED		FALSE
MAX_SCF_CYCLES		200
SYMMETRY		FALSE
SYM_IGNORE		TRUE
BASIS_LIN_DEP_THRESH		6
THRESH		14
SCF_CONVERGENCE		8
SCF_PRINT_FRGM		TRUE
SOLVENT_METHOD		PCM
!required keywords
JOBTYPE		SP
SYM_IGNORE		TRUE
SUBSYSTEM		TRUE
GEN_SCFMAN		TRUE
CHILD_INSTRUCTION		2
SYM_IGNORE		TRUE
SCFMI		0
RI_K 0		
PARI_K 0		
MIN_PARI_K 0		
IARI_K 0		
OCC_RI_K 0		
PURECART		1111
MEM_STATIC		2000
MEM_TOTAL		96000
GUI		0
CHILD_MP		1
CHILD_MP_ORDERS		232
FRZ_RELAX		0
FRZ_RELAX_METHOD		0
EDA_CLS_ELEC		1
EDA_CLS_DISP		0
FRZ_ORTHO_DECOMP		1
EDA2		FALSE
FRGM_METHOD		FALSE
CIS_N_ROOTS  0
LOCAL_CIS    0
CIS_RLX_DNS  1
$end
$pcm
THEORY                  CPCM
METHOD                  SWIG
SOLVER                  INVERSION
RADII                   UFF
HPOINTS                 302
HEAVYPOINTS             302
PRINTLEVEL              0
$end
$solvent
DIELECTRIC              78.390000 ! water
$end
--------------------------------------------------------------
 ----------------------------------------------------------------
             Standard Nuclear Orientation (Angstroms)
    I     Atom           X                Y                Z
 ----------------------------------------------------------------
    1      C      -3.8902710580    -2.4888587869     1.1220858784
    2      C      -0.6692710580    -0.4938587869     0.6690858784
    3      C      -1.0032710580     0.3371412131    -0.3989141216
    4      C      -1.5992710580    -1.4188587869     1.1440858784
    5      C      -2.8672710580    -1.5248587869     0.5620858784
    6      C      -2.2612710580     0.2411412131    -0.9929141216
    7      C      -3.1882710580    -0.6848587869    -0.5089141216
    8      O      -0.1152710580     1.2571412131    -0.8539141216
    9      H       0.3067289420    -0.4098587869     1.1230858784
   10      H      -1.3372710580    -2.0348587869     1.9910858784
   11      H      -2.5212710580     0.8841412131    -1.8159141216
   12      H      -0.4802710580     1.7771412131    -1.5739141216
   13      H      -4.8102710580    -1.9368587869     1.2910858784
   14      H      -3.5462710580    -2.8338587869     2.0980858784
   15      H      -4.1742710580    -0.7208587869    -0.9539141216
   16      H      -4.1187910580    -3.3691687869     0.5033558784
 ----------------------------------------------------------------
 Nuclear Repulsion Energy =         342.68832013 hartrees
 There are       29 alpha and       29 beta electrons
 Requested basis set is def2-TZVPD
 There are 145 shells and 371 basis functions

 Total QAlloc Memory Limit  96000 MB
 Mega-Array Size      1956 MB
 MEM_STATIC part      2000 MB
 Discretize the solute cavity surface with Lebedev spheres
	Using 302 Lebedev grid points for each H atom
	Using 302 Lebedev grid points for other atoms
	Atomic van der Waals radii will be scaled by 1.20
 Remove points where switching function is < 1.0e-08
 Keep 1859 surface tesserae and discard 2973 interior tesserae
 Molecular Surface Area = 190.444 Angst**2
 A cutoff of  1.0D-14 yielded  10043 shell pairs
 There are     67079 function pairs (     85778 Cartesian)
 Smallest overlap matrix eigenvalue = 5.72E-07
 Linear dependence detected in AO basis
 Tighter screening thresholds may be required for diffuse basis sets
 Use S2THRESH > 14 and THRESH = 14 in case of SCF convergence issues
 Number of orthogonalized atomic orbitals = 370
 Maximum deviation from orthogonality = 1.221E-10

 Scale SEOQF with 1.000000e-01/1.000000e-01/1.000000e-01

 Standard Electronic Orientation quadrupole field applied
 Nucleus-field energy     =     0.0000000144 hartrees
 Guess from superposition of atomic densities
 Warning:  Energy on first SCF cycle will be non-variational
 SAD guess density has 57.738434 electrons

 -----------------------------------------------------------------------
  General SCF calculation program by
  Eric Jon Sundstrom, Paul Horn, Yuezhi Mao, Dmitri Zuev, Alec White,
  David Stuck, Shaama M.S., Shane Yost, Joonho Lee, David Small,
  Daniel Levine, Susi Lehtola, Hugh Burton, Evgeny Epifanovsky
 -----------------------------------------------------------------------
 Exchange:     0.1670 Hartree-Fock + 1.0000 wB97X-V + LR-HF
 Correlation:  1.0000 wB97X-V
 Using Euler-Maclaurin-Lebedev (99,590) quadrature formula
 Nonlocal Correlation:  VV10 with C = 0.0100 and b = 6.00 and scale = 1.00000
 Grid used for NLC:  SG-1 standard quadrature
Energy prior to optimization (guess energy) = -346.498163201260
Begin Timing: Total SCF Calculation
begin iterations for algorithm: DIIS         
the SCF tolerance is set to 1.00e-08
    1    -346.4981632013      5.16e-03     00000 
    2    -346.4358358860      5.58e-03     00000 
    3    -346.8115901690      5.30e-04     00000 
    4    -346.8156535544      1.80e-04     00000 
    5    -346.8162559144      2.47e-05     00000 
    6    -346.8162751979      1.25e-05     00000 
    7    -346.8162784499      3.90e-06     00000 
    8    -346.8162788856      1.29e-06     00000 
    9    -346.8162789495      5.87e-07     00000 
   10    -346.8162789620      1.57e-07     00000 
   11    -346.8162789645      6.87e-08     00000 
   12    -346.8162789648      3.49e-08     00000 
   13    -346.8162789649      7.64e-09     00000 Convergence criterion met
Timing for Total SCF: 2270.00s (wall), 4512.11s (cpu)

************** Final PCM Free Energy Summary **************
 G_electrostatic  =      -0.00561091 hartree =      -3.52089839 kcal/mol
 G_cavitation     =       0.00000000 hartree =       0.00000000 kcal/mol
 G_dispersion     =       0.00000000 hartree =       0.00000000 kcal/mol
 G_repulsion      =       0.00000000 hartree =       0.00000000 kcal/mol
 --------------------------------------------------
 Non-electrostatic Free Energy =       0.00000000 hartree =       0.00000000 kcal/mol
 Total                         =      -0.00561091 hartree =      -3.52089839 kcal/mol
 --------------------------------------------------
 SCF Energy (H0 + V/2)                       =    -346.81627896 
 Solute Internal Energy (H0)                 =    -346.81066806 
 Total Free Energy (H0 + V/2 + non-elec)     =    -346.81627896 hartree
                                             = -217630.49974742 kcal/mol
***********************************************************

E_pcm = -0.0056109088
Multipole orders to be included
        2
        3
computing dipole RHS
computing quadrupole RHS
total number of RHS in solve_reponses: 8
RHS batch sizes
        8
Beginning Block Conjugate Gradient Iterations. Batch Number: 0
computing hessian-vector products by finite difference
              1      6.06e-01     00000 Conjugate Gradient Iteration
computing hessian-vector products by finite difference
              2      1.91e-01     00000 Conjugate Gradient Iteration
computing hessian-vector products by finite difference
              3      4.70e-02     00000 Conjugate Gradient Iteration
computing hessian-vector products by finite difference
              4      1.37e-02     00000 Conjugate Gradient Iteration
computing hessian-vector products by finite difference
              5      4.09e-03     00000 Conjugate Gradient Iteration
computing hessian-vector products by finite difference
              6      1.40e-03     00000 Conjugate Gradient Iteration
computing hessian-vector products by finite difference
              7      3.41e-04     00000 Conjugate Gradient Iteration
computing hessian-vector products by finite difference
              8      6.36e-05     00000 Conjugate Gradient Iteration
computing hessian-vector products by finite difference
              9      1.14e-05     00000 Conjugate Gradient Iteration
computing hessian-vector products by finite difference
             10      1.61e-06     00000 Conjugate Gradient Iteration
computing hessian-vector products by finite difference
             11      2.60e-07     00000 Conjugate Gradient Iteration
computing hessian-vector products by finite difference
             12      4.20e-08     00000 Conjugate Gradient Iteration
computing hessian-vector products by finite difference
             13      6.76e-09     00000 CG Converged
batch 0 complete
Done Calculating Responses
TESTING ORTHOGONALIZATION OF MULTIPOLE BASIS
Multipole virts passed orthogonality test
Virts Per Order
           87
          145
 
 --------------------------------------------------------------
 
                    Orbital Energies (a.u.)
 --------------------------------------------------------------
 
 Alpha MOs
 -- Occupied --
-19.2457 -10.3363 -10.2781 -10.2759 -10.2758 -10.2726 -10.2718 -10.2614
 -1.1987  -0.9940  -0.9007  -0.8841  -0.8108  -0.7494  -0.7156  -0.6676
 -0.6030  -0.5821  -0.5516  -0.5410  -0.5346  -0.5219  -0.5106  -0.4774
 -0.4565  -0.4436  -0.4411  -0.3527  -0.3128
 -- Virtual --
  0.0578   0.0583   0.0683   0.0775   0.0831   0.0941   0.1086   0.1101
  0.1134   0.1311   0.1439   0.1510   0.1562   0.1696   0.1768   0.1916
  0.1998   0.2024   0.2133   0.2238   0.2348   0.2391   0.2481   0.2536
  0.2623   0.2670   0.2720   0.2772   0.2786   0.2938   0.2949   0.3030
  0.3049   0.3062   0.3103   0.3257   0.3324   0.3385   0.3439   0.3485
  0.3543   0.3551   0.3632   0.3718   0.3745   0.3787   0.3813   0.3917
  0.3946   0.3964   0.3981   0.4049   0.4123   0.4181   0.4257   0.4323
  0.4328   0.4514   0.4552   0.4609   0.4718   0.4743   0.4797   0.4849
  0.4859   0.4893   0.4977   0.5016   0.5114   0.5144   0.5313   0.5338
  0.5425   0.5457   0.5484   0.5504   0.5590   0.5686   0.5741   0.5905
  0.6033   0.6068   0.6133   0.6279   0.6391   0.6569   0.6634   0.6702
  0.6758   0.6837   0.6896   0.6970   0.6989   0.7049   0.7178   0.7288
  0.7322   0.7367   0.7463   0.7478   0.7584   0.7649   0.7797   0.7822
  0.7881   0.7904   0.7966   0.7994   0.8062   0.8162   0.8269   0.8297
  0.8407   0.8491   0.8549   0.8568   0.8645   0.8747   0.8791   0.8861
  0.9033   0.9079   0.9298   0.9439   0.9595   0.9840   0.9871   1.0122
  1.0217   1.0358   1.0395   1.0476   1.0541   1.0693   1.0717   1.0890
  1.0976   1.1184   1.1275   1.1660   1.1951   1.2365   1.2763   1.2962
  1.3055   1.3138   1.3288   1.3551   1.3731   1.3764   1.3956   1.4335
  1.4496   1.4634   1.4687   1.4851   1.5256   1.5624   1.6080   1.6243
  1.6338   1.6408   1.6729   1.6821   1.7044   1.7273   1.7622   1.7981
  1.8123   1.8289   1.8335   1.8583   1.8665   1.8770   1.9149   1.9180
  1.9342   1.9529   1.9780   1.9854   1.9883   2.0257   2.0383   2.0486
  2.0558   2.0710   2.0845   2.1086   2.1194   2.1574   2.1973   2.2042
  2.2157   2.2364   2.2708   2.2823   2.3080   2.3178   2.3358   2.3668
  2.3968   2.4000   2.4276   2.4642   2.4816   2.4930   2.5236   2.5496
  2.5738   2.6102   2.6268   2.6360   2.6467   2.6698   2.6873   2.7384
  2.7584   2.7627   2.7756   2.7945   2.8085   2.8303   2.8624   2.8662
  2.9054   2.9136   2.9339   2.9456   2.9667   2.9756   2.9772   3.0009
  3.0198   3.0381   3.0566   3.0742   3.0985   3.1227   3.1460   3.1631
  3.1831   3.1981   3.2105   3.2181   3.2400   3.2587   3.2887   3.2931
  3.3105   3.3556   3.3778   3.3856   3.3965   3.4097   3.4444   3.4541
  3.4578   3.4731   3.4871   3.5134   3.5181   3.5227   3.5380   3.5436
  3.5493   3.5626   3.5745   3.5846   3.5984   3.6314   3.6432   3.6689
  3.6967   3.6997   3.7351   3.7521   3.7897   3.8158   3.8461   3.8989
  3.9287   3.9495   3.9740   3.9891   4.0386   4.0791   4.1398   4.1583
  4.2458   4.2666   4.2885   4.3118   4.3147   4.3318   4.3400   4.3519
  4.3696   4.3850   4.4219   4.4585   4.4944   4.5275   4.5751   4.6136
  4.7292   4.7345   4.7880   4.8066   4.8475   4.9235   5.0227   5.0562
  5.0850   5.1232   5.1532   5.2910   5.3337   5.3957   5.4386   5.5332
  5.6185   5.6444   5.7082   5.7634   5.9545   6.2172   6.4938   6.6024
  6.6282   6.8749   7.0176   7.2993   7.4607  22.6693  22.6800  22.9285
 22.9856  23.0202  23.1717  23.4966  44.4184
 --------------------------------------------------------------
 
          Ground-State Mulliken Net Atomic Charges

     Atom                 Charge (a.u.)
  ----------------------------------------
      1 C                    -1.004938
      2 C                    -0.753663
      3 C                     0.811381
      4 C                    -0.424659
      5 C                     0.567257
      6 C                    -0.351080
      7 C                    -0.636987
      8 O                    -0.482043
      9 H                     0.331734
     10 H                     0.297638
     11 H                     0.281398
     12 H                     0.289758
     13 H                     0.248939
     14 H                     0.266911
     15 H                     0.334445
     16 H                     0.223909
  ----------------------------------------
  Sum of atomic charges =     0.000000

 -----------------------------------------------------------------
                    Cartesian Multipole Moments
 -----------------------------------------------------------------
    Charge (ESU x 10^10)
                 0.0000
    Dipole Moment (Debye)
         X      -1.5016      Y       0.2779      Z      -0.8714
       Tot       1.7582
    Quadrupole Moments (Debye-Ang)
        XX     -42.8583     XY       0.2518     YY     -45.4653
        XZ       3.2118     YZ      -6.4164     ZZ     -43.5673
    Octopole Moments (Debye-Ang^2)
       XXX     264.8233    XXY      22.2639    XYY      89.3366
       YYY      97.0355    XXZ     -12.6595    XYZ       8.5735
       YYZ      -8.6188    XZZ      92.0522    YZZ      36.1358
       ZZZ     -22.6548
    Hexadecapole Moments (Debye-Ang^3)
      XXXX   -1616.6522   XXXY    -319.3760   XXYY    -371.3010
      XYYY    -350.2829   YYYY    -582.2292   XXXZ     108.2224
      XXYZ      36.2782   XYYZ      25.5541   YYYZ     121.5639
      XXZZ    -330.5740   XYZZ    -124.5801   YYZZ    -126.4930
      XZZZ      88.5536   YZZZ     116.7435   ZZZZ    -285.8808
 -----------------------------------------------------------------
Archival summary:
1\1\nid00527\SP\ProcedureUnspecified\BasisUnspecified\178\meili\MonSep2700:27:072021MonSep2700:27:072021\0\\#,ProcedureUnspecified,BasisUnspecified,\\0,1\C\O,1,1.35719\H,2,0.960221,1,111.701\C,1,1.39382,2,120.281,3,-178.417,0\H,4,1.0797,1,119.5,2,-0.858244,0\C,1,1.39449,2,119.611,3,0.6017,0\H,6,1.07628,1,120.167,2,0.8119,0\C,4,1.39504,1,119.767,2,178.819,0\H,8,1.07959,4,118.926,1,-178.157,0\C,6,1.3968,1,119.784,2,-178.635,0\H,10,1.08237,6,118.957,1,177.579,0\C,10,1.39846,6,120.746,1,-0.371144,0\C,12,1.51308,10,120.726,6,177.524,0\H,13,1.08612,12,107.847,10,-48.9709,0\H,13,1.09084,12,108.628,10,-164.345,0\H,13,1.1,12,116.241,10,73.1364,0\\\@

 Total job time:  40695.59s(wall), 80795.69s(cpu) 
 Mon Sep 27 00:27:07 2021

        *************************************************************
        *                                                           *
        *  Thank you very much for using Q-Chem.  Have a nice day.  *
        *                                                           *
        *************************************************************


Done Job For Fragment 1
calling putenv with: QCSCRATCH=/global/cscratch1/sd/meili 
calling putenv with: QCLOCALSCR=/tmp 
calling putenv with: QCTHREADS=32 
Doing General SCFMI
 Exchange:     0.1670 Hartree-Fock + 1.0000 wB97X-V + LR-HF
 Correlation:  1.0000 wB97X-V
 Using Euler-Maclaurin-Lebedev (99,590) quadrature formula
 Nonlocal Correlation:  VV10 with C = 0.0100 and b = 6.00 and scale = 1.00000
 Grid used for NLC:  SG-1 standard quadrature
performing fock build before subrot guess so that all methods have access
Printing subrot_rss_gen Method Specification:
Occupied Subspace Method is 0
Virtual Subspace Method is 0
Energy of the unrelaxed supersystem initial determinant -575.332637005309
performing fock build before subrot guess so that all methods have access
Printing subrot_rss_gen Method Specification:
Occupied Subspace Method is 0
Virtual Subspace Method is 0
Energy of the unrelaxed supersystem initial determinant w/ solvent -575.443443581656
write pseudocanon occs and virts to disk
write pseudocanon orbital energies to disk
Tolerance of ortho_decomp_scf: 1.00e-06
GDM subspace size: 20
Beginning the Orthogonal Decomposition of the Initial Supersystem Wavefunction
    1    -575.2949974072      8.28e-02     ortho_decomp Preconditoned Steepest Descent
    2    -575.3061527816      1.45e-03     ortho_decomp BFGS Step
    3    -575.3061750211      1.19e-04     ortho_decomp BFGS Step
    4    -575.3061750797      4.65e-06     ortho_decomp BFGS Step
    5    -575.3061750798      1.65e-07     ortho_decomp 00000 Convergence criterion met
 Hartree-Fock
 Hartree-Fock
 Hartree-Fock
Doing General SCFMI
 Exchange:     0.1670 Hartree-Fock + 1.0000 wB97X-V + LR-HF
 Correlation:  1.0000 wB97X-V
 Using Euler-Maclaurin-Lebedev (99,590) quadrature formula
 Nonlocal Correlation:  VV10 with C = 0.0100 and b = 6.00 and scale = 1.00000
 Grid used for NLC:  SG-1 standard quadrature
performing fock build at end of subrot_r(subrot) constructor so that all methods have access
<S^2> of initial wavefunction before polarization iterations 0.0000000000
Beginning iterations for the determination of the polarized wavefunction
Energy prior to optimization (guess energy) = -575.443443581656
Begin Timing: Total SCF Calculation
begin iterations for algorithm: DIIS         
the SCF tolerance is set to 1.00e-08
    1    -575.4434435817      1.82e-04     00000 
    2    -575.4450578827      1.72e-04     00000 
    3    -575.4460149186      4.01e-05     00000 
    4    -575.4461248865      1.82e-05     00000 
    5    -575.4461527073      1.11e-05     00000 
    6    -575.4461629365      3.08e-06     00000 
    7    -575.4461641778      1.20e-06     00000 
    8    -575.4461643278      4.49e-07     00000 
    9    -575.4461643554      1.93e-07     00000 
   10    -575.4461643589      6.78e-08     00000 
   11    -575.4461643597      2.68e-08     00000 
   12    -575.4461643598      1.08e-08     00000 
   13    -575.4461643598      2.92e-09     00000 Convergence criterion met
write pseudocanon occs and virts to disk
write pseudocanon orbital energies to disk
Timing for Total SCF: 5514.00s (wall), 10976.29s (cpu)
<S^2> of polarized wavefunction after polarization iterations 0.0000000000
relaxing scfmi constraint to allow all rotations in the entire AO span
Doing General SCFMI
 Exchange:     0.1670 Hartree-Fock + 1.0000 wB97X-V + LR-HF
 Correlation:  1.0000 wB97X-V
 Using Euler-Maclaurin-Lebedev (99,590) quadrature formula
 Nonlocal Correlation:  VV10 with C = 0.0100 and b = 6.00 and scale = 1.00000
 Grid used for NLC:  SG-1 standard quadrature
performing fock build at end of subrot_r(subrot) constructor so that all methods have access
<S^2> of polarized wavefunction before ct-allowed iterations 0.0000000000
Beginning iterations for the determination of the CT-Allowed wavefunction
Energy prior to optimization (guess energy) = -575.446164359822
Begin Timing: Total SCF Calculation
begin iterations for algorithm: DIIS         
the SCF tolerance is set to 1.00e-08
    1    -575.4461643598      7.03e-05     00000 
    2    -575.4469099084      7.92e-06     00000 
    3    -575.4469341006      2.76e-06     00000 
    4    -575.4469349328      2.45e-06     00000 
    5    -575.4469356068      3.01e-07     00000 
    6    -575.4469356233      1.64e-07     00000 
    7    -575.4469356287      4.38e-08     00000 
    8    -575.4469356292      1.45e-08     00000 
    9    -575.4469356293      5.14e-09     00000 Convergence criterion met
write pseudocanon occs and virts to disk
write pseudocanon orbital energies to disk
Timing for Total SCF: 3717.00s (wall), 7401.06s (cpu)
<S^2> of ct_allowed wavefunction after ct-allowed iterations 0.0000000000

================================
        Results of EDA2         
================================
Basic EDA Quantities
--------------------
Fragment Energies (Ha):
1 -228.6428389468
2 -346.8162789649
--------------------
  E_prp (kJ/mol) = 0.0000
  E_sol (kJ/mol) = -9.5991
  E_frz (kJ/mol) = 50.7526
  E_pol (kJ/mol) = -7.1435
  E_vct (kJ/mol) = -2.0250
  E_int (kJ/mol) = 31.9850
--------------------


Initial Wavefunction Decomposition
--------------------
  --------------------
  Orthogonal Fragment Subspace Decomposition:
  --------------------
     E_elec   (ELEC)   (kJ/mol) = -32.0249
     E_pauli  (PAULI)  (kJ/mol) = 99.4436
     E_disp   (DISP)   (kJ/mol) = -16.6662
     --------------------
     Terms summing to E_pauli:
     --------------------
        E_kep_pauli       (kJ/mol) = 120.2292
        E_disp_free_pauli (kJ/mol) = -20.7855
  --------------------
  Classical Frozen Decomposition:
  --------------------
     E_cls_elec  (CLS ELEC)  (kJ/mol) = 25.0211
     E_cls_pauli (CLS PAULI) (kJ/mol) = 25.7315
    [E_mod_pauli (MOD PAULI) (kJ/mol) = 42.3977 (CLS PAULI - DISP from orthogonal decomposition) ]
  --------------------
--------------------

Simplified EDA Summary (kJ/mol)
--------------------
 PREPARATION     0.0000
 SOLVATION       -9.5991
 FROZEN          67.4188      (does not include dispersion)
[PAULI           99.4436]     (if this is negligible, then frozen describes electrostatics)
 DISPERSION      -16.6662
 POLARIZATION    -7.1435
 CHARGE TRANSFER -2.0250
 TOTAL           31.9850     (PRP + SOL + FRZ + DISP + POL + CT)
--------------------
 
 --------------------------------------------------------------
 
                    Orbital Energies (a.u.)
 --------------------------------------------------------------
 
 Alpha MOs
 -- Occupied --
-19.2248 -19.1151 -19.1086 -10.3258 -10.3149 -10.2714 -10.2695 -10.2684
-10.2648 -10.2599 -10.2583 -10.2344  -1.1806  -1.1257  -1.0256  -0.9863
 -0.8934  -0.8761  -0.8250  -0.8037  -0.7402  -0.7056  -0.6565  -0.5942
 -0.5859  -0.5720  -0.5441  -0.5331  -0.5274  -0.5253  -0.5155  -0.5124
 -0.5068  -0.4978  -0.4685  -0.4585  -0.4485  -0.4371  -0.4322  -0.4266
 -0.3456  -0.3217  -0.3152  -0.3037  -0.2979
 -- Virtual --
  0.0564   0.0648   0.0679   0.0752   0.0825   0.0892   0.0937   0.0997
  0.1062   0.1086   0.1163   0.1256   0.1333   0.1412   0.1421   0.1519
  0.1538   0.1577   0.1728   0.1736   0.1788   0.1892   0.1921   0.1965
  0.2041   0.2075   0.2132   0.2188   0.2225   0.2261   0.2329   0.2414
  0.2497   0.2541   0.2560   0.2587   0.2640   0.2693   0.2753   0.2797
  0.2832   0.2893   0.2918   0.2948   0.3018   0.3055   0.3135   0.3161
  0.3195   0.3273   0.3302   0.3335   0.3343   0.3391   0.3474   0.3512
  0.3557   0.3561   0.3613   0.3640   0.3699   0.3717   0.3727   0.3780
  0.3796   0.3824   0.3848   0.3904   0.3941   0.3947   0.3993   0.4066
  0.4073   0.4172   0.4213   0.4253   0.4263   0.4309   0.4379   0.4401
  0.4473   0.4490   0.4536   0.4563   0.4600   0.4672   0.4685   0.4758
  0.4793   0.4817   0.4876   0.4907   0.4940   0.4970   0.5004   0.5034
  0.5078   0.5181   0.5214   0.5231   0.5333   0.5345   0.5363   0.5450
  0.5509   0.5563   0.5606   0.5614   0.5744   0.5763   0.5824   0.5894
  0.5903   0.6005   0.6038   0.6081   0.6186   0.6221   0.6273   0.6326
  0.6461   0.6581   0.6603   0.6673   0.6722   0.6785   0.6839   0.6917
  0.6921   0.6964   0.7035   0.7091   0.7106   0.7174   0.7265   0.7284
  0.7321   0.7362   0.7419   0.7483   0.7545   0.7547   0.7592   0.7668
  0.7698   0.7735   0.7773   0.7792   0.7963   0.7965   0.7992   0.8026
  0.8065   0.8107   0.8151   0.8158   0.8210   0.8267   0.8274   0.8422
  0.8484   0.8496   0.8527   0.8562   0.8642   0.8692   0.8707   0.8781
  0.8824   0.8944   0.9013   0.9085   0.9110   0.9154   0.9238   0.9346
  0.9537   0.9616   0.9731   0.9885   0.9999   1.0011   1.0142   1.0266
  1.0332   1.0371   1.0468   1.0474   1.0575   1.0588   1.0686   1.0767
  1.0816   1.0940   1.0979   1.1074   1.1260   1.1283   1.1412   1.1665
  1.1712   1.1865   1.2198   1.2326   1.2447   1.2655   1.2974   1.3049
  1.3096   1.3266   1.3327   1.3372   1.3452   1.3644   1.3669   1.3746
  1.3750   1.3895   1.3980   1.4107   1.4190   1.4308   1.4577   1.4675
  1.4770   1.4884   1.5042   1.5273   1.5401   1.5549   1.5788   1.6315
  1.6392   1.6513   1.6576   1.6713   1.7146   1.7181   1.7239   1.7326
  1.7525   1.7668   1.7891   1.8242   1.8351   1.8506   1.8581   1.8852
  1.8921   1.9069   1.9121   1.9241   1.9369   1.9376   1.9501   1.9603
  1.9669   1.9767   1.9824   1.9971   2.0000   2.0103   2.0291   2.0303
  2.0400   2.0519   2.0623   2.0704   2.0762   2.0856   2.1017   2.1217
  2.1328   2.1486   2.1562   2.1706   2.1854   2.2167   2.2200   2.2291
  2.2430   2.2527   2.2616   2.2885   2.3032   2.3243   2.3362   2.3443
  2.3528   2.3743   2.3997   2.4025   2.4127   2.4196   2.4447   2.4622
  2.4909   2.5010   2.5282   2.5373   2.5595   2.5646   2.5757   2.5934
  2.5988   2.6115   2.6263   2.6288   2.6434   2.6604   2.6676   2.6774
  2.6859   2.7001   2.7269   2.7548   2.7747   2.7830   2.8033   2.8095
  2.8196   2.8323   2.8369   2.8546   2.8855   2.9056   2.9136   2.9294
  2.9441   2.9511   2.9602   2.9685   2.9913   2.9968   3.0058   3.0172
  3.0334   3.0362   3.0509   3.0698   3.0739   3.0903   3.0957   3.1137
  3.1488   3.1742   3.1812   3.2064   3.2213   3.2271   3.2383   3.2435
  3.2453   3.2585   3.2752   3.2978   3.3069   3.3270   3.3305   3.3326
  3.3488   3.3665   3.3868   3.3925   3.3972   3.4158   3.4194   3.4340
  3.4555   3.4622   3.4659   3.4685   3.4733   3.4865   3.5001   3.5101
  3.5281   3.5420   3.5444   3.5523   3.5601   3.5735   3.5816   3.5838
  3.5947   3.6023   3.6104   3.6194   3.6464   3.6486   3.6574   3.6759
  3.6938   3.7039   3.7156   3.7217   3.7350   3.7615   3.7655   3.7844
  3.8037   3.8158   3.8468   3.8575   3.9090   3.9342   3.9385   3.9710
  3.9742   3.9925   4.0031   4.0525   4.0951   4.1060   4.1112   4.1534
  4.1860   4.2488   4.2670   4.2916   4.3004   4.3227   4.3255   4.3458
  4.3501   4.3617   4.3831   4.4030   4.4242   4.4352   4.4795   4.5119
  4.5473   4.5837   4.5871   4.6233   4.6594   4.7003   4.7390   4.7553
  4.8053   4.8220   4.8413   4.8656   4.9364   4.9520   5.0094   5.0440
  5.0774   5.1092   5.1400   5.1849   5.3020   5.3457   5.3487   5.3788
  5.3836   5.3950   5.4382   5.4514   5.5274   5.5452   5.6443   5.6752
  5.7425   5.7450   5.7797   5.7884   5.8453   5.9836   6.0746   6.2538
  6.2922   6.3932   6.4246   6.5150   6.6334   6.6707   6.6868   6.7160
  6.7633   6.7821   6.8100   6.9109   6.9982   7.0096   7.0688   7.0768
  7.2926   7.3509   7.4018   7.4414   7.4964   7.5301  22.6156  22.6765
 22.7076  22.9476  23.0088  23.0423  23.1868  23.5128  23.8371  44.2987
 44.4016  44.4826
 --------------------------------------------------------------
 
          Ground-State Mulliken Net Atomic Charges

     Atom                 Charge (a.u.)
  ----------------------------------------
      1 C                    -0.446639
      2 C                     0.245037
      3 O                    -0.571822
      4 O                    -0.708927
      5 H                     0.170314
      6 H                     0.147581
      7 H                     0.163622
      8 C                    -1.020837
      9 C                    -0.477816
     10 C                     0.524601
     11 C                    -0.392152
     12 C                     0.585077
     13 C                    -0.513120
     14 C                    -0.655505
     15 O                    -0.355822
     16 H                     0.383469
     17 H                     0.297805
     18 H                     0.278285
     19 H                     0.277685
     20 H                     0.249250
     21 H                     0.267881
     22 H                     0.325626
     23 H                     0.226407
  ----------------------------------------
  Sum of atomic charges =    -1.000000

 -----------------------------------------------------------------
                    Cartesian Multipole Moments
 -----------------------------------------------------------------
    Charge (ESU x 10^10)
                -4.8032
    Dipole Moment (Debye)
         X     -14.3397      Y      -7.3290      Z       0.8490
       Tot      16.1264
    Quadrupole Moments (Debye-Ang)
        XX    -114.1930     XY     -27.4762     YY     -91.3170
        XZ       8.9005     YZ      -1.8954     ZZ     -70.6883
    Octopole Moments (Debye-Ang^2)
       XXX    -159.0269    XXY     -99.2143    XYY     -71.8262
       YYY     -24.8151    XXZ      10.3133    XYZ      22.8709
       YYZ       4.1024    XZZ      -1.0376    YZZ       9.3481
       ZZZ     -13.2914
    Hexadecapole Moments (Debye-Ang^3)
      XXXX   -4421.3814   XXXY    -963.9700   XXYY   -1059.3703
      XYYY    -796.3741   YYYY    -999.5326   XXXZ     204.7260
      XXYZ     105.7331   XYYZ      71.4740   YYYZ     170.9498
      XXZZ    -709.1971   XYZZ    -220.4157   YYZZ    -191.5164
      XZZZ     113.9970   YZZZ     145.3417   ZZZZ    -337.9077
 -----------------------------------------------------------------
Archival summary:
1\1\nid00527\SP\ProcedureUnspecified\BasisUnspecified\3911(1-,1)\meili\MonSep2704:51:072021MonSep2704:51:072021\0\\#,ProcedureUnspecified,BasisUnspecified,\\-1,1\O\H,1,0.960221\C,1,1.35719,2,111.701\C,3,1.39382,1,120.281,2,-178.417,0\H,4,1.0797,3,119.5,1,-0.858244,0\C,3,1.39449,1,119.611,2,0.6017,0\H,6,1.07628,3,120.167,1,0.8119,0\C,4,1.39504,3,119.767,1,178.819,0\H,8,1.07959,4,118.926,3,-178.157,0\C,6,1.3968,3,119.784,1,-178.635,0\H,10,1.08237,6,118.957,3,177.579,0\C,10,1.39846,6,120.746,3,-0.371144,0\C,12,1.51308,10,120.726,6,177.524,0\H,13,1.08612,12,107.847,10,-48.9709,0\H,13,1.09084,12,108.628,10,-164.345,0\H,13,1.1,12,116.241,10,73.1364,0\O,5,2.58303,4,121.855,3,-22.5809,0\C,17,1.24404,5,150.747,4,164.42,0\O,18,1.25121,17,123.782,5,-113.129,0\C,18,1.51392,17,118.172,5,67.8122,0\H,20,1.09078,18,107.38,17,113.941,0\H,20,1.09207,18,110.263,17,-129.103,0\H,20,1.10001,18,111.941,17,-5.96706,0\\\@

 Total job time:  61616.27s(wall), 31565.28s(cpu) 
 Mon Sep 27 04:51:07 2021

        *************************************************************
        *                                                           *
        *  Thank you very much for using Q-Chem.  Have a nice day.  *
        *                                                           *
        *************************************************************


