
Running Job 1 of 1 SSI-037ARG-152GLU-1_PCM_TZVPD.in
qchem SSI-037ARG-152GLU-1_PCM_TZVPD.in_44027.0 /tmp/qchem44027/ 0
/global/common/cori/software/qchem/5.2/exe/qcprog.exe_s SSI-037ARG-152GLU-1_PCM_TZVPD.in_44027.0 /tmp/qchem44027/
                  Welcome to Q-Chem
     A Quantum Leap Into The Future Of Chemistry


 Q-Chem 5.2, Q-Chem, Inc., Pleasanton, CA (2019)

 License issued to: National Energy Research Scientific Computing Center

 Yihan Shao,  Zhengting Gan,  E. Epifanovsky,  A. T. B. Gilbert,  M. Wormit,  
 J. Kussmann,  A. W. Lange,  A. Behn,  Jia Deng,  Xintian Feng,  D. Ghosh,  
 M. Goldey,  P. R. Horn,  L. D. Jacobson,  I. Kaliman,  T. Kus,  A. Landau,  
 Jie Liu,  E. I. Proynov,  R. M. Richard,  R. P. Steele,  E. J. Sundstrom,  
 H. L. Woodcock III,  P. M. Zimmerman,  D. Zuev,  B. Albrecht,  E. Alguire,  
 S. A. Baeppler,  D. Barton,  Z. Benda,  Y. A. Bernard,  E. J. Berquist,  
 K. B. Bravaya,  H. Burton,  D. Casanova,  Chun-Min Chang,  Yunqing Chen,  
 A. Chien,  K. D. Closser,  M. P. Coons,  S. Coriani,  S. Dasgupta,  
 A. L. Dempwolff,  M. Diedenhofen,  Hainam Do,  R. G. Edgar,  Po-Tung Fang,  
 S. Faraji,  S. Fatehi,  Qingguo Feng,  K. D. Fenk,  J. Fosso-Tande,  
 J. Gayvert,  Qinghui Ge,  A. Ghysels,  G. Gidofalvi,  J. Gomes,  
 J. Gonthier,  A. Gunina,  D. Hait,  M. W. D. Hanson-Heine,  
 P. H. P. Harbach,  A. W. Hauser,  M. F. Herbst,  J. E. Herr,  
 E. G. Hohenstein,  Z. C. Holden,  Kerwin Hui,  B. C. Huynh,  T.-C. Jagau,  
 Hyunjun Ji,  B. Kaduk,  K. Khistyaev,  Jaehoon Kim,  P. Klunzinger,  K. Koh,  
 D. Kosenkov,  L. Koulias,  T. Kowalczyk,  C. M. Krauter,  A. Kunitsa,  
 Ka Un Lao,  A. Laurent,  K. V. Lawler,  Joonho Lee,  D. Lefrancois,  
 S. Lehtola,  D. S. Levine,  Yi-Pei Li,  You-Sheng Lin,  Fenglai Liu,  
 E. Livshits,  A. Luenser,  P. Manohar,  E. Mansoor,  S. F. Manzer,  
 Shan-Ping Mao,  Yuezhi Mao,  N. Mardirossian,  A. V. Marenich,  
 T. Markovich,  L. A. Martinez-Martinez,  S. A. Maurer,  N. J. Mayhall,  
 S. C. McKenzie,  J.-M. Mewes,  P. Morgante,  A. F. Morrison,  
 J. W. Mullinax,  K. Nanda,  T. S. Nguyen-Beck,  R. Olivares-Amaya,  
 J. A. Parkhill,  Zheng Pei,  T. M. Perrine,  F. Plasser,  P. Pokhilko,  
 S. Prager,  A. Prociuk,  E. Ramos,  D. R. Rehn,  F. Rob,  M. Scheurer,  
 M. Schneider,  N. Sergueev,  S. M. Sharada,  S. Sharma,  D. W. Small,  
 T. Stauch,  T. Stein,  Yu-Chuan Su,  A. J. W. Thom,  A. Tkatchenko,  
 T. Tsuchimochi,  N. M. Tubman,  L. Vogt,  M. L. Vidal,  O. Vydrov,  
 M. A. Watson,  J. Wenzel,  M. de Wergifosse,  T. A. Wesolowski,  A. White,  
 J. Witte,  A. Yamada,  Jun Yang,  K. Yao,  S. Yeganeh,  S. R. Yost,  
 Zhi-Qiang You,  A. Zech,  Igor Ying Zhang,  Xing Zhang,  Yan Zhao,  
 Ying Zhu,  B. R. Brooks,  G. K. L. Chan,  C. J. Cramer,  M. S. Gordon,  
 W. J. Hehre,  A. Klamt,  M. W. Schmidt,  C. D. Sherrill,  D. G. Truhlar,  
 A. Aspuru-Guzik,  R. Baer,  A. T. Bell,  N. A. Besley,  Jeng-Da Chai,  
 A. E. DePrince, III,  R. A. DiStasio Jr.,  A. Dreuw,  B. D. Dunietz,  
 T. R. Furlani,  Chao-Ping Hsu,  Yousung Jung,  Jing Kong,  D. S. Lambrecht,  
 WanZhen Liang,  C. Ochsenfeld,  V. A. Rassolov,  L. V. Slipchenko,  
 J. E. Subotnik,  T. Van Voorhis,  J. M. Herbert,  A. I. Krylov,  
 P. M. W. Gill,  M. Head-Gordon

 Contributors to earlier versions of Q-Chem not listed above: 
 R. D. Adamson,  B. Austin,  J. Baker,  G. J. O. Beran,  K. Brandhorst,  
 S. T. Brown,  E. F. C. Byrd,  A. K. Chakraborty,  C.-L. Cheng,  
 Siu Hung Chien,  D. M. Chipman,  D. L. Crittenden,  H. Dachsel,  
 R. J. Doerksen,  A. D. Dutoi,  L. Fusti-Molnar,  W. A. Goddard III,  
 A. Golubeva-Zadorozhnaya,  S. R. Gwaltney,  G. Hawkins,  A. Heyden,  
 S. Hirata,  G. Kedziora,  F. J. Keil,  C. Kelley,  Jihan Kim,  R. A. King,  
 R. Z. Khaliullin,  P. P. Korambath,  W. Kurlancheek,  A. M. Lee,  M. S. Lee,  
 S. V. Levchenko,  Ching Yeh Lin,  D. Liotard,  R. C. Lochan,  I. Lotan,  
 P. E. Maslen,  N. Nair,  D. P. O'Neill,  D. Neuhauser,  E. Neuscamman,  
 C. M. Oana,  R. Olson,  B. Peters,  R. Peverati,  P. A. Pieniazek,  
 Y. M. Rhee,  J. Ritchie,  M. A. Rohrdanz,  E. Rosta,  N. J. Russ,  
 H. F. Schaefer III,  N. E. Schultz,  N. Shenvi,  A. C. Simmonett,  A. Sodt,  
 D. Stuck,  K. S. Thanthiriwatte,  V. Vanovschi,  Tao Wang,  A. Warshel,  
 C. F. Williams,  Q. Wu,  X. Xu,  W. Zhang

 Please cite Q-Chem as follows:
 Y. Shao et al., Mol. Phys. 113, 184-215 (2015)
 DOI: 10.1080/00268976.2014.952696

 Q-Chem 5.2.0 for Intel X86 EM64T Linux

 Parts of Q-Chem use Armadillo 8.300.2 (Tropical Shenanigans).
 http://arma.sourceforge.net/

 Q-Chem begins on Sun Sep 26 05:51:58 2021  

Host: cori01
0

     Scratch files written to /tmp/qchem44027//
 May1019 |scratch|qcdevops|jenkins|workspace|build_RNUM -1
Processing $rem in /global/common/cori/software/qchem/5.2/config/preferences:
	 MEM_TOTAL  96000 
NAlpha2: 72
NElect   72
Mult     1
Symmetry turned off for PCM/SM12/SMD calculation

 Q-Chem warning in module libgen/rem_setup.C, line 2803:

 Neither GIA nor STOLL is specified by user. Use STOLL as the default


Checking the input file for inconsistencies... 	...done.

--------------------------------------------------------------
User input:
--------------------------------------------------------------
$comment
SSI-037ARG-152GLU-1.pdb
$end

$molecule
0 1
--
1 1
C   -0.645384828832    1.456792014044   -2.432680099947
C   -1.432384828832    1.154792014044   -0.107680099947
N   -1.245384828832    0.647792014044    1.094319900053
N   -0.562384828832    0.904792014044   -1.074680099947
N   -2.478384828832    1.928792014044   -0.329680099947
H   -0.411384828832    0.064792014044    1.253319900053
H   -1.926384828832    0.762792014044    1.826319900053
H    0.170615171168    0.221792014044   -0.873680099947
H   -2.678384828832    2.241792014044   -1.277680099947
H   -3.152384828832    2.141792014044    0.385319900053
H    0.339615171168    1.418792014044   -2.902680099947
H   -0.929384828832    2.508792014044   -2.375680099947
H   -1.374644828832    0.937432014044   -3.071780099947
--
-1 1
C    2.609615171168   -2.523207985956    1.020319900053
C    1.548615171168   -1.483207985956    0.688319900053
O    1.000615171168   -0.874207985956    1.638319900053
O    1.273615171168   -1.253207985956   -0.510680099947
H    2.542615171168   -2.763207985956    2.082319900053
H    3.592615171168   -2.085207985956    0.834319900053
H    2.515065171168   -3.449357985956    0.434399900053
$end

$rem
JOBTYPE			EDA
EDA2			1
method			wB97X-V
BASIS			def2-TZVPD
XC_GRID			000099000590
NL_GRID			1
UNRESTRICTED		FALSE
MAX_SCF_CYCLES		200
SYMMETRY		FALSE
SYM_IGNORE		TRUE
MEM_STATIC		2000
BASIS_LIN_DEP_THRESH 	6
THRESH 			14
SCF_CONVERGENCE 	8
SCF_PRINT_FRGM 		TRUE
SOLVENT_METHOD          PCM
$end

$PCM
THEORY                  CPCM
METHOD                  SWIG
SOLVER                  INVERSION
RADII                   UFF
HPOINTS                 302
HEAVYPOINTS             302
PRINTLEVEL              0
$END

$SOLVENT
DIELECTRIC              78.390000 ! water
$END
--------------------------------------------------------------
 ----------------------------------------------------------------
             Standard Nuclear Orientation (Angstroms)
    I     Atom           X                Y                Z
 ----------------------------------------------------------------
    1      C      -0.6453848288     1.4567920140    -2.4326800999
    2      C      -1.4323848288     1.1547920140    -0.1076800999
    3      N      -1.2453848288     0.6477920140     1.0943199001
    4      N      -0.5623848288     0.9047920140    -1.0746800999
    5      N      -2.4783848288     1.9287920140    -0.3296800999
    6      H      -0.4113848288     0.0647920140     1.2533199001
    7      H      -1.9263848288     0.7627920140     1.8263199001
    8      H       0.1706151712     0.2217920140    -0.8736800999
    9      H      -2.6783848288     2.2417920140    -1.2776800999
   10      H      -3.1523848288     2.1417920140     0.3853199001
   11      H       0.3396151712     1.4187920140    -2.9026800999
   12      H      -0.9293848288     2.5087920140    -2.3756800999
   13      H      -1.3746448288     0.9374320140    -3.0717800999
   14      C       2.6096151712    -2.5232079860     1.0203199001
   15      C       1.5486151712    -1.4832079860     0.6883199001
   16      O       1.0006151712    -0.8742079860     1.6383199001
   17      O       1.2736151712    -1.2532079860    -0.5106800999
   18      H       2.5426151712    -2.7632079860     2.0823199001
   19      H       3.5926151712    -2.0852079860     0.8343199001
   20      H       2.5150651712    -3.4493579860     0.4343999001
 ----------------------------------------------------------------
 Nuclear Repulsion Energy =         465.13834900 hartrees
 There are       36 alpha and       36 beta electrons
 Requested basis set is def2-TZVPD
 There are 174 shells and 438 basis functions

 Total QAlloc Memory Limit  96000 MB
 Mega-Array Size      1956 MB
 MEM_STATIC part      2000 MB
 Discretize the solute cavity surface with Lebedev spheres
	Using 302 Lebedev grid points for each H atom
	Using 302 Lebedev grid points for other atoms
	Atomic van der Waals radii will be scaled by 1.20
 Remove points where switching function is < 1.0e-08
 Keep 2296 surface tesserae and discard 3744 interior tesserae
 Molecular Surface Area = 231.394 Angst**2
 A cutoff of  1.0D-14 yielded  13600 shell pairs
 There are     87350 function pairs (    109974 Cartesian)
 Smallest overlap matrix eigenvalue = 7.40E-06

 Scale SEOQF with 1.000000e-01/1.000000e-01/1.000000e-01

 Standard Electronic Orientation quadrupole field applied
 Nucleus-field energy     =     0.0000000061 hartrees

 -----------------------------------------------------------------------
  General SCF calculation program by
  Eric Jon Sundstrom, Paul Horn, Yuezhi Mao, Dmitri Zuev, Alec White,
  David Stuck, Shaama M.S., Shane Yost, Joonho Lee, David Small,
  Daniel Levine, Susi Lehtola, Hugh Burton, Evgeny Epifanovsky
 -----------------------------------------------------------------------
================================================================
                 ALMO-EDA with the EDA2 driver                  
================================================================
 The second-generation ALMO-EDA (for DFT):                      
 P. R. Horn, Y. Mao and M. Head-Gordon, PCCP, 18, 23067 (2016)  
 Decomposition of the frozen energy:                            
 P. R. Horn, Y. Mao and M. Head-Gordon, JCP, 144, 114107 (2016) 
 FERF model for polarization:                                   
 P. R. Horn and M. Head-Gordon, JCP, 143, 114111 (2015)         
Using eda2 option set 1
Option set summary: Frozen orbital wavefunction, initial wavefunction decomposition, and nDQ polarization.
--------------------------------
Printing EDA Options
--------------------------------
eda_child_super_basis      0
fragmo_guess_mode          0
child_mp                   1
child_mp_orders            232
cls_elec                   1
cls_disp                   0
scfmi_mode                 1
scfmi_occs                 0
scfmi_virts                0
frz_relax                  0
frz_relax_method           0
dc_pen_start               0
dc_pen_conv                0
dc_pen_increment           0
dc_pen_steps               0
dc_pen_thresh_factor       0
dc_pen_pre_newton_thresh   0
frz_ortho_decomp           1
frz_ortho_decomp_conv      6
frgm_method                2
scfmi_freeze_ss            0
separate_rehyb             0
plot_diff_den              0
eda_nocv                   0
eda_vct_relax              1
disp_free_x                0
disp_free_c                0
eda_bsse                   0
eda_pct_a                  0
eda_covp                   0
--------------------------------
Attempting to make child job directory: /tmp/qchem44027//Frg1/
Attempting to make child job directory: /tmp/qchem44027//Frg2/
Creating input file /tmp/qchem44027/Frg1.input
using default PutDataFrgm: nothing
calling putenv with: QCSCRATCH=/tmp/qchem44027/ 
calling putenv with: QCLOCALSCR=/tmp/qchem44027/ 
Spawning Job For Fragment 0
                  Welcome to Q-Chem
     A Quantum Leap Into The Future Of Chemistry


 Q-Chem 5.2, Q-Chem, Inc., Pleasanton, CA (2019)

 License issued to: National Energy Research Scientific Computing Center

 Yihan Shao,  Zhengting Gan,  E. Epifanovsky,  A. T. B. Gilbert,  M. Wormit,  
 J. Kussmann,  A. W. Lange,  A. Behn,  Jia Deng,  Xintian Feng,  D. Ghosh,  
 M. Goldey,  P. R. Horn,  L. D. Jacobson,  I. Kaliman,  T. Kus,  A. Landau,  
 Jie Liu,  E. I. Proynov,  R. M. Richard,  R. P. Steele,  E. J. Sundstrom,  
 H. L. Woodcock III,  P. M. Zimmerman,  D. Zuev,  B. Albrecht,  E. Alguire,  
 S. A. Baeppler,  D. Barton,  Z. Benda,  Y. A. Bernard,  E. J. Berquist,  
 K. B. Bravaya,  H. Burton,  D. Casanova,  Chun-Min Chang,  Yunqing Chen,  
 A. Chien,  K. D. Closser,  M. P. Coons,  S. Coriani,  S. Dasgupta,  
 A. L. Dempwolff,  M. Diedenhofen,  Hainam Do,  R. G. Edgar,  Po-Tung Fang,  
 S. Faraji,  S. Fatehi,  Qingguo Feng,  K. D. Fenk,  J. Fosso-Tande,  
 J. Gayvert,  Qinghui Ge,  A. Ghysels,  G. Gidofalvi,  J. Gomes,  
 J. Gonthier,  A. Gunina,  D. Hait,  M. W. D. Hanson-Heine,  
 P. H. P. Harbach,  A. W. Hauser,  M. F. Herbst,  J. E. Herr,  
 E. G. Hohenstein,  Z. C. Holden,  Kerwin Hui,  B. C. Huynh,  T.-C. Jagau,  
 Hyunjun Ji,  B. Kaduk,  K. Khistyaev,  Jaehoon Kim,  P. Klunzinger,  K. Koh,  
 D. Kosenkov,  L. Koulias,  T. Kowalczyk,  C. M. Krauter,  A. Kunitsa,  
 Ka Un Lao,  A. Laurent,  K. V. Lawler,  Joonho Lee,  D. Lefrancois,  
 S. Lehtola,  D. S. Levine,  Yi-Pei Li,  You-Sheng Lin,  Fenglai Liu,  
 E. Livshits,  A. Luenser,  P. Manohar,  E. Mansoor,  S. F. Manzer,  
 Shan-Ping Mao,  Yuezhi Mao,  N. Mardirossian,  A. V. Marenich,  
 T. Markovich,  L. A. Martinez-Martinez,  S. A. Maurer,  N. J. Mayhall,  
 S. C. McKenzie,  J.-M. Mewes,  P. Morgante,  A. F. Morrison,  
 J. W. Mullinax,  K. Nanda,  T. S. Nguyen-Beck,  R. Olivares-Amaya,  
 J. A. Parkhill,  Zheng Pei,  T. M. Perrine,  F. Plasser,  P. Pokhilko,  
 S. Prager,  A. Prociuk,  E. Ramos,  D. R. Rehn,  F. Rob,  M. Scheurer,  
 M. Schneider,  N. Sergueev,  S. M. Sharada,  S. Sharma,  D. W. Small,  
 T. Stauch,  T. Stein,  Yu-Chuan Su,  A. J. W. Thom,  A. Tkatchenko,  
 T. Tsuchimochi,  N. M. Tubman,  L. Vogt,  M. L. Vidal,  O. Vydrov,  
 M. A. Watson,  J. Wenzel,  M. de Wergifosse,  T. A. Wesolowski,  A. White,  
 J. Witte,  A. Yamada,  Jun Yang,  K. Yao,  S. Yeganeh,  S. R. Yost,  
 Zhi-Qiang You,  A. Zech,  Igor Ying Zhang,  Xing Zhang,  Yan Zhao,  
 Ying Zhu,  B. R. Brooks,  G. K. L. Chan,  C. J. Cramer,  M. S. Gordon,  
 W. J. Hehre,  A. Klamt,  M. W. Schmidt,  C. D. Sherrill,  D. G. Truhlar,  
 A. Aspuru-Guzik,  R. Baer,  A. T. Bell,  N. A. Besley,  Jeng-Da Chai,  
 A. E. DePrince, III,  R. A. DiStasio Jr.,  A. Dreuw,  B. D. Dunietz,  
 T. R. Furlani,  Chao-Ping Hsu,  Yousung Jung,  Jing Kong,  D. S. Lambrecht,  
 WanZhen Liang,  C. Ochsenfeld,  V. A. Rassolov,  L. V. Slipchenko,  
 J. E. Subotnik,  T. Van Voorhis,  J. M. Herbert,  A. I. Krylov,  
 P. M. W. Gill,  M. Head-Gordon

 Contributors to earlier versions of Q-Chem not listed above: 
 R. D. Adamson,  B. Austin,  J. Baker,  G. J. O. Beran,  K. Brandhorst,  
 S. T. Brown,  E. F. C. Byrd,  A. K. Chakraborty,  C.-L. Cheng,  
 Siu Hung Chien,  D. M. Chipman,  D. L. Crittenden,  H. Dachsel,  
 R. J. Doerksen,  A. D. Dutoi,  L. Fusti-Molnar,  W. A. Goddard III,  
 A. Golubeva-Zadorozhnaya,  S. R. Gwaltney,  G. Hawkins,  A. Heyden,  
 S. Hirata,  G. Kedziora,  F. J. Keil,  C. Kelley,  Jihan Kim,  R. A. King,  
 R. Z. Khaliullin,  P. P. Korambath,  W. Kurlancheek,  A. M. Lee,  M. S. Lee,  
 S. V. Levchenko,  Ching Yeh Lin,  D. Liotard,  R. C. Lochan,  I. Lotan,  
 P. E. Maslen,  N. Nair,  D. P. O'Neill,  D. Neuhauser,  E. Neuscamman,  
 C. M. Oana,  R. Olson,  B. Peters,  R. Peverati,  P. A. Pieniazek,  
 Y. M. Rhee,  J. Ritchie,  M. A. Rohrdanz,  E. Rosta,  N. J. Russ,  
 H. F. Schaefer III,  N. E. Schultz,  N. Shenvi,  A. C. Simmonett,  A. Sodt,  
 D. Stuck,  K. S. Thanthiriwatte,  V. Vanovschi,  Tao Wang,  A. Warshel,  
 C. F. Williams,  Q. Wu,  X. Xu,  W. Zhang

 Please cite Q-Chem as follows:
 Y. Shao et al., Mol. Phys. 113, 184-215 (2015)
 DOI: 10.1080/00268976.2014.952696

 Q-Chem 5.2.0 for Intel X86 EM64T Linux

 Parts of Q-Chem use Armadillo 8.300.2 (Tropical Shenanigans).
 http://arma.sourceforge.net/

 Q-Chem begins on Sun Sep 26 05:52:04 2021  

Host: cori01
0

     Scratch files written to /tmp/qchem44027//Frg1//
 May1019 |scratch|qcdevops|jenkins|workspace|build_RNUM -1
Processing $rem in /global/common/cori/software/qchem/5.2/config/preferences:
	 MEM_TOTAL  96000 
NAlpha2: 40
NElect   40
Mult     1
Symmetry turned off for PCM/SM12/SMD calculation

Checking the input file for inconsistencies... 	...done.

--------------------------------------------------------------
User input:
--------------------------------------------------------------
$molecule
1 1
 6	-0.6453848288	1.4567920140	-2.4326800999
 6	-1.4323848288	1.1547920140	-0.1076800999
 7	-1.2453848288	0.6477920140	1.0943199001
 7	-0.5623848288	0.9047920140	-1.0746800999
 7	-2.4783848288	1.9287920140	-0.3296800999
 1	-0.4113848288	0.0647920140	1.2533199001
 1	-1.9263848288	0.7627920140	1.8263199001
 1	0.1706151712	0.2217920140	-0.8736800999
 1	-2.6783848288	2.2417920140	-1.2776800999
 1	-3.1523848288	2.1417920140	0.3853199001
 1	0.3396151712	1.4187920140	-2.9026800999
 1	-0.9293848288	2.5087920140	-2.3756800999
 1	-1.3746448288	0.9374320140	-3.0717800999
$end
$rem
EDA2		1
METHOD		WB97X-V
BASIS		DEF2-TZVPD
XC_GRID		000099000590
NL_GRID		1
UNRESTRICTED		FALSE
MAX_SCF_CYCLES		200
SYMMETRY		FALSE
SYM_IGNORE		TRUE
BASIS_LIN_DEP_THRESH		6
THRESH		14
SCF_CONVERGENCE		8
SCF_PRINT_FRGM		TRUE
SOLVENT_METHOD		PCM
!required keywords
JOBTYPE		SP
SYM_IGNORE		TRUE
SUBSYSTEM		TRUE
GEN_SCFMAN		TRUE
CHILD_INSTRUCTION		2
SYM_IGNORE		TRUE
SCFMI		0
RI_K 0		
PARI_K 0		
MIN_PARI_K 0		
IARI_K 0		
OCC_RI_K 0		
PURECART		1111
MEM_STATIC		2000
MEM_TOTAL		96000
GUI		0
CHILD_MP		1
CHILD_MP_ORDERS		232
FRZ_RELAX		0
FRZ_RELAX_METHOD		0
EDA_CLS_ELEC		1
EDA_CLS_DISP		0
FRZ_ORTHO_DECOMP		1
EDA2		FALSE
FRGM_METHOD		FALSE
CIS_N_ROOTS  0
LOCAL_CIS    0
CIS_RLX_DNS  1
$end
$pcm
THEORY                  CPCM
METHOD                  SWIG
SOLVER                  INVERSION
RADII                   UFF
HPOINTS                 302
HEAVYPOINTS             302
PRINTLEVEL              0
$end
$solvent
DIELECTRIC              78.390000 ! water
$end
--------------------------------------------------------------
 ----------------------------------------------------------------
             Standard Nuclear Orientation (Angstroms)
    I     Atom           X                Y                Z
 ----------------------------------------------------------------
    1      C      -0.6453848288     1.4567920140    -2.4326800999
    2      C      -1.4323848288     1.1547920140    -0.1076800999
    3      N      -1.2453848288     0.6477920140     1.0943199001
    4      N      -0.5623848288     0.9047920140    -1.0746800999
    5      N      -2.4783848288     1.9287920140    -0.3296800999
    6      H      -0.4113848288     0.0647920140     1.2533199001
    7      H      -1.9263848288     0.7627920140     1.8263199001
    8      H       0.1706151712     0.2217920140    -0.8736800999
    9      H      -2.6783848288     2.2417920140    -1.2776800999
   10      H      -3.1523848288     2.1417920140     0.3853199001
   11      H       0.3396151712     1.4187920140    -2.9026800999
   12      H      -0.9293848288     2.5087920140    -2.3756800999
   13      H      -1.3746448288     0.9374320140    -3.0717800999
 ----------------------------------------------------------------
 Nuclear Repulsion Energy =         194.08254922 hartrees
 There are       20 alpha and       20 beta electrons
 Requested basis set is def2-TZVPD
 There are 105 shells and 257 basis functions

 Total QAlloc Memory Limit  96000 MB
 Mega-Array Size      1956 MB
 MEM_STATIC part      2000 MB
 Discretize the solute cavity surface with Lebedev spheres
	Using 302 Lebedev grid points for each H atom
	Using 302 Lebedev grid points for other atoms
	Atomic van der Waals radii will be scaled by 1.20
 Remove points where switching function is < 1.0e-08
 Keep 1571 surface tesserae and discard 2355 interior tesserae
 Molecular Surface Area = 152.710 Angst**2

                       Distance Matrix (Angstroms)
             C (  1)   C (  2)   N (  3)   N (  4)   N (  5)   H (  6)
   C (  2)  2.473095
   N (  3)  3.667998  1.317885
   N (  4)  1.468250  1.324571  2.288471
   N (  5)  2.829361  1.320029  2.277943  2.296662
   H (  6)  3.947026  2.020609  1.029916  2.479513  3.202011
   H (  7)  4.501297  2.034221  1.006385  3.208810  2.512488  1.763734
   H (  8)  2.149782  2.006702  2.461617  1.021851  3.197966  2.210770
   H (  9)  2.466443  2.025583  3.196984  2.511222  1.018171  4.035416
   H ( 10)  3.833458  2.043433  2.524156  3.220228  1.005420  3.546891
   H ( 11)  1.092048  3.319895  4.368372  2.102233  3.849877  4.435048
   H ( 12)  1.091150  2.688894  3.950200  2.097643  2.630954  4.405803
   H ( 13)  1.100002  2.972620  4.178156  2.156210  3.117715  4.516178
             H (  7)   H (  8)   H (  9)   H ( 10)   H ( 11)   H ( 12)
   H (  8)  3.461227
   H (  9)  3.519625  3.515738
   H ( 10)  2.341196  4.039036  1.732122
   H ( 11)  5.284745  2.361824  3.525093  4.850540
   H ( 12)  4.658254  2.948961  2.082281  3.563641  1.753907
   H ( 13)  4.932170  2.780578  2.572914  4.069691  1.788572  1.775383

 
 A cutoff of  1.0D-14 yielded   5441 shell pairs
 There are     33177 function pairs (     41513 Cartesian)
 Smallest overlap matrix eigenvalue = 1.66E-05

 Scale SEOQF with 1.000000e-01/1.000000e-01/1.000000e-01

 Standard Electronic Orientation quadrupole field applied
 Nucleus-field energy     =    -0.0000000002 hartrees
 Guess from superposition of atomic densities
 Warning:  Energy on first SCF cycle will be non-variational
 SAD guess density has 40.388232 electrons

 -----------------------------------------------------------------------
  General SCF calculation program by
  Eric Jon Sundstrom, Paul Horn, Yuezhi Mao, Dmitri Zuev, Alec White,
  David Stuck, Shaama M.S., Shane Yost, Joonho Lee, David Small,
  Daniel Levine, Susi Lehtola, Hugh Burton, Evgeny Epifanovsky
 -----------------------------------------------------------------------
 Exchange:     0.1670 Hartree-Fock + 1.0000 wB97X-V + LR-HF
 Correlation:  1.0000 wB97X-V
 Using Euler-Maclaurin-Lebedev (99,590) quadrature formula
 Nonlocal Correlation:  VV10 with C = 0.0100 and b = 6.00 and scale = 1.00000
 Grid used for NLC:  SG-1 standard quadrature
Energy prior to optimization (guess energy) = -244.726142907506
Begin Timing: Total SCF Calculation
begin iterations for algorithm: DIIS         
the SCF tolerance is set to 1.00e-08
    1    -244.7261429075      7.92e-03     00000 
    2    -244.9394087607      6.24e-03     00000 
    3    -245.1801750803      2.92e-04     00000 
    4    -245.1807501608      1.67e-04     00000 
    5    -245.1809387219      3.46e-05     00000 
    6    -245.1809475124      1.36e-05     00000 
    7    -245.1809490311      2.18e-06     00000 
    8    -245.1809491028      7.38e-07     00000 
    9    -245.1809491119      3.02e-07     00000 
   10    -245.1809491135      8.59e-08     00000 
   11    -245.1809491136      3.55e-08     00000 
   12    -245.1809491136      1.14e-08     00000 
   13    -245.1809491136      1.55e-09     00000 Convergence criterion met
Timing for Total SCF: 759.00s (wall), 1472.64s (cpu)

************** Final PCM Free Energy Summary **************
 G_electrostatic  =      -0.08142888 hartree =     -51.09739443 kcal/mol
 G_cavitation     =       0.00000000 hartree =       0.00000000 kcal/mol
 G_dispersion     =       0.00000000 hartree =       0.00000000 kcal/mol
 G_repulsion      =       0.00000000 hartree =       0.00000000 kcal/mol
 --------------------------------------------------
 Non-electrostatic Free Energy =       0.00000000 hartree =       0.00000000 kcal/mol
 Total                         =      -0.08142888 hartree =     -51.09739443 kcal/mol
 --------------------------------------------------
 SCF Energy (H0 + V/2)                       =    -245.18094911 
 Solute Internal Energy (H0)                 =    -245.09952023 
 Total Free Energy (H0 + V/2 + non-elec)     =    -245.18094911 hartree
                                             = -153853.36767757 kcal/mol
***********************************************************

E_pcm = -0.0814288816
Multipole orders to be included
        2
        3
computing dipole RHS
computing quadrupole RHS
total number of RHS in solve_reponses: 8
RHS batch sizes
        8
Beginning Block Conjugate Gradient Iterations. Batch Number: 0
computing hessian-vector products by finite difference
              1      4.49e-01     00000 Conjugate Gradient Iteration
computing hessian-vector products by finite difference
              2      1.69e-01     00000 Conjugate Gradient Iteration
computing hessian-vector products by finite difference
              3      4.80e-02     00000 Conjugate Gradient Iteration
computing hessian-vector products by finite difference
              4      1.30e-02     00000 Conjugate Gradient Iteration
computing hessian-vector products by finite difference
              5      1.82e-03     00000 Conjugate Gradient Iteration
computing hessian-vector products by finite difference
              6      2.89e-04     00000 Conjugate Gradient Iteration
computing hessian-vector products by finite difference
              7      3.57e-05     00000 Conjugate Gradient Iteration
computing hessian-vector products by finite difference
              8      4.89e-06     00000 Conjugate Gradient Iteration
computing hessian-vector products by finite difference
              9      7.43e-07     00000 Conjugate Gradient Iteration
computing hessian-vector products by finite difference
             10      8.74e-08     00000 Conjugate Gradient Iteration
computing hessian-vector products by finite difference
             11      1.37e-08     00000 Conjugate Gradient Iteration
computing hessian-vector products by finite difference
             12      4.29e-09     00000 CG Converged
batch 0 complete
Done Calculating Responses
TESTING ORTHOGONALIZATION OF MULTIPOLE BASIS
Multipole virts passed orthogonality test
Virts Per Order
           60
          100
 
 --------------------------------------------------------------
 
                    Orbital Energies (a.u.)
 --------------------------------------------------------------
 
 Alpha MOs
 -- Occupied --
-14.4838 -14.4768 -14.4757 -10.4494 -10.3312  -1.2005  -1.0812  -1.0697
 -0.8788  -0.7941  -0.7481  -0.7184  -0.6463  -0.6373  -0.6196  -0.5976
 -0.5503  -0.5326  -0.4257  -0.4030
 -- Virtual --
  0.0481   0.0747   0.0801   0.0860   0.1129   0.1150   0.1226   0.1405
  0.1586   0.1628   0.1788   0.1859   0.1922   0.1974   0.2083   0.2221
  0.2315   0.2331   0.2402   0.2551   0.2664   0.2699   0.2831   0.2881
  0.2988   0.3052   0.3088   0.3124   0.3238   0.3277   0.3367   0.3495
  0.3509   0.3620   0.3657   0.3834   0.3942   0.3961   0.4029   0.4200
  0.4296   0.4352   0.4453   0.4473   0.4590   0.4626   0.4752   0.4858
  0.4890   0.4957   0.5034   0.5069   0.5170   0.5185   0.5313   0.5404
  0.5455   0.5523   0.5662   0.5823   0.5919   0.5994   0.6210   0.6424
  0.6461   0.6583   0.6675   0.6869   0.7014   0.7176   0.7333   0.7449
  0.7728   0.7839   0.7979   0.8108   0.8175   0.8212   0.8378   0.8475
  0.8670   0.8725   0.8829   0.8992   0.9153   0.9549   0.9697   0.9737
  1.0088   1.0445   1.0556   1.0739   1.0922   1.0983   1.1118   1.1147
  1.1415   1.1652   1.2048   1.2345   1.2470   1.3108   1.3439   1.3936
  1.3986   1.4255   1.4561   1.4637   1.5248   1.5423   1.6035   1.6403
  1.6634   1.6977   1.7334   1.7671   1.8157   1.8393   1.8482   1.8652
  1.8884   1.8941   1.9009   1.9570   1.9656   1.9929   2.0114   2.0332
  2.0619   2.0942   2.1396   2.1734   2.1911   2.2181   2.2450   2.2756
  2.3056   2.3302   2.3517   2.3898   2.4186   2.4359   2.4794   2.4886
  2.5452   2.5666   2.6068   2.6123   2.6262   2.6464   2.6808   2.7051
  2.7593   2.7855   2.8296   2.8600   2.8644   2.8735   2.9128   2.9397
  3.0193   3.0880   3.1043   3.1335   3.1608   3.1703   3.2006   3.2338
  3.2382   3.2612   3.2837   3.2914   3.3451   3.3836   3.3924   3.4052
  3.4423   3.4857   3.5061   3.5556   3.5713   3.6235   3.6295   3.7351
  3.7862   3.8322   3.9021   3.9701   4.0271   4.1060   4.1319   4.1824
  4.2446   4.2816   4.3202   4.3627   4.4001   4.4706   4.5389   4.5886
  4.6318   4.8175   4.8314   4.8477   4.9098   4.9695   4.9902   5.0256
  5.0847   5.0928   5.1166   5.1465   5.1638   5.1883   5.2464   5.3255
  5.3638   5.3713   5.4100   5.4476   5.4716   5.4803   5.5372   5.6344
  5.6769   5.7470   5.7802   5.8605   6.0958   6.1714   6.3374   6.4526
 22.6409  23.6327  32.3095  32.4247  32.7906
 --------------------------------------------------------------
 
          Ground-State Mulliken Net Atomic Charges

     Atom                 Charge (a.u.)
  ----------------------------------------
      1 C                    -0.817865
      2 C                     0.549821
      3 N                    -0.270646
      4 N                    -0.087102
      5 N                    -0.253066
      6 H                     0.212670
      7 H                     0.202659
      8 H                     0.241056
      9 H                     0.186914
     10 H                     0.195152
     11 H                     0.251664
     12 H                     0.301756
     13 H                     0.286987
  ----------------------------------------
  Sum of atomic charges =     1.000000

 -----------------------------------------------------------------
                    Cartesian Multipole Moments
 -----------------------------------------------------------------
    Charge (ESU x 10^10)
                 4.8032
    Dipole Moment (Debye)
         X      -6.7871      Y       5.3250      Z      -1.3054
       Tot       8.7249
    Quadrupole Moments (Debye-Ang)
        XX     -10.6326     XY     -14.1278     YY     -20.7901
        XZ      -1.4288     YZ      -5.0460     ZZ     -15.1777
    Octopole Moments (Debye-Ang^2)
       XXX      59.1720    XXY       3.8269    XYY      10.3962
       YYY     -93.3646    XXZ      22.4760    XYZ       3.2133
       YYZ       8.0586    XZZ      19.8227    YZZ     -18.8783
       ZZZ      43.3229
    Hexadecapole Moments (Debye-Ang^3)
      XXXX    -263.3972   XXXY      38.2353   XXYY     -44.9486
      XYYY     104.6666   YYYY    -320.2693   XXXZ     -49.1804
      XXYZ      27.9835   XYYZ       2.1900   YYYZ      71.4460
      XXZZ     -93.6320   XYZZ      27.0888   YYZZ     -95.6609
      XZZZ     -34.3802   YZZZ      65.3107   ZZZZ    -322.2487
 -----------------------------------------------------------------
Archival summary:
1\1\nid00535\SP\ProcedureUnspecified\BasisUnspecified\328(1+,1)\meili\SunSep2609:34:122021SunSep2609:34:122021\0\\#,ProcedureUnspecified,BasisUnspecified,\\1,1\C\N,1,1.31789\H,2,1.00638,1,121.562\H,2,1.02992,1,118.26,3,175.483,0\N,1,1.32003,2,119.433,3,5.95782,0\H,5,1.00542,1,122.4,2,-0.736819,0\H,5,1.01817,1,119.505,2,-173.647,0\N,1,1.32457,2,120.003,3,-175.185,0\H,8,1.02185,1,116.981,2,7.46504,0\C,8,1.46825,1,124.551,2,-177.62,0\H,10,1.09115,8,109.2,1,42.0498,0\H,10,1.09205,8,109.511,1,158.798,0\H,10,1.1,8,113.412,1,-78.7444,0\\\@

 Total job time:  13332.26s(wall), 26210.59s(cpu) 
 Sun Sep 26 09:34:15 2021

        *************************************************************
        *                                                           *
        *  Thank you very much for using Q-Chem.  Have a nice day.  *
        *                                                           *
        *************************************************************


Done Job For Fragment 0
calling putenv with: QCSCRATCH=/global/cscratch1/sd/meili 
calling putenv with: QCLOCALSCR=/tmp 
calling putenv with: QCTHREADS=32 
Creating input file /tmp/qchem44027/Frg2.input
using default PutDataFrgm: nothing
calling putenv with: QCSCRATCH=/tmp/qchem44027/ 
calling putenv with: QCLOCALSCR=/tmp/qchem44027/ 
Spawning Job For Fragment 1
                  Welcome to Q-Chem
     A Quantum Leap Into The Future Of Chemistry


 Q-Chem 5.2, Q-Chem, Inc., Pleasanton, CA (2019)

 License issued to: National Energy Research Scientific Computing Center

 Yihan Shao,  Zhengting Gan,  E. Epifanovsky,  A. T. B. Gilbert,  M. Wormit,  
 J. Kussmann,  A. W. Lange,  A. Behn,  Jia Deng,  Xintian Feng,  D. Ghosh,  
 M. Goldey,  P. R. Horn,  L. D. Jacobson,  I. Kaliman,  T. Kus,  A. Landau,  
 Jie Liu,  E. I. Proynov,  R. M. Richard,  R. P. Steele,  E. J. Sundstrom,  
 H. L. Woodcock III,  P. M. Zimmerman,  D. Zuev,  B. Albrecht,  E. Alguire,  
 S. A. Baeppler,  D. Barton,  Z. Benda,  Y. A. Bernard,  E. J. Berquist,  
 K. B. Bravaya,  H. Burton,  D. Casanova,  Chun-Min Chang,  Yunqing Chen,  
 A. Chien,  K. D. Closser,  M. P. Coons,  S. Coriani,  S. Dasgupta,  
 A. L. Dempwolff,  M. Diedenhofen,  Hainam Do,  R. G. Edgar,  Po-Tung Fang,  
 S. Faraji,  S. Fatehi,  Qingguo Feng,  K. D. Fenk,  J. Fosso-Tande,  
 J. Gayvert,  Qinghui Ge,  A. Ghysels,  G. Gidofalvi,  J. Gomes,  
 J. Gonthier,  A. Gunina,  D. Hait,  M. W. D. Hanson-Heine,  
 P. H. P. Harbach,  A. W. Hauser,  M. F. Herbst,  J. E. Herr,  
 E. G. Hohenstein,  Z. C. Holden,  Kerwin Hui,  B. C. Huynh,  T.-C. Jagau,  
 Hyunjun Ji,  B. Kaduk,  K. Khistyaev,  Jaehoon Kim,  P. Klunzinger,  K. Koh,  
 D. Kosenkov,  L. Koulias,  T. Kowalczyk,  C. M. Krauter,  A. Kunitsa,  
 Ka Un Lao,  A. Laurent,  K. V. Lawler,  Joonho Lee,  D. Lefrancois,  
 S. Lehtola,  D. S. Levine,  Yi-Pei Li,  You-Sheng Lin,  Fenglai Liu,  
 E. Livshits,  A. Luenser,  P. Manohar,  E. Mansoor,  S. F. Manzer,  
 Shan-Ping Mao,  Yuezhi Mao,  N. Mardirossian,  A. V. Marenich,  
 T. Markovich,  L. A. Martinez-Martinez,  S. A. Maurer,  N. J. Mayhall,  
 S. C. McKenzie,  J.-M. Mewes,  P. Morgante,  A. F. Morrison,  
 J. W. Mullinax,  K. Nanda,  T. S. Nguyen-Beck,  R. Olivares-Amaya,  
 J. A. Parkhill,  Zheng Pei,  T. M. Perrine,  F. Plasser,  P. Pokhilko,  
 S. Prager,  A. Prociuk,  E. Ramos,  D. R. Rehn,  F. Rob,  M. Scheurer,  
 M. Schneider,  N. Sergueev,  S. M. Sharada,  S. Sharma,  D. W. Small,  
 T. Stauch,  T. Stein,  Yu-Chuan Su,  A. J. W. Thom,  A. Tkatchenko,  
 T. Tsuchimochi,  N. M. Tubman,  L. Vogt,  M. L. Vidal,  O. Vydrov,  
 M. A. Watson,  J. Wenzel,  M. de Wergifosse,  T. A. Wesolowski,  A. White,  
 J. Witte,  A. Yamada,  Jun Yang,  K. Yao,  S. Yeganeh,  S. R. Yost,  
 Zhi-Qiang You,  A. Zech,  Igor Ying Zhang,  Xing Zhang,  Yan Zhao,  
 Ying Zhu,  B. R. Brooks,  G. K. L. Chan,  C. J. Cramer,  M. S. Gordon,  
 W. J. Hehre,  A. Klamt,  M. W. Schmidt,  C. D. Sherrill,  D. G. Truhlar,  
 A. Aspuru-Guzik,  R. Baer,  A. T. Bell,  N. A. Besley,  Jeng-Da Chai,  
 A. E. DePrince, III,  R. A. DiStasio Jr.,  A. Dreuw,  B. D. Dunietz,  
 T. R. Furlani,  Chao-Ping Hsu,  Yousung Jung,  Jing Kong,  D. S. Lambrecht,  
 WanZhen Liang,  C. Ochsenfeld,  V. A. Rassolov,  L. V. Slipchenko,  
 J. E. Subotnik,  T. Van Voorhis,  J. M. Herbert,  A. I. Krylov,  
 P. M. W. Gill,  M. Head-Gordon

 Contributors to earlier versions of Q-Chem not listed above: 
 R. D. Adamson,  B. Austin,  J. Baker,  G. J. O. Beran,  K. Brandhorst,  
 S. T. Brown,  E. F. C. Byrd,  A. K. Chakraborty,  C.-L. Cheng,  
 Siu Hung Chien,  D. M. Chipman,  D. L. Crittenden,  H. Dachsel,  
 R. J. Doerksen,  A. D. Dutoi,  L. Fusti-Molnar,  W. A. Goddard III,  
 A. Golubeva-Zadorozhnaya,  S. R. Gwaltney,  G. Hawkins,  A. Heyden,  
 S. Hirata,  G. Kedziora,  F. J. Keil,  C. Kelley,  Jihan Kim,  R. A. King,  
 R. Z. Khaliullin,  P. P. Korambath,  W. Kurlancheek,  A. M. Lee,  M. S. Lee,  
 S. V. Levchenko,  Ching Yeh Lin,  D. Liotard,  R. C. Lochan,  I. Lotan,  
 P. E. Maslen,  N. Nair,  D. P. O'Neill,  D. Neuhauser,  E. Neuscamman,  
 C. M. Oana,  R. Olson,  B. Peters,  R. Peverati,  P. A. Pieniazek,  
 Y. M. Rhee,  J. Ritchie,  M. A. Rohrdanz,  E. Rosta,  N. J. Russ,  
 H. F. Schaefer III,  N. E. Schultz,  N. Shenvi,  A. C. Simmonett,  A. Sodt,  
 D. Stuck,  K. S. Thanthiriwatte,  V. Vanovschi,  Tao Wang,  A. Warshel,  
 C. F. Williams,  Q. Wu,  X. Xu,  W. Zhang

 Please cite Q-Chem as follows:
 Y. Shao et al., Mol. Phys. 113, 184-215 (2015)
 DOI: 10.1080/00268976.2014.952696

 Q-Chem 5.2.0 for Intel X86 EM64T Linux

 Parts of Q-Chem use Armadillo 8.300.2 (Tropical Shenanigans).
 http://arma.sourceforge.net/

 Q-Chem begins on Sun Sep 26 09:34:19 2021  

Host: cori01
0

     Scratch files written to /tmp/qchem44027//Frg2//
 May1019 |scratch|qcdevops|jenkins|workspace|build_RNUM -1
Processing $rem in /global/common/cori/software/qchem/5.2/config/preferences:
	 MEM_TOTAL  96000 
NAlpha2: 32
NElect   32
Mult     1
Symmetry turned off for PCM/SM12/SMD calculation

Checking the input file for inconsistencies... 	...done.

--------------------------------------------------------------
User input:
--------------------------------------------------------------
$molecule
-1 1
 6	2.6096151712	-2.5232079860	1.0203199001
 6	1.5486151712	-1.4832079860	0.6883199001
 8	1.0006151712	-0.8742079860	1.6383199001
 8	1.2736151712	-1.2532079860	-0.5106800999
 1	2.5426151712	-2.7632079860	2.0823199001
 1	3.5926151712	-2.0852079860	0.8343199001
 1	2.5150651712	-3.4493579860	0.4343999001
$end
$rem
EDA2		1
METHOD		WB97X-V
BASIS		DEF2-TZVPD
XC_GRID		000099000590
NL_GRID		1
UNRESTRICTED		FALSE
MAX_SCF_CYCLES		200
SYMMETRY		FALSE
SYM_IGNORE		TRUE
BASIS_LIN_DEP_THRESH		6
THRESH		14
SCF_CONVERGENCE		8
SCF_PRINT_FRGM		TRUE
SOLVENT_METHOD		PCM
!required keywords
JOBTYPE		SP
SYM_IGNORE		TRUE
SUBSYSTEM		TRUE
GEN_SCFMAN		TRUE
CHILD_INSTRUCTION		2
SYM_IGNORE		TRUE
SCFMI		0
RI_K 0		
PARI_K 0		
MIN_PARI_K 0		
IARI_K 0		
OCC_RI_K 0		
PURECART		1111
MEM_STATIC		2000
MEM_TOTAL		96000
GUI		0
CHILD_MP		1
CHILD_MP_ORDERS		232
FRZ_RELAX		0
FRZ_RELAX_METHOD		0
EDA_CLS_ELEC		1
EDA_CLS_DISP		0
FRZ_ORTHO_DECOMP		1
EDA2		FALSE
FRGM_METHOD		FALSE
CIS_N_ROOTS  0
LOCAL_CIS    0
CIS_RLX_DNS  1
$end
$pcm
THEORY                  CPCM
METHOD                  SWIG
SOLVER                  INVERSION
RADII                   UFF
HPOINTS                 302
HEAVYPOINTS             302
PRINTLEVEL              0
$end
$solvent
DIELECTRIC              78.390000 ! water
$end
--------------------------------------------------------------
 ----------------------------------------------------------------
             Standard Nuclear Orientation (Angstroms)
    I     Atom           X                Y                Z
 ----------------------------------------------------------------
    1      C       2.6096151712    -2.5232079860     1.0203199001
    2      C       1.5486151712    -1.4832079860     0.6883199001
    3      O       1.0006151712    -0.8742079860     1.6383199001
    4      O       1.2736151712    -1.2532079860    -0.5106800999
    5      H       2.5426151712    -2.7632079860     2.0823199001
    6      H       3.5926151712    -2.0852079860     0.8343199001
    7      H       2.5150651712    -3.4493579860     0.4343999001
 ----------------------------------------------------------------
 Nuclear Repulsion Energy =         112.54199291 hartrees
 There are       16 alpha and       16 beta electrons
 Requested basis set is def2-TZVPD
 There are 69 shells and 181 basis functions

 Total QAlloc Memory Limit  96000 MB
 Mega-Array Size      1956 MB
 MEM_STATIC part      2000 MB
 Discretize the solute cavity surface with Lebedev spheres
	Using 302 Lebedev grid points for each H atom
	Using 302 Lebedev grid points for other atoms
	Atomic van der Waals radii will be scaled by 1.20
 Remove points where switching function is < 1.0e-08
 Keep 1007 surface tesserae and discard 1107 interior tesserae
 Molecular Surface Area = 120.258 Angst**2

                       Distance Matrix (Angstroms)
             C (  1)   C (  2)   O (  3)   O (  4)   H (  5)   H (  6)
   C (  2)  1.522349
   O (  3)  2.385373  1.254466
   O (  4)  2.396196  1.251450  2.199175
   H (  5)  1.090841  2.137679  2.478552  3.257930
   H (  6)  1.092121  2.135803  2.971767  2.806957  1.766264
   H (  7)  1.099998  2.205504  3.220928  2.693965  1.785273  1.783804

 
 A cutoff of  1.0D-14 yielded   2391 shell pairs
 There are     16695 function pairs (     21491 Cartesian)
 Smallest overlap matrix eigenvalue = 1.67E-05

 Scale SEOQF with 1.000000e-01/1.000000e-01/1.000000e-01

 Standard Electronic Orientation quadrupole field applied
 Nucleus-field energy     =     0.0000000063 hartrees
 Guess from superposition of atomic densities
 Warning:  Energy on first SCF cycle will be non-variational
 SAD guess density has 30.625312 electrons

 -----------------------------------------------------------------------
  General SCF calculation program by
  Eric Jon Sundstrom, Paul Horn, Yuezhi Mao, Dmitri Zuev, Alec White,
  David Stuck, Shaama M.S., Shane Yost, Joonho Lee, David Small,
  Daniel Levine, Susi Lehtola, Hugh Burton, Evgeny Epifanovsky
 -----------------------------------------------------------------------
 Exchange:     0.1670 Hartree-Fock + 1.0000 wB97X-V + LR-HF
 Correlation:  1.0000 wB97X-V
 Using Euler-Maclaurin-Lebedev (99,590) quadrature formula
 Nonlocal Correlation:  VV10 with C = 0.0100 and b = 6.00 and scale = 1.00000
 Grid used for NLC:  SG-1 standard quadrature
Energy prior to optimization (guess energy) = -227.761039264637
Begin Timing: Total SCF Calculation
begin iterations for algorithm: DIIS         
the SCF tolerance is set to 1.00e-08
    1    -227.7610392646      1.66e-02     00000 
    2    -225.5811868906      2.55e-02     00000 
    3    -228.5768472942      4.14e-03     00000 
    4    -228.6358250326      1.41e-03     00000 
    5    -228.6420707981      3.16e-04     00000 
    6    -228.6423333502      2.43e-04     00000 
    7    -228.6424974016      4.67e-05     00000 
    8    -228.6425077214      1.39e-05     00000 
    9    -228.6425090224      2.87e-06     00000 
   10    -228.6425091250      4.05e-07     00000 
   11    -228.6425091278      1.63e-07     00000 
   12    -228.6425091281      5.58e-08     00000 
   13    -228.6425091281      1.91e-08     00000 
   14    -228.6425091281      2.85e-09     00000 Convergence criterion met
Timing for Total SCF: 290.00s (wall), 571.20s (cpu)

************** Final PCM Free Energy Summary **************
 G_electrostatic  =      -0.10191646 hartree =     -63.95354225 kcal/mol
 G_cavitation     =       0.00000000 hartree =       0.00000000 kcal/mol
 G_dispersion     =       0.00000000 hartree =       0.00000000 kcal/mol
 G_repulsion      =       0.00000000 hartree =       0.00000000 kcal/mol
 --------------------------------------------------
 Non-electrostatic Free Energy =       0.00000000 hartree =       0.00000000 kcal/mol
 Total                         =      -0.10191646 hartree =     -63.95354225 kcal/mol
 --------------------------------------------------
 SCF Energy (H0 + V/2)                       =    -228.64250913 
 Solute Internal Energy (H0)                 =    -228.54059267 
 Total Free Energy (H0 + V/2 + non-elec)     =    -228.64250913 hartree
                                             = -143475.33995108 kcal/mol
***********************************************************

E_pcm = -0.1019164574
Multipole orders to be included
        2
        3
computing dipole RHS
computing quadrupole RHS
total number of RHS in solve_reponses: 8
RHS batch sizes
        8
Beginning Block Conjugate Gradient Iterations. Batch Number: 0
computing hessian-vector products by finite difference
              1      7.29e-01     00000 Conjugate Gradient Iteration
computing hessian-vector products by finite difference
              2      2.61e-01     00000 Conjugate Gradient Iteration
computing hessian-vector products by finite difference
              3      7.02e-02     00000 Conjugate Gradient Iteration
computing hessian-vector products by finite difference
              4      1.90e-02     00000 Conjugate Gradient Iteration
computing hessian-vector products by finite difference
              5      3.36e-03     00000 Conjugate Gradient Iteration
computing hessian-vector products by finite difference
              6      8.10e-04     00000 Conjugate Gradient Iteration
computing hessian-vector products by finite difference
              7      1.33e-04     00000 Conjugate Gradient Iteration
computing hessian-vector products by finite difference
              8      1.63e-05     00000 Conjugate Gradient Iteration
computing hessian-vector products by finite difference
              9      2.56e-06     00000 Conjugate Gradient Iteration
computing hessian-vector products by finite difference
             10      2.90e-07     00000 Conjugate Gradient Iteration
computing hessian-vector products by finite difference
             11      7.94e-08     00000 Conjugate Gradient Iteration
computing hessian-vector products by finite difference
             12      1.43e-08     00000 Conjugate Gradient Iteration
computing hessian-vector products by finite difference
             13      1.77e-09     00000 CG Converged
batch 0 complete
Done Calculating Responses
TESTING ORTHOGONALIZATION OF MULTIPOLE BASIS
Multipole virts passed orthogonality test
Virts Per Order
        48
        80
 
 --------------------------------------------------------------
 
                    Orbital Energies (a.u.)
 --------------------------------------------------------------
 
 Alpha MOs
 -- Occupied --
-19.1217 -19.1217 -10.3253 -10.2401  -1.1313  -1.0304  -0.8290  -0.5924
 -0.5290  -0.5187  -0.5142  -0.4623  -0.4433  -0.3288  -0.3263  -0.3081
 -- Virtual --
  0.0632   0.0955   0.0957   0.1052   0.1303   0.1408   0.1426   0.1456
  0.1681   0.1898   0.1992   0.2210   0.2315   0.2370   0.2634   0.2695
  0.2983   0.3119   0.3340   0.3467   0.3574   0.3606   0.3735   0.3814
  0.3904   0.4068   0.4258   0.4278   0.4325   0.4594   0.4729   0.4770
  0.4936   0.4974   0.5053   0.5210   0.5612   0.5811   0.5950   0.6111
  0.6241   0.6458   0.6473   0.6563   0.6705   0.6820   0.7000   0.7096
  0.7238   0.7353   0.7799   0.8011   0.8097   0.8194   0.8499   0.8558
  0.8656   0.9802   0.9913   0.9984   1.0076   1.0479   1.0638   1.1213
  1.1611   1.2270   1.2574   1.2807   1.2865   1.3141   1.3530   1.3704
  1.4464   1.5652   1.6070   1.7397   1.8262   1.8697   1.8764   1.9230
  1.9331   1.9518   1.9633   1.9750   2.0152   2.1127   2.1338   2.1902
  2.2036   2.2252   2.3154   2.3520   2.4188   2.4562   2.4844   2.5004
  2.5795   2.5860   2.6304   2.6513   2.7944   2.8119   2.8796   2.9138
  2.9496   3.0228   3.0597   3.1716   3.2187   3.2449   3.2859   3.3081
  3.3452   3.3555   3.3987   3.4135   3.4239   3.5365   3.5840   3.5999
  3.6114   3.6726   3.7054   3.7326   3.7688   3.8651   3.9592   4.0594
  4.0918   4.2052   4.3407   4.5408   4.6391   4.6665   4.8125   4.8388
  4.9923   5.3332   5.3601   5.3690   5.3769   5.5008   5.7127   5.7732
  5.8188   6.0239   6.2372   6.3386   6.3558   6.6187   6.6318   6.7225
  6.7478   6.7614   6.9529   6.9813   7.0445   7.2486   7.3501   7.3867
  7.4156  22.5877  23.7228  44.2210  44.3567
 --------------------------------------------------------------
 
          Ground-State Mulliken Net Atomic Charges

     Atom                 Charge (a.u.)
  ----------------------------------------
      1 C                    -0.406421
      2 C                     0.292089
      3 O                    -0.675876
      4 O                    -0.677310
      5 H                     0.157338
      6 H                     0.133489
      7 H                     0.176690
  ----------------------------------------
  Sum of atomic charges =    -1.000000

 -----------------------------------------------------------------
                    Cartesian Multipole Moments
 -----------------------------------------------------------------
    Charge (ESU x 10^10)
                -4.8032
    Dipole Moment (Debye)
         X      -4.2951      Y       3.9718      Z      -2.3476
       Tot       6.3035
    Quadrupole Moments (Debye-Ang)
        XX     -29.4055     XY       3.7464     YY     -29.0778
        XZ      -0.7971     YZ       0.1627     ZZ     -36.9142
    Octopole Moments (Debye-Ang^2)
       XXX    -131.3954    XXY      45.5505    XYY     -47.1233
       YYY     125.4433    XXZ     -17.8090    XYZ      -1.5069
       YYZ     -17.0587    XZZ     -54.8545    YZZ      50.9482
       ZZZ     -73.7589
    Hexadecapole Moments (Debye-Ang^3)
      XXXX    -537.1475   XXXY     251.8041   XXYY    -184.1235
      XYYY     248.3928   YYYY    -499.3811   XXXZ     -96.9115
      XXYZ      28.7692   XYYZ     -31.1223   YYYZ      91.0057
      XXZZ    -141.7342   XYZZ      91.4342   YYZZ    -130.0267
      XZZZ    -116.7488   YZZZ     105.5940   ZZZZ    -253.5672
 -----------------------------------------------------------------
Archival summary:
1\1\nid00535\SP\ProcedureUnspecified\BasisUnspecified\223(1-,1)\meili\SunSep2610:56:362021SunSep2610:56:362021\0\\#,ProcedureUnspecified,BasisUnspecified,\\-1,1\C\O,1,1.25145\O,1,1.25447,2,122.707\C,1,1.52235,2,119.186,3,-178.767,0\H,4,1.09084,1,108.652,2,-166.325,0\H,4,1.09212,1,108.433,2,76.5049,0\H,4,1.1,1,113.523,2,-44.6877,0\\\@

 Total job time:  4940.68s(wall), 9710.01s(cpu) 
 Sun Sep 26 10:56:40 2021

        *************************************************************
        *                                                           *
        *  Thank you very much for using Q-Chem.  Have a nice day.  *
        *                                                           *
        *************************************************************


Done Job For Fragment 1
calling putenv with: QCSCRATCH=/global/cscratch1/sd/meili 
calling putenv with: QCLOCALSCR=/tmp 
calling putenv with: QCTHREADS=32 
Doing General SCFMI
 Exchange:     0.1670 Hartree-Fock + 1.0000 wB97X-V + LR-HF
 Correlation:  1.0000 wB97X-V
 Using Euler-Maclaurin-Lebedev (99,590) quadrature formula
 Nonlocal Correlation:  VV10 with C = 0.0100 and b = 6.00 and scale = 1.00000
 Grid used for NLC:  SG-1 standard quadrature
performing fock build before subrot guess so that all methods have access
Printing subrot_rss_gen Method Specification:
Occupied Subspace Method is 0
Virtual Subspace Method is 0
Energy of the unrelaxed supersystem initial determinant -473.794300229670
performing fock build before subrot guess so that all methods have access
Printing subrot_rss_gen Method Specification:
Occupied Subspace Method is 0
Virtual Subspace Method is 0
Energy of the unrelaxed supersystem initial determinant w/ solvent -473.836025513377
write pseudocanon occs and virts to disk
write pseudocanon orbital energies to disk
Tolerance of ortho_decomp_scf: 1.00e-06
GDM subspace size: 20
Beginning the Orthogonal Decomposition of the Initial Supersystem Wavefunction
    1    -473.5093091028      1.23e-01     ortho_decomp Preconditoned Steepest Descent
    2    -473.5348825666      3.69e-03     ortho_decomp BFGS Step
    3    -473.5350017055      3.21e-04     ortho_decomp BFGS Step
    4    -473.5350019429      1.48e-05     ortho_decomp BFGS Step
    5    -473.5350019437      5.71e-07     ortho_decomp 00000 Convergence criterion met
 Hartree-Fock
 Hartree-Fock
 Hartree-Fock
Doing General SCFMI
 Exchange:     0.1670 Hartree-Fock + 1.0000 wB97X-V + LR-HF
 Correlation:  1.0000 wB97X-V
 Using Euler-Maclaurin-Lebedev (99,590) quadrature formula
 Nonlocal Correlation:  VV10 with C = 0.0100 and b = 6.00 and scale = 1.00000
 Grid used for NLC:  SG-1 standard quadrature
performing fock build at end of subrot_r(subrot) constructor so that all methods have access
<S^2> of initial wavefunction before polarization iterations 0.0000000000
Beginning iterations for the determination of the polarized wavefunction
Energy prior to optimization (guess energy) = -473.836025513377
Begin Timing: Total SCF Calculation
begin iterations for algorithm: DIIS         
the SCF tolerance is set to 1.00e-08
    1    -473.8360255134      4.09e-04     00000 
    2    -473.8448825719      1.40e-04     00000 
    3    -473.8457501943      8.54e-05     00000 
    4    -473.8459911381      2.74e-05     00000 
    5    -473.8460288323      1.10e-05     00000 
    6    -473.8460366488      5.05e-06     00000 
    7    -473.8460380859      2.10e-06     00000 
    8    -473.8460383151      1.04e-06     00000 
    9    -473.8460383568      2.65e-07     00000 
   10    -473.8460383593      1.82e-07     00000 
   11    -473.8460383603      4.88e-08     00000 
   12    -473.8460383604      2.53e-08     00000 
   13    -473.8460383604      8.98e-09     00000 Convergence criterion met
write pseudocanon occs and virts to disk
write pseudocanon orbital energies to disk
Timing for Total SCF: 3070.00s (wall), 6096.13s (cpu)
<S^2> of polarized wavefunction after polarization iterations 0.0000000000
relaxing scfmi constraint to allow all rotations in the entire AO span
Doing General SCFMI
 Exchange:     0.1670 Hartree-Fock + 1.0000 wB97X-V + LR-HF
 Correlation:  1.0000 wB97X-V
 Using Euler-Maclaurin-Lebedev (99,590) quadrature formula
 Nonlocal Correlation:  VV10 with C = 0.0100 and b = 6.00 and scale = 1.00000
 Grid used for NLC:  SG-1 standard quadrature
performing fock build at end of subrot_r(subrot) constructor so that all methods have access
<S^2> of polarized wavefunction before ct-allowed iterations 0.0000000000
Beginning iterations for the determination of the CT-Allowed wavefunction
Energy prior to optimization (guess energy) = -473.846038360378
Begin Timing: Total SCF Calculation
begin iterations for algorithm: DIIS         
the SCF tolerance is set to 1.00e-08
    1    -473.8460383604      3.33e-04     00000 
    2    -473.8593220710      5.98e-05     00000 
    3    -473.8599314862      3.12e-05     00000 
    4    -473.8599993191      1.16e-05     00000 
    5    -473.8600126634      3.50e-06     00000 
    6    -473.8600138545      1.10e-06     00000 
    7    -473.8600140024      6.37e-07     00000 
    8    -473.8600140395      1.14e-07     00000 
    9    -473.8600140416      4.71e-08     00000 
   10    -473.8600140420      1.57e-08     00000 
   11    -473.8600140421      5.10e-09     00000 Convergence criterion met
write pseudocanon occs and virts to disk
write pseudocanon orbital energies to disk
Timing for Total SCF: 2577.00s (wall), 5098.05s (cpu)
<S^2> of ct_allowed wavefunction after ct-allowed iterations 0.0000000000

================================
        Results of EDA2         
================================
Basic EDA Quantities
--------------------
Fragment Energies (Ha):
1 -245.1809491136
2 -228.6425091281
--------------------
  E_prp (kJ/mol) = 0.0000
  E_sol (kJ/mol) = 371.8279
  E_frz (kJ/mol) = -404.8236
  E_pol (kJ/mol) = -26.2890
  E_vct (kJ/mol) = -36.6936
  E_int (kJ/mol) = -95.9784
--------------------


Initial Wavefunction Decomposition
--------------------
  --------------------
  Orthogonal Fragment Subspace Decomposition:
  --------------------
     E_elec   (ELEC)   (kJ/mol) = -606.9669
     E_pauli  (PAULI)  (kJ/mol) = 229.4019
     E_disp   (DISP)   (kJ/mol) = -27.2586
     --------------------
     Terms summing to E_pauli:
     --------------------
        E_kep_pauli       (kJ/mol) = 275.9721
        E_disp_free_pauli (kJ/mol) = -46.5702
  --------------------
  Classical Frozen Decomposition:
  --------------------
     E_cls_elec  (CLS ELEC)  (kJ/mol) = -529.2280
     E_cls_pauli (CLS PAULI) (kJ/mol) = 124.4044
    [E_mod_pauli (MOD PAULI) (kJ/mol) = 151.6630 (CLS PAULI - DISP from orthogonal decomposition) ]
  --------------------
--------------------

Simplified EDA Summary (kJ/mol)
--------------------
 PREPARATION     0.0000
 SOLVATION       371.8279
 FROZEN          -377.5651      (does not include dispersion)
[PAULI           229.4019]     (if this is negligible, then frozen describes electrostatics)
 DISPERSION      -27.2586
 POLARIZATION    -26.2890
 CHARGE TRANSFER -36.6936
 TOTAL           -95.9784     (PRP + SOL + FRZ + DISP + POL + CT)
--------------------
 
 --------------------------------------------------------------
 
                    Orbital Energies (a.u.)
 --------------------------------------------------------------
 
 Alpha MOs
 -- Occupied --
-19.1493 -19.1480 -14.4581 -14.4474 -14.4335 -10.4216 -10.3501 -10.3174
-10.2507  -1.1740  -1.1604  -1.0615  -1.0534  -1.0410  -0.8589  -0.8427
 -0.7695  -0.7219  -0.6922  -0.6354  -0.6207  -0.5995  -0.5935  -0.5738
 -0.5449  -0.5407  -0.5352  -0.5324  -0.5158  -0.4797  -0.4623  -0.4030
 -0.3760  -0.3558  -0.3520  -0.3384
 -- Virtual --
  0.0520   0.0720   0.0774   0.0896   0.0980   0.1016   0.1092   0.1163
  0.1232   0.1314   0.1360   0.1431   0.1457   0.1521   0.1607   0.1659
  0.1745   0.1816   0.1905   0.1987   0.2046   0.2095   0.2183   0.2244
  0.2377   0.2397   0.2454   0.2544   0.2569   0.2608   0.2640   0.2722
  0.2759   0.2804   0.2922   0.2995   0.3027   0.3103   0.3114   0.3185
  0.3246   0.3265   0.3292   0.3366   0.3406   0.3444   0.3458   0.3547
  0.3572   0.3642   0.3688   0.3711   0.3734   0.3794   0.3862   0.3892
  0.3976   0.4018   0.4045   0.4125   0.4195   0.4210   0.4336   0.4429
  0.4487   0.4512   0.4537   0.4593   0.4691   0.4728   0.4765   0.4832
  0.4849   0.4902   0.4983   0.5011   0.5032   0.5100   0.5159   0.5244
  0.5318   0.5347   0.5463   0.5528   0.5548   0.5610   0.5658   0.5697
  0.5767   0.5843   0.5914   0.5980   0.6050   0.6113   0.6195   0.6242
  0.6417   0.6428   0.6476   0.6561   0.6611   0.6711   0.6751   0.6863
  0.6935   0.7043   0.7083   0.7152   0.7222   0.7278   0.7336   0.7490
  0.7506   0.7636   0.7683   0.7720   0.7871   0.7997   0.8039   0.8063
  0.8095   0.8164   0.8200   0.8239   0.8283   0.8377   0.8459   0.8648
  0.8738   0.8825   0.8872   0.8889   0.8987   0.9160   0.9207   0.9344
  0.9398   0.9430   0.9670   0.9778   0.9898   0.9983   1.0123   1.0320
  1.0479   1.0519   1.0686   1.0837   1.0859   1.1026   1.1112   1.1196
  1.1319   1.1378   1.1467   1.1600   1.1712   1.1834   1.1986   1.2210
  1.2292   1.2446   1.2500   1.2764   1.2815   1.3002   1.3193   1.3240
  1.3415   1.3449   1.3567   1.3852   1.3976   1.4097   1.4290   1.4491
  1.4764   1.4918   1.5010   1.5311   1.5418   1.6082   1.6458   1.6491
  1.6688   1.6955   1.7130   1.7240   1.7486   1.7563   1.7643   1.8408
  1.8590   1.8715   1.8869   1.8998   1.9009   1.9117   1.9221   1.9273
  1.9355   1.9475   1.9564   1.9645   1.9783   1.9956   2.0000   2.0328
  2.0388   2.0540   2.0612   2.0965   2.1110   2.1177   2.1296   2.1496
  2.1764   2.2085   2.2169   2.2259   2.2438   2.2627   2.2783   2.2865
  2.3070   2.3353   2.3476   2.3743   2.3912   2.4094   2.4322   2.4440
  2.4675   2.4832   2.5039   2.5111   2.5254   2.5571   2.5642   2.5876
  2.5947   2.6067   2.6313   2.6484   2.6515   2.6725   2.6897   2.7028
  2.7198   2.7270   2.7397   2.7675   2.7870   2.8116   2.8328   2.8692
  2.8859   2.9004   2.9040   2.9165   2.9364   2.9707   2.9936   2.9989
  3.0123   3.0386   3.0834   3.1020   3.1444   3.1660   3.1818   3.1972
  3.2110   3.2254   3.2478   3.2590   3.2696   3.2794   3.3023   3.3120
  3.3199   3.3280   3.3358   3.3483   3.3723   3.3916   3.3992   3.4164
  3.4283   3.4377   3.4469   3.4477   3.4723   3.5054   3.5227   3.5449
  3.5531   3.5882   3.5957   3.6189   3.6313   3.6513   3.6632   3.6736
  3.7152   3.7292   3.7645   3.7702   3.7869   3.8209   3.8691   3.8828
  3.9564   3.9661   4.0267   4.0697   4.0888   4.1055   4.1547   4.1884
  4.2087   4.2307   4.2902   4.3340   4.3507   4.3685   4.4097   4.4435
  4.5056   4.5466   4.5810   4.6243   4.6469   4.6732   4.6765   4.8396
  4.8540   4.8596   4.8837   4.9058   4.9757   5.0069   5.0336   5.0488
  5.0765   5.1256   5.1539   5.1611   5.1996   5.2021   5.2335   5.2993
  5.3252   5.3463   5.3826   5.3918   5.3960   5.4097   5.4272   5.4690
  5.4832   5.4916   5.5332   5.5412   5.5897   5.7144   5.7233   5.7382
  5.7519   5.7985   5.8215   5.8345   5.9191   6.0259   6.1552   6.2211
  6.2427   6.3220   6.3690   6.4012   6.5019   6.6311   6.6707   6.7389
  6.7544   6.8703   6.9785   7.0102   7.0362   7.2704   7.3601   7.4418
  7.4672  22.6071  22.6778  23.7054  23.7446  32.3884  32.5507  32.9778
 44.2836  44.4045
 --------------------------------------------------------------
 
          Ground-State Mulliken Net Atomic Charges

     Atom                 Charge (a.u.)
  ----------------------------------------
      1 C                    -0.885355
      2 C                     0.445412
      3 N                    -0.103861
      4 N                     0.156877
      5 N                    -0.238203
      6 H                     0.133891
      7 H                     0.210847
      8 H                     0.172421
      9 H                     0.178650
     10 H                     0.195341
     11 H                     0.247954
     12 H                     0.329945
     13 H                     0.279924
     14 C                    -0.736671
     15 C                     0.579912
     16 O                    -0.778206
     17 O                    -0.777295
     18 H                     0.207466
     19 H                     0.169123
     20 H                     0.211828
  ----------------------------------------
  Sum of atomic charges =     0.000000

 -----------------------------------------------------------------
                    Cartesian Multipole Moments
 -----------------------------------------------------------------
    Charge (ESU x 10^10)
                 0.0000
    Dipole Moment (Debye)
         X      -9.1580      Y       7.5486      Z      -2.9763
       Tot      12.2356
    Quadrupole Moments (Debye-Ang)
        XX     -40.4146     XY     -10.3691     YY     -49.6566
        XZ      -1.5724     YZ      -4.6904     ZZ     -52.6410
    Octopole Moments (Debye-Ang^2)
       XXX     -56.8400    XXY      39.5738    XYY     -27.6950
       YYY      19.8020    XXZ       6.8312    XYZ      -0.1113
       YYZ      -5.5459    XZZ     -29.6415    YZZ      26.2371
       ZZZ     -23.0721
    Hexadecapole Moments (Debye-Ang^3)
      XXXX    -798.5740   XXXY     286.2922   XXYY    -224.2232
      XYYY     346.5668   YYYY    -811.0770   XXXZ    -139.9274
      XXYZ      53.7985   XYYZ     -26.5048   YYYZ     162.7385
      XXZZ    -235.3406   XYZZ     117.8078   YYZZ    -227.0502
      XZZZ    -148.3690   YZZZ     173.9971   ZZZZ    -584.9321
 -----------------------------------------------------------------
Archival summary:
1\1\nid00535\SP\ProcedureUnspecified\BasisUnspecified\23411\meili\SunSep2613:32:562021SunSep2613:32:562021\0\\#,ProcedureUnspecified,BasisUnspecified,\\0,1\N\H,1,1.02185\C,1,1.32457,2,116.981\N,3,1.31789,1,120.003,2,7.46504,0\H,4,1.00638,3,121.562,1,-175.185,0\H,4,1.02992,3,118.26,1,0.297128,0\N,3,1.32003,1,120.554,2,-173.691,0\H,7,1.00542,3,122.4,1,-179.587,0\H,7,1.01817,3,119.505,1,7.50233,0\C,1,1.46825,2,118.279,3,-175.245,0\H,10,1.09115,1,109.2,2,-143.096,0\H,10,1.09205,1,109.511,2,-26.3474,0\H,10,1.1,1,113.412,2,96.1099,0\O,6,1.73888,4,175.877,3,146.235,0\C,14,1.25447,6,116.693,4,-171.861,0\O,15,1.25145,14,122.707,6,12.9903,0\C,15,1.52235,14,118.096,6,-168.23,0\H,17,1.09084,15,108.652,14,14.8505,0\H,17,1.09212,15,108.433,14,-102.319,0\H,17,1.1,15,113.523,14,136.488,0\\\@

 Total job time:  27662.12s(wall), 18631.63s(cpu) 
 Sun Sep 26 13:33:00 2021

        *************************************************************
        *                                                           *
        *  Thank you very much for using Q-Chem.  Have a nice day.  *
        *                                                           *
        *************************************************************


