                  Welcome to Q-Chem
     A Quantum Leap Into The Future Of Chemistry


 Q-Chem 5.2 (devel), Q-Chem, Inc., Pleasanton, CA (2019)

 Yihan Shao,  Zhengting Gan,  E. Epifanovsky,  A. T. B. Gilbert,  M. Wormit,  
 J. Kussmann,  A. W. Lange,  A. Behn,  Jia Deng,  Xintian Feng,  D. Ghosh,  
 M. Goldey,  P. R. Horn,  L. D. Jacobson,  I. Kaliman,  T. Kus,  A. Landau,  
 Jie Liu,  E. I. Proynov,  R. M. Richard,  R. P. Steele,  E. J. Sundstrom,  
 H. L. Woodcock III,  P. M. Zimmerman,  D. Zuev,  B. Albrecht,  E. Alguire,  
 S. A. Baeppler,  D. Barton,  Z. Benda,  Y. A. Bernard,  E. J. Berquist,  
 K. B. Bravaya,  H. Burton,  D. Casanova,  Chun-Min Chang,  Yunqing Chen,  
 A. Chien,  K. D. Closser,  M. P. Coons,  S. Coriani,  S. Dasgupta,  
 A. L. Dempwolff,  M. Diedenhofen,  Hainam Do,  R. G. Edgar,  Po-Tung Fang,  
 S. Faraji,  S. Fatehi,  Qingguo Feng,  K. D. Fenk,  J. Fosso-Tande,  
 J. Gayvert,  Qinghui Ge,  A. Ghysels,  G. Gidofalvi,  J. Gomes,  
 J. Gonthier,  A. Gunina,  D. Hait,  M. W. D. Hanson-Heine,  
 P. H. P. Harbach,  A. W. Hauser,  M. F. Herbst,  J. E. Herr,  
 E. G. Hohenstein,  Z. C. Holden,  Kerwin Hui,  B. C. Huynh,  T.-C. Jagau,  
 Hyunjun Ji,  B. Kaduk,  K. Khistyaev,  Jaehoon Kim,  P. Klunzinger,  K. Koh,  
 D. Kosenkov,  L. Koulias,  T. Kowalczyk,  C. M. Krauter,  A. Kunitsa,  
 Ka Un Lao,  A. Laurent,  K. V. Lawler,  Joonho Lee,  D. Lefrancois,  
 S. Lehtola,  D. S. Levine,  Yi-Pei Li,  You-Sheng Lin,  Fenglai Liu,  
 E. Livshits,  A. Luenser,  P. Manohar,  E. Mansoor,  S. F. Manzer,  
 Shan-Ping Mao,  Yuezhi Mao,  N. Mardirossian,  A. V. Marenich,  
 T. Markovich,  L. A. Martinez-Martinez,  S. A. Maurer,  N. J. Mayhall,  
 S. C. McKenzie,  J.-M. Mewes,  P. Morgante,  A. F. Morrison,  
 J. W. Mullinax,  K. Nanda,  T. S. Nguyen-Beck,  R. Olivares-Amaya,  
 J. A. Parkhill,  Zheng Pei,  T. M. Perrine,  F. Plasser,  P. Pokhilko,  
 S. Prager,  A. Prociuk,  E. Ramos,  D. R. Rehn,  F. Rob,  M. Scheurer,  
 M. Schneider,  N. Sergueev,  S. M. Sharada,  S. Sharma,  D. W. Small,  
 T. Stauch,  T. Stein,  Yu-Chuan Su,  A. J. W. Thom,  A. Tkatchenko,  
 T. Tsuchimochi,  N. M. Tubman,  L. Vogt,  M. L. Vidal,  O. Vydrov,  
 M. A. Watson,  J. Wenzel,  M. de Wergifosse,  T. A. Wesolowski,  A. White,  
 J. Witte,  A. Yamada,  Jun Yang,  K. Yao,  S. Yeganeh,  S. R. Yost,  
 Zhi-Qiang You,  A. Zech,  Igor Ying Zhang,  Xing Zhang,  Yan Zhao,  
 Ying Zhu,  B. R. Brooks,  G. K. L. Chan,  C. J. Cramer,  M. S. Gordon,  
 W. J. Hehre,  A. Klamt,  M. W. Schmidt,  C. D. Sherrill,  D. G. Truhlar,  
 A. Aspuru-Guzik,  R. Baer,  A. T. Bell,  N. A. Besley,  Jeng-Da Chai,  
 A. E. DePrince, III,  R. A. DiStasio Jr.,  A. Dreuw,  B. D. Dunietz,  
 T. R. Furlani,  Chao-Ping Hsu,  Yousung Jung,  Jing Kong,  D. S. Lambrecht,  
 WanZhen Liang,  C. Ochsenfeld,  V. A. Rassolov,  L. V. Slipchenko,  
 J. E. Subotnik,  T. Van Voorhis,  J. M. Herbert,  A. I. Krylov,  
 P. M. W. Gill,  M. Head-Gordon

 Contributors to earlier versions of Q-Chem not listed above: 
 R. D. Adamson,  B. Austin,  J. Baker,  G. J. O. Beran,  K. Brandhorst,  
 S. T. Brown,  E. F. C. Byrd,  A. K. Chakraborty,  C.-L. Cheng,  
 Siu Hung Chien,  D. M. Chipman,  D. L. Crittenden,  H. Dachsel,  
 R. J. Doerksen,  A. D. Dutoi,  L. Fusti-Molnar,  W. A. Goddard III,  
 A. Golubeva-Zadorozhnaya,  S. R. Gwaltney,  G. Hawkins,  A. Heyden,  
 S. Hirata,  G. Kedziora,  F. J. Keil,  C. Kelley,  Jihan Kim,  R. A. King,  
 R. Z. Khaliullin,  P. P. Korambath,  W. Kurlancheek,  A. M. Lee,  M. S. Lee,  
 S. V. Levchenko,  Ching Yeh Lin,  D. Liotard,  R. C. Lochan,  I. Lotan,  
 P. E. Maslen,  N. Nair,  D. P. O'Neill,  D. Neuhauser,  E. Neuscamman,  
 C. M. Oana,  R. Olson,  B. Peters,  R. Peverati,  P. A. Pieniazek,  
 Y. M. Rhee,  J. Ritchie,  M. A. Rohrdanz,  E. Rosta,  N. J. Russ,  
 H. F. Schaefer III,  N. E. Schultz,  N. Shenvi,  A. C. Simmonett,  A. Sodt,  
 D. Stuck,  K. S. Thanthiriwatte,  V. Vanovschi,  Tao Wang,  A. Warshel,  
 C. F. Williams,  Q. Wu,  X. Xu,  W. Zhang

 Please cite Q-Chem as follows:
 Y. Shao et al., Mol. Phys. 113, 184-215 (2015)
 DOI: 10.1080/00268976.2014.952696

 Q-Chem 5.2.1 for Intel X86 EM64T Linux

 Parts of Q-Chem use Armadillo 8.300.2 (Tropical Shenanigans).
 http://arma.sourceforge.net/

 Q-Chem begins on Wed Sep 29 11:41:45 2021  

compute-0-1.local
Host: 0

     Scratch files written to /home/meili/scratch/qchem39733//
NAlpha2: 128
NElect   128
Mult     1
Symmetry turned off for PCM/SM12/SMD calculation

 Q-Chem warning in module libgen/rem_setup.C, line 2813:

 Neither GIA nor STOLL is specified by user. Use STOLL as the default


Checking the input file for inconsistencies... 	...done.

--------------------------------------------------------------
User input:
--------------------------------------------------------------
$comment
SSI-062TRP-164PHE-1.pdb
$end

$molecule
0 1
--
0 1
C    0.159436079825    1.297019277619   -2.167150632275
C    0.021436079825    1.180019277619   -3.690150632275
C    0.975436079825    0.224019277619   -1.493150632275
C    2.270436079825    0.307019277619   -1.074150632275
C    0.523436079825   -1.090980722381   -1.123150632275
C    1.604436079825   -1.751980722381   -0.481150632275
C   -0.690563920175   -1.770980722381   -1.259150632275
C    1.503436079825   -3.046980722381    0.006849367725
C   -0.793563920175   -3.074980722381   -0.774150632275
C    0.293436079825   -3.702980722381   -0.151150632275
N    2.649436079825   -0.866980722381   -0.464150632275
H    0.574436079825    2.274019277619   -1.914150632275
H   -0.838563920175    1.255019277619   -1.728150632275
H   -0.158563920175    0.134019277619   -3.917150632275
H    2.901436079825    1.183019277619   -1.190150632275
H    3.558436079825   -1.023980722381   -0.043150632275
H   -1.530563920175   -1.289980722381   -1.738150632275
H    2.341436079825   -3.523980722381    0.494849367725
H   -1.730563920175   -3.602980722381   -0.877150632275
H    0.185436079825   -4.715980722381    0.215849367725
H    0.943536079825    1.526849277619   -4.179480632275
H   -0.843553920175    1.773029277619   -4.022010632275
--
0 1
C    1.011436079825    2.651019277619    1.764849367725
C   -0.567563920175    0.713019277619    1.535849367725
C   -0.365563920175    2.060019277619    1.811849367725
C   -1.843563920175    0.166019277619    1.583849367725
C   -1.450563920175    2.846019277619    2.188849367725
C   -2.926563920175    0.959019277619    1.946849367725
C   -2.729563920175    2.296019277619    2.259849367725
H    0.272436079825    0.085019277619    1.283849367725
H   -1.989563920175   -0.879980722381    1.349849367725
H    0.941436079825    3.656019277619    1.347849367725
H    1.633436079825    2.063019277619    1.089849367725
H   -1.304563920175    3.890019277619    2.428849367725
H   -3.920563920175    0.533019277619    1.993849367725
H   -3.566563920175    2.911019277619    2.558849367725
H    1.493946079825    2.699269277619    2.752199367725
$end

$rem
JOBTYPE			EDA
EDA2			1
method			wB97X-V
BASIS			def2-TZVPD
XC_GRID			000099000590
NL_GRID			1
UNRESTRICTED		FALSE
MAX_SCF_CYCLES		200
SYMMETRY		FALSE
SYM_IGNORE		TRUE
MEM_STATIC		2000
BASIS_LIN_DEP_THRESH 	6
THRESH 			14
SCF_CONVERGENCE 	8
SCF_PRINT_FRGM 		TRUE
SOLVENT_METHOD          SMD
$end

$SMX
SOLVENT			WATER
$END
--------------------------------------------------------------
 ----------------------------------------------------------------
             Standard Nuclear Orientation (Angstroms)
    I     Atom           X                Y                Z
 ----------------------------------------------------------------
    1      C       0.1594360798     1.2970192776    -2.1671506323
    2      C       0.0214360798     1.1800192776    -3.6901506323
    3      C       0.9754360798     0.2240192776    -1.4931506323
    4      C       2.2704360798     0.3070192776    -1.0741506323
    5      C       0.5234360798    -1.0909807224    -1.1231506323
    6      C       1.6044360798    -1.7519807224    -0.4811506323
    7      C      -0.6905639202    -1.7709807224    -1.2591506323
    8      C       1.5034360798    -3.0469807224     0.0068493677
    9      C      -0.7935639202    -3.0749807224    -0.7741506323
   10      C       0.2934360798    -3.7029807224    -0.1511506323
   11      N       2.6494360798    -0.8669807224    -0.4641506323
   12      H       0.5744360798     2.2740192776    -1.9141506323
   13      H      -0.8385639202     1.2550192776    -1.7281506323
   14      H      -0.1585639202     0.1340192776    -3.9171506323
   15      H       2.9014360798     1.1830192776    -1.1901506323
   16      H       3.5584360798    -1.0239807224    -0.0431506323
   17      H      -1.5305639202    -1.2899807224    -1.7381506323
   18      H       2.3414360798    -3.5239807224     0.4948493677
   19      H      -1.7305639202    -3.6029807224    -0.8771506323
   20      H       0.1854360798    -4.7159807224     0.2158493677
   21      H       0.9435360798     1.5268492776    -4.1794806323
   22      H      -0.8435539202     1.7730292776    -4.0220106323
   23      C       1.0114360798     2.6510192776     1.7648493677
   24      C      -0.5675639202     0.7130192776     1.5358493677
   25      C      -0.3655639202     2.0600192776     1.8118493677
   26      C      -1.8435639202     0.1660192776     1.5838493677
   27      C      -1.4505639202     2.8460192776     2.1888493677
   28      C      -2.9265639202     0.9590192776     1.9468493677
   29      C      -2.7295639202     2.2960192776     2.2598493677
   30      H       0.2724360798     0.0850192776     1.2838493677
   31      H      -1.9895639202    -0.8799807224     1.3498493677
   32      H       0.9414360798     3.6560192776     1.3478493677
   33      H       1.6334360798     2.0630192776     1.0898493677
   34      H      -1.3045639202     3.8900192776     2.4288493677
   35      H      -3.9205639202     0.5330192776     1.9938493677
   36      H      -3.5665639202     2.9110192776     2.5588493677
   37      H       1.4939460798     2.6992692776     2.7521993677
 ----------------------------------------------------------------
 Nuclear Repulsion Energy =        1243.87252093 hartrees
 There are       64 alpha and       64 beta electrons
 Requested basis set is def2-TZVPD
 There are 329 shells and 837 basis functions

 Total QAlloc Memory Limit   2000 MB
 Mega-Array Size      1956 MB
 MEM_STATIC part      2000 MB

 Citation of the SMD model:
 Marenich, A.V.; Cramer, C.J.; Truhlar, D.G.
 J. Phys. Chem. B 2009, 113, 6378-6396.
 iSolventCode=           1
 Solvent: water                                                           

 vradii
            1           2           3           4           5           6
    1   1.8500000   1.8500000   1.8500000   1.8500000   1.8500000   1.8500000
            7           8           9          10          11          12
    1   1.8500000   1.8500000   1.8500000   1.8500000   1.8900000   1.2000000
           13          14          15          16          17          18
    1   1.2000000   1.2000000   1.2000000   1.2000000   1.2000000   1.2000000
           19          20          21          22          23          24
    1   1.2000000   1.2000000   1.2000000   1.2000000   1.8500000   1.8500000
           25          26          27          28          29          30
    1   1.8500000   1.8500000   1.8500000   1.8500000   1.8500000   1.2000000
           31          32          33          34          35          36
    1   1.2000000   1.2000000   1.2000000   1.2000000   1.2000000   1.2000000
           37
    1   1.2000000
 Changing PCM_VDW_RADII to SMD_RADIUS
 Discretize the solute cavity surface with Lebedev spheres
	Using 110 Lebedev grid points for each H atom
	Using 194 Lebedev grid points for other atoms
	Atomic van der Waals radii will be scaled by 1.20
 Remove points where switching function is < 1.0e-08
 Keep 2642 surface tesserae and discard 2940 interior tesserae
 Molecular Surface Area = 307.351 Angst**2
 A cutoff of  1.0D-14 yielded  46666 shell pairs
 There are    304502 function pairs (    385762 Cartesian)
 Smallest overlap matrix eigenvalue = 3.46E-07
 Linear dependence detected in AO basis
 Tighter screening thresholds may be required for diffuse basis sets
 Use S2THRESH > 14 and THRESH = 14 in case of SCF convergence issues
 Number of orthogonalized atomic orbitals = 830
 Maximum deviation from orthogonality = 1.730E-10

 Scale SEOQF with 1.000000e-01/1.000000e-01/1.000000e-01

 Standard Electronic Orientation quadrupole field applied
 Nucleus-field energy     =     0.0000000078 hartrees

 -----------------------------------------------------------------------
  General SCF calculation program by
  Eric Jon Sundstrom, Paul Horn, Yuezhi Mao, Dmitri Zuev, Alec White,
  David Stuck, Shaama M.S., Shane Yost, Joonho Lee, David Small,
  Daniel Levine, Susi Lehtola, Hugh Burton, Evgeny Epifanovsky,
  Bang C. Huynh
 -----------------------------------------------------------------------
================================================================
                 ALMO-EDA with the EDA2 driver                  
================================================================
 The second-generation ALMO-EDA (for DFT):                      
 P. R. Horn, Y. Mao and M. Head-Gordon, PCCP, 18, 23067 (2016)  
 Decomposition of the frozen energy:                            
 P. R. Horn, Y. Mao and M. Head-Gordon, JCP, 144, 114107 (2016) 
 FERF model for polarization:                                   
 P. R. Horn and M. Head-Gordon, JCP, 143, 114111 (2015)         
Using eda2 option set 1
Option set summary: Frozen orbital wavefunction, initial wavefunction decomposition, and nDQ polarization.
--------------------------------
Printing EDA Options
--------------------------------
eda_child_super_basis      0
fragmo_guess_mode          0
child_mp                   1
child_mp_orders            232
cls_elec                   1
cls_disp                   0
scfmi_mode                 1
scfmi_occs                 0
scfmi_virts                0
frz_relax                  0
frz_relax_method           0
dc_pen_start               0
dc_pen_conv                0
dc_pen_increment           0
dc_pen_steps               0
dc_pen_thresh_factor       0
dc_pen_pre_newton_thresh   0
frz_ortho_decomp           1
frz_ortho_decomp_conv      6
frgm_method                2
scfmi_freeze_ss            0
separate_rehyb             0
plot_diff_den              0
eda_nocv                   0
eda_vct_relax              1
disp_free_x                0
disp_free_c                0
eda_bsse                   0
eda_pct_a                  0
eda_covp                   0
--------------------------------
Attempting to make child job directory: /home/meili/scratch/qchem39733//Frg1/
Attempting to make child job directory: /home/meili/scratch/qchem39733//Frg2/
Creating input file /home/meili/scratch/qchem39733/Frg1.input
using default PutDataFrgm: nothing
calling putenv with: QCSCRATCH=/home/meili/scratch/qchem39733/ 
Spawning Job For Fragment 0
                  Welcome to Q-Chem
     A Quantum Leap Into The Future Of Chemistry


 Q-Chem 5.2 (devel), Q-Chem, Inc., Pleasanton, CA (2019)

 Yihan Shao,  Zhengting Gan,  E. Epifanovsky,  A. T. B. Gilbert,  M. Wormit,  
 J. Kussmann,  A. W. Lange,  A. Behn,  Jia Deng,  Xintian Feng,  D. Ghosh,  
 M. Goldey,  P. R. Horn,  L. D. Jacobson,  I. Kaliman,  T. Kus,  A. Landau,  
 Jie Liu,  E. I. Proynov,  R. M. Richard,  R. P. Steele,  E. J. Sundstrom,  
 H. L. Woodcock III,  P. M. Zimmerman,  D. Zuev,  B. Albrecht,  E. Alguire,  
 S. A. Baeppler,  D. Barton,  Z. Benda,  Y. A. Bernard,  E. J. Berquist,  
 K. B. Bravaya,  H. Burton,  D. Casanova,  Chun-Min Chang,  Yunqing Chen,  
 A. Chien,  K. D. Closser,  M. P. Coons,  S. Coriani,  S. Dasgupta,  
 A. L. Dempwolff,  M. Diedenhofen,  Hainam Do,  R. G. Edgar,  Po-Tung Fang,  
 S. Faraji,  S. Fatehi,  Qingguo Feng,  K. D. Fenk,  J. Fosso-Tande,  
 J. Gayvert,  Qinghui Ge,  A. Ghysels,  G. Gidofalvi,  J. Gomes,  
 J. Gonthier,  A. Gunina,  D. Hait,  M. W. D. Hanson-Heine,  
 P. H. P. Harbach,  A. W. Hauser,  M. F. Herbst,  J. E. Herr,  
 E. G. Hohenstein,  Z. C. Holden,  Kerwin Hui,  B. C. Huynh,  T.-C. Jagau,  
 Hyunjun Ji,  B. Kaduk,  K. Khistyaev,  Jaehoon Kim,  P. Klunzinger,  K. Koh,  
 D. Kosenkov,  L. Koulias,  T. Kowalczyk,  C. M. Krauter,  A. Kunitsa,  
 Ka Un Lao,  A. Laurent,  K. V. Lawler,  Joonho Lee,  D. Lefrancois,  
 S. Lehtola,  D. S. Levine,  Yi-Pei Li,  You-Sheng Lin,  Fenglai Liu,  
 E. Livshits,  A. Luenser,  P. Manohar,  E. Mansoor,  S. F. Manzer,  
 Shan-Ping Mao,  Yuezhi Mao,  N. Mardirossian,  A. V. Marenich,  
 T. Markovich,  L. A. Martinez-Martinez,  S. A. Maurer,  N. J. Mayhall,  
 S. C. McKenzie,  J.-M. Mewes,  P. Morgante,  A. F. Morrison,  
 J. W. Mullinax,  K. Nanda,  T. S. Nguyen-Beck,  R. Olivares-Amaya,  
 J. A. Parkhill,  Zheng Pei,  T. M. Perrine,  F. Plasser,  P. Pokhilko,  
 S. Prager,  A. Prociuk,  E. Ramos,  D. R. Rehn,  F. Rob,  M. Scheurer,  
 M. Schneider,  N. Sergueev,  S. M. Sharada,  S. Sharma,  D. W. Small,  
 T. Stauch,  T. Stein,  Yu-Chuan Su,  A. J. W. Thom,  A. Tkatchenko,  
 T. Tsuchimochi,  N. M. Tubman,  L. Vogt,  M. L. Vidal,  O. Vydrov,  
 M. A. Watson,  J. Wenzel,  M. de Wergifosse,  T. A. Wesolowski,  A. White,  
 J. Witte,  A. Yamada,  Jun Yang,  K. Yao,  S. Yeganeh,  S. R. Yost,  
 Zhi-Qiang You,  A. Zech,  Igor Ying Zhang,  Xing Zhang,  Yan Zhao,  
 Ying Zhu,  B. R. Brooks,  G. K. L. Chan,  C. J. Cramer,  M. S. Gordon,  
 W. J. Hehre,  A. Klamt,  M. W. Schmidt,  C. D. Sherrill,  D. G. Truhlar,  
 A. Aspuru-Guzik,  R. Baer,  A. T. Bell,  N. A. Besley,  Jeng-Da Chai,  
 A. E. DePrince, III,  R. A. DiStasio Jr.,  A. Dreuw,  B. D. Dunietz,  
 T. R. Furlani,  Chao-Ping Hsu,  Yousung Jung,  Jing Kong,  D. S. Lambrecht,  
 WanZhen Liang,  C. Ochsenfeld,  V. A. Rassolov,  L. V. Slipchenko,  
 J. E. Subotnik,  T. Van Voorhis,  J. M. Herbert,  A. I. Krylov,  
 P. M. W. Gill,  M. Head-Gordon

 Contributors to earlier versions of Q-Chem not listed above: 
 R. D. Adamson,  B. Austin,  J. Baker,  G. J. O. Beran,  K. Brandhorst,  
 S. T. Brown,  E. F. C. Byrd,  A. K. Chakraborty,  C.-L. Cheng,  
 Siu Hung Chien,  D. M. Chipman,  D. L. Crittenden,  H. Dachsel,  
 R. J. Doerksen,  A. D. Dutoi,  L. Fusti-Molnar,  W. A. Goddard III,  
 A. Golubeva-Zadorozhnaya,  S. R. Gwaltney,  G. Hawkins,  A. Heyden,  
 S. Hirata,  G. Kedziora,  F. J. Keil,  C. Kelley,  Jihan Kim,  R. A. King,  
 R. Z. Khaliullin,  P. P. Korambath,  W. Kurlancheek,  A. M. Lee,  M. S. Lee,  
 S. V. Levchenko,  Ching Yeh Lin,  D. Liotard,  R. C. Lochan,  I. Lotan,  
 P. E. Maslen,  N. Nair,  D. P. O'Neill,  D. Neuhauser,  E. Neuscamman,  
 C. M. Oana,  R. Olson,  B. Peters,  R. Peverati,  P. A. Pieniazek,  
 Y. M. Rhee,  J. Ritchie,  M. A. Rohrdanz,  E. Rosta,  N. J. Russ,  
 H. F. Schaefer III,  N. E. Schultz,  N. Shenvi,  A. C. Simmonett,  A. Sodt,  
 D. Stuck,  K. S. Thanthiriwatte,  V. Vanovschi,  Tao Wang,  A. Warshel,  
 C. F. Williams,  Q. Wu,  X. Xu,  W. Zhang

 Please cite Q-Chem as follows:
 Y. Shao et al., Mol. Phys. 113, 184-215 (2015)
 DOI: 10.1080/00268976.2014.952696

 Q-Chem 5.2.1 for Intel X86 EM64T Linux

 Parts of Q-Chem use Armadillo 8.300.2 (Tropical Shenanigans).
 http://arma.sourceforge.net/

 Q-Chem begins on Wed Sep 29 11:41:55 2021  

compute-0-1.local
Host: 0

     Scratch files written to /home/meili/scratch/qchem39733//Frg1//
NAlpha2: 78
NElect   78
Mult     1
Symmetry turned off for PCM/SM12/SMD calculation

Checking the input file for inconsistencies... 	...done.

--------------------------------------------------------------
User input:
--------------------------------------------------------------
$molecule
0 1
 6	0.1594360798	1.2970192776	-2.1671506323
 6	0.0214360798	1.1800192776	-3.6901506323
 6	0.9754360798	0.2240192776	-1.4931506323
 6	2.2704360798	0.3070192776	-1.0741506323
 6	0.5234360798	-1.0909807224	-1.1231506323
 6	1.6044360798	-1.7519807224	-0.4811506323
 6	-0.6905639202	-1.7709807224	-1.2591506323
 6	1.5034360798	-3.0469807224	0.0068493677
 6	-0.7935639202	-3.0749807224	-0.7741506323
 6	0.2934360798	-3.7029807224	-0.1511506323
 7	2.6494360798	-0.8669807224	-0.4641506323
 1	0.5744360798	2.2740192776	-1.9141506323
 1	-0.8385639202	1.2550192776	-1.7281506323
 1	-0.1585639202	0.1340192776	-3.9171506323
 1	2.9014360798	1.1830192776	-1.1901506323
 1	3.5584360798	-1.0239807224	-0.0431506323
 1	-1.5305639202	-1.2899807224	-1.7381506323
 1	2.3414360798	-3.5239807224	0.4948493677
 1	-1.7305639202	-3.6029807224	-0.8771506323
 1	0.1854360798	-4.7159807224	0.2158493677
 1	0.9435360798	1.5268492776	-4.1794806323
 1	-0.8435539202	1.7730292776	-4.0220106323
$end
$rem
EDA2		1
METHOD		WB97X-V
BASIS		DEF2-TZVPD
XC_GRID		000099000590
NL_GRID		1
UNRESTRICTED		FALSE
MAX_SCF_CYCLES		200
SYMMETRY		FALSE
SYM_IGNORE		TRUE
BASIS_LIN_DEP_THRESH		6
THRESH		14
SCF_CONVERGENCE		8
SCF_PRINT_FRGM		TRUE
SOLVENT_METHOD		SMD
!required keywords
JOBTYPE		SP
SYM_IGNORE		TRUE
SUBSYSTEM		TRUE
GEN_SCFMAN		TRUE
CHILD_INSTRUCTION		2
SYM_IGNORE		TRUE
SCFMI		0
RI_K 0		
PARI_K 0		
MIN_PARI_K 0		
IARI_K 0		
OCC_RI_K 0		
PURECART		1111
MEM_STATIC		2000
MEM_TOTAL		2000
GUI		0
CHILD_MP		1
CHILD_MP_ORDERS		232
FRZ_RELAX		0
FRZ_RELAX_METHOD		0
EDA_CLS_ELEC		1
EDA_CLS_DISP		0
FRZ_ORTHO_DECOMP		1
EDA2		FALSE
FRGM_METHOD		FALSE
CIS_N_ROOTS  0
LOCAL_CIS    0
CIS_RLX_DNS  1
$end
$smx
SOLVENT			WATER
$end
--------------------------------------------------------------
 ----------------------------------------------------------------
             Standard Nuclear Orientation (Angstroms)
    I     Atom           X                Y                Z
 ----------------------------------------------------------------
    1      C       0.1594360798     1.2970192776    -2.1671506323
    2      C       0.0214360798     1.1800192776    -3.6901506323
    3      C       0.9754360798     0.2240192776    -1.4931506323
    4      C       2.2704360798     0.3070192776    -1.0741506323
    5      C       0.5234360798    -1.0909807224    -1.1231506323
    6      C       1.6044360798    -1.7519807224    -0.4811506323
    7      C      -0.6905639202    -1.7709807224    -1.2591506323
    8      C       1.5034360798    -3.0469807224     0.0068493677
    9      C      -0.7935639202    -3.0749807224    -0.7741506323
   10      C       0.2934360798    -3.7029807224    -0.1511506323
   11      N       2.6494360798    -0.8669807224    -0.4641506323
   12      H       0.5744360798     2.2740192776    -1.9141506323
   13      H      -0.8385639202     1.2550192776    -1.7281506323
   14      H      -0.1585639202     0.1340192776    -3.9171506323
   15      H       2.9014360798     1.1830192776    -1.1901506323
   16      H       3.5584360798    -1.0239807224    -0.0431506323
   17      H      -1.5305639202    -1.2899807224    -1.7381506323
   18      H       2.3414360798    -3.5239807224     0.4948493677
   19      H      -1.7305639202    -3.6029807224    -0.8771506323
   20      H       0.1854360798    -4.7159807224     0.2158493677
   21      H       0.9435360798     1.5268492776    -4.1794806323
   22      H      -0.8435539202     1.7730292776    -4.0220106323
 ----------------------------------------------------------------
 Nuclear Repulsion Energy =         570.67935065 hartrees
 There are       39 alpha and       39 beta electrons
 Requested basis set is def2-TZVPD
 There are 198 shells and 506 basis functions

 Total QAlloc Memory Limit   2000 MB
 Mega-Array Size      1956 MB
 MEM_STATIC part      2000 MB

 Citation of the SMD model:
 Marenich, A.V.; Cramer, C.J.; Truhlar, D.G.
 J. Phys. Chem. B 2009, 113, 6378-6396.
 iSolventCode=           1
 Solvent: water                                                           

 vradii
            1           2           3           4           5           6
    1   1.8500000   1.8500000   1.8500000   1.8500000   1.8500000   1.8500000
            7           8           9          10          11          12
    1   1.8500000   1.8500000   1.8500000   1.8500000   1.8900000   1.2000000
           13          14          15          16          17          18
    1   1.2000000   1.2000000   1.2000000   1.2000000   1.2000000   1.2000000
           19          20          21          22
    1   1.2000000   1.2000000   1.2000000   1.2000000
 Changing PCM_VDW_RADII to SMD_RADIUS
 Discretize the solute cavity surface with Lebedev spheres
	Using 110 Lebedev grid points for each H atom
	Using 194 Lebedev grid points for other atoms
	Atomic van der Waals radii will be scaled by 1.20
 Remove points where switching function is < 1.0e-08
 Keep 1557 surface tesserae and discard 1787 interior tesserae
 Molecular Surface Area = 185.700 Angst**2
 A cutoff of  1.0D-14 yielded  18186 shell pairs
 There are    121240 function pairs (    155093 Cartesian)
 Smallest overlap matrix eigenvalue = 4.88E-07
 Linear dependence detected in AO basis
 Tighter screening thresholds may be required for diffuse basis sets
 Use S2THRESH > 14 and THRESH = 14 in case of SCF convergence issues
 Number of orthogonalized atomic orbitals = 503
 Maximum deviation from orthogonality = 2.009E-10

 Scale SEOQF with 1.000000e-01/1.000000e-01/1.000000e-01

 Standard Electronic Orientation quadrupole field applied
 Nucleus-field energy     =     0.0000000060 hartrees
 Guess from superposition of atomic densities
 Warning:  Energy on first SCF cycle will be non-variational
 SAD guess density has 78.000000 electrons

 -----------------------------------------------------------------------
  General SCF calculation program by
  Eric Jon Sundstrom, Paul Horn, Yuezhi Mao, Dmitri Zuev, Alec White,
  David Stuck, Shaama M.S., Shane Yost, Joonho Lee, David Small,
  Daniel Levine, Susi Lehtola, Hugh Burton, Evgeny Epifanovsky,
  Bang C. Huynh
 -----------------------------------------------------------------------
 Exchange:     0.1670 Hartree-Fock + 1.0000 wB97X-V + LR-HF
 Correlation:  1.0000 wB97X-V
 Using Euler-Maclaurin-Lebedev (99,590) quadrature formula
 Nonlocal Correlation:  VV10 with C = 0.0100 and b = 6.00 and scale = 1.00000
 Grid used for NLC:  SG-1 standard quadrature
Energy prior to optimization (guess energy) = -442.389195107860
Begin Timing: Total SCF Calculation
begin iterations for algorithm: DIIS         
the SCF tolerance is set to 1.00e-08
    1    -442.3891951079      1.56e-03     00000 
    2    -442.4462176982      1.14e-03     00000 
    3    -442.4908915043      2.32e-04     00000 
    4    -442.4928961530      1.10e-04     00000 
    5    -442.4933775667      3.54e-05     00000 
    6    -442.4934274037      1.14e-05     00000 
    7    -442.4934323301      3.81e-06     00000 
    8    -442.4934332870      9.11e-07     00000 
    9    -442.4934333875      4.26e-07     00000 
   10    -442.4934334107      1.94e-07     00000 
   11    -442.4934334174      6.72e-08     00000 
   12    -442.4934334183      3.27e-08     00000 
   13    -442.4934334184      9.39e-09     00000 Convergence criterion met
Timing for Total SCF: 2009.00s (wall), 13069.54s (cpu)
(3)  G-ENP(liq) elect-nuc-pol free energy of system     -442.493433418 a.u.
(4)  G-CDS(liq) cavity-dispersion-solvent structure 
     free energy                                                4.1839 kcal/mol
(6)  G-S(liq) free energy of system                     -442.486765959 a.u.
E_pcm = -0.0165339879
E_cds = 0.0066674593
Multipole orders to be included
        2
        3
computing dipole RHS
computing quadrupole RHS
total number of RHS in solve_reponses: 8
RHS batch sizes
        8
Beginning Block Conjugate Gradient Iterations. Batch Number: 0
computing hessian-vector products by finite difference
              1      6.58e-01     00000 Conjugate Gradient Iteration
computing hessian-vector products by finite difference
              2      2.12e-01     00000 Conjugate Gradient Iteration
computing hessian-vector products by finite difference
              3      6.35e-02     00000 Conjugate Gradient Iteration
computing hessian-vector products by finite difference
              4      2.70e-02     00000 Conjugate Gradient Iteration
computing hessian-vector products by finite difference
              5      9.96e-03     00000 Conjugate Gradient Iteration
computing hessian-vector products by finite difference
              6      2.75e-03     00000 Conjugate Gradient Iteration
computing hessian-vector products by finite difference
              7      6.56e-04     00000 Conjugate Gradient Iteration
computing hessian-vector products by finite difference
              8      1.30e-04     00000 Conjugate Gradient Iteration
computing hessian-vector products by finite difference
              9      2.37e-05     00000 Conjugate Gradient Iteration
computing hessian-vector products by finite difference
             10      4.84e-06     00000 Conjugate Gradient Iteration
computing hessian-vector products by finite difference
             11      9.00e-07     00000 Conjugate Gradient Iteration
computing hessian-vector products by finite difference
             12      1.62e-07     00000 Conjugate Gradient Iteration
computing hessian-vector products by finite difference
             13      2.51e-08     00000 Conjugate Gradient Iteration
computing hessian-vector products by finite difference
             14      4.62e-09     00000 CG Converged
batch 0 complete
Done Calculating Responses
TESTING ORTHOGONALIZATION OF MULTIPOLE BASIS
Multipole virts passed orthogonality test
Virts Per Order
          117
          195

 --------------------------------------------------------------

                    Orbital Energies (a.u.)
 --------------------------------------------------------------

 Alpha MOs
 -- Occupied --
-14.4432 -10.2987 -10.2915 -10.2676 -10.2672 -10.2650 -10.2638 -10.2610
-10.2593 -10.2559 -10.2482  -1.1109  -0.9764  -0.9333  -0.8785  -0.8624
 -0.8403  -0.7522  -0.7391  -0.7099  -0.6684  -0.6429  -0.5956  -0.5791
 -0.5581  -0.5493  -0.5347  -0.5301  -0.5253  -0.4906  -0.4738  -0.4600
 -0.4547  -0.4492  -0.4326  -0.4207  -0.3760  -0.3139  -0.2893
 -- Virtual --
  0.0555   0.0647   0.0795   0.0817   0.0931   0.0962   0.1011   0.1033
  0.1103   0.1297   0.1345   0.1446   0.1522   0.1634   0.1665   0.1685
  0.1738   0.1850   0.1919   0.1985   0.2027   0.2083   0.2193   0.2279
  0.2297   0.2425   0.2463   0.2499   0.2534   0.2601   0.2651   0.2694
  0.2760   0.2784   0.2812   0.2846   0.2908   0.2950   0.2988   0.3042
  0.3084   0.3113   0.3161   0.3191   0.3213   0.3301   0.3319   0.3403
  0.3449   0.3478   0.3501   0.3550   0.3573   0.3644   0.3657   0.3728
  0.3737   0.3823   0.3853   0.3904   0.3928   0.4004   0.4039   0.4052
  0.4101   0.4149   0.4205   0.4236   0.4305   0.4328   0.4354   0.4421
  0.4460   0.4514   0.4544   0.4585   0.4665   0.4696   0.4735   0.4761
  0.4845   0.4883   0.4943   0.5002   0.5044   0.5123   0.5193   0.5216
  0.5256   0.5317   0.5320   0.5355   0.5444   0.5487   0.5498   0.5551
  0.5593   0.5679   0.5705   0.5766   0.5812   0.5969   0.6027   0.6059
  0.6114   0.6152   0.6182   0.6279   0.6338   0.6423   0.6457   0.6495
  0.6579   0.6634   0.6711   0.6741   0.6815   0.6843   0.6979   0.7003
  0.7035   0.7089   0.7128   0.7199   0.7292   0.7352   0.7382   0.7423
  0.7485   0.7579   0.7612   0.7676   0.7753   0.7764   0.7815   0.7857
  0.7888   0.7958   0.8018   0.8031   0.8062   0.8111   0.8149   0.8154
  0.8236   0.8258   0.8326   0.8386   0.8444   0.8462   0.8565   0.8595
  0.8650   0.8721   0.8782   0.8811   0.8870   0.8994   0.9107   0.9144
  0.9177   0.9282   0.9418   0.9514   0.9624   0.9772   0.9855   0.9965
  1.0071   1.0171   1.0300   1.0314   1.0530   1.0710   1.0765   1.0832
  1.0899   1.0973   1.1039   1.1112   1.1132   1.1253   1.1487   1.1575
  1.1630   1.1712   1.1898   1.2103   1.2151   1.2364   1.2491   1.2620
  1.2744   1.2794   1.3148   1.3181   1.3389   1.3442   1.3579   1.3756
  1.3885   1.3957   1.4151   1.4358   1.4506   1.4546   1.4727   1.4829
  1.4981   1.5314   1.5426   1.5689   1.5828   1.6004   1.6128   1.6256
  1.6352   1.6467   1.6612   1.6739   1.7118   1.7235   1.7438   1.7683
  1.7748   1.7910   1.8129   1.8230   1.8530   1.8583   1.8751   1.8796
  1.9002   1.9098   1.9134   1.9252   1.9308   1.9531   1.9598   1.9670
  1.9792   1.9876   1.9936   1.9986   2.0143   2.0195   2.0238   2.0293
  2.0414   2.0607   2.0638   2.0762   2.0893   2.0942   2.1284   2.1326
  2.1786   2.1858   2.1969   2.2009   2.2275   2.2336   2.2592   2.2802
  2.3023   2.3051   2.3279   2.3445   2.3649   2.3927   2.4009   2.4135
  2.4400   2.4476   2.4598   2.4912   2.5114   2.5147   2.5248   2.5461
  2.5592   2.5823   2.6092   2.6124   2.6233   2.6417   2.6576   2.6767
  2.6853   2.7077   2.7124   2.7527   2.7685   2.7719   2.7892   2.7918
  2.7992   2.8138   2.8264   2.8474   2.8487   2.8582   2.8725   2.8778
  2.8949   2.9052   2.9196   2.9303   2.9417   2.9494   2.9718   2.9818
  2.9899   3.0002   3.0071   3.0232   3.0419   3.0639   3.0679   3.0808
  3.0838   3.0964   3.1226   3.1414   3.1615   3.1658   3.1904   3.1942
  3.2180   3.2369   3.2520   3.2544   3.2614   3.2839   3.2945   3.3139
  3.3185   3.3303   3.3499   3.3729   3.3832   3.3905   3.4023   3.4173
  3.4296   3.4345   3.4388   3.4572   3.4595   3.4662   3.4810   3.4956
  3.5090   3.5211   3.5243   3.5340   3.5390   3.5484   3.5601   3.5833
  3.5902   3.6057   3.6181   3.6222   3.6390   3.6475   3.6571   3.6684
  3.6823   3.6921   3.7090   3.7165   3.7236   3.7330   3.7483   3.7659
  3.7671   3.7844   3.7937   3.8141   3.8411   3.8758   3.8848   3.9063
  3.9379   3.9600   3.9882   4.0300   4.0444   4.0688   4.0816   4.1191
  4.1369   4.1757   4.1870   4.2126   4.2263   4.2345   4.2518   4.2817
  4.2914   4.3025   4.3214   4.3537   4.3575   4.3699   4.3955   4.4198
  4.4319   4.4592   4.4744   4.5227   4.5371   4.5734   4.6028   4.6316
  4.6390   4.6465   4.7118   4.7504   4.7646   4.8047   4.8463   4.8949
  4.9352   4.9469   4.9675   4.9820   5.0001   5.0187   5.0738   5.0765
  5.1000   5.1331   5.1536   5.1846   5.2098   5.2320   5.2893   5.3997
  5.4167   5.4649   5.5120   5.5663   5.6192   5.6518   5.7201   5.8229
  5.8322   5.9711   5.9853   6.2930   6.3458  22.6576  22.7670  22.7883
 22.9408  22.9626  23.0026  23.2008  23.2698  23.4934  23.8055  32.8556
 --------------------------------------------------------------

          Ground-State Mulliken Net Atomic Charges

     Atom                 Charge (a.u.)
  ----------------------------------------
      1 C                    -0.536360
      2 C                    -0.890896
      3 C                     0.463503
      4 C                    -0.580413
      5 C                     0.509452
      6 C                    -0.115487
      7 C                    -0.503298
      8 C                    -0.902257
      9 C                    -0.701697
     10 C                    -0.467821
     11 N                     0.155950
     12 H                     0.279072
     13 H                     0.297673
     14 H                     0.269477
     15 H                     0.323718
     16 H                     0.213417
     17 H                     0.430386
     18 H                     0.424040
     19 H                     0.417687
     20 H                     0.413257
     21 H                     0.268482
     22 H                     0.232114
  ----------------------------------------
  Sum of atomic charges =     0.000000

 -----------------------------------------------------------------
                    Cartesian Multipole Moments
 -----------------------------------------------------------------
    Charge (ESU x 10^10)
                -0.0000
    Dipole Moment (Debye)
         X       2.6809      Y       1.1537      Z       0.7069
       Tot       3.0030
    Quadrupole Moments (Debye-Ang)
        XX     -49.4753     XY      -0.8492     YY     -63.6560
        XZ       3.7575     YZ      -5.6764     ZZ     -70.5318
    Octopole Moments (Debye-Ang^2)
       XXX     -87.2445    XXY      56.1846    XYY     -42.2139
       YYY     196.6518    XXZ      81.9377    XYZ     -11.6316
       YYZ      92.3608    XZZ     -55.1851    YZZ      82.7229
       ZZZ     257.3385
    Hexadecapole Moments (Debye-Ang^3)
      XXXX    -588.0704   XXXY      65.1180   XXYY    -375.2328
      XYYY     110.3008   YYYY   -1637.9040   XXXZ     100.5667
      XXYZ      -7.0089   XYYZ      48.1690   YYYZ     -20.3746
      XXZZ    -334.1656   XYZZ      45.3587   YYZZ    -511.1914
      XZZZ      94.2434   YZZZ      27.9506   ZZZZ   -1234.2899
 -----------------------------------------------------------------
Archival summary:
1\1\compute-0-1.local\SP\ProcedureUnspecified\BasisUnspecified\11011\meili\WedSep2922:59:342021WedSep2922:59:342021\0\\#,ProcedureUnspecified,BasisUnspecified,\\0,1\C\C,1,1.3981\H,2,1.08,1,120.125\C,2,1.39508,1,119.007,3,179.684,0\H,4,1.08045,2,119.188,1,179.962,0\C,4,1.40146,2,121.073,1,0.357789,0\H,6,1.08283,4,119.506,2,-179.99,0\C,6,1.38542,4,121.06,2,0.220808,0\H,8,1.0807,6,121.315,4,179.421,0\C,8,1.38758,6,117.734,4,-0.457221,0\N,10,1.3695,8,130.865,6,179.549,0\H,11,1.01399,10,126.096,8,-1.90657,0\C,11,1.37623,10,109.61,8,-179.946,0\H,13,1.08581,11,125.137,10,179.335,0\C,13,1.36363,11,110.231,10,0.453926,0\C,15,1.50714,13,127.463,11,177.986,0\H,16,1.0911,15,106.732,13,-138.835,0\H,16,1.09122,15,109.137,13,-23.7614,0\C,16,1.53371,15,116.007,13,100.378,0\H,19,1.08538,16,107.225,15,42.5254,0\H,19,1.1,16,109.221,15,160.533,0\H,19,1.1,16,110.015,15,-77.6563,0\\\@

 Total job time:  40658.79s(wall), 261612.71s(cpu) 
 Wed Sep 29 22:59:34 2021

        *************************************************************
        *                                                           *
        *  Thank you very much for using Q-Chem.  Have a nice day.  *
        *                                                           *
        *************************************************************


Done Job For Fragment 0
calling putenv with: QCSCRATCH=/home/meili/scratch 
calling putenv with: QCTHREADS=8 
Creating input file /home/meili/scratch/qchem39733/Frg2.input
using default PutDataFrgm: nothing
calling putenv with: QCSCRATCH=/home/meili/scratch/qchem39733/ 
Spawning Job For Fragment 1
                  Welcome to Q-Chem
     A Quantum Leap Into The Future Of Chemistry


 Q-Chem 5.2 (devel), Q-Chem, Inc., Pleasanton, CA (2019)

 Yihan Shao,  Zhengting Gan,  E. Epifanovsky,  A. T. B. Gilbert,  M. Wormit,  
 J. Kussmann,  A. W. Lange,  A. Behn,  Jia Deng,  Xintian Feng,  D. Ghosh,  
 M. Goldey,  P. R. Horn,  L. D. Jacobson,  I. Kaliman,  T. Kus,  A. Landau,  
 Jie Liu,  E. I. Proynov,  R. M. Richard,  R. P. Steele,  E. J. Sundstrom,  
 H. L. Woodcock III,  P. M. Zimmerman,  D. Zuev,  B. Albrecht,  E. Alguire,  
 S. A. Baeppler,  D. Barton,  Z. Benda,  Y. A. Bernard,  E. J. Berquist,  
 K. B. Bravaya,  H. Burton,  D. Casanova,  Chun-Min Chang,  Yunqing Chen,  
 A. Chien,  K. D. Closser,  M. P. Coons,  S. Coriani,  S. Dasgupta,  
 A. L. Dempwolff,  M. Diedenhofen,  Hainam Do,  R. G. Edgar,  Po-Tung Fang,  
 S. Faraji,  S. Fatehi,  Qingguo Feng,  K. D. Fenk,  J. Fosso-Tande,  
 J. Gayvert,  Qinghui Ge,  A. Ghysels,  G. Gidofalvi,  J. Gomes,  
 J. Gonthier,  A. Gunina,  D. Hait,  M. W. D. Hanson-Heine,  
 P. H. P. Harbach,  A. W. Hauser,  M. F. Herbst,  J. E. Herr,  
 E. G. Hohenstein,  Z. C. Holden,  Kerwin Hui,  B. C. Huynh,  T.-C. Jagau,  
 Hyunjun Ji,  B. Kaduk,  K. Khistyaev,  Jaehoon Kim,  P. Klunzinger,  K. Koh,  
 D. Kosenkov,  L. Koulias,  T. Kowalczyk,  C. M. Krauter,  A. Kunitsa,  
 Ka Un Lao,  A. Laurent,  K. V. Lawler,  Joonho Lee,  D. Lefrancois,  
 S. Lehtola,  D. S. Levine,  Yi-Pei Li,  You-Sheng Lin,  Fenglai Liu,  
 E. Livshits,  A. Luenser,  P. Manohar,  E. Mansoor,  S. F. Manzer,  
 Shan-Ping Mao,  Yuezhi Mao,  N. Mardirossian,  A. V. Marenich,  
 T. Markovich,  L. A. Martinez-Martinez,  S. A. Maurer,  N. J. Mayhall,  
 S. C. McKenzie,  J.-M. Mewes,  P. Morgante,  A. F. Morrison,  
 J. W. Mullinax,  K. Nanda,  T. S. Nguyen-Beck,  R. Olivares-Amaya,  
 J. A. Parkhill,  Zheng Pei,  T. M. Perrine,  F. Plasser,  P. Pokhilko,  
 S. Prager,  A. Prociuk,  E. Ramos,  D. R. Rehn,  F. Rob,  M. Scheurer,  
 M. Schneider,  N. Sergueev,  S. M. Sharada,  S. Sharma,  D. W. Small,  
 T. Stauch,  T. Stein,  Yu-Chuan Su,  A. J. W. Thom,  A. Tkatchenko,  
 T. Tsuchimochi,  N. M. Tubman,  L. Vogt,  M. L. Vidal,  O. Vydrov,  
 M. A. Watson,  J. Wenzel,  M. de Wergifosse,  T. A. Wesolowski,  A. White,  
 J. Witte,  A. Yamada,  Jun Yang,  K. Yao,  S. Yeganeh,  S. R. Yost,  
 Zhi-Qiang You,  A. Zech,  Igor Ying Zhang,  Xing Zhang,  Yan Zhao,  
 Ying Zhu,  B. R. Brooks,  G. K. L. Chan,  C. J. Cramer,  M. S. Gordon,  
 W. J. Hehre,  A. Klamt,  M. W. Schmidt,  C. D. Sherrill,  D. G. Truhlar,  
 A. Aspuru-Guzik,  R. Baer,  A. T. Bell,  N. A. Besley,  Jeng-Da Chai,  
 A. E. DePrince, III,  R. A. DiStasio Jr.,  A. Dreuw,  B. D. Dunietz,  
 T. R. Furlani,  Chao-Ping Hsu,  Yousung Jung,  Jing Kong,  D. S. Lambrecht,  
 WanZhen Liang,  C. Ochsenfeld,  V. A. Rassolov,  L. V. Slipchenko,  
 J. E. Subotnik,  T. Van Voorhis,  J. M. Herbert,  A. I. Krylov,  
 P. M. W. Gill,  M. Head-Gordon

 Contributors to earlier versions of Q-Chem not listed above: 
 R. D. Adamson,  B. Austin,  J. Baker,  G. J. O. Beran,  K. Brandhorst,  
 S. T. Brown,  E. F. C. Byrd,  A. K. Chakraborty,  C.-L. Cheng,  
 Siu Hung Chien,  D. M. Chipman,  D. L. Crittenden,  H. Dachsel,  
 R. J. Doerksen,  A. D. Dutoi,  L. Fusti-Molnar,  W. A. Goddard III,  
 A. Golubeva-Zadorozhnaya,  S. R. Gwaltney,  G. Hawkins,  A. Heyden,  
 S. Hirata,  G. Kedziora,  F. J. Keil,  C. Kelley,  Jihan Kim,  R. A. King,  
 R. Z. Khaliullin,  P. P. Korambath,  W. Kurlancheek,  A. M. Lee,  M. S. Lee,  
 S. V. Levchenko,  Ching Yeh Lin,  D. Liotard,  R. C. Lochan,  I. Lotan,  
 P. E. Maslen,  N. Nair,  D. P. O'Neill,  D. Neuhauser,  E. Neuscamman,  
 C. M. Oana,  R. Olson,  B. Peters,  R. Peverati,  P. A. Pieniazek,  
 Y. M. Rhee,  J. Ritchie,  M. A. Rohrdanz,  E. Rosta,  N. J. Russ,  
 H. F. Schaefer III,  N. E. Schultz,  N. Shenvi,  A. C. Simmonett,  A. Sodt,  
 D. Stuck,  K. S. Thanthiriwatte,  V. Vanovschi,  Tao Wang,  A. Warshel,  
 C. F. Williams,  Q. Wu,  X. Xu,  W. Zhang

 Please cite Q-Chem as follows:
 Y. Shao et al., Mol. Phys. 113, 184-215 (2015)
 DOI: 10.1080/00268976.2014.952696

 Q-Chem 5.2.1 for Intel X86 EM64T Linux

 Parts of Q-Chem use Armadillo 8.300.2 (Tropical Shenanigans).
 http://arma.sourceforge.net/

 Q-Chem begins on Wed Sep 29 22:59:34 2021  

compute-0-1.local
Host: 0

     Scratch files written to /home/meili/scratch/qchem39733//Frg2//
NAlpha2: 50
NElect   50
Mult     1
Symmetry turned off for PCM/SM12/SMD calculation

Checking the input file for inconsistencies... 	...done.

--------------------------------------------------------------
User input:
--------------------------------------------------------------
$molecule
0 1
 6	1.0114360798	2.6510192776	1.7648493677
 6	-0.5675639202	0.7130192776	1.5358493677
 6	-0.3655639202	2.0600192776	1.8118493677
 6	-1.8435639202	0.1660192776	1.5838493677
 6	-1.4505639202	2.8460192776	2.1888493677
 6	-2.9265639202	0.9590192776	1.9468493677
 6	-2.7295639202	2.2960192776	2.2598493677
 1	0.2724360798	0.0850192776	1.2838493677
 1	-1.9895639202	-0.8799807224	1.3498493677
 1	0.9414360798	3.6560192776	1.3478493677
 1	1.6334360798	2.0630192776	1.0898493677
 1	-1.3045639202	3.8900192776	2.4288493677
 1	-3.9205639202	0.5330192776	1.9938493677
 1	-3.5665639202	2.9110192776	2.5588493677
 1	1.4939460798	2.6992692776	2.7521993677
$end
$rem
EDA2		1
METHOD		WB97X-V
BASIS		DEF2-TZVPD
XC_GRID		000099000590
NL_GRID		1
UNRESTRICTED		FALSE
MAX_SCF_CYCLES		200
SYMMETRY		FALSE
SYM_IGNORE		TRUE
BASIS_LIN_DEP_THRESH		6
THRESH		14
SCF_CONVERGENCE		8
SCF_PRINT_FRGM		TRUE
SOLVENT_METHOD		SMD
!required keywords
JOBTYPE		SP
SYM_IGNORE		TRUE
SUBSYSTEM		TRUE
GEN_SCFMAN		TRUE
CHILD_INSTRUCTION		2
SYM_IGNORE		TRUE
SCFMI		0
RI_K 0		
PARI_K 0		
MIN_PARI_K 0		
IARI_K 0		
OCC_RI_K 0		
PURECART		1111
MEM_STATIC		2000
MEM_TOTAL		2000
GUI		0
CHILD_MP		1
CHILD_MP_ORDERS		232
FRZ_RELAX		0
FRZ_RELAX_METHOD		0
EDA_CLS_ELEC		1
EDA_CLS_DISP		0
FRZ_ORTHO_DECOMP		1
EDA2		FALSE
FRGM_METHOD		FALSE
CIS_N_ROOTS  0
LOCAL_CIS    0
CIS_RLX_DNS  1
$end
$smx
SOLVENT			WATER
$end
--------------------------------------------------------------
 ----------------------------------------------------------------
             Standard Nuclear Orientation (Angstroms)
    I     Atom           X                Y                Z
 ----------------------------------------------------------------
    1      C       1.0114360798     2.6510192776     1.7648493677
    2      C      -0.5675639202     0.7130192776     1.5358493677
    3      C      -0.3655639202     2.0600192776     1.8118493677
    4      C      -1.8435639202     0.1660192776     1.5838493677
    5      C      -1.4505639202     2.8460192776     2.1888493677
    6      C      -2.9265639202     0.9590192776     1.9468493677
    7      C      -2.7295639202     2.2960192776     2.2598493677
    8      H       0.2724360798     0.0850192776     1.2838493677
    9      H      -1.9895639202    -0.8799807224     1.3498493677
   10      H       0.9414360798     3.6560192776     1.3478493677
   11      H       1.6334360798     2.0630192776     1.0898493677
   12      H      -1.3045639202     3.8900192776     2.4288493677
   13      H      -3.9205639202     0.5330192776     1.9938493677
   14      H      -3.5665639202     2.9110192776     2.5588493677
   15      H       1.4939460798     2.6992692776     2.7521993677
 ----------------------------------------------------------------
 Nuclear Repulsion Energy =         270.32118554 hartrees
 There are       25 alpha and       25 beta electrons
 Requested basis set is def2-TZVPD
 There are 131 shells and 331 basis functions

 Total QAlloc Memory Limit   2000 MB
 Mega-Array Size      1956 MB
 MEM_STATIC part      2000 MB

 Citation of the SMD model:
 Marenich, A.V.; Cramer, C.J.; Truhlar, D.G.
 J. Phys. Chem. B 2009, 113, 6378-6396.
 iSolventCode=           1
 Solvent: water                                                           

 vradii
            1           2           3           4           5           6
    1   1.8500000   1.8500000   1.8500000   1.8500000   1.8500000   1.8500000
            7           8           9          10          11          12
    1   1.8500000   1.2000000   1.2000000   1.2000000   1.2000000   1.2000000
           13          14          15
    1   1.2000000   1.2000000   1.2000000
 Changing PCM_VDW_RADII to SMD_RADIUS
 Discretize the solute cavity surface with Lebedev spheres
	Using 110 Lebedev grid points for each H atom
	Using 194 Lebedev grid points for other atoms
	Atomic van der Waals radii will be scaled by 1.20
 Remove points where switching function is < 1.0e-08
 Keep 1092 surface tesserae and discard 1146 interior tesserae
 Molecular Surface Area = 132.129 Angst**2

                       Distance Matrix (Angstroms)
             C (  1)   C (  2)   C (  3)   C (  4)   C (  5)   C (  6)
   C (  2)  2.510284
   C (  3)  1.499206  1.389744
   C (  4)  3.789329  1.389132  2.413235
   C (  5)  2.505842  2.399122  1.391815  2.775405
   C (  6)  4.289969  2.407139  2.790904  1.390506  2.407885
   C (  7)  3.790268  2.775664  2.417622  2.403928  1.394052  1.387208
   H (  8)  2.713271  1.078651  2.141601  2.138695  3.377999  3.381870
   H (  9)  4.652546  2.143439  3.390342  1.081752  3.857139  2.148557
   H ( 10)  1.090327  3.312654  2.114417  4.471244  2.661775  4.753318
   H ( 11)  1.090070  2.620270  2.125393  3.991513  3.366296  4.769367
   H ( 12)  2.709220  3.381412  2.147396  3.856517  1.081135  3.384371
   H ( 13)  5.372429  3.388919  3.873355  2.148655  3.389527  1.082461
   H ( 14)  4.653614  3.856389  3.395381  3.384432  2.149088  2.143466
   H ( 15)  1.100002  3.110389  2.179605  4.349870  3.001506  4.818503
             C (  7)   H (  8)   H (  9)   H ( 10)   H ( 11)   H ( 12)
   H (  8)  3.853972
   H (  9)  3.385657  2.460127
   H ( 10)  4.019650  3.633689  5.400561
   H ( 11)  4.523158  2.408826  4.674931  1.755869
   H ( 12)  2.144766  4.275041  4.938255  2.503564  3.709811
   H ( 13)  2.144156  4.276219  2.477916  5.814593  5.831383  4.278099
   H ( 14)  1.080831  4.934554  4.280221  4.726903  5.469649  2.468195
   H ( 15)  4.271189  3.237660  5.187722  1.786851  1.785407  3.058447
             H ( 13)   H ( 14)
   H ( 14)  2.469701
   H ( 15)  5.880872  5.068627

 A cutoff of  1.0D-14 yielded   8360 shell pairs
 There are     54504 function pairs (     69458 Cartesian)
 Smallest overlap matrix eigenvalue = 5.51E-07
 Linear dependence detected in AO basis
 Tighter screening thresholds may be required for diffuse basis sets
 Use S2THRESH > 14 and THRESH = 14 in case of SCF convergence issues
 Number of orthogonalized atomic orbitals = 330
 Maximum deviation from orthogonality = 3.244E-10

 Scale SEOQF with 1.000000e-01/1.000000e-01/1.000000e-01

 Standard Electronic Orientation quadrupole field applied
 Nucleus-field energy     =     0.0000000018 hartrees
 Guess from superposition of atomic densities
 Warning:  Energy on first SCF cycle will be non-variational
 SAD guess density has 50.000000 electrons

 -----------------------------------------------------------------------
  General SCF calculation program by
  Eric Jon Sundstrom, Paul Horn, Yuezhi Mao, Dmitri Zuev, Alec White,
  David Stuck, Shaama M.S., Shane Yost, Joonho Lee, David Small,
  Daniel Levine, Susi Lehtola, Hugh Burton, Evgeny Epifanovsky,
  Bang C. Huynh
 -----------------------------------------------------------------------
 Exchange:     0.1670 Hartree-Fock + 1.0000 wB97X-V + LR-HF
 Correlation:  1.0000 wB97X-V
 Using Euler-Maclaurin-Lebedev (99,590) quadrature formula
 Nonlocal Correlation:  VV10 with C = 0.0100 and b = 6.00 and scale = 1.00000
 Grid used for NLC:  SG-1 standard quadrature
Energy prior to optimization (guess energy) = -271.527095366625
Begin Timing: Total SCF Calculation
begin iterations for algorithm: DIIS         
the SCF tolerance is set to 1.00e-08
    1    -271.5270953666      1.84e-03     00000 
    2    -271.5650469898      1.17e-03     00000 
    3    -271.5850696619      1.54e-04     00000 
    4    -271.5857383024      4.30e-05     00000 
    5    -271.5857831275      1.98e-05     00000 
    6    -271.5857898079      5.35e-06     00000 
    7    -271.5857904999      1.56e-06     00000 
    8    -271.5857905431      3.94e-07     00000 
    9    -271.5857905478      9.59e-08     00000 
   10    -271.5857905481      3.22e-08     00000 
   11    -271.5857905481      1.44e-08     00000 
   12    -271.5857905481      4.38e-09     00000 Convergence criterion met
Timing for Total SCF: 516.00s (wall), 3197.87s (cpu)
(3)  G-ENP(liq) elect-nuc-pol free energy of system     -271.585790548 a.u.
(4)  G-CDS(liq) cavity-dispersion-solvent structure 
     free energy                                                3.1576 kcal/mol
(6)  G-S(liq) free energy of system                     -271.580758555 a.u.
E_pcm = -0.0073970935
E_cds = 0.0050319929
Multipole orders to be included
        2
        3
computing dipole RHS
computing quadrupole RHS
total number of RHS in solve_reponses: 8
RHS batch sizes
        8
Beginning Block Conjugate Gradient Iterations. Batch Number: 0
computing hessian-vector products by finite difference
              1      6.26e-01     00000 Conjugate Gradient Iteration
computing hessian-vector products by finite difference
              2      1.95e-01     00000 Conjugate Gradient Iteration
computing hessian-vector products by finite difference
              3      4.63e-02     00000 Conjugate Gradient Iteration
computing hessian-vector products by finite difference
              4      1.14e-02     00000 Conjugate Gradient Iteration
computing hessian-vector products by finite difference
              5      1.98e-03     00000 Conjugate Gradient Iteration
computing hessian-vector products by finite difference
              6      5.62e-04     00000 Conjugate Gradient Iteration
computing hessian-vector products by finite difference
              7      1.57e-04     00000 Conjugate Gradient Iteration
computing hessian-vector products by finite difference
              8      2.50e-05     00000 Conjugate Gradient Iteration
computing hessian-vector products by finite difference
              9      3.29e-06     00000 Conjugate Gradient Iteration
computing hessian-vector products by finite difference
             10      5.62e-07     00000 Conjugate Gradient Iteration
computing hessian-vector products by finite difference
             11      1.01e-07     00000 Conjugate Gradient Iteration
computing hessian-vector products by finite difference
             12      1.46e-08     00000 Conjugate Gradient Iteration
computing hessian-vector products by finite difference
             13      3.01e-09     00000 CG Converged
batch 0 complete
Done Calculating Responses
TESTING ORTHOGONALIZATION OF MULTIPOLE BASIS
Multipole virts passed orthogonality test
Virts Per Order
           75
          125

 --------------------------------------------------------------

                    Orbital Energies (a.u.)
 --------------------------------------------------------------

 Alpha MOs
 -- Occupied --
-10.2756 -10.2674 -10.2672 -10.2644 -10.2637 -10.2628 -10.2528  -0.9943
 -0.9027  -0.8747  -0.8070  -0.7254  -0.7001  -0.6241  -0.5689  -0.5599
 -0.5300  -0.5240  -0.5082  -0.4796  -0.4699  -0.4350  -0.4345  -0.3464
 -0.3349
 -- Virtual --
  0.0672   0.0680   0.0728   0.0845   0.0899   0.1096   0.1159   0.1182
  0.1410   0.1578   0.1708   0.1737   0.1921   0.1950   0.2005   0.2081
  0.2277   0.2311   0.2402   0.2448   0.2541   0.2639   0.2663   0.2772
  0.2815   0.2871   0.2900   0.2976   0.2998   0.3071   0.3093   0.3169
  0.3245   0.3293   0.3365   0.3403   0.3561   0.3578   0.3710   0.3781
  0.3837   0.3878   0.3894   0.3939   0.3966   0.4070   0.4077   0.4133
  0.4173   0.4334   0.4349   0.4405   0.4464   0.4523   0.4564   0.4577
  0.4678   0.4749   0.4801   0.4863   0.4988   0.5012   0.5176   0.5229
  0.5248   0.5295   0.5388   0.5428   0.5481   0.5530   0.5546   0.5706
  0.5868   0.5921   0.6009   0.6043   0.6074   0.6265   0.6445   0.6471
  0.6658   0.6782   0.6860   0.6906   0.6917   0.7031   0.7262   0.7290
  0.7340   0.7350   0.7485   0.7640   0.7677   0.7707   0.7834   0.7907
  0.7969   0.7996   0.8046   0.8071   0.8119   0.8270   0.8302   0.8385
  0.8402   0.8418   0.8487   0.8587   0.8619   0.8783   0.8960   0.8985
  0.9150   0.9198   0.9363   0.9511   0.9552   1.0159   1.0285   1.0441
  1.0498   1.0648   1.0753   1.0828   1.0931   1.0961   1.1082   1.1468
  1.1697   1.1829   1.2573   1.2802   1.3013   1.3263   1.3512   1.3564
  1.3850   1.4413   1.4547   1.4634   1.4736   1.4903   1.5327   1.5457
  1.6029   1.6079   1.6261   1.6298   1.6736   1.6813   1.7438   1.7847
  1.7975   1.8037   1.8127   1.8229   1.8355   1.8725   1.8895   1.9148
  1.9245   1.9360   1.9551   1.9697   1.9909   2.0008   2.0183   2.0276
  2.0385   2.0530   2.0758   2.0995   2.1176   2.1281   2.1783   2.1835
  2.2014   2.2423   2.2496   2.2749   2.2920   2.3172   2.3993   2.4052
  2.4121   2.4190   2.4871   2.5165   2.5415   2.5575   2.5721   2.6160
  2.6209   2.6382   2.6750   2.6779   2.7015   2.7176   2.7618   2.7779
  2.7916   2.8182   2.8288   2.8550   2.8684   2.9071   2.9148   2.9185
  2.9444   2.9477   2.9708   2.9835   2.9981   3.0206   3.0221   3.0566
  3.0694   3.0960   3.1067   3.1434   3.1856   3.1936   3.2083   3.2272
  3.2338   3.2477   3.2951   3.3092   3.3421   3.3628   3.3718   3.3846
  3.4051   3.4479   3.4533   3.4560   3.4665   3.4784   3.4934   3.5086
  3.5128   3.5343   3.5484   3.5494   3.5681   3.5849   3.5936   3.6100
  3.6226   3.6348   3.6637   3.6957   3.7158   3.7581   3.7879   3.8220
  3.8538   3.8968   3.9165   3.9660   3.9735   4.0018   4.0428   4.0618
  4.1245   4.2064   4.2754   4.2858   4.2986   4.3219   4.3297   4.3390
  4.3603   4.3802   4.3912   4.4114   4.4413   4.4571   4.4910   4.5428
  4.6074   4.6423   4.7616   4.7796   4.8403   4.8952   4.9099   4.9540
  5.0336   5.0554   5.1759   5.2716   5.3819   5.3926   5.5103   5.5394
  5.6789   5.8537  22.5830  22.6839  22.8988  22.9092  23.0264  23.0911
 23.4411
 --------------------------------------------------------------

          Ground-State Mulliken Net Atomic Charges

     Atom                 Charge (a.u.)
  ----------------------------------------
      1 C                    -1.079075
      2 C                    -0.432356
      3 C                     0.813469
      4 C                    -0.559643
      5 C                    -0.393474
      6 C                    -0.548210
      7 C                    -0.554303
      8 H                     0.386968
      9 H                     0.370216
     10 H                     0.285642
     11 H                     0.300416
     12 H                     0.397174
     13 H                     0.397591
     14 H                     0.372967
     15 H                     0.242617
  ----------------------------------------
  Sum of atomic charges =     0.000000

 -----------------------------------------------------------------
                    Cartesian Multipole Moments
 -----------------------------------------------------------------
    Charge (ESU x 10^10)
                -0.0000
    Dipole Moment (Debye)
         X       0.5037      Y       0.2116      Z       0.0421
       Tot       0.5480
    Quadrupole Moments (Debye-Ang)
        XX     -38.8761     XY       0.9363     YY     -37.3242
        XZ      -0.3194     YZ       2.4938     ZZ     -45.5691
    Octopole Moments (Debye-Ang^2)
       XXX     132.9583    XXY     -68.0003    XYY      45.9343
       YYY    -193.5163    XXZ     -67.6826    XYZ      -3.5044
       YYZ     -63.9956    XZZ      55.4639    YZZ     -67.5949
       ZZZ    -255.4613
    Hexadecapole Moments (Debye-Ang^3)
      XXXX    -845.3285   XXXY     169.6884   XXYY    -313.7770
      XYYY     172.2611   YYYY    -979.9062   XXXZ     253.0300
      XXYZ    -117.0959   XYYZ      78.7425   YYYZ    -366.5517
      XXZZ    -301.2304   XYZZ      59.2671   YYZZ    -309.5464
      XZZZ     344.5329   YZZZ    -431.0185   ZZZZ   -1038.8659
 -----------------------------------------------------------------
Archival summary:
1\1\compute-0-1.local\SP\ProcedureUnspecified\BasisUnspecified\78\meili\ThuSep3001:59:312021ThuSep3001:59:312021\0\\#,ProcedureUnspecified,BasisUnspecified,\\0,1\C\C,1,1.38974\H,2,1.07865,1,119.835\C,2,1.38913,1,120.551,3,179.886,0\H,4,1.08175,2,119.819,1,178.924,0\C,4,1.39051,2,119.992,1,-1.81215,0\H,6,1.08246,4,120.139,2,-179.438,0\C,6,1.38721,4,119.865,2,0.0292785,0\H,8,1.08083,6,120.057,4,-178.948,0\C,1,1.39182,2,119.199,3,-177.391,0\H,10,1.08113,1,120.012,2,178.579,0\C,1,1.49921,2,120.621,3,-0.0853202,0\H,12,1.09007,1,109.321,2,25.7584,0\H,12,1.09033,1,108.444,2,142.419,0\H,12,1.1,1,113.082,2,-96.1521,0\\\@

 Total job time:  10796.91s(wall), 66883.63s(cpu) 
 Thu Sep 30 01:59:31 2021

        *************************************************************
        *                                                           *
        *  Thank you very much for using Q-Chem.  Have a nice day.  *
        *                                                           *
        *************************************************************


Done Job For Fragment 1
calling putenv with: QCSCRATCH=/home/meili/scratch 
calling putenv with: QCTHREADS=8 
Doing General SCFMI
 Exchange:     0.1670 Hartree-Fock + 1.0000 wB97X-V + LR-HF
 Correlation:  1.0000 wB97X-V
 Using Euler-Maclaurin-Lebedev (99,590) quadrature formula
 Nonlocal Correlation:  VV10 with C = 0.0100 and b = 6.00 and scale = 1.00000
 Grid used for NLC:  SG-1 standard quadrature
performing fock build before subrot guess so that all methods have access
Printing subrot_rss_gen Method Specification:
Occupied Subspace Method is 0
Virtual Subspace Method is 0
Energy of the unrelaxed supersystem initial determinant -714.060806270801
performing fock build before subrot guess so that all methods have access
Printing subrot_rss_gen Method Specification:
Occupied Subspace Method is 0
Virtual Subspace Method is 0
Energy of the unrelaxed supersystem initial determinant w/ solvent -714.083133612009
write pseudocanon occs and virts to disk
write pseudocanon orbital energies to disk
Tolerance of ortho_decomp_scf: 1.00e-06
GDM subspace size: 20
Beginning the Orthogonal Decomposition of the Initial Supersystem Wavefunction
    1    -714.0259243329      2.09e-02     ortho_decomp Preconditoned Steepest Descent
    2    -714.0290367852      5.66e-04     ortho_decomp BFGS Step
    3    -714.0290482338      4.54e-05     ortho_decomp BFGS Step
    4    -714.0290482567      1.94e-06     ortho_decomp BFGS Step
    5    -714.0290482568      6.87e-08     ortho_decomp 00000 Convergence criterion met
 Hartree-Fock
 Hartree-Fock
 Hartree-Fock
Doing General SCFMI
 Exchange:     0.1670 Hartree-Fock + 1.0000 wB97X-V + LR-HF
 Correlation:  1.0000 wB97X-V
 Using Euler-Maclaurin-Lebedev (99,590) quadrature formula
 Nonlocal Correlation:  VV10 with C = 0.0100 and b = 6.00 and scale = 1.00000
 Grid used for NLC:  SG-1 standard quadrature
performing fock build at end of subrot_r(subrot) constructor so that all methods have access
<S^2> of initial wavefunction before polarization iterations 0.0000000000
Beginning iterations for the determination of the polarized wavefunction
Energy prior to optimization (guess energy) = -714.083133612008
Begin Timing: Total SCF Calculation
begin iterations for algorithm: DIIS         
the SCF tolerance is set to 1.00e-08
    1    -714.0831336120      4.59e-05     00000 
    2    -714.0834778409      2.23e-05     00000 
    3    -714.0835295796      1.09e-05     00000 
    4    -714.0835466682      3.93e-06     00000 
    5    -714.0835492908      2.23e-06     00000 
    6    -714.0835501933      1.10e-06     00000 
    7    -714.0835503153      6.74e-07     00000 
    8    -714.0835503494      3.20e-07     00000 
    9    -714.0835503560      1.44e-07     00000 
   10    -714.0835503586      8.14e-08     00000 
   11    -714.0835503597      3.22e-08     00000 
   12    -714.0835503599      1.30e-08     00000 
   13    -714.0835503600      7.02e-09     00000 Convergence criterion met
write pseudocanon occs and virts to disk
write pseudocanon orbital energies to disk
Timing for Total SCF: 9859.00s (wall), 64427.85s (cpu)
<S^2> of polarized wavefunction after polarization iterations 0.0000000000
relaxing scfmi constraint to allow all rotations in the entire AO span
Doing General SCFMI
 Exchange:     0.1670 Hartree-Fock + 1.0000 wB97X-V + LR-HF
 Correlation:  1.0000 wB97X-V
 Using Euler-Maclaurin-Lebedev (99,590) quadrature formula
 Nonlocal Correlation:  VV10 with C = 0.0100 and b = 6.00 and scale = 1.00000
 Grid used for NLC:  SG-1 standard quadrature
performing fock build at end of subrot_r(subrot) constructor so that all methods have access
<S^2> of polarized wavefunction before ct-allowed iterations 0.0000000000
Beginning iterations for the determination of the CT-Allowed wavefunction
Energy prior to optimization (guess energy) = -714.083550359977
Begin Timing: Total SCF Calculation
begin iterations for algorithm: DIIS         
the SCF tolerance is set to 1.00e-08
    1    -714.0835503600      6.32e-05     00000 
    2    -714.0849436801      6.62e-06     00000 
    3    -714.0849937208      1.25e-06     00000 
    4    -714.0849961631      4.85e-07     00000 
    5    -714.0849962889      1.80e-07     00000 
    6    -714.0849963142      5.19e-08     00000 
    7    -714.0849963159      1.62e-08     00000 
    8    -714.0849963162      5.27e-09     00000 Convergence criterion met
write pseudocanon occs and virts to disk
write pseudocanon orbital energies to disk
Timing for Total SCF: 5736.00s (wall), 37921.24s (cpu)
<S^2> of ct_allowed wavefunction after ct-allowed iterations 0.0000000000

================================
        Results of EDA2         
================================
Basic EDA Quantities
--------------------
Fragment Energies (Ha):
1 -442.4867659591
2 -271.5807585553
--------------------
  E_prp (kJ/mol) = 0.0000
  E_sol (kJ/mol) = 0.9416
  E_frz (kJ/mol) = -14.4756
  E_pol (kJ/mol) = -1.0942
  E_vct (kJ/mol) = -3.7964
  E_int (kJ/mol) = -18.4246
--------------------


Initial Wavefunction Decomposition
--------------------
  --------------------
  Orthogonal Fragment Subspace Decomposition:
  --------------------
     E_elec   (ELEC)   (kJ/mol) = -35.4096
     E_pauli  (PAULI)  (kJ/mol) = 52.9620
     E_disp   (DISP)   (kJ/mol) = -32.0280
     --------------------
     Terms summing to E_pauli:
     --------------------
        E_kep_pauli       (kJ/mol) = 68.9061
        E_disp_free_pauli (kJ/mol) = -15.9441
  --------------------
  Classical Frozen Decomposition:
  --------------------
     E_cls_elec  (CLS ELEC)  (kJ/mol) = -14.9944
     E_cls_pauli (CLS PAULI) (kJ/mol) = 0.5188
    [E_mod_pauli (MOD PAULI) (kJ/mol) = 32.5468 (CLS PAULI - DISP from orthogonal decomposition) ]
  --------------------
--------------------

Simplified EDA Summary (kJ/mol)
--------------------
 PREPARATION     0.0000
 SOLVATION       0.9416
 FROZEN          17.5524      (does not include dispersion)
[PAULI           52.9620]     (if this is negligible, then frozen describes electrostatics)
 DISPERSION      -32.0280
 POLARIZATION    -1.0942
 CHARGE TRANSFER -3.7964
 TOTAL           -18.4246     (PRP + SOL + FRZ + DISP + POL + CT)
--------------------

 --------------------------------------------------------------

                    Orbital Energies (a.u.)
 --------------------------------------------------------------

 Alpha MOs
 -- Occupied --
-14.4435 -10.2985 -10.2914 -10.2746 -10.2675 -10.2668 -10.2667 -10.2660
-10.2650 -10.2639 -10.2632 -10.2629 -10.2611 -10.2608 -10.2594 -10.2552
-10.2521 -10.2483  -1.1109  -0.9935  -0.9762  -0.9331  -0.9020  -0.8785
 -0.8736  -0.8623  -0.8402  -0.8064  -0.7522  -0.7391  -0.7247  -0.7098
 -0.6995  -0.6683  -0.6429  -0.6240  -0.5955  -0.5792  -0.5684  -0.5624
 -0.5574  -0.5495  -0.5345  -0.5308  -0.5292  -0.5259  -0.5195  -0.5075
 -0.4905  -0.4793  -0.4740  -0.4696  -0.4598  -0.4546  -0.4491  -0.4337
 -0.4332  -0.4324  -0.4204  -0.3762  -0.3439  -0.3344  -0.3131  -0.2887
 -- Virtual --
  0.0521   0.0620   0.0689   0.0718   0.0740   0.0745   0.0819   0.0920
  0.0928   0.0957   0.1013   0.1038   0.1079   0.1124   0.1197   0.1225
  0.1275   0.1313   0.1319   0.1431   0.1512   0.1552   0.1622   0.1656
  0.1697   0.1746   0.1773   0.1851   0.1873   0.1948   0.1974   0.2016
  0.2085   0.2124   0.2182   0.2232   0.2244   0.2286   0.2319   0.2341
  0.2363   0.2398   0.2457   0.2493   0.2540   0.2583   0.2623   0.2633
  0.2691   0.2716   0.2730   0.2748   0.2766   0.2815   0.2835   0.2874
  0.2885   0.2932   0.2964   0.2976   0.3010   0.3036   0.3060   0.3078
  0.3104   0.3156   0.3212   0.3244   0.3251   0.3272   0.3322   0.3332
  0.3365   0.3396   0.3409   0.3434   0.3459   0.3475   0.3491   0.3540
  0.3570   0.3601   0.3618   0.3644   0.3679   0.3697   0.3720   0.3753
  0.3803   0.3827   0.3876   0.3898   0.3916   0.3922   0.3942   0.3979
  0.3992   0.4042   0.4086   0.4129   0.4162   0.4163   0.4187   0.4214
  0.4250   0.4271   0.4298   0.4323   0.4348   0.4359   0.4419   0.4426
  0.4475   0.4486   0.4510   0.4518   0.4552   0.4558   0.4588   0.4626
  0.4650   0.4689   0.4712   0.4736   0.4764   0.4799   0.4837   0.4883
  0.4924   0.4964   0.4987   0.5003   0.5050   0.5064   0.5101   0.5169
  0.5186   0.5210   0.5237   0.5261   0.5300   0.5333   0.5388   0.5428
  0.5432   0.5446   0.5503   0.5517   0.5571   0.5594   0.5607   0.5665
  0.5724   0.5745   0.5750   0.5757   0.5846   0.5859   0.5924   0.6000
  0.6022   0.6055   0.6088   0.6116   0.6150   0.6191   0.6204   0.6281
  0.6295   0.6332   0.6364   0.6409   0.6416   0.6455   0.6534   0.6557
  0.6580   0.6633   0.6646   0.6687   0.6741   0.6748   0.6794   0.6806
  0.6898   0.6945   0.6953   0.6979   0.7048   0.7074   0.7087   0.7153
  0.7160   0.7195   0.7234   0.7254   0.7270   0.7313   0.7340   0.7382
  0.7411   0.7476   0.7503   0.7519   0.7524   0.7546   0.7614   0.7647
  0.7665   0.7677   0.7727   0.7760   0.7799   0.7836   0.7857   0.7890
  0.7944   0.7963   0.7991   0.8020   0.8059   0.8085   0.8108   0.8121
  0.8175   0.8192   0.8237   0.8268   0.8282   0.8327   0.8337   0.8368
  0.8381   0.8426   0.8467   0.8492   0.8533   0.8572   0.8589   0.8633
  0.8653   0.8717   0.8735   0.8746   0.8779   0.8845   0.8862   0.8889
  0.8926   0.8993   0.9019   0.9083   0.9159   0.9189   0.9194   0.9242
  0.9249   0.9329   0.9384   0.9423   0.9444   0.9517   0.9600   0.9636
  0.9654   0.9707   0.9752   0.9808   0.9904   0.9925   0.9975   1.0052
  1.0075   1.0154   1.0241   1.0271   1.0280   1.0371   1.0436   1.0505
  1.0537   1.0635   1.0663   1.0673   1.0749   1.0840   1.0877   1.0966
  1.1019   1.1084   1.1117   1.1227   1.1263   1.1299   1.1333   1.1389
  1.1504   1.1532   1.1665   1.1707   1.1856   1.1955   1.2029   1.2114
  1.2150   1.2192   1.2237   1.2264   1.2369   1.2463   1.2589   1.2619
  1.2642   1.2755   1.2950   1.2979   1.3133   1.3143   1.3226   1.3311
  1.3393   1.3428   1.3522   1.3559   1.3666   1.3753   1.3885   1.3997
  1.4021   1.4165   1.4236   1.4310   1.4340   1.4406   1.4455   1.4530
  1.4680   1.4728   1.4839   1.4863   1.4994   1.5010   1.5132   1.5139
  1.5260   1.5348   1.5400   1.5554   1.5635   1.5809   1.5849   1.6003
  1.6112   1.6149   1.6267   1.6375   1.6451   1.6533   1.6582   1.6649
  1.6692   1.6758   1.6937   1.6982   1.7114   1.7264   1.7391   1.7458
  1.7549   1.7694   1.7983   1.8047   1.8157   1.8213   1.8324   1.8385
  1.8508   1.8606   1.8650   1.8677   1.8696   1.8889   1.8947   1.8980
  1.9184   1.9262   1.9324   1.9421   1.9429   1.9491   1.9573   1.9599
  1.9675   1.9706   1.9831   1.9894   1.9937   1.9988   2.0077   2.0114
  2.0180   2.0210   2.0334   2.0356   2.0409   2.0474   2.0542   2.0568
  2.0609   2.0678   2.0776   2.0831   2.0984   2.1043   2.1157   2.1201
  2.1283   2.1309   2.1358   2.1475   2.1524   2.1662   2.1742   2.1814
  2.1885   2.1895   2.1996   2.2098   2.2293   2.2366   2.2448   2.2495
  2.2631   2.2714   2.2733   2.2966   2.3022   2.3152   2.3224   2.3282
  2.3416   2.3511   2.3532   2.3619   2.3785   2.3888   2.3953   2.4144
  2.4284   2.4327   2.4408   2.4446   2.4590   2.4673   2.4784   2.4813
  2.4931   2.4971   2.5088   2.5322   2.5436   2.5510   2.5623   2.5779
  2.5861   2.5953   2.6045   2.6065   2.6231   2.6298   2.6343   2.6434
  2.6496   2.6562   2.6705   2.6854   2.6870   2.6952   2.7083   2.7174
  2.7202   2.7367   2.7398   2.7485   2.7667   2.7717   2.7812   2.7908
  2.7957   2.8021   2.8042   2.8129   2.8216   2.8270   2.8368   2.8485
  2.8580   2.8613   2.8728   2.8753   2.8793   2.8882   2.8944   2.8961
  2.9052   2.9190   2.9231   2.9360   2.9432   2.9469   2.9525   2.9559
  2.9667   2.9695   2.9752   2.9850   2.9957   3.0017   3.0062   3.0176
  3.0206   3.0299   3.0310   3.0377   3.0459   3.0469   3.0543   3.0594
  3.0793   3.0868   3.0918   3.1008   3.1141   3.1147   3.1312   3.1424
  3.1512   3.1550   3.1703   3.1753   3.1866   3.1901   3.1994   3.2151
  3.2320   3.2388   3.2506   3.2569   3.2619   3.2734   3.2801   3.2941
  3.2974   3.3095   3.3144   3.3241   3.3368   3.3418   3.3512   3.3534
  3.3603   3.3664   3.3782   3.3826   3.3889   3.3981   3.4080   3.4104
  3.4193   3.4257   3.4266   3.4398   3.4458   3.4481   3.4522   3.4631
  3.4683   3.4773   3.4828   3.4863   3.4880   3.4953   3.5065   3.5087
  3.5208   3.5238   3.5291   3.5348   3.5446   3.5478   3.5505   3.5611
  3.5671   3.5690   3.5776   3.5889   3.5896   3.5936   3.6019   3.6052
  3.6120   3.6161   3.6245   3.6258   3.6309   3.6378   3.6419   3.6479
  3.6623   3.6637   3.6743   3.6766   3.6794   3.6941   3.6972   3.6982
  3.7101   3.7139   3.7173   3.7315   3.7329   3.7388   3.7528   3.7595
  3.7637   3.7788   3.7849   3.7960   3.8148   3.8256   3.8334   3.8387
  3.8579   3.8654   3.8820   3.8964   3.9138   3.9169   3.9373   3.9637
  3.9666   3.9877   4.0007   4.0061   4.0195   4.0446   4.0483   4.0670
  4.0756   4.0897   4.0997   4.1134   4.1439   4.1490   4.1693   4.2022
  4.2034   4.2302   4.2371   4.2377   4.2465   4.2665   4.2857   4.2998
  4.3062   4.3173   4.3214   4.3290   4.3358   4.3489   4.3562   4.3628
  4.3732   4.3765   4.3870   4.3941   4.4024   4.4177   4.4252   4.4341
  4.4448   4.4565   4.4640   4.4752   4.4853   4.4916   4.5186   4.5386
  4.5603   4.5732   4.5915   4.6198   4.6406   4.6526   4.6544   4.6612
  4.6736   4.7286   4.7683   4.7781   4.7825   4.8053   4.8333   4.8475
  4.8685   4.9068   4.9170   4.9437   4.9555   4.9672   4.9803   4.9909
  5.0073   5.0176   5.0398   5.0592   5.0797   5.0915   5.1055   5.1169
  5.1545   5.1659   5.2003   5.2145   5.2313   5.2451   5.2931   5.3135
  5.3912   5.3998   5.4082   5.4380   5.4975   5.5182   5.5288   5.5555
  5.5687   5.6345   5.6546   5.7165   5.7313   5.8303   5.8413   5.8463
  5.9726   5.9933   6.3046   6.3418  22.6743  22.6953  22.7481  22.7994
 22.8602  22.9379  22.9474  22.9760  23.0103  23.0509  23.1113  23.1322
 23.2193  23.3062  23.4818  23.5405  23.8132  32.9377
 --------------------------------------------------------------

          Ground-State Mulliken Net Atomic Charges

     Atom                 Charge (a.u.)
  ----------------------------------------
      1 C                    -0.258293
      2 C                    -1.081859
      3 C                     0.129398
      4 C                    -0.406441
      5 C                     0.198614
      6 C                    -0.157294
      7 C                    -0.368070
      8 C                    -0.629460
      9 C                    -0.573965
     10 C                    -0.610551
     11 N                     0.146111
     12 H                     0.261110
     13 H                     0.272425
     14 H                     0.297850
     15 H                     0.312040
     16 H                     0.225315
     17 H                     0.464485
     18 H                     0.440898
     19 H                     0.428819
     20 H                     0.422263
     21 H                     0.289880
     22 H                     0.256721
     23 C                    -1.039141
     24 C                    -0.397094
     25 C                     0.530088
     26 C                    -0.425311
     27 C                    -0.466831
     28 C                    -0.546062
     29 C                    -0.526956
     30 H                     0.435299
     31 H                     0.424393
     32 H                     0.281953
     33 H                     0.139720
     34 H                     0.436324
     35 H                     0.426252
     36 H                     0.388072
     37 H                     0.279297
  ----------------------------------------
  Sum of atomic charges =     0.000000

 -----------------------------------------------------------------
                    Cartesian Multipole Moments
 -----------------------------------------------------------------
    Charge (ESU x 10^10)
                 0.0000
    Dipole Moment (Debye)
         X       3.2368      Y       1.3167      Z       0.6688
       Tot       3.5578
    Quadrupole Moments (Debye-Ang)
        XX     -88.6946     XY       0.2632     YY    -101.5096
        XZ       3.5934     YZ      -3.4320     ZZ    -116.5853
    Octopole Moments (Debye-Ang^2)
       XXX      46.4599    XXY     -12.2483    XYY       4.0463
       YYY       2.4376    XXZ      13.7654    XYZ     -14.9461
       YYZ      27.8364    XZZ       0.4862    YZZ      14.8624
       ZZZ       1.1890
    Hexadecapole Moments (Debye-Ang^3)
      XXXX   -1437.5303   XXXY     236.4339   XXYY    -691.0376
      XYYY     283.6167   YYYY   -2625.1625   XXXZ     355.3861
      XXYZ    -125.2438   XYYZ     127.6064   YYYZ    -389.5509
      XXZZ    -637.6288   XYZZ     105.2602   YYZZ    -823.4690
      XZZZ     440.3133   YZZZ    -405.2908   ZZZZ   -2277.8401
 -----------------------------------------------------------------
Archival summary:
1\1\compute-0-1.local\SP\ProcedureUnspecified\BasisUnspecified\11719\meili\ThuSep3009:43:242021ThuSep3009:43:242021\0\\#,ProcedureUnspecified,BasisUnspecified,\\0,1\C\C,1,1.3981\H,2,1.08,1,120.125\C,2,1.39508,1,119.007,3,179.684,0\H,4,1.08045,2,119.188,1,179.962,0\C,4,1.40146,2,121.073,1,0.357789,0\H,6,1.08283,4,119.506,2,-179.99,0\C,6,1.38542,4,121.06,2,0.220808,0\H,8,1.0807,6,121.315,4,179.421,0\C,8,1.38758,6,117.734,4,-0.457221,0\N,10,1.3695,8,130.865,6,179.549,0\H,11,1.01399,10,126.096,8,-1.90657,0\C,11,1.37623,10,109.61,8,-179.946,0\H,13,1.08581,11,125.137,10,179.335,0\C,13,1.36363,11,110.231,10,0.453926,0\C,15,1.50714,13,127.463,11,177.986,0\H,16,1.0911,15,106.732,13,-138.835,0\H,16,1.09122,15,109.137,13,-23.7614,0\C,16,1.53371,15,116.007,13,100.378,0\H,19,1.08538,16,107.225,15,42.5254,0\H,19,1.1,16,109.221,15,160.533,0\H,19,1.1,16,110.015,15,-77.6563,0\H,1,2.69066,2,102.627,3,91.3468,0\C,23,1.07865,1,122.419,2,-53.7141,0\C,24,1.38913,23,119.613,1,64.1125,0\H,25,1.08175,24,119.819,23,-1.1898,0\C,24,1.38974,23,119.835,1,-116,0\C,25,1.39051,24,119.992,23,178.074,0\H,28,1.08246,25,120.139,24,-179.438,0\C,28,1.38721,25,119.865,24,0.0292785,0\H,30,1.08083,28,120.057,25,-178.948,0\C,27,1.39182,24,119.199,23,-177.391,0\H,32,1.08113,27,120.012,24,178.579,0\C,27,1.49921,24,120.621,23,-0.0853202,0\H,34,1.09007,27,109.321,24,25.7584,0\H,34,1.09033,27,108.444,24,142.419,0\H,34,1.1,27,113.082,24,-96.1521,0\\\@

 Total job time:  79298.21s(wall), 187630.45s(cpu) 
 Thu Sep 30 09:43:24 2021

        *************************************************************
        *                                                           *
        *  Thank you very much for using Q-Chem.  Have a nice day.  *
        *                                                           *
        *************************************************************


