                  Welcome to Q-Chem
     A Quantum Leap Into The Future Of Chemistry


 Q-Chem 5.2 (devel), Q-Chem, Inc., Pleasanton, CA (2019)

 Yihan Shao,  Zhengting Gan,  E. Epifanovsky,  A. T. B. Gilbert,  M. Wormit,  
 J. Kussmann,  A. W. Lange,  A. Behn,  Jia Deng,  Xintian Feng,  D. Ghosh,  
 M. Goldey,  P. R. Horn,  L. D. Jacobson,  I. Kaliman,  T. Kus,  A. Landau,  
 Jie Liu,  E. I. Proynov,  R. M. Richard,  R. P. Steele,  E. J. Sundstrom,  
 H. L. Woodcock III,  P. M. Zimmerman,  D. Zuev,  B. Albrecht,  E. Alguire,  
 S. A. Baeppler,  D. Barton,  Z. Benda,  Y. A. Bernard,  E. J. Berquist,  
 K. B. Bravaya,  H. Burton,  D. Casanova,  Chun-Min Chang,  Yunqing Chen,  
 A. Chien,  K. D. Closser,  M. P. Coons,  S. Coriani,  S. Dasgupta,  
 A. L. Dempwolff,  M. Diedenhofen,  Hainam Do,  R. G. Edgar,  Po-Tung Fang,  
 S. Faraji,  S. Fatehi,  Qingguo Feng,  K. D. Fenk,  J. Fosso-Tande,  
 J. Gayvert,  Qinghui Ge,  A. Ghysels,  G. Gidofalvi,  J. Gomes,  
 J. Gonthier,  A. Gunina,  D. Hait,  M. W. D. Hanson-Heine,  
 P. H. P. Harbach,  A. W. Hauser,  M. F. Herbst,  J. E. Herr,  
 E. G. Hohenstein,  Z. C. Holden,  Kerwin Hui,  B. C. Huynh,  T.-C. Jagau,  
 Hyunjun Ji,  B. Kaduk,  K. Khistyaev,  Jaehoon Kim,  P. Klunzinger,  K. Koh,  
 D. Kosenkov,  L. Koulias,  T. Kowalczyk,  C. M. Krauter,  A. Kunitsa,  
 Ka Un Lao,  A. Laurent,  K. V. Lawler,  Joonho Lee,  D. Lefrancois,  
 S. Lehtola,  D. S. Levine,  Yi-Pei Li,  You-Sheng Lin,  Fenglai Liu,  
 E. Livshits,  A. Luenser,  P. Manohar,  E. Mansoor,  S. F. Manzer,  
 Shan-Ping Mao,  Yuezhi Mao,  N. Mardirossian,  A. V. Marenich,  
 T. Markovich,  L. A. Martinez-Martinez,  S. A. Maurer,  N. J. Mayhall,  
 S. C. McKenzie,  J.-M. Mewes,  P. Morgante,  A. F. Morrison,  
 J. W. Mullinax,  K. Nanda,  T. S. Nguyen-Beck,  R. Olivares-Amaya,  
 J. A. Parkhill,  Zheng Pei,  T. M. Perrine,  F. Plasser,  P. Pokhilko,  
 S. Prager,  A. Prociuk,  E. Ramos,  D. R. Rehn,  F. Rob,  M. Scheurer,  
 M. Schneider,  N. Sergueev,  S. M. Sharada,  S. Sharma,  D. W. Small,  
 T. Stauch,  T. Stein,  Yu-Chuan Su,  A. J. W. Thom,  A. Tkatchenko,  
 T. Tsuchimochi,  N. M. Tubman,  L. Vogt,  M. L. Vidal,  O. Vydrov,  
 M. A. Watson,  J. Wenzel,  M. de Wergifosse,  T. A. Wesolowski,  A. White,  
 J. Witte,  A. Yamada,  Jun Yang,  K. Yao,  S. Yeganeh,  S. R. Yost,  
 Zhi-Qiang You,  A. Zech,  Igor Ying Zhang,  Xing Zhang,  Yan Zhao,  
 Ying Zhu,  B. R. Brooks,  G. K. L. Chan,  C. J. Cramer,  M. S. Gordon,  
 W. J. Hehre,  A. Klamt,  M. W. Schmidt,  C. D. Sherrill,  D. G. Truhlar,  
 A. Aspuru-Guzik,  R. Baer,  A. T. Bell,  N. A. Besley,  Jeng-Da Chai,  
 A. E. DePrince, III,  R. A. DiStasio Jr.,  A. Dreuw,  B. D. Dunietz,  
 T. R. Furlani,  Chao-Ping Hsu,  Yousung Jung,  Jing Kong,  D. S. Lambrecht,  
 WanZhen Liang,  C. Ochsenfeld,  V. A. Rassolov,  L. V. Slipchenko,  
 J. E. Subotnik,  T. Van Voorhis,  J. M. Herbert,  A. I. Krylov,  
 P. M. W. Gill,  M. Head-Gordon

 Contributors to earlier versions of Q-Chem not listed above: 
 R. D. Adamson,  B. Austin,  J. Baker,  G. J. O. Beran,  K. Brandhorst,  
 S. T. Brown,  E. F. C. Byrd,  A. K. Chakraborty,  C.-L. Cheng,  
 Siu Hung Chien,  D. M. Chipman,  D. L. Crittenden,  H. Dachsel,  
 R. J. Doerksen,  A. D. Dutoi,  L. Fusti-Molnar,  W. A. Goddard III,  
 A. Golubeva-Zadorozhnaya,  S. R. Gwaltney,  G. Hawkins,  A. Heyden,  
 S. Hirata,  G. Kedziora,  F. J. Keil,  C. Kelley,  Jihan Kim,  R. A. King,  
 R. Z. Khaliullin,  P. P. Korambath,  W. Kurlancheek,  A. M. Lee,  M. S. Lee,  
 S. V. Levchenko,  Ching Yeh Lin,  D. Liotard,  R. C. Lochan,  I. Lotan,  
 P. E. Maslen,  N. Nair,  D. P. O'Neill,  D. Neuhauser,  E. Neuscamman,  
 C. M. Oana,  R. Olson,  B. Peters,  R. Peverati,  P. A. Pieniazek,  
 Y. M. Rhee,  J. Ritchie,  M. A. Rohrdanz,  E. Rosta,  N. J. Russ,  
 H. F. Schaefer III,  N. E. Schultz,  N. Shenvi,  A. C. Simmonett,  A. Sodt,  
 D. Stuck,  K. S. Thanthiriwatte,  V. Vanovschi,  Tao Wang,  A. Warshel,  
 C. F. Williams,  Q. Wu,  X. Xu,  W. Zhang

 Please cite Q-Chem as follows:
 Y. Shao et al., Mol. Phys. 113, 184-215 (2015)
 DOI: 10.1080/00268976.2014.952696

 Q-Chem 5.2.1 for Intel X86 EM64T Linux

 Parts of Q-Chem use Armadillo 8.300.2 (Tropical Shenanigans).
 http://arma.sourceforge.net/

 Q-Chem begins on Tue Sep 28 10:13:02 2021  

compute-0-11.local
Host: 0

     Scratch files written to /home/meili/scratch/qchem20311//
NAlpha2: 90
NElect   90
Mult     1
Symmetry turned off for PCM/SM12/SMD calculation

 Q-Chem warning in module libgen/rem_setup.C, line 2813:

 Neither GIA nor STOLL is specified by user. Use STOLL as the default


Checking the input file for inconsistencies... 	...done.

--------------------------------------------------------------
User input:
--------------------------------------------------------------
$comment
SSI-011TYR-102GLN-1.pdb
$end

$molecule
0 1
--
0 1
C   -2.152306903497   -0.480680452761    1.406825829673
C   -0.742306903497   -0.237680452761   -0.675174170327
C   -1.510306903497    0.363319547239    0.320825829673
C   -0.135306903497    0.521319547239   -1.670174170327
C   -1.658306903497    1.751319547239    0.301825829673
C   -0.293306903497    1.898319547239   -1.686174170327
C   -1.056306903497    2.517319547239   -0.699174170327
O    0.309693096503    2.621319547239   -2.677174170327
H   -0.618306903497   -1.313680452761   -0.682174170327
H    0.456693096503    0.043319547239   -2.438174170327
H   -1.874306903497   -0.071680452761    2.379825829673
H   -1.746306903497   -1.491680452761    1.350825829673
H   -2.237306903497    2.241319547239    1.074825829673
H   -1.164306903497    3.588319547239   -0.697174170327
H    0.149693096503    3.566319547239   -2.575174170327
H   -3.249253903497   -0.539660452761    1.350000829673
--
0 1
C    1.495693096503   -1.466680452761    2.578825829673
C    1.591693096503   -2.157680452761    1.235825829673
O    0.826693096503   -3.074680452761    0.952825829673
N    2.534693096503   -1.732680452761    0.396825829673
H    0.694693096503   -1.911680452761    3.170825829673
H    1.255693096503   -0.417680452761    2.399825829673
H    2.613693096503   -2.180680452761   -0.505174170327
H    3.132693096503   -0.958680452761    0.640825829673
H    2.446973096503   -1.538340452761    3.126487829673
$end

$rem
JOBTYPE			EDA
EDA2			1
method			wB97X-V
BASIS			def2-TZVPD
XC_GRID			000099000590
NL_GRID			1
UNRESTRICTED		FALSE
MAX_SCF_CYCLES		200
SYMMETRY		FALSE
SYM_IGNORE		TRUE
MEM_STATIC		2000
BASIS_LIN_DEP_THRESH 	6
THRESH 			14
SCF_CONVERGENCE 	8
SCF_PRINT_FRGM 		TRUE
SOLVENT_METHOD          PCM
$end

$PCM
THEORY                  CPCM
METHOD                  SWIG
SOLVER                  INVERSION
RADII                   UFF
HPOINTS                 302
HEAVYPOINTS             302
PRINTLEVEL              0
$END

$SOLVENT
DIELECTRIC              78.390000 ! water
$END
--------------------------------------------------------------
 ----------------------------------------------------------------
             Standard Nuclear Orientation (Angstroms)
    I     Atom           X                Y                Z
 ----------------------------------------------------------------
    1      C      -2.1523069035    -0.4806804528     1.4068258297
    2      C      -0.7423069035    -0.2376804528    -0.6751741703
    3      C      -1.5103069035     0.3633195472     0.3208258297
    4      C      -0.1353069035     0.5213195472    -1.6701741703
    5      C      -1.6583069035     1.7513195472     0.3018258297
    6      C      -0.2933069035     1.8983195472    -1.6861741703
    7      C      -1.0563069035     2.5173195472    -0.6991741703
    8      O       0.3096930965     2.6213195472    -2.6771741703
    9      H      -0.6183069035    -1.3136804528    -0.6821741703
   10      H       0.4566930965     0.0433195472    -2.4381741703
   11      H      -1.8743069035    -0.0716804528     2.3798258297
   12      H      -1.7463069035    -1.4916804528     1.3508258297
   13      H      -2.2373069035     2.2413195472     1.0748258297
   14      H      -1.1643069035     3.5883195472    -0.6971741703
   15      H       0.1496930965     3.5663195472    -2.5751741703
   16      H      -3.2492539035    -0.5396604528     1.3500008297
   17      C       1.4956930965    -1.4666804528     2.5788258297
   18      C       1.5916930965    -2.1576804528     1.2358258297
   19      O       0.8266930965    -3.0746804528     0.9528258297
   20      N       2.5346930965    -1.7326804528     0.3968258297
   21      H       0.6946930965    -1.9116804528     3.1708258297
   22      H       1.2556930965    -0.4176804528     2.3998258297
   23      H       2.6136930965    -2.1806804528    -0.5051741703
   24      H       3.1326930965    -0.9586804528     0.6408258297
   25      H       2.4469730965    -1.5383404528     3.1264878297
 ----------------------------------------------------------------
 Nuclear Repulsion Energy =         666.92401209 hartrees
 There are       45 alpha and       45 beta electrons
 Requested basis set is def2-TZVPD
 There are 223 shells and 567 basis functions

 Total QAlloc Memory Limit   2000 MB
 Mega-Array Size      1956 MB
 MEM_STATIC part      2000 MB
 Discretize the solute cavity surface with Lebedev spheres
	Using 302 Lebedev grid points for each H atom
	Using 302 Lebedev grid points for other atoms
	Atomic van der Waals radii will be scaled by 1.20
 Remove points where switching function is < 1.0e-08
 Keep 2791 surface tesserae and discard 4759 interior tesserae
 Molecular Surface Area = 280.801 Angst**2
 A cutoff of  1.0D-14 yielded  22091 shell pairs
 There are    144065 function pairs (    182097 Cartesian)
 Smallest overlap matrix eigenvalue = 4.79E-07
 Linear dependence detected in AO basis
 Tighter screening thresholds may be required for diffuse basis sets
 Use S2THRESH > 14 and THRESH = 14 in case of SCF convergence issues
 Number of orthogonalized atomic orbitals = 566
 Maximum deviation from orthogonality = 1.856E-10

 Scale SEOQF with 1.000000e-01/1.000000e-01/1.000000e-01

 Standard Electronic Orientation quadrupole field applied
 Nucleus-field energy     =     0.0000000067 hartrees

 -----------------------------------------------------------------------
  General SCF calculation program by
  Eric Jon Sundstrom, Paul Horn, Yuezhi Mao, Dmitri Zuev, Alec White,
  David Stuck, Shaama M.S., Shane Yost, Joonho Lee, David Small,
  Daniel Levine, Susi Lehtola, Hugh Burton, Evgeny Epifanovsky,
  Bang C. Huynh
 -----------------------------------------------------------------------
================================================================
                 ALMO-EDA with the EDA2 driver                  
================================================================
 The second-generation ALMO-EDA (for DFT):                      
 P. R. Horn, Y. Mao and M. Head-Gordon, PCCP, 18, 23067 (2016)  
 Decomposition of the frozen energy:                            
 P. R. Horn, Y. Mao and M. Head-Gordon, JCP, 144, 114107 (2016) 
 FERF model for polarization:                                   
 P. R. Horn and M. Head-Gordon, JCP, 143, 114111 (2015)         
Using eda2 option set 1
Option set summary: Frozen orbital wavefunction, initial wavefunction decomposition, and nDQ polarization.
--------------------------------
Printing EDA Options
--------------------------------
eda_child_super_basis      0
fragmo_guess_mode          0
child_mp                   1
child_mp_orders            232
cls_elec                   1
cls_disp                   0
scfmi_mode                 1
scfmi_occs                 0
scfmi_virts                0
frz_relax                  0
frz_relax_method           0
dc_pen_start               0
dc_pen_conv                0
dc_pen_increment           0
dc_pen_steps               0
dc_pen_thresh_factor       0
dc_pen_pre_newton_thresh   0
frz_ortho_decomp           1
frz_ortho_decomp_conv      6
frgm_method                2
scfmi_freeze_ss            0
separate_rehyb             0
plot_diff_den              0
eda_nocv                   0
eda_vct_relax              1
disp_free_x                0
disp_free_c                0
eda_bsse                   0
eda_pct_a                  0
eda_covp                   0
--------------------------------
Attempting to make child job directory: /home/meili/scratch/qchem20311//Frg1/
Attempting to make child job directory: /home/meili/scratch/qchem20311//Frg2/
Creating input file /home/meili/scratch/qchem20311/Frg1.input
using default PutDataFrgm: nothing
calling putenv with: QCSCRATCH=/home/meili/scratch/qchem20311/ 
Spawning Job For Fragment 0
                  Welcome to Q-Chem
     A Quantum Leap Into The Future Of Chemistry


 Q-Chem 5.2 (devel), Q-Chem, Inc., Pleasanton, CA (2019)

 Yihan Shao,  Zhengting Gan,  E. Epifanovsky,  A. T. B. Gilbert,  M. Wormit,  
 J. Kussmann,  A. W. Lange,  A. Behn,  Jia Deng,  Xintian Feng,  D. Ghosh,  
 M. Goldey,  P. R. Horn,  L. D. Jacobson,  I. Kaliman,  T. Kus,  A. Landau,  
 Jie Liu,  E. I. Proynov,  R. M. Richard,  R. P. Steele,  E. J. Sundstrom,  
 H. L. Woodcock III,  P. M. Zimmerman,  D. Zuev,  B. Albrecht,  E. Alguire,  
 S. A. Baeppler,  D. Barton,  Z. Benda,  Y. A. Bernard,  E. J. Berquist,  
 K. B. Bravaya,  H. Burton,  D. Casanova,  Chun-Min Chang,  Yunqing Chen,  
 A. Chien,  K. D. Closser,  M. P. Coons,  S. Coriani,  S. Dasgupta,  
 A. L. Dempwolff,  M. Diedenhofen,  Hainam Do,  R. G. Edgar,  Po-Tung Fang,  
 S. Faraji,  S. Fatehi,  Qingguo Feng,  K. D. Fenk,  J. Fosso-Tande,  
 J. Gayvert,  Qinghui Ge,  A. Ghysels,  G. Gidofalvi,  J. Gomes,  
 J. Gonthier,  A. Gunina,  D. Hait,  M. W. D. Hanson-Heine,  
 P. H. P. Harbach,  A. W. Hauser,  M. F. Herbst,  J. E. Herr,  
 E. G. Hohenstein,  Z. C. Holden,  Kerwin Hui,  B. C. Huynh,  T.-C. Jagau,  
 Hyunjun Ji,  B. Kaduk,  K. Khistyaev,  Jaehoon Kim,  P. Klunzinger,  K. Koh,  
 D. Kosenkov,  L. Koulias,  T. Kowalczyk,  C. M. Krauter,  A. Kunitsa,  
 Ka Un Lao,  A. Laurent,  K. V. Lawler,  Joonho Lee,  D. Lefrancois,  
 S. Lehtola,  D. S. Levine,  Yi-Pei Li,  You-Sheng Lin,  Fenglai Liu,  
 E. Livshits,  A. Luenser,  P. Manohar,  E. Mansoor,  S. F. Manzer,  
 Shan-Ping Mao,  Yuezhi Mao,  N. Mardirossian,  A. V. Marenich,  
 T. Markovich,  L. A. Martinez-Martinez,  S. A. Maurer,  N. J. Mayhall,  
 S. C. McKenzie,  J.-M. Mewes,  P. Morgante,  A. F. Morrison,  
 J. W. Mullinax,  K. Nanda,  T. S. Nguyen-Beck,  R. Olivares-Amaya,  
 J. A. Parkhill,  Zheng Pei,  T. M. Perrine,  F. Plasser,  P. Pokhilko,  
 S. Prager,  A. Prociuk,  E. Ramos,  D. R. Rehn,  F. Rob,  M. Scheurer,  
 M. Schneider,  N. Sergueev,  S. M. Sharada,  S. Sharma,  D. W. Small,  
 T. Stauch,  T. Stein,  Yu-Chuan Su,  A. J. W. Thom,  A. Tkatchenko,  
 T. Tsuchimochi,  N. M. Tubman,  L. Vogt,  M. L. Vidal,  O. Vydrov,  
 M. A. Watson,  J. Wenzel,  M. de Wergifosse,  T. A. Wesolowski,  A. White,  
 J. Witte,  A. Yamada,  Jun Yang,  K. Yao,  S. Yeganeh,  S. R. Yost,  
 Zhi-Qiang You,  A. Zech,  Igor Ying Zhang,  Xing Zhang,  Yan Zhao,  
 Ying Zhu,  B. R. Brooks,  G. K. L. Chan,  C. J. Cramer,  M. S. Gordon,  
 W. J. Hehre,  A. Klamt,  M. W. Schmidt,  C. D. Sherrill,  D. G. Truhlar,  
 A. Aspuru-Guzik,  R. Baer,  A. T. Bell,  N. A. Besley,  Jeng-Da Chai,  
 A. E. DePrince, III,  R. A. DiStasio Jr.,  A. Dreuw,  B. D. Dunietz,  
 T. R. Furlani,  Chao-Ping Hsu,  Yousung Jung,  Jing Kong,  D. S. Lambrecht,  
 WanZhen Liang,  C. Ochsenfeld,  V. A. Rassolov,  L. V. Slipchenko,  
 J. E. Subotnik,  T. Van Voorhis,  J. M. Herbert,  A. I. Krylov,  
 P. M. W. Gill,  M. Head-Gordon

 Contributors to earlier versions of Q-Chem not listed above: 
 R. D. Adamson,  B. Austin,  J. Baker,  G. J. O. Beran,  K. Brandhorst,  
 S. T. Brown,  E. F. C. Byrd,  A. K. Chakraborty,  C.-L. Cheng,  
 Siu Hung Chien,  D. M. Chipman,  D. L. Crittenden,  H. Dachsel,  
 R. J. Doerksen,  A. D. Dutoi,  L. Fusti-Molnar,  W. A. Goddard III,  
 A. Golubeva-Zadorozhnaya,  S. R. Gwaltney,  G. Hawkins,  A. Heyden,  
 S. Hirata,  G. Kedziora,  F. J. Keil,  C. Kelley,  Jihan Kim,  R. A. King,  
 R. Z. Khaliullin,  P. P. Korambath,  W. Kurlancheek,  A. M. Lee,  M. S. Lee,  
 S. V. Levchenko,  Ching Yeh Lin,  D. Liotard,  R. C. Lochan,  I. Lotan,  
 P. E. Maslen,  N. Nair,  D. P. O'Neill,  D. Neuhauser,  E. Neuscamman,  
 C. M. Oana,  R. Olson,  B. Peters,  R. Peverati,  P. A. Pieniazek,  
 Y. M. Rhee,  J. Ritchie,  M. A. Rohrdanz,  E. Rosta,  N. J. Russ,  
 H. F. Schaefer III,  N. E. Schultz,  N. Shenvi,  A. C. Simmonett,  A. Sodt,  
 D. Stuck,  K. S. Thanthiriwatte,  V. Vanovschi,  Tao Wang,  A. Warshel,  
 C. F. Williams,  Q. Wu,  X. Xu,  W. Zhang

 Please cite Q-Chem as follows:
 Y. Shao et al., Mol. Phys. 113, 184-215 (2015)
 DOI: 10.1080/00268976.2014.952696

 Q-Chem 5.2.1 for Intel X86 EM64T Linux

 Parts of Q-Chem use Armadillo 8.300.2 (Tropical Shenanigans).
 http://arma.sourceforge.net/

 Q-Chem begins on Tue Sep 28 10:15:11 2021  

compute-0-11.local
Host: 0

     Scratch files written to /home/meili/scratch/qchem20311//Frg1//
NAlpha2: 58
NElect   58
Mult     1
Symmetry turned off for PCM/SM12/SMD calculation

Checking the input file for inconsistencies... 	...done.

--------------------------------------------------------------
User input:
--------------------------------------------------------------
$molecule
0 1
 6	-2.1523069035	-0.4806804528	1.4068258297
 6	-0.7423069035	-0.2376804528	-0.6751741703
 6	-1.5103069035	0.3633195472	0.3208258297
 6	-0.1353069035	0.5213195472	-1.6701741703
 6	-1.6583069035	1.7513195472	0.3018258297
 6	-0.2933069035	1.8983195472	-1.6861741703
 6	-1.0563069035	2.5173195472	-0.6991741703
 8	0.3096930965	2.6213195472	-2.6771741703
 1	-0.6183069035	-1.3136804528	-0.6821741703
 1	0.4566930965	0.0433195472	-2.4381741703
 1	-1.8743069035	-0.0716804528	2.3798258297
 1	-1.7463069035	-1.4916804528	1.3508258297
 1	-2.2373069035	2.2413195472	1.0748258297
 1	-1.1643069035	3.5883195472	-0.6971741703
 1	0.1496930965	3.5663195472	-2.5751741703
 1	-3.2492539035	-0.5396604528	1.3500008297
$end
$rem
EDA2		1
METHOD		WB97X-V
BASIS		DEF2-TZVPD
XC_GRID		000099000590
NL_GRID		1
UNRESTRICTED		FALSE
MAX_SCF_CYCLES		200
SYMMETRY		FALSE
SYM_IGNORE		TRUE
BASIS_LIN_DEP_THRESH		6
THRESH		14
SCF_CONVERGENCE		8
SCF_PRINT_FRGM		TRUE
SOLVENT_METHOD		PCM
!required keywords
JOBTYPE		SP
SYM_IGNORE		TRUE
SUBSYSTEM		TRUE
GEN_SCFMAN		TRUE
CHILD_INSTRUCTION		2
SYM_IGNORE		TRUE
SCFMI		0
RI_K 0		
PARI_K 0		
MIN_PARI_K 0		
IARI_K 0		
OCC_RI_K 0		
PURECART		1111
MEM_STATIC		2000
MEM_TOTAL		2000
GUI		0
CHILD_MP		1
CHILD_MP_ORDERS		232
FRZ_RELAX		0
FRZ_RELAX_METHOD		0
EDA_CLS_ELEC		1
EDA_CLS_DISP		0
FRZ_ORTHO_DECOMP		1
EDA2		FALSE
FRGM_METHOD		FALSE
CIS_N_ROOTS  0
LOCAL_CIS    0
CIS_RLX_DNS  1
$end
$pcm
THEORY                  CPCM
METHOD                  SWIG
SOLVER                  INVERSION
RADII                   UFF
HPOINTS                 302
HEAVYPOINTS             302
PRINTLEVEL              0
$end
$solvent
DIELECTRIC              78.390000 ! water
$end
--------------------------------------------------------------
 ----------------------------------------------------------------
             Standard Nuclear Orientation (Angstroms)
    I     Atom           X                Y                Z
 ----------------------------------------------------------------
    1      C      -2.1523069035    -0.4806804528     1.4068258297
    2      C      -0.7423069035    -0.2376804528    -0.6751741703
    3      C      -1.5103069035     0.3633195472     0.3208258297
    4      C      -0.1353069035     0.5213195472    -1.6701741703
    5      C      -1.6583069035     1.7513195472     0.3018258297
    6      C      -0.2933069035     1.8983195472    -1.6861741703
    7      C      -1.0563069035     2.5173195472    -0.6991741703
    8      O       0.3096930965     2.6213195472    -2.6771741703
    9      H      -0.6183069035    -1.3136804528    -0.6821741703
   10      H       0.4566930965     0.0433195472    -2.4381741703
   11      H      -1.8743069035    -0.0716804528     2.3798258297
   12      H      -1.7463069035    -1.4916804528     1.3508258297
   13      H      -2.2373069035     2.2413195472     1.0748258297
   14      H      -1.1643069035     3.5883195472    -0.6971741703
   15      H       0.1496930965     3.5663195472    -2.5751741703
   16      H      -3.2492539035    -0.5396604528     1.3500008297
 ----------------------------------------------------------------
 Nuclear Repulsion Energy =         342.67484380 hartrees
 There are       29 alpha and       29 beta electrons
 Requested basis set is def2-TZVPD
 There are 145 shells and 371 basis functions

 Total QAlloc Memory Limit   2000 MB
 Mega-Array Size      1956 MB
 MEM_STATIC part      2000 MB
 Discretize the solute cavity surface with Lebedev spheres
	Using 302 Lebedev grid points for each H atom
	Using 302 Lebedev grid points for other atoms
	Atomic van der Waals radii will be scaled by 1.20
 Remove points where switching function is < 1.0e-08
 Keep 1862 surface tesserae and discard 2970 interior tesserae
 Molecular Surface Area = 190.476 Angst**2
 A cutoff of  1.0D-14 yielded  10043 shell pairs
 There are     67093 function pairs (     85795 Cartesian)
 Smallest overlap matrix eigenvalue = 5.47E-07
 Linear dependence detected in AO basis
 Tighter screening thresholds may be required for diffuse basis sets
 Use S2THRESH > 14 and THRESH = 14 in case of SCF convergence issues
 Number of orthogonalized atomic orbitals = 370
 Maximum deviation from orthogonality = 1.572E-10

 Scale SEOQF with 1.000000e-01/1.000000e-01/1.000000e-01

 Standard Electronic Orientation quadrupole field applied
 Nucleus-field energy     =     0.0000000013 hartrees
 Guess from superposition of atomic densities
 Warning:  Energy on first SCF cycle will be non-variational
 SAD guess density has 58.000000 electrons

 -----------------------------------------------------------------------
  General SCF calculation program by
  Eric Jon Sundstrom, Paul Horn, Yuezhi Mao, Dmitri Zuev, Alec White,
  David Stuck, Shaama M.S., Shane Yost, Joonho Lee, David Small,
  Daniel Levine, Susi Lehtola, Hugh Burton, Evgeny Epifanovsky,
  Bang C. Huynh
 -----------------------------------------------------------------------
 Exchange:     0.1670 Hartree-Fock + 1.0000 wB97X-V + LR-HF
 Correlation:  1.0000 wB97X-V
 Using Euler-Maclaurin-Lebedev (99,590) quadrature formula
 Nonlocal Correlation:  VV10 with C = 0.0100 and b = 6.00 and scale = 1.00000
 Grid used for NLC:  SG-1 standard quadrature
Energy prior to optimization (guess energy) = -346.733748489192
Begin Timing: Total SCF Calculation
begin iterations for algorithm: DIIS         
the SCF tolerance is set to 1.00e-08
    1    -346.7337484892      2.19e-03     00000 
    2    -346.7797039564      1.70e-03     00000 
    3    -346.8161698446      2.82e-04     00000 
    4    -346.8172832976      1.29e-04     00000 
    5    -346.8175594713      2.40e-05     00000 
    6    -346.8175715192      8.42e-06     00000 
    7    -346.8175731164      3.71e-06     00000 
    8    -346.8175734310      8.77e-07     00000 
    9    -346.8175734615      4.18e-07     00000 
   10    -346.8175734677      1.44e-07     00000 
   11    -346.8175734689      5.08e-08     00000 
   12    -346.8175734691      2.01e-08     00000 
   13    -346.8175734691      5.93e-09     00000 Convergence criterion met
Timing for Total SCF: 770.00s (wall), 4836.11s (cpu)

************** Final PCM Free Energy Summary **************
 G_electrostatic  =      -0.00558594 hartree =      -3.50523006 kcal/mol
 G_cavitation     =       0.00000000 hartree =       0.00000000 kcal/mol
 G_dispersion     =       0.00000000 hartree =       0.00000000 kcal/mol
 G_repulsion      =       0.00000000 hartree =       0.00000000 kcal/mol
 --------------------------------------------------
 Non-electrostatic Free Energy =       0.00000000 hartree =       0.00000000 kcal/mol
 Total                         =      -0.00558594 hartree =      -3.50523006 kcal/mol
 --------------------------------------------------
 SCF Energy (H0 + V/2)                       =    -346.81757347 
 Solute Internal Energy (H0)                 =    -346.81198753 
 Total Free Energy (H0 + V/2 + non-elec)     =    -346.81757347 hartree
                                             = -217631.31206111 kcal/mol
***********************************************************

E_pcm = -0.0055859397
Multipole orders to be included
        2
        3
computing dipole RHS
computing quadrupole RHS
total number of RHS in solve_reponses: 8
RHS batch sizes
        8
Beginning Block Conjugate Gradient Iterations. Batch Number: 0
computing hessian-vector products by finite difference
              1      5.83e-01     00000 Conjugate Gradient Iteration
computing hessian-vector products by finite difference
              2      1.94e-01     00000 Conjugate Gradient Iteration
computing hessian-vector products by finite difference
              3      5.09e-02     00000 Conjugate Gradient Iteration
computing hessian-vector products by finite difference
              4      1.53e-02     00000 Conjugate Gradient Iteration
computing hessian-vector products by finite difference
              5      4.67e-03     00000 Conjugate Gradient Iteration
computing hessian-vector products by finite difference
              6      1.58e-03     00000 Conjugate Gradient Iteration
computing hessian-vector products by finite difference
              7      3.98e-04     00000 Conjugate Gradient Iteration
computing hessian-vector products by finite difference
              8      7.36e-05     00000 Conjugate Gradient Iteration
computing hessian-vector products by finite difference
              9      1.29e-05     00000 Conjugate Gradient Iteration
computing hessian-vector products by finite difference
             10      1.61e-06     00000 Conjugate Gradient Iteration
computing hessian-vector products by finite difference
             11      2.74e-07     00000 Conjugate Gradient Iteration
computing hessian-vector products by finite difference
             12      5.24e-08     00000 Conjugate Gradient Iteration
computing hessian-vector products by finite difference
             13      8.60e-09     00000 CG Converged
batch 0 complete
Done Calculating Responses
TESTING ORTHOGONALIZATION OF MULTIPOLE BASIS
Multipole virts passed orthogonality test
Virts Per Order
           87
          145

 --------------------------------------------------------------

                    Orbital Energies (a.u.)
 --------------------------------------------------------------

 Alpha MOs
 -- Occupied --
-19.2458 -10.3354 -10.2776 -10.2760 -10.2744 -10.2734 -10.2702 -10.2627
 -1.1943  -0.9957  -0.9014  -0.8842  -0.8110  -0.7494  -0.7144  -0.6663
 -0.6025  -0.5805  -0.5517  -0.5406  -0.5337  -0.5208  -0.5103  -0.4786
 -0.4563  -0.4441  -0.4412  -0.3529  -0.3145
 -- Virtual --
  0.0577   0.0589   0.0681   0.0782   0.0830   0.0940   0.1086   0.1100
  0.1136   0.1310   0.1439   0.1514   0.1554   0.1695   0.1777   0.1916
  0.1989   0.2023   0.2135   0.2251   0.2331   0.2398   0.2472   0.2536
  0.2625   0.2671   0.2728   0.2755   0.2796   0.2938   0.2945   0.3027
  0.3041   0.3076   0.3108   0.3245   0.3318   0.3397   0.3423   0.3484
  0.3546   0.3552   0.3631   0.3706   0.3742   0.3787   0.3807   0.3922
  0.3932   0.3957   0.3984   0.4057   0.4123   0.4165   0.4265   0.4324
  0.4331   0.4546   0.4560   0.4627   0.4712   0.4767   0.4789   0.4834
  0.4876   0.4903   0.4982   0.4986   0.5087   0.5152   0.5328   0.5336
  0.5418   0.5450   0.5484   0.5511   0.5579   0.5703   0.5754   0.5916
  0.6020   0.6058   0.6117   0.6262   0.6396   0.6596   0.6610   0.6704
  0.6791   0.6839   0.6920   0.6970   0.6994   0.7064   0.7180   0.7289
  0.7315   0.7364   0.7454   0.7483   0.7579   0.7669   0.7804   0.7859
  0.7898   0.7904   0.7965   0.7987   0.8046   0.8164   0.8256   0.8306
  0.8417   0.8494   0.8547   0.8571   0.8628   0.8737   0.8794   0.8870
  0.9027   0.9113   0.9332   0.9450   0.9590   0.9844   0.9955   1.0126
  1.0190   1.0384   1.0417   1.0478   1.0557   1.0686   1.0753   1.0876
  1.0975   1.1170   1.1326   1.1639   1.1950   1.2381   1.2759   1.2977
  1.3095   1.3140   1.3267   1.3541   1.3703   1.3797   1.3992   1.4369
  1.4509   1.4655   1.4656   1.4853   1.5301   1.5642   1.6078   1.6261
  1.6344   1.6473   1.6697   1.6774   1.7050   1.7270   1.7561   1.7986
  1.8211   1.8259   1.8319   1.8549   1.8618   1.8747   1.9135   1.9172
  1.9338   1.9538   1.9761   1.9842   1.9880   2.0258   2.0455   2.0491
  2.0565   2.0741   2.0841   2.1063   2.1147   2.1633   2.1988   2.2024
  2.2140   2.2372   2.2669   2.2808   2.2987   2.3181   2.3378   2.3683
  2.3993   2.4041   2.4303   2.4606   2.4862   2.4993   2.5251   2.5501
  2.5737   2.6137   2.6253   2.6405   2.6470   2.6623   2.6835   2.7393
  2.7633   2.7650   2.7777   2.7987   2.8065   2.8342   2.8632   2.8687
  2.9044   2.9140   2.9345   2.9412   2.9651   2.9749   2.9810   3.0043
  3.0184   3.0359   3.0572   3.0694   3.0991   3.1260   3.1493   3.1677
  3.1786   3.1945   3.2073   3.2188   3.2358   3.2592   3.2878   3.2912
  3.3090   3.3614   3.3802   3.3833   3.3935   3.4066   3.4413   3.4516
  3.4572   3.4765   3.4892   3.5099   3.5182   3.5290   3.5400   3.5428
  3.5494   3.5671   3.5761   3.5902   3.6043   3.6330   3.6454   3.6773
  3.6930   3.7033   3.7421   3.7523   3.8008   3.8179   3.8484   3.9069
  3.9295   3.9565   3.9781   3.9857   4.0384   4.0815   4.1375   4.1518
  4.2477   4.2673   4.2841   4.3121   4.3213   4.3347   4.3472   4.3568
  4.3771   4.3865   4.4296   4.4641   4.4918   4.5324   4.5799   4.6104
  4.7326   4.7465   4.7899   4.8008   4.8390   4.9263   5.0197   5.0641
  5.0806   5.1348   5.1556   5.3001   5.3386   5.3890   5.4409   5.5421
  5.6128   5.6421   5.7066   5.7681   5.9397   6.2111   6.4759   6.5971
  6.6268   6.8700   7.0034   7.3043   7.4576  22.6636  22.6686  22.9405
 22.9877  23.0318  23.1782  23.5045  44.4135
 --------------------------------------------------------------

          Ground-State Mulliken Net Atomic Charges

     Atom                 Charge (a.u.)
  ----------------------------------------
      1 C                    -1.007318
      2 C                    -0.414629
      3 C                     0.552715
      4 C                    -0.723429
      5 C                    -0.598511
      6 C                     0.794598
      7 C                    -0.385281
      8 O                    -0.485547
      9 H                     0.287102
     10 H                     0.330132
     11 H                     0.246871
     12 H                     0.265831
     13 H                     0.338653
     14 H                     0.280457
     15 H                     0.294948
     16 H                     0.223406
  ----------------------------------------
  Sum of atomic charges =     0.000000

 -----------------------------------------------------------------
                    Cartesian Multipole Moments
 -----------------------------------------------------------------
    Charge (ESU x 10^10)
                -0.0000
    Dipole Moment (Debye)
         X      -0.8121      Y       1.1053      Z       1.1084
       Tot       1.7635
    Quadrupole Moments (Debye-Ang)
        XX     -49.0519     XY      -2.2763     YY     -34.8591
        XZ      -1.9219     YZ      -1.1209     ZZ     -50.8366
    Octopole Moments (Debye-Ang^2)
       XXX     136.0034    XXY     -52.9474    XYY      36.9962
       YYY     -94.3513    XXZ      37.9179    XYZ       0.8707
       YYZ       7.4523    XZZ      43.4968    YZZ     -51.3622
       ZZZ     102.1150
    Hexadecapole Moments (Debye-Ang^3)
      XXXX    -520.0337   XXXY      82.6747   XXYY    -229.0042
      XYYY      55.2387   YYYY    -572.9694   XXXZ      60.8275
      XXYZ      88.8017   XYYZ      27.3772   YYYZ     106.6109
      XXZZ    -204.8493   XYZZ      14.7643   YYZZ    -210.3087
      XZZZ      78.5485   YZZZ     247.0275   ZZZZ    -720.8140
 -----------------------------------------------------------------
Archival summary:
1\1\compute-0-11.local\SP\ProcedureUnspecified\BasisUnspecified\178\meili\TueSep2814:14:002021TueSep2814:14:002021\0\\#,ProcedureUnspecified,BasisUnspecified,\\0,1\C\O,1,1.3669\H,2,0.963862,1,111.631\C,1,1.38613,2,118.917,3,-178.575,0\H,4,1.0811,1,119.568,2,-0.142657,0\C,4,1.39088,1,120.041,2,-179.781,0\H,6,1.08314,4,119.177,1,179.35,0\C,1,1.39266,2,121.36,3,1.34294,0\H,8,1.07643,1,119.902,2,-1.16845,0\C,6,1.39393,4,121.086,1,-0.268497,0\C,10,1.396,6,118.514,4,-0.0876447,0\H,11,1.08299,10,119.79,6,-179.017,0\C,10,1.51786,6,120.3,4,-179.334,0\H,13,1.09091,10,108.734,6,10.7377,0\H,13,1.09146,10,108.768,6,127.344,0\H,13,1.1,10,114.497,6,-110.894,0\\\@

 Total job time:  14328.69s(wall), 90042.95s(cpu) 
 Tue Sep 28 14:14:00 2021

        *************************************************************
        *                                                           *
        *  Thank you very much for using Q-Chem.  Have a nice day.  *
        *                                                           *
        *************************************************************


Done Job For Fragment 0
calling putenv with: QCSCRATCH=/home/meili/scratch 
calling putenv with: QCTHREADS=8 
Creating input file /home/meili/scratch/qchem20311/Frg2.input
using default PutDataFrgm: nothing
calling putenv with: QCSCRATCH=/home/meili/scratch/qchem20311/ 
Spawning Job For Fragment 1
                  Welcome to Q-Chem
     A Quantum Leap Into The Future Of Chemistry


 Q-Chem 5.2 (devel), Q-Chem, Inc., Pleasanton, CA (2019)

 Yihan Shao,  Zhengting Gan,  E. Epifanovsky,  A. T. B. Gilbert,  M. Wormit,  
 J. Kussmann,  A. W. Lange,  A. Behn,  Jia Deng,  Xintian Feng,  D. Ghosh,  
 M. Goldey,  P. R. Horn,  L. D. Jacobson,  I. Kaliman,  T. Kus,  A. Landau,  
 Jie Liu,  E. I. Proynov,  R. M. Richard,  R. P. Steele,  E. J. Sundstrom,  
 H. L. Woodcock III,  P. M. Zimmerman,  D. Zuev,  B. Albrecht,  E. Alguire,  
 S. A. Baeppler,  D. Barton,  Z. Benda,  Y. A. Bernard,  E. J. Berquist,  
 K. B. Bravaya,  H. Burton,  D. Casanova,  Chun-Min Chang,  Yunqing Chen,  
 A. Chien,  K. D. Closser,  M. P. Coons,  S. Coriani,  S. Dasgupta,  
 A. L. Dempwolff,  M. Diedenhofen,  Hainam Do,  R. G. Edgar,  Po-Tung Fang,  
 S. Faraji,  S. Fatehi,  Qingguo Feng,  K. D. Fenk,  J. Fosso-Tande,  
 J. Gayvert,  Qinghui Ge,  A. Ghysels,  G. Gidofalvi,  J. Gomes,  
 J. Gonthier,  A. Gunina,  D. Hait,  M. W. D. Hanson-Heine,  
 P. H. P. Harbach,  A. W. Hauser,  M. F. Herbst,  J. E. Herr,  
 E. G. Hohenstein,  Z. C. Holden,  Kerwin Hui,  B. C. Huynh,  T.-C. Jagau,  
 Hyunjun Ji,  B. Kaduk,  K. Khistyaev,  Jaehoon Kim,  P. Klunzinger,  K. Koh,  
 D. Kosenkov,  L. Koulias,  T. Kowalczyk,  C. M. Krauter,  A. Kunitsa,  
 Ka Un Lao,  A. Laurent,  K. V. Lawler,  Joonho Lee,  D. Lefrancois,  
 S. Lehtola,  D. S. Levine,  Yi-Pei Li,  You-Sheng Lin,  Fenglai Liu,  
 E. Livshits,  A. Luenser,  P. Manohar,  E. Mansoor,  S. F. Manzer,  
 Shan-Ping Mao,  Yuezhi Mao,  N. Mardirossian,  A. V. Marenich,  
 T. Markovich,  L. A. Martinez-Martinez,  S. A. Maurer,  N. J. Mayhall,  
 S. C. McKenzie,  J.-M. Mewes,  P. Morgante,  A. F. Morrison,  
 J. W. Mullinax,  K. Nanda,  T. S. Nguyen-Beck,  R. Olivares-Amaya,  
 J. A. Parkhill,  Zheng Pei,  T. M. Perrine,  F. Plasser,  P. Pokhilko,  
 S. Prager,  A. Prociuk,  E. Ramos,  D. R. Rehn,  F. Rob,  M. Scheurer,  
 M. Schneider,  N. Sergueev,  S. M. Sharada,  S. Sharma,  D. W. Small,  
 T. Stauch,  T. Stein,  Yu-Chuan Su,  A. J. W. Thom,  A. Tkatchenko,  
 T. Tsuchimochi,  N. M. Tubman,  L. Vogt,  M. L. Vidal,  O. Vydrov,  
 M. A. Watson,  J. Wenzel,  M. de Wergifosse,  T. A. Wesolowski,  A. White,  
 J. Witte,  A. Yamada,  Jun Yang,  K. Yao,  S. Yeganeh,  S. R. Yost,  
 Zhi-Qiang You,  A. Zech,  Igor Ying Zhang,  Xing Zhang,  Yan Zhao,  
 Ying Zhu,  B. R. Brooks,  G. K. L. Chan,  C. J. Cramer,  M. S. Gordon,  
 W. J. Hehre,  A. Klamt,  M. W. Schmidt,  C. D. Sherrill,  D. G. Truhlar,  
 A. Aspuru-Guzik,  R. Baer,  A. T. Bell,  N. A. Besley,  Jeng-Da Chai,  
 A. E. DePrince, III,  R. A. DiStasio Jr.,  A. Dreuw,  B. D. Dunietz,  
 T. R. Furlani,  Chao-Ping Hsu,  Yousung Jung,  Jing Kong,  D. S. Lambrecht,  
 WanZhen Liang,  C. Ochsenfeld,  V. A. Rassolov,  L. V. Slipchenko,  
 J. E. Subotnik,  T. Van Voorhis,  J. M. Herbert,  A. I. Krylov,  
 P. M. W. Gill,  M. Head-Gordon

 Contributors to earlier versions of Q-Chem not listed above: 
 R. D. Adamson,  B. Austin,  J. Baker,  G. J. O. Beran,  K. Brandhorst,  
 S. T. Brown,  E. F. C. Byrd,  A. K. Chakraborty,  C.-L. Cheng,  
 Siu Hung Chien,  D. M. Chipman,  D. L. Crittenden,  H. Dachsel,  
 R. J. Doerksen,  A. D. Dutoi,  L. Fusti-Molnar,  W. A. Goddard III,  
 A. Golubeva-Zadorozhnaya,  S. R. Gwaltney,  G. Hawkins,  A. Heyden,  
 S. Hirata,  G. Kedziora,  F. J. Keil,  C. Kelley,  Jihan Kim,  R. A. King,  
 R. Z. Khaliullin,  P. P. Korambath,  W. Kurlancheek,  A. M. Lee,  M. S. Lee,  
 S. V. Levchenko,  Ching Yeh Lin,  D. Liotard,  R. C. Lochan,  I. Lotan,  
 P. E. Maslen,  N. Nair,  D. P. O'Neill,  D. Neuhauser,  E. Neuscamman,  
 C. M. Oana,  R. Olson,  B. Peters,  R. Peverati,  P. A. Pieniazek,  
 Y. M. Rhee,  J. Ritchie,  M. A. Rohrdanz,  E. Rosta,  N. J. Russ,  
 H. F. Schaefer III,  N. E. Schultz,  N. Shenvi,  A. C. Simmonett,  A. Sodt,  
 D. Stuck,  K. S. Thanthiriwatte,  V. Vanovschi,  Tao Wang,  A. Warshel,  
 C. F. Williams,  Q. Wu,  X. Xu,  W. Zhang

 Please cite Q-Chem as follows:
 Y. Shao et al., Mol. Phys. 113, 184-215 (2015)
 DOI: 10.1080/00268976.2014.952696

 Q-Chem 5.2.1 for Intel X86 EM64T Linux

 Parts of Q-Chem use Armadillo 8.300.2 (Tropical Shenanigans).
 http://arma.sourceforge.net/

 Q-Chem begins on Tue Sep 28 14:14:00 2021  

compute-0-11.local
Host: 0

     Scratch files written to /home/meili/scratch/qchem20311//Frg2//
NAlpha2: 32
NElect   32
Mult     1
Symmetry turned off for PCM/SM12/SMD calculation

Checking the input file for inconsistencies... 	...done.

--------------------------------------------------------------
User input:
--------------------------------------------------------------
$molecule
0 1
 6	1.4956930965	-1.4666804528	2.5788258297
 6	1.5916930965	-2.1576804528	1.2358258297
 8	0.8266930965	-3.0746804528	0.9528258297
 7	2.5346930965	-1.7326804528	0.3968258297
 1	0.6946930965	-1.9116804528	3.1708258297
 1	1.2556930965	-0.4176804528	2.3998258297
 1	2.6136930965	-2.1806804528	-0.5051741703
 1	3.1326930965	-0.9586804528	0.6408258297
 1	2.4469730965	-1.5383404528	3.1264878297
$end
$rem
EDA2		1
METHOD		WB97X-V
BASIS		DEF2-TZVPD
XC_GRID		000099000590
NL_GRID		1
UNRESTRICTED		FALSE
MAX_SCF_CYCLES		200
SYMMETRY		FALSE
SYM_IGNORE		TRUE
BASIS_LIN_DEP_THRESH		6
THRESH		14
SCF_CONVERGENCE		8
SCF_PRINT_FRGM		TRUE
SOLVENT_METHOD		PCM
!required keywords
JOBTYPE		SP
SYM_IGNORE		TRUE
SUBSYSTEM		TRUE
GEN_SCFMAN		TRUE
CHILD_INSTRUCTION		2
SYM_IGNORE		TRUE
SCFMI		0
RI_K 0		
PARI_K 0		
MIN_PARI_K 0		
IARI_K 0		
OCC_RI_K 0		
PURECART		1111
MEM_STATIC		2000
MEM_TOTAL		2000
GUI		0
CHILD_MP		1
CHILD_MP_ORDERS		232
FRZ_RELAX		0
FRZ_RELAX_METHOD		0
EDA_CLS_ELEC		1
EDA_CLS_DISP		0
FRZ_ORTHO_DECOMP		1
EDA2		FALSE
FRGM_METHOD		FALSE
CIS_N_ROOTS  0
LOCAL_CIS    0
CIS_RLX_DNS  1
$end
$pcm
THEORY                  CPCM
METHOD                  SWIG
SOLVER                  INVERSION
RADII                   UFF
HPOINTS                 302
HEAVYPOINTS             302
PRINTLEVEL              0
$end
$solvent
DIELECTRIC              78.390000 ! water
$end
--------------------------------------------------------------
 ----------------------------------------------------------------
             Standard Nuclear Orientation (Angstroms)
    I     Atom           X                Y                Z
 ----------------------------------------------------------------
    1      C       1.4956930965    -1.4666804528     2.5788258297
    2      C       1.5916930965    -2.1576804528     1.2358258297
    3      O       0.8266930965    -3.0746804528     0.9528258297
    4      N       2.5346930965    -1.7326804528     0.3968258297
    5      H       0.6946930965    -1.9116804528     3.1708258297
    6      H       1.2556930965    -0.4176804528     2.3998258297
    7      H       2.6136930965    -2.1806804528    -0.5051741703
    8      H       3.1326930965    -0.9586804528     0.6408258297
    9      H       2.4469730965    -1.5383404528     3.1264878297
 ----------------------------------------------------------------
 Nuclear Repulsion Energy =         122.25392498 hartrees
 There are       16 alpha and       16 beta electrons
 Requested basis set is def2-TZVPD
 There are 78 shells and 196 basis functions

 Total QAlloc Memory Limit   2000 MB
 Mega-Array Size      1956 MB
 MEM_STATIC part      2000 MB
 Discretize the solute cavity surface with Lebedev spheres
	Using 302 Lebedev grid points for each H atom
	Using 302 Lebedev grid points for other atoms
	Atomic van der Waals radii will be scaled by 1.20
 Remove points where switching function is < 1.0e-08
 Keep 1201 surface tesserae and discard 1517 interior tesserae
 Molecular Surface Area = 128.727 Angst**2

                       Distance Matrix (Angstroms)
             C (  1)   C (  2)   O (  3)   N (  4)   H (  5)   H (  6)
   C (  2)  1.513389
   O (  3)  2.382667  1.227275
   N (  4)  2.431337  1.331839  2.242178
   H (  5)  1.090912  2.146940  2.507891  3.333574
   H (  6)  1.090890  2.120234  3.055732  2.716077  1.772343
   H (  7)  3.357198  2.018934  2.473534  1.010222  4.155466  3.659420
   H (  8)  2.587214  2.041153  3.145224  1.008075  3.640461  2.628667
   H (  9)  1.100001  2.165569  3.116160  2.737977  1.792159  1.789711
             H (  7)   H (  8)
   H (  8)  1.753842
   H (  9)  3.691797  2.642865

 A cutoff of  1.0D-14 yielded   3054 shell pairs
 There are     19544 function pairs (     24702 Cartesian)
 Smallest overlap matrix eigenvalue = 9.88E-06

 Scale SEOQF with 1.000000e-01/1.000000e-01/1.000000e-01

 Standard Electronic Orientation quadrupole field applied
 Nucleus-field energy     =     0.0000000054 hartrees
 Guess from superposition of atomic densities
 Warning:  Energy on first SCF cycle will be non-variational
 SAD guess density has 32.000000 electrons

 -----------------------------------------------------------------------
  General SCF calculation program by
  Eric Jon Sundstrom, Paul Horn, Yuezhi Mao, Dmitri Zuev, Alec White,
  David Stuck, Shaama M.S., Shane Yost, Joonho Lee, David Small,
  Daniel Levine, Susi Lehtola, Hugh Burton, Evgeny Epifanovsky,
  Bang C. Huynh
 -----------------------------------------------------------------------
 Exchange:     0.1670 Hartree-Fock + 1.0000 wB97X-V + LR-HF
 Correlation:  1.0000 wB97X-V
 Using Euler-Maclaurin-Lebedev (99,590) quadrature formula
 Nonlocal Correlation:  VV10 with C = 0.0100 and b = 6.00 and scale = 1.00000
 Grid used for NLC:  SG-1 standard quadrature
Energy prior to optimization (guess energy) = -209.116557511732
Begin Timing: Total SCF Calculation
begin iterations for algorithm: DIIS         
the SCF tolerance is set to 1.00e-08
    1    -209.1165575117      5.44e-03     00000 
    2    -209.0650415026      7.31e-03     00000 
    3    -209.2436765156      7.24e-04     00000 
    4    -209.2460098102      2.47e-04     00000 
    5    -209.2464332921      8.88e-05     00000 
    6    -209.2464807562      2.99e-05     00000 
    7    -209.2464859715      9.18e-06     00000 
    8    -209.2464866001      1.59e-06     00000 
    9    -209.2464866463      5.16e-07     00000 
   10    -209.2464866500      2.51e-07     00000 
   11    -209.2464866506      5.90e-08     00000 
   12    -209.2464866506      1.16e-08     00000 
   13    -209.2464866506      2.65e-09     00000 Convergence criterion met
Timing for Total SCF: 144.00s (wall), 829.72s (cpu)

************** Final PCM Free Energy Summary **************
 G_electrostatic  =      -0.01181636 hartree =      -7.41487751 kcal/mol
 G_cavitation     =       0.00000000 hartree =       0.00000000 kcal/mol
 G_dispersion     =       0.00000000 hartree =       0.00000000 kcal/mol
 G_repulsion      =       0.00000000 hartree =       0.00000000 kcal/mol
 --------------------------------------------------
 Non-electrostatic Free Energy =       0.00000000 hartree =       0.00000000 kcal/mol
 Total                         =      -0.01181636 hartree =      -7.41487751 kcal/mol
 --------------------------------------------------
 SCF Energy (H0 + V/2)                       =    -209.24648665 
 Solute Internal Energy (H0)                 =    -209.23467029 
 Total Free Energy (H0 + V/2 + non-elec)     =    -209.24648665 hartree
                                             = -131304.15214674 kcal/mol
***********************************************************

E_pcm = -0.0118163595
Multipole orders to be included
        2
        3
computing dipole RHS
computing quadrupole RHS
total number of RHS in solve_reponses: 8
RHS batch sizes
        8
Beginning Block Conjugate Gradient Iterations. Batch Number: 0
computing hessian-vector products by finite difference
              1      5.68e-01     00000 Conjugate Gradient Iteration
computing hessian-vector products by finite difference
              2      1.83e-01     00000 Conjugate Gradient Iteration
computing hessian-vector products by finite difference
              3      4.73e-02     00000 Conjugate Gradient Iteration
computing hessian-vector products by finite difference
              4      1.19e-02     00000 Conjugate Gradient Iteration
computing hessian-vector products by finite difference
              5      1.80e-03     00000 Conjugate Gradient Iteration
computing hessian-vector products by finite difference
              6      3.98e-04     00000 Conjugate Gradient Iteration
computing hessian-vector products by finite difference
              7      6.15e-05     00000 Conjugate Gradient Iteration
computing hessian-vector products by finite difference
              8      7.66e-06     00000 Conjugate Gradient Iteration
computing hessian-vector products by finite difference
              9      1.10e-06     00000 Conjugate Gradient Iteration
computing hessian-vector products by finite difference
             10      1.14e-07     00000 Conjugate Gradient Iteration
computing hessian-vector products by finite difference
             11      1.48e-08     00000 Conjugate Gradient Iteration
computing hessian-vector products by finite difference
             12      4.84e-09     00000 CG Converged
batch 0 complete
Done Calculating Responses
TESTING ORTHOGONALIZATION OF MULTIPOLE BASIS
Multipole virts passed orthogonality test
Virts Per Order
        48
        80

 --------------------------------------------------------------

                    Orbital Energies (a.u.)
 --------------------------------------------------------------

 Alpha MOs
 -- Occupied --
-19.1789 -14.4333 -10.3772 -10.2719  -1.1723  -1.0450  -0.8708  -0.7134
 -0.6600  -0.5891  -0.5694  -0.5177  -0.5085  -0.4825  -0.3831  -0.3673
 -- Virtual --
  0.0588   0.0911   0.0945   0.0971   0.1263   0.1282   0.1333   0.1413
  0.1659   0.1840   0.2011   0.2039   0.2292   0.2406   0.2417   0.2516
  0.2519   0.2733   0.3016   0.3107   0.3227   0.3303   0.3391   0.3491
  0.3558   0.3691   0.3739   0.3800   0.3916   0.3973   0.4130   0.4187
  0.4213   0.4511   0.4559   0.4710   0.4819   0.4857   0.4870   0.4965
  0.5251   0.5309   0.5332   0.5645   0.5781   0.5901   0.6280   0.6433
  0.6470   0.6585   0.6714   0.6765   0.7006   0.7057   0.7287   0.7557
  0.7768   0.7809   0.7986   0.8012   0.8076   0.8299   0.8554   0.8704
  0.9154   0.9590   0.9700   0.9905   1.0124   1.0273   1.0609   1.1078
  1.1274   1.1852   1.2274   1.2563   1.2837   1.2940   1.3311   1.3939
  1.4736   1.4956   1.5115   1.6013   1.6793   1.7152   1.7467   1.8025
  1.8355   1.8671   1.8713   1.9270   1.9295   1.9373   1.9972   2.0178
  2.0583   2.0812   2.1400   2.1943   2.2637   2.2787   2.2985   2.3103
  2.3367   2.4014   2.4495   2.4954   2.5231   2.5747   2.6074   2.6213
  2.6731   2.7152   2.7657   2.8089   2.8658   2.9099   2.9323   2.9831
  3.0209   3.1195   3.1475   3.1544   3.1972   3.2294   3.2710   3.2734
  3.3141   3.3159   3.3605   3.4199   3.4730   3.4992   3.5632   3.5689
  3.6071   3.6636   3.7413   3.7500   3.8610   3.9267   4.0292   4.0407
  4.1079   4.1832   4.3107   4.3581   4.5538   4.5990   4.6098   4.6268
  4.8006   4.8833   4.8950   4.9204   5.1509   5.1677   5.2661   5.3508
  5.3778   5.3895   5.4156   5.4823   5.5280   5.7703   5.9108   6.1444
  6.2626   6.5306   6.6366   6.7397   6.8257   6.9766   7.2422   7.3266
 22.6049  23.5698  32.4106  44.2965
 --------------------------------------------------------------

          Ground-State Mulliken Net Atomic Charges

     Atom                 Charge (a.u.)
  ----------------------------------------
      1 C                    -0.619734
      2 C                     0.413574
      3 O                    -0.577054
      4 N                    -0.266780
      5 H                     0.179753
      6 H                     0.227136
      7 H                     0.213424
      8 H                     0.193408
      9 H                     0.236274
  ----------------------------------------
  Sum of atomic charges =     0.000000

 -----------------------------------------------------------------
                    Cartesian Multipole Moments
 -----------------------------------------------------------------
    Charge (ESU x 10^10)
                -0.0000
    Dipole Moment (Debye)
         X       3.5385      Y       3.7066      Z       0.2199
       Tot       5.1292
    Quadrupole Moments (Debye-Ang)
        XX     -12.8531     XY      -2.2095     YY     -41.7384
        XZ       1.9682     YZ       3.7978     ZZ     -20.4591
    Octopole Moments (Debye-Ang^2)
       XXX     -86.4327    XXY      38.5268    XYY     -44.4004
       YYY     215.9505    XXZ     -28.2307    XYZ       1.8860
       YYZ     -51.2970    XZZ     -30.8705    YZZ      45.8841
       ZZZ     -89.9204
    Hexadecapole Moments (Debye-Ang^3)
      XXXX    -389.1620   XXXY     196.5152   XXYY    -188.7337
      XYYY     258.8200   YYYY    -940.6102   XXXZ    -133.4013
      XXYZ      64.1840   XYYZ     -63.5926   YYYZ     252.6180
      XXZZ    -128.3397   XYZZ      61.3265   YYZZ    -191.6416
      XZZZ    -129.3624   YZZZ     168.2190   ZZZZ    -396.8067
 -----------------------------------------------------------------
Archival summary:
1\1\compute-0-11.local\SP\ProcedureUnspecified\BasisUnspecified\1125\meili\TueSep2814:54:522021TueSep2814:54:522021\0\\#,ProcedureUnspecified,BasisUnspecified,\\0,1\C\O,1,1.22727\N,1,1.33184,2,122.311\H,3,1.00808,1,120.834,2,178.099,0\H,3,1.01022,1,118.446,2,0.436296,0\C,1,1.51339,2,120.414,3,-179.639,0\H,6,1.09089,1,107.903,2,-118.209,0\H,6,1.09091,1,109.992,2,0.157615,0\H,6,1.1,1,110.929,2,121.791,0\\\@

 Total job time:  2451.91s(wall), 14310.47s(cpu) 
 Tue Sep 28 14:54:52 2021

        *************************************************************
        *                                                           *
        *  Thank you very much for using Q-Chem.  Have a nice day.  *
        *                                                           *
        *************************************************************


Done Job For Fragment 1
calling putenv with: QCSCRATCH=/home/meili/scratch 
calling putenv with: QCTHREADS=8 
Doing General SCFMI
 Exchange:     0.1670 Hartree-Fock + 1.0000 wB97X-V + LR-HF
 Correlation:  1.0000 wB97X-V
 Using Euler-Maclaurin-Lebedev (99,590) quadrature formula
 Nonlocal Correlation:  VV10 with C = 0.0100 and b = 6.00 and scale = 1.00000
 Grid used for NLC:  SG-1 standard quadrature
performing fock build before subrot guess so that all methods have access
Printing subrot_rss_gen Method Specification:
Occupied Subspace Method is 0
Virtual Subspace Method is 0
Energy of the unrelaxed supersystem initial determinant -556.052889820241
performing fock build before subrot guess so that all methods have access
Printing subrot_rss_gen Method Specification:
Occupied Subspace Method is 0
Virtual Subspace Method is 0
Energy of the unrelaxed supersystem initial determinant w/ solvent -556.067673514259
write pseudocanon occs and virts to disk
write pseudocanon orbital energies to disk
Tolerance of ortho_decomp_scf: 1.00e-06
GDM subspace size: 20
Beginning the Orthogonal Decomposition of the Initial Supersystem Wavefunction
    1    -556.0342719786      2.29e-02     ortho_decomp Preconditoned Steepest Descent
    2    -556.0358642548      6.29e-04     ortho_decomp BFGS Step
    3    -556.0358701812      4.17e-05     ortho_decomp BFGS Step
    4    -556.0358701873      1.50e-06     ortho_decomp BFGS Step
    5    -556.0358701873      5.06e-08     ortho_decomp 00000 Convergence criterion met
 Hartree-Fock
 Hartree-Fock
 Hartree-Fock
Doing General SCFMI
 Exchange:     0.1670 Hartree-Fock + 1.0000 wB97X-V + LR-HF
 Correlation:  1.0000 wB97X-V
 Using Euler-Maclaurin-Lebedev (99,590) quadrature formula
 Nonlocal Correlation:  VV10 with C = 0.0100 and b = 6.00 and scale = 1.00000
 Grid used for NLC:  SG-1 standard quadrature
performing fock build at end of subrot_r(subrot) constructor so that all methods have access
<S^2> of initial wavefunction before polarization iterations 0.0000000000
Beginning iterations for the determination of the polarized wavefunction
Energy prior to optimization (guess energy) = -556.067673514259
Begin Timing: Total SCF Calculation
begin iterations for algorithm: DIIS         
the SCF tolerance is set to 1.00e-08
    1    -556.0676735143      4.01e-05     00000 
    2    -556.0678153224      1.94e-05     00000 
    3    -556.0678323936      1.05e-05     00000 
    4    -556.0678380243      3.51e-06     00000 
    5    -556.0678386076      1.41e-06     00000 
    6    -556.0678387296      5.42e-07     00000 
    7    -556.0678387493      1.99e-07     00000 
    8    -556.0678387527      6.15e-08     00000 
    9    -556.0678387530      2.47e-08     00000 
   10    -556.0678387530      8.88e-09     00000 Convergence criterion met
write pseudocanon occs and virts to disk
write pseudocanon orbital energies to disk
Timing for Total SCF: 1949.00s (wall), 12431.85s (cpu)
<S^2> of polarized wavefunction after polarization iterations 0.0000000000
relaxing scfmi constraint to allow all rotations in the entire AO span
Doing General SCFMI
 Exchange:     0.1670 Hartree-Fock + 1.0000 wB97X-V + LR-HF
 Correlation:  1.0000 wB97X-V
 Using Euler-Maclaurin-Lebedev (99,590) quadrature formula
 Nonlocal Correlation:  VV10 with C = 0.0100 and b = 6.00 and scale = 1.00000
 Grid used for NLC:  SG-1 standard quadrature
performing fock build at end of subrot_r(subrot) constructor so that all methods have access
<S^2> of polarized wavefunction before ct-allowed iterations 0.0000000000
Beginning iterations for the determination of the CT-Allowed wavefunction
Energy prior to optimization (guess energy) = -556.067838753013
Begin Timing: Total SCF Calculation
begin iterations for algorithm: DIIS         
the SCF tolerance is set to 1.00e-08
    1    -556.0678387530      6.27e-05     00000 
    2    -556.0683692535      5.67e-06     00000 
    3    -556.0683831366      1.20e-06     00000 
    4    -556.0683834981      1.19e-06     00000 
    5    -556.0683836517      1.46e-07     00000 
    6    -556.0683836564      7.03e-08     00000 
    7    -556.0683836574      1.50e-08     00000 
    8    -556.0683836574      5.94e-09     00000 Convergence criterion met
write pseudocanon occs and virts to disk
write pseudocanon orbital energies to disk
Timing for Total SCF: 1516.00s (wall), 9656.46s (cpu)
<S^2> of ct_allowed wavefunction after ct-allowed iterations 0.0000000000

================================
        Results of EDA2         
================================
Basic EDA Quantities
--------------------
Fragment Energies (Ha):
1 -346.8175734691
2 -209.2464866506
--------------------
  E_prp (kJ/mol) = 0.0000
  E_sol (kJ/mol) = 6.8752
  E_frz (kJ/mol) = -16.3623
  E_pol (kJ/mol) = -0.4338
  E_vct (kJ/mol) = -1.4307
  E_int (kJ/mol) = -11.3516
--------------------


Initial Wavefunction Decomposition
--------------------
  --------------------
  Orthogonal Fragment Subspace Decomposition:
  --------------------
     E_elec   (ELEC)   (kJ/mol) = -22.2627
     E_pauli  (PAULI)  (kJ/mol) = 21.3708
     E_disp   (DISP)   (kJ/mol) = -15.4704
     --------------------
     Terms summing to E_pauli:
     --------------------
        E_kep_pauli       (kJ/mol) = 28.3233
        E_disp_free_pauli (kJ/mol) = -6.9525
  --------------------
  Classical Frozen Decomposition:
  --------------------
     E_cls_elec  (CLS ELEC)  (kJ/mol) = -11.3363
     E_cls_pauli (CLS PAULI) (kJ/mol) = -5.0260
    [E_mod_pauli (MOD PAULI) (kJ/mol) = 10.4443 (CLS PAULI - DISP from orthogonal decomposition) ]
  --------------------
--------------------

Simplified EDA Summary (kJ/mol)
--------------------
 PREPARATION     0.0000
 SOLVATION       6.8752
 FROZEN          -0.8919      (does not include dispersion)
[PAULI           21.3708]     (if this is negligible, then frozen describes electrostatics)
 DISPERSION      -15.4704
 POLARIZATION    -0.4338
 CHARGE TRANSFER -1.4307
 TOTAL           -11.3516     (PRP + SOL + FRZ + DISP + POL + CT)
--------------------

 --------------------------------------------------------------

                    Orbital Energies (a.u.)
 --------------------------------------------------------------

 Alpha MOs
 -- Occupied --
-19.2454 -19.1789 -14.4329 -10.3768 -10.3346 -10.2763 -10.2751 -10.2726
-10.2721 -10.2716 -10.2690 -10.2609  -1.1938  -1.1720  -1.0445  -0.9946
 -0.9002  -0.8830  -0.8704  -0.8097  -0.7483  -0.7137  -0.7126  -0.6653
 -0.6596  -0.6015  -0.5889  -0.5794  -0.5708  -0.5498  -0.5393  -0.5323
 -0.5201  -0.5174  -0.5102  -0.5069  -0.4822  -0.4769  -0.4544  -0.4432
 -0.4397  -0.3826  -0.3671  -0.3514  -0.3137
 -- Virtual --
  0.0529   0.0588   0.0633   0.0724   0.0746   0.0853   0.0875   0.0918
  0.1040   0.1045   0.1072   0.1181   0.1223   0.1236   0.1330   0.1336
  0.1497   0.1528   0.1548   0.1608   0.1688   0.1701   0.1828   0.1893
  0.1947   0.2025   0.2065   0.2123   0.2150   0.2165   0.2275   0.2319
  0.2361   0.2456   0.2502   0.2530   0.2584   0.2644   0.2663   0.2734
  0.2782   0.2791   0.2849   0.2862   0.2964   0.2982   0.3011   0.3067
  0.3082   0.3139   0.3194   0.3257   0.3278   0.3301   0.3394   0.3438
  0.3441   0.3474   0.3505   0.3535   0.3551   0.3569   0.3640   0.3691
  0.3716   0.3731   0.3742   0.3786   0.3841   0.3896   0.3957   0.3976
  0.4003   0.4021   0.4082   0.4106   0.4198   0.4216   0.4255   0.4278
  0.4326   0.4379   0.4403   0.4481   0.4520   0.4586   0.4620   0.4663
  0.4685   0.4724   0.4748   0.4782   0.4842   0.4878   0.4906   0.4957
  0.5014   0.5062   0.5077   0.5110   0.5167   0.5226   0.5301   0.5335
  0.5342   0.5381   0.5447   0.5495   0.5503   0.5568   0.5623   0.5659
  0.5681   0.5795   0.5829   0.5903   0.5927   0.5979   0.6075   0.6091
  0.6138   0.6199   0.6249   0.6304   0.6369   0.6474   0.6511   0.6569
  0.6587   0.6647   0.6702   0.6833   0.6854   0.6903   0.6958   0.6963
  0.7041   0.7060   0.7200   0.7210   0.7235   0.7286   0.7325   0.7381
  0.7453   0.7493   0.7565   0.7646   0.7689   0.7709   0.7743   0.7863
  0.7887   0.7906   0.7922   0.7951   0.8056   0.8062   0.8100   0.8140
  0.8171   0.8252   0.8296   0.8320   0.8400   0.8416   0.8470   0.8588
  0.8612   0.8669   0.8705   0.8787   0.8806   0.8849   0.8931   0.9004
  0.9017   0.9072   0.9094   0.9207   0.9293   0.9390   0.9469   0.9522
  0.9562   0.9639   0.9703   0.9867   0.9927   1.0045   1.0113   1.0213
  1.0242   1.0315   1.0418   1.0546   1.0608   1.0694   1.0773   1.0795
  1.0901   1.0950   1.1020   1.1088   1.1285   1.1378   1.1426   1.1615
  1.1758   1.1904   1.1931   1.2166   1.2330   1.2475   1.2564   1.2683
  1.2997   1.3113   1.3229   1.3261   1.3386   1.3447   1.3466   1.3602
  1.3789   1.3886   1.3981   1.4101   1.4118   1.4223   1.4471   1.4668
  1.4739   1.4853   1.5016   1.5174   1.5272   1.5417   1.5629   1.5816
  1.5845   1.6350   1.6477   1.6589   1.6638   1.6810   1.6988   1.7131
  1.7340   1.7492   1.7523   1.7743   1.7917   1.8088   1.8226   1.8389
  1.8564   1.8611   1.8740   1.8775   1.8849   1.9137   1.9227   1.9322
  1.9375   1.9448   1.9507   1.9756   1.9800   1.9878   1.9946   2.0057
  2.0079   2.0364   2.0438   2.0526   2.0595   2.0813   2.0849   2.0912
  2.0962   2.1031   2.1130   2.1227   2.1424   2.1529   2.1641   2.1832
  2.2050   2.2151   2.2261   2.2354   2.2485   2.2661   2.2920   2.2953
  2.3071   2.3135   2.3253   2.3326   2.3451   2.3472   2.3606   2.3760
  2.3857   2.4212   2.4288   2.4518   2.4635   2.4750   2.4919   2.5088
  2.5187   2.5274   2.5681   2.5813   2.5928   2.6159   2.6286   2.6321
  2.6463   2.6613   2.6696   2.6740   2.6958   2.7082   2.7174   2.7319
  2.7605   2.7660   2.7820   2.7906   2.7943   2.7997   2.8104   2.8435
  2.8496   2.8742   2.8816   2.8956   2.9037   2.9184   2.9479   2.9550
  2.9574   2.9702   2.9801   2.9831   2.9908   2.9925   3.0254   3.0331
  3.0385   3.0641   3.0750   3.0774   3.1003   3.1163   3.1357   3.1577
  3.1646   3.1697   3.1847   3.1918   3.2101   3.2138   3.2309   3.2478
  3.2599   3.2724   3.2832   3.2968   3.3034   3.3069   3.3197   3.3261
  3.3467   3.3586   3.3738   3.3807   3.3941   3.4061   3.4112   3.4238
  3.4479   3.4554   3.4613   3.4698   3.4888   3.4947   3.5054   3.5090
  3.5235   3.5377   3.5406   3.5467   3.5552   3.5607   3.5755   3.5928
  3.5988   3.6067   3.6078   3.6314   3.6444   3.6545   3.6622   3.6851
  3.6970   3.7008   3.7149   3.7282   3.7532   3.7711   3.7815   3.7844
  3.8172   3.8313   3.8600   3.8843   3.9164   3.9395   3.9572   3.9744
  4.0002   4.0078   4.0466   4.0507   4.0720   4.0961   4.1237   4.1422
  4.1630   4.2001   4.2604   4.2749   4.2999   4.3284   4.3365   4.3386
  4.3404   4.3597   4.3676   4.3843   4.3907   4.4042   4.4441   4.4748
  4.5025   4.5443   4.5977   4.6086   4.6191   4.6226   4.6383   4.6526
  4.7437   4.7548   4.8023   4.8141   4.8245   4.8551   4.9051   4.9224
  4.9449   4.9503   5.0279   5.0706   5.0910   5.1452   5.1614   5.1740
  5.1937   5.2834   5.3108   5.3430   5.3640   5.3909   5.4016   5.4152
  5.4253   5.4470   5.5133   5.5453   5.5632   5.6150   5.6484   5.7172
  5.7767   5.7815   5.9216   5.9419   6.1566   6.2134   6.2843   6.4783
  6.5454   6.6010   6.6318   6.7053   6.7743   6.8495   6.8740   7.0070
  7.0136   7.2622   7.3088   7.3390   7.4623  22.6384  22.7030  22.7176
 22.9745  23.0074  23.0627  23.1994  23.5202  23.6046  32.4979  44.4326
 44.4449
 --------------------------------------------------------------

          Ground-State Mulliken Net Atomic Charges

     Atom                 Charge (a.u.)
  ----------------------------------------
      1 C                    -1.032876
      2 C                    -0.215887
      3 C                     0.555762
      4 C                    -0.826844
      5 C                    -0.632288
      6 C                     0.802381
      7 C                    -0.425785
      8 O                    -0.488606
      9 H                     0.249826
     10 H                     0.344693
     11 H                     0.249528
     12 H                     0.215963
     13 H                     0.349248
     14 H                     0.281942
     15 H                     0.297063
     16 H                     0.254558
     17 C                    -0.725115
     18 C                     0.470248
     19 O                    -0.594434
     20 N                    -0.244246
     21 H                     0.182374
     22 H                     0.221193
     23 H                     0.217266
     24 H                     0.201074
     25 H                     0.292963
  ----------------------------------------
  Sum of atomic charges =     0.000000

 -----------------------------------------------------------------
                    Cartesian Multipole Moments
 -----------------------------------------------------------------
    Charge (ESU x 10^10)
                -0.0000
    Dipole Moment (Debye)
         X       2.7773      Y       4.6605      Z       1.3292
       Tot       5.5857
    Quadrupole Moments (Debye-Ang)
        XX     -62.1410     XY      -4.3703     YY     -76.7175
        XZ       0.0992     YZ       2.7107     ZZ     -71.5544
    Octopole Moments (Debye-Ang^2)
       XXX      49.9425    XXY     -14.4679    XYY      -7.4555
       YYY     120.9798    XXZ       9.4613    XYZ       2.8273
       YYZ     -43.7115    XZZ      12.7836    YZZ      -5.6521
       ZZZ      12.1093
    Hexadecapole Moments (Debye-Ang^3)
      XXXX    -912.5930   XXXY     280.0518   XXYY    -418.7077
      XYYY     315.2964   YYYY   -1516.6714   XXXZ     -72.2402
      XXYZ     153.2048   XYYZ     -36.3683   YYYZ     360.0529
      XXZZ    -334.2362   XYZZ      76.2910   YYZZ    -402.8331
      XZZZ     -50.5673   YZZZ     415.9245   ZZZZ   -1120.4177
 -----------------------------------------------------------------
Archival summary:
1\1\compute-0-11.local\SP\ProcedureUnspecified\BasisUnspecified\21913\meili\TueSep2816:44:002021TueSep2816:44:002021\0\\#,ProcedureUnspecified,BasisUnspecified,\\0,1\O\C,1,1.22727\N,2,1.33184,1,122.311\H,3,1.00808,2,120.834,1,178.099,0\H,3,1.01022,2,118.446,1,0.436296,0\C,2,1.51339,1,120.414,3,-179.639,0\H,6,1.09089,2,107.903,1,-118.209,0\H,6,1.09091,2,109.992,1,0.157615,0\H,6,1.1,2,110.929,1,121.791,0\H,1,2.80399,2,89.2223,3,-76.6171,0\C,10,1.08314,1,132.775,2,-25.3716,0\C,11,1.39088,10,119.177,1,108.548,0\H,12,1.0811,11,120.391,10,-0.28592,0\C,12,1.38613,11,120.041,10,179.35,0\O,14,1.3669,12,118.917,11,-179.781,0\H,15,0.963862,14,111.631,12,-178.575,0\C,14,1.39266,12,119.724,11,0.298872,0\H,17,1.07643,14,119.902,12,178.749,0\C,11,1.39393,10,119.736,1,-71.8283,0\C,19,1.396,11,118.514,10,-179.704,0\H,20,1.08299,19,119.79,11,-179.017,0\C,19,1.51786,11,120.3,10,1.04968,0\H,22,1.09091,19,108.734,11,10.7377,0\H,22,1.09146,19,108.768,11,127.344,0\H,22,1.1,19,114.497,11,-110.894,0\\\@

 Total job time:  23457.69s(wall), 43653.61s(cpu) 
 Tue Sep 28 16:44:00 2021

        *************************************************************
        *                                                           *
        *  Thank you very much for using Q-Chem.  Have a nice day.  *
        *                                                           *
        *************************************************************


