
Running Job 1 of 1 SSI-031PHE-062HIE-1_SMD_TZVPD.in
qchem SSI-031PHE-062HIE-1_SMD_TZVPD.in_25029.0 /tmp/qchem25029/ 0
/global/common/cori/software/qchem/5.2/exe/qcprog.exe_s SSI-031PHE-062HIE-1_SMD_TZVPD.in_25029.0 /tmp/qchem25029/
                  Welcome to Q-Chem
     A Quantum Leap Into The Future Of Chemistry


 Q-Chem 5.2, Q-Chem, Inc., Pleasanton, CA (2019)

 License issued to: National Energy Research Scientific Computing Center

 Yihan Shao,  Zhengting Gan,  E. Epifanovsky,  A. T. B. Gilbert,  M. Wormit,  
 J. Kussmann,  A. W. Lange,  A. Behn,  Jia Deng,  Xintian Feng,  D. Ghosh,  
 M. Goldey,  P. R. Horn,  L. D. Jacobson,  I. Kaliman,  T. Kus,  A. Landau,  
 Jie Liu,  E. I. Proynov,  R. M. Richard,  R. P. Steele,  E. J. Sundstrom,  
 H. L. Woodcock III,  P. M. Zimmerman,  D. Zuev,  B. Albrecht,  E. Alguire,  
 S. A. Baeppler,  D. Barton,  Z. Benda,  Y. A. Bernard,  E. J. Berquist,  
 K. B. Bravaya,  H. Burton,  D. Casanova,  Chun-Min Chang,  Yunqing Chen,  
 A. Chien,  K. D. Closser,  M. P. Coons,  S. Coriani,  S. Dasgupta,  
 A. L. Dempwolff,  M. Diedenhofen,  Hainam Do,  R. G. Edgar,  Po-Tung Fang,  
 S. Faraji,  S. Fatehi,  Qingguo Feng,  K. D. Fenk,  J. Fosso-Tande,  
 J. Gayvert,  Qinghui Ge,  A. Ghysels,  G. Gidofalvi,  J. Gomes,  
 J. Gonthier,  A. Gunina,  D. Hait,  M. W. D. Hanson-Heine,  
 P. H. P. Harbach,  A. W. Hauser,  M. F. Herbst,  J. E. Herr,  
 E. G. Hohenstein,  Z. C. Holden,  Kerwin Hui,  B. C. Huynh,  T.-C. Jagau,  
 Hyunjun Ji,  B. Kaduk,  K. Khistyaev,  Jaehoon Kim,  P. Klunzinger,  K. Koh,  
 D. Kosenkov,  L. Koulias,  T. Kowalczyk,  C. M. Krauter,  A. Kunitsa,  
 Ka Un Lao,  A. Laurent,  K. V. Lawler,  Joonho Lee,  D. Lefrancois,  
 S. Lehtola,  D. S. Levine,  Yi-Pei Li,  You-Sheng Lin,  Fenglai Liu,  
 E. Livshits,  A. Luenser,  P. Manohar,  E. Mansoor,  S. F. Manzer,  
 Shan-Ping Mao,  Yuezhi Mao,  N. Mardirossian,  A. V. Marenich,  
 T. Markovich,  L. A. Martinez-Martinez,  S. A. Maurer,  N. J. Mayhall,  
 S. C. McKenzie,  J.-M. Mewes,  P. Morgante,  A. F. Morrison,  
 J. W. Mullinax,  K. Nanda,  T. S. Nguyen-Beck,  R. Olivares-Amaya,  
 J. A. Parkhill,  Zheng Pei,  T. M. Perrine,  F. Plasser,  P. Pokhilko,  
 S. Prager,  A. Prociuk,  E. Ramos,  D. R. Rehn,  F. Rob,  M. Scheurer,  
 M. Schneider,  N. Sergueev,  S. M. Sharada,  S. Sharma,  D. W. Small,  
 T. Stauch,  T. Stein,  Yu-Chuan Su,  A. J. W. Thom,  A. Tkatchenko,  
 T. Tsuchimochi,  N. M. Tubman,  L. Vogt,  M. L. Vidal,  O. Vydrov,  
 M. A. Watson,  J. Wenzel,  M. de Wergifosse,  T. A. Wesolowski,  A. White,  
 J. Witte,  A. Yamada,  Jun Yang,  K. Yao,  S. Yeganeh,  S. R. Yost,  
 Zhi-Qiang You,  A. Zech,  Igor Ying Zhang,  Xing Zhang,  Yan Zhao,  
 Ying Zhu,  B. R. Brooks,  G. K. L. Chan,  C. J. Cramer,  M. S. Gordon,  
 W. J. Hehre,  A. Klamt,  M. W. Schmidt,  C. D. Sherrill,  D. G. Truhlar,  
 A. Aspuru-Guzik,  R. Baer,  A. T. Bell,  N. A. Besley,  Jeng-Da Chai,  
 A. E. DePrince, III,  R. A. DiStasio Jr.,  A. Dreuw,  B. D. Dunietz,  
 T. R. Furlani,  Chao-Ping Hsu,  Yousung Jung,  Jing Kong,  D. S. Lambrecht,  
 WanZhen Liang,  C. Ochsenfeld,  V. A. Rassolov,  L. V. Slipchenko,  
 J. E. Subotnik,  T. Van Voorhis,  J. M. Herbert,  A. I. Krylov,  
 P. M. W. Gill,  M. Head-Gordon

 Contributors to earlier versions of Q-Chem not listed above: 
 R. D. Adamson,  B. Austin,  J. Baker,  G. J. O. Beran,  K. Brandhorst,  
 S. T. Brown,  E. F. C. Byrd,  A. K. Chakraborty,  C.-L. Cheng,  
 Siu Hung Chien,  D. M. Chipman,  D. L. Crittenden,  H. Dachsel,  
 R. J. Doerksen,  A. D. Dutoi,  L. Fusti-Molnar,  W. A. Goddard III,  
 A. Golubeva-Zadorozhnaya,  S. R. Gwaltney,  G. Hawkins,  A. Heyden,  
 S. Hirata,  G. Kedziora,  F. J. Keil,  C. Kelley,  Jihan Kim,  R. A. King,  
 R. Z. Khaliullin,  P. P. Korambath,  W. Kurlancheek,  A. M. Lee,  M. S. Lee,  
 S. V. Levchenko,  Ching Yeh Lin,  D. Liotard,  R. C. Lochan,  I. Lotan,  
 P. E. Maslen,  N. Nair,  D. P. O'Neill,  D. Neuhauser,  E. Neuscamman,  
 C. M. Oana,  R. Olson,  B. Peters,  R. Peverati,  P. A. Pieniazek,  
 Y. M. Rhee,  J. Ritchie,  M. A. Rohrdanz,  E. Rosta,  N. J. Russ,  
 H. F. Schaefer III,  N. E. Schultz,  N. Shenvi,  A. C. Simmonett,  A. Sodt,  
 D. Stuck,  K. S. Thanthiriwatte,  V. Vanovschi,  Tao Wang,  A. Warshel,  
 C. F. Williams,  Q. Wu,  X. Xu,  W. Zhang

 Please cite Q-Chem as follows:
 Y. Shao et al., Mol. Phys. 113, 184-215 (2015)
 DOI: 10.1080/00268976.2014.952696

 Q-Chem 5.2.0 for Intel X86 EM64T Linux

 Parts of Q-Chem use Armadillo 8.300.2 (Tropical Shenanigans).
 http://arma.sourceforge.net/

 Q-Chem begins on Sun Sep 26 05:03:06 2021  

Host: cori01
0

     Scratch files written to /tmp/qchem25029//
 May1019 |scratch|qcdevops|jenkins|workspace|build_RNUM -1
Processing $rem in /global/common/cori/software/qchem/5.2/config/preferences:
	 MEM_TOTAL  96000 
NAlpha2: 94
NElect   94
Mult     1
Symmetry turned off for PCM/SM12/SMD calculation

 Q-Chem warning in module libgen/rem_setup.C, line 2803:

 Neither GIA nor STOLL is specified by user. Use STOLL as the default


Checking the input file for inconsistencies... 	...done.

--------------------------------------------------------------
User input:
--------------------------------------------------------------
$comment
SSI-031PHE-062HIE-1.pdb
$end

$molecule
0 1
--
0 1
C    1.914110542803    0.205446555280   -3.403093057084
C   -1.335889457197    0.628446555280   -1.505093057084
C   -0.151889457197    0.914446555280   -2.159093057084
C   -1.814889457197   -0.669553444720   -1.461093057084
C    0.595110542803   -0.101553444720   -2.752093057084
C   -1.077889457197   -1.701553444720   -2.043093057084
C    0.123110542803   -1.415553444720   -2.693093057084
H   -1.897889457197    1.425446555280   -1.046093057084
H    0.188110542803    1.938446555280   -2.208093057084
H   -2.753889457197   -0.878553444720   -0.969093057084
H   -1.436889457197   -2.717553444720   -1.977093057084
H    1.931110542803    1.260446555280   -3.678093057084
H    1.999110542803   -0.363553444720   -4.328093057084
H    0.692110542803   -2.216553444720   -3.143093057084
H    2.777900542803   -0.013373444720   -2.758123057084
--
0 1
C   -0.201889457197   -1.793553444720    2.143906942916
C   -0.588889457197    0.761446555280    1.986906942916
C    0.077110542803   -0.340553444720    2.417906942916
C    1.070110542803    1.428446555280    3.264906942916
N    0.049110542803    1.855446555280    2.530906942916
N    1.106110542803    0.105446555280    3.219906942916
H   -1.475889457197    0.759446555280    1.364906942916
H   -0.326889457197    2.793446555280    2.589906942916
H   -1.148889457197   -1.845553444720    1.610906942916
H   -0.310889457197   -2.322553444720    3.087906942916
H    1.718110542803    2.042446555280    3.874906942916
H    0.565460542803   -2.292443444720    1.533756942916
$end

$rem
JOBTYPE			EDA
EDA2			1
method			wB97X-V
BASIS			def2-TZVPD
XC_GRID			000099000590
NL_GRID			1
UNRESTRICTED		FALSE
MAX_SCF_CYCLES		200
SYMMETRY		FALSE
SYM_IGNORE		TRUE
MEM_STATIC		2000
BASIS_LIN_DEP_THRESH 	6
THRESH 			14
SCF_CONVERGENCE 	8
SCF_PRINT_FRGM 		TRUE
SOLVENT_METHOD          SMD
$end

$SMX
SOLVENT			WATER
$END
--------------------------------------------------------------
 ----------------------------------------------------------------
             Standard Nuclear Orientation (Angstroms)
    I     Atom           X                Y                Z
 ----------------------------------------------------------------
    1      C       1.9141105428     0.2054465553    -3.4030930571
    2      C      -1.3358894572     0.6284465553    -1.5050930571
    3      C      -0.1518894572     0.9144465553    -2.1590930571
    4      C      -1.8148894572    -0.6695534447    -1.4610930571
    5      C       0.5951105428    -0.1015534447    -2.7520930571
    6      C      -1.0778894572    -1.7015534447    -2.0430930571
    7      C       0.1231105428    -1.4155534447    -2.6930930571
    8      H      -1.8978894572     1.4254465553    -1.0460930571
    9      H       0.1881105428     1.9384465553    -2.2080930571
   10      H      -2.7538894572    -0.8785534447    -0.9690930571
   11      H      -1.4368894572    -2.7175534447    -1.9770930571
   12      H       1.9311105428     1.2604465553    -3.6780930571
   13      H       1.9991105428    -0.3635534447    -4.3280930571
   14      H       0.6921105428    -2.2165534447    -3.1430930571
   15      H       2.7779005428    -0.0133734447    -2.7581230571
   16      C      -0.2018894572    -1.7935534447     2.1439069429
   17      C      -0.5888894572     0.7614465553     1.9869069429
   18      C       0.0771105428    -0.3405534447     2.4179069429
   19      C       1.0701105428     1.4284465553     3.2649069429
   20      N       0.0491105428     1.8554465553     2.5309069429
   21      N       1.1061105428     0.1054465553     3.2199069429
   22      H      -1.4758894572     0.7594465553     1.3649069429
   23      H      -0.3268894572     2.7934465553     2.5899069429
   24      H      -1.1488894572    -1.8455534447     1.6109069429
   25      H      -0.3108894572    -2.3225534447     3.0879069429
   26      H       1.7181105428     2.0424465553     3.8749069429
   27      H       0.5654605428    -2.2924434447     1.5337569429
 ----------------------------------------------------------------
 Nuclear Repulsion Energy =         715.30721223 hartrees
 There are       47 alpha and       47 beta electrons
 Requested basis set is def2-TZVPD
 There are 239 shells and 607 basis functions

 Total QAlloc Memory Limit  96000 MB
 Mega-Array Size      1956 MB
 MEM_STATIC part      2000 MB
 
 Citation of the SMD model:
 Marenich, A.V.; Cramer, C.J.; Truhlar, D.G.
 J. Phys. Chem. B 2009, 113, 6378-6396.
 iSolventCode=           1
 Solvent: water                                                           
 
 vradii
            1           2           3           4           5           6
    1   1.8500000   1.8500000   1.8500000   1.8500000   1.8500000   1.8500000
            7           8           9          10          11          12
    1   1.8500000   1.2000000   1.2000000   1.2000000   1.2000000   1.2000000
           13          14          15          16          17          18
    1   1.2000000   1.2000000   1.2000000   1.8500000   1.8500000   1.8500000
           19          20          21          22          23          24
    1   1.8500000   1.8900000   1.8900000   1.2000000   1.2000000   1.2000000
           25          26          27
    1   1.2000000   1.2000000   1.2000000
 Changing PCM_VDW_RADII to SMD_RADIUS
 Discretize the solute cavity surface with Lebedev spheres
	Using 110 Lebedev grid points for each H atom
	Using 194 Lebedev grid points for other atoms
	Atomic van der Waals radii will be scaled by 1.20
 Remove points where switching function is < 1.0e-08
 Keep 1980 surface tesserae and discard 2082 interior tesserae
 Molecular Surface Area = 246.017 Angst**2
 A cutoff of  1.0D-14 yielded  24881 shell pairs
 There are    160841 function pairs (    203373 Cartesian)
 Smallest overlap matrix eigenvalue = 5.01E-07
 Linear dependence detected in AO basis
 Tighter screening thresholds may be required for diffuse basis sets
 Use S2THRESH > 14 and THRESH = 14 in case of SCF convergence issues
 Number of orthogonalized atomic orbitals = 605
 Maximum deviation from orthogonality = 4.205E-10

 Scale SEOQF with 1.000000e-01/1.000000e-01/1.000000e-01

 Standard Electronic Orientation quadrupole field applied
 Nucleus-field energy     =    -0.0000000501 hartrees

 -----------------------------------------------------------------------
  General SCF calculation program by
  Eric Jon Sundstrom, Paul Horn, Yuezhi Mao, Dmitri Zuev, Alec White,
  David Stuck, Shaama M.S., Shane Yost, Joonho Lee, David Small,
  Daniel Levine, Susi Lehtola, Hugh Burton, Evgeny Epifanovsky
 -----------------------------------------------------------------------
================================================================
                 ALMO-EDA with the EDA2 driver                  
================================================================
 The second-generation ALMO-EDA (for DFT):                      
 P. R. Horn, Y. Mao and M. Head-Gordon, PCCP, 18, 23067 (2016)  
 Decomposition of the frozen energy:                            
 P. R. Horn, Y. Mao and M. Head-Gordon, JCP, 144, 114107 (2016) 
 FERF model for polarization:                                   
 P. R. Horn and M. Head-Gordon, JCP, 143, 114111 (2015)         
Using eda2 option set 1
Option set summary: Frozen orbital wavefunction, initial wavefunction decomposition, and nDQ polarization.
--------------------------------
Printing EDA Options
--------------------------------
eda_child_super_basis      0
fragmo_guess_mode          0
child_mp                   1
child_mp_orders            232
cls_elec                   1
cls_disp                   0
scfmi_mode                 1
scfmi_occs                 0
scfmi_virts                0
frz_relax                  0
frz_relax_method           0
dc_pen_start               0
dc_pen_conv                0
dc_pen_increment           0
dc_pen_steps               0
dc_pen_thresh_factor       0
dc_pen_pre_newton_thresh   0
frz_ortho_decomp           1
frz_ortho_decomp_conv      6
frgm_method                2
scfmi_freeze_ss            0
separate_rehyb             0
plot_diff_den              0
eda_nocv                   0
eda_vct_relax              1
disp_free_x                0
disp_free_c                0
eda_bsse                   0
eda_pct_a                  0
eda_covp                   0
--------------------------------
Attempting to make child job directory: /tmp/qchem25029//Frg1/
Attempting to make child job directory: /tmp/qchem25029//Frg2/
Creating input file /tmp/qchem25029/Frg1.input
using default PutDataFrgm: nothing
calling putenv with: QCSCRATCH=/tmp/qchem25029/ 
calling putenv with: QCLOCALSCR=/tmp/qchem25029/ 
Spawning Job For Fragment 0
                  Welcome to Q-Chem
     A Quantum Leap Into The Future Of Chemistry


 Q-Chem 5.2, Q-Chem, Inc., Pleasanton, CA (2019)

 License issued to: National Energy Research Scientific Computing Center

 Yihan Shao,  Zhengting Gan,  E. Epifanovsky,  A. T. B. Gilbert,  M. Wormit,  
 J. Kussmann,  A. W. Lange,  A. Behn,  Jia Deng,  Xintian Feng,  D. Ghosh,  
 M. Goldey,  P. R. Horn,  L. D. Jacobson,  I. Kaliman,  T. Kus,  A. Landau,  
 Jie Liu,  E. I. Proynov,  R. M. Richard,  R. P. Steele,  E. J. Sundstrom,  
 H. L. Woodcock III,  P. M. Zimmerman,  D. Zuev,  B. Albrecht,  E. Alguire,  
 S. A. Baeppler,  D. Barton,  Z. Benda,  Y. A. Bernard,  E. J. Berquist,  
 K. B. Bravaya,  H. Burton,  D. Casanova,  Chun-Min Chang,  Yunqing Chen,  
 A. Chien,  K. D. Closser,  M. P. Coons,  S. Coriani,  S. Dasgupta,  
 A. L. Dempwolff,  M. Diedenhofen,  Hainam Do,  R. G. Edgar,  Po-Tung Fang,  
 S. Faraji,  S. Fatehi,  Qingguo Feng,  K. D. Fenk,  J. Fosso-Tande,  
 J. Gayvert,  Qinghui Ge,  A. Ghysels,  G. Gidofalvi,  J. Gomes,  
 J. Gonthier,  A. Gunina,  D. Hait,  M. W. D. Hanson-Heine,  
 P. H. P. Harbach,  A. W. Hauser,  M. F. Herbst,  J. E. Herr,  
 E. G. Hohenstein,  Z. C. Holden,  Kerwin Hui,  B. C. Huynh,  T.-C. Jagau,  
 Hyunjun Ji,  B. Kaduk,  K. Khistyaev,  Jaehoon Kim,  P. Klunzinger,  K. Koh,  
 D. Kosenkov,  L. Koulias,  T. Kowalczyk,  C. M. Krauter,  A. Kunitsa,  
 Ka Un Lao,  A. Laurent,  K. V. Lawler,  Joonho Lee,  D. Lefrancois,  
 S. Lehtola,  D. S. Levine,  Yi-Pei Li,  You-Sheng Lin,  Fenglai Liu,  
 E. Livshits,  A. Luenser,  P. Manohar,  E. Mansoor,  S. F. Manzer,  
 Shan-Ping Mao,  Yuezhi Mao,  N. Mardirossian,  A. V. Marenich,  
 T. Markovich,  L. A. Martinez-Martinez,  S. A. Maurer,  N. J. Mayhall,  
 S. C. McKenzie,  J.-M. Mewes,  P. Morgante,  A. F. Morrison,  
 J. W. Mullinax,  K. Nanda,  T. S. Nguyen-Beck,  R. Olivares-Amaya,  
 J. A. Parkhill,  Zheng Pei,  T. M. Perrine,  F. Plasser,  P. Pokhilko,  
 S. Prager,  A. Prociuk,  E. Ramos,  D. R. Rehn,  F. Rob,  M. Scheurer,  
 M. Schneider,  N. Sergueev,  S. M. Sharada,  S. Sharma,  D. W. Small,  
 T. Stauch,  T. Stein,  Yu-Chuan Su,  A. J. W. Thom,  A. Tkatchenko,  
 T. Tsuchimochi,  N. M. Tubman,  L. Vogt,  M. L. Vidal,  O. Vydrov,  
 M. A. Watson,  J. Wenzel,  M. de Wergifosse,  T. A. Wesolowski,  A. White,  
 J. Witte,  A. Yamada,  Jun Yang,  K. Yao,  S. Yeganeh,  S. R. Yost,  
 Zhi-Qiang You,  A. Zech,  Igor Ying Zhang,  Xing Zhang,  Yan Zhao,  
 Ying Zhu,  B. R. Brooks,  G. K. L. Chan,  C. J. Cramer,  M. S. Gordon,  
 W. J. Hehre,  A. Klamt,  M. W. Schmidt,  C. D. Sherrill,  D. G. Truhlar,  
 A. Aspuru-Guzik,  R. Baer,  A. T. Bell,  N. A. Besley,  Jeng-Da Chai,  
 A. E. DePrince, III,  R. A. DiStasio Jr.,  A. Dreuw,  B. D. Dunietz,  
 T. R. Furlani,  Chao-Ping Hsu,  Yousung Jung,  Jing Kong,  D. S. Lambrecht,  
 WanZhen Liang,  C. Ochsenfeld,  V. A. Rassolov,  L. V. Slipchenko,  
 J. E. Subotnik,  T. Van Voorhis,  J. M. Herbert,  A. I. Krylov,  
 P. M. W. Gill,  M. Head-Gordon

 Contributors to earlier versions of Q-Chem not listed above: 
 R. D. Adamson,  B. Austin,  J. Baker,  G. J. O. Beran,  K. Brandhorst,  
 S. T. Brown,  E. F. C. Byrd,  A. K. Chakraborty,  C.-L. Cheng,  
 Siu Hung Chien,  D. M. Chipman,  D. L. Crittenden,  H. Dachsel,  
 R. J. Doerksen,  A. D. Dutoi,  L. Fusti-Molnar,  W. A. Goddard III,  
 A. Golubeva-Zadorozhnaya,  S. R. Gwaltney,  G. Hawkins,  A. Heyden,  
 S. Hirata,  G. Kedziora,  F. J. Keil,  C. Kelley,  Jihan Kim,  R. A. King,  
 R. Z. Khaliullin,  P. P. Korambath,  W. Kurlancheek,  A. M. Lee,  M. S. Lee,  
 S. V. Levchenko,  Ching Yeh Lin,  D. Liotard,  R. C. Lochan,  I. Lotan,  
 P. E. Maslen,  N. Nair,  D. P. O'Neill,  D. Neuhauser,  E. Neuscamman,  
 C. M. Oana,  R. Olson,  B. Peters,  R. Peverati,  P. A. Pieniazek,  
 Y. M. Rhee,  J. Ritchie,  M. A. Rohrdanz,  E. Rosta,  N. J. Russ,  
 H. F. Schaefer III,  N. E. Schultz,  N. Shenvi,  A. C. Simmonett,  A. Sodt,  
 D. Stuck,  K. S. Thanthiriwatte,  V. Vanovschi,  Tao Wang,  A. Warshel,  
 C. F. Williams,  Q. Wu,  X. Xu,  W. Zhang

 Please cite Q-Chem as follows:
 Y. Shao et al., Mol. Phys. 113, 184-215 (2015)
 DOI: 10.1080/00268976.2014.952696

 Q-Chem 5.2.0 for Intel X86 EM64T Linux

 Parts of Q-Chem use Armadillo 8.300.2 (Tropical Shenanigans).
 http://arma.sourceforge.net/

 Q-Chem begins on Sun Sep 26 05:03:12 2021  

Host: cori01
0

     Scratch files written to /tmp/qchem25029//Frg1//
 May1019 |scratch|qcdevops|jenkins|workspace|build_RNUM -1
Processing $rem in /global/common/cori/software/qchem/5.2/config/preferences:
	 MEM_TOTAL  96000 
NAlpha2: 50
NElect   50
Mult     1
Symmetry turned off for PCM/SM12/SMD calculation

Checking the input file for inconsistencies... 	...done.

--------------------------------------------------------------
User input:
--------------------------------------------------------------
$molecule
0 1
 6	1.9141105428	0.2054465553	-3.4030930571
 6	-1.3358894572	0.6284465553	-1.5050930571
 6	-0.1518894572	0.9144465553	-2.1590930571
 6	-1.8148894572	-0.6695534447	-1.4610930571
 6	0.5951105428	-0.1015534447	-2.7520930571
 6	-1.0778894572	-1.7015534447	-2.0430930571
 6	0.1231105428	-1.4155534447	-2.6930930571
 1	-1.8978894572	1.4254465553	-1.0460930571
 1	0.1881105428	1.9384465553	-2.2080930571
 1	-2.7538894572	-0.8785534447	-0.9690930571
 1	-1.4368894572	-2.7175534447	-1.9770930571
 1	1.9311105428	1.2604465553	-3.6780930571
 1	1.9991105428	-0.3635534447	-4.3280930571
 1	0.6921105428	-2.2165534447	-3.1430930571
 1	2.7779005428	-0.0133734447	-2.7581230571
$end
$rem
EDA2		1
METHOD		WB97X-V
BASIS		DEF2-TZVPD
XC_GRID		000099000590
NL_GRID		1
UNRESTRICTED		FALSE
MAX_SCF_CYCLES		200
SYMMETRY		FALSE
SYM_IGNORE		TRUE
BASIS_LIN_DEP_THRESH		6
THRESH		14
SCF_CONVERGENCE		8
SCF_PRINT_FRGM		TRUE
SOLVENT_METHOD		SMD
!required keywords
JOBTYPE		SP
SYM_IGNORE		TRUE
SUBSYSTEM		TRUE
GEN_SCFMAN		TRUE
CHILD_INSTRUCTION		2
SYM_IGNORE		TRUE
SCFMI		0
RI_K 0		
PARI_K 0		
MIN_PARI_K 0		
IARI_K 0		
OCC_RI_K 0		
PURECART		1111
MEM_STATIC		2000
MEM_TOTAL		96000
GUI		0
CHILD_MP		1
CHILD_MP_ORDERS		232
FRZ_RELAX		0
FRZ_RELAX_METHOD		0
EDA_CLS_ELEC		1
EDA_CLS_DISP		0
FRZ_ORTHO_DECOMP		1
EDA2		FALSE
FRGM_METHOD		FALSE
CIS_N_ROOTS  0
LOCAL_CIS    0
CIS_RLX_DNS  1
$end
$smx
SOLVENT			WATER
$end
--------------------------------------------------------------
 ----------------------------------------------------------------
             Standard Nuclear Orientation (Angstroms)
    I     Atom           X                Y                Z
 ----------------------------------------------------------------
    1      C       1.9141105428     0.2054465553    -3.4030930571
    2      C      -1.3358894572     0.6284465553    -1.5050930571
    3      C      -0.1518894572     0.9144465553    -2.1590930571
    4      C      -1.8148894572    -0.6695534447    -1.4610930571
    5      C       0.5951105428    -0.1015534447    -2.7520930571
    6      C      -1.0778894572    -1.7015534447    -2.0430930571
    7      C       0.1231105428    -1.4155534447    -2.6930930571
    8      H      -1.8978894572     1.4254465553    -1.0460930571
    9      H       0.1881105428     1.9384465553    -2.2080930571
   10      H      -2.7538894572    -0.8785534447    -0.9690930571
   11      H      -1.4368894572    -2.7175534447    -1.9770930571
   12      H       1.9311105428     1.2604465553    -3.6780930571
   13      H       1.9991105428    -0.3635534447    -4.3280930571
   14      H       0.6921105428    -2.2165534447    -3.1430930571
   15      H       2.7779005428    -0.0133734447    -2.7581230571
 ----------------------------------------------------------------
 Nuclear Repulsion Energy =         270.09866574 hartrees
 There are       25 alpha and       25 beta electrons
 Requested basis set is def2-TZVPD
 There are 131 shells and 331 basis functions

 Total QAlloc Memory Limit  96000 MB
 Mega-Array Size      1956 MB
 MEM_STATIC part      2000 MB
 
 Citation of the SMD model:
 Marenich, A.V.; Cramer, C.J.; Truhlar, D.G.
 J. Phys. Chem. B 2009, 113, 6378-6396.
 iSolventCode=           1
 Solvent: water                                                           
 
 vradii
            1           2           3           4           5           6
    1   1.8500000   1.8500000   1.8500000   1.8500000   1.8500000   1.8500000
            7           8           9          10          11          12
    1   1.8500000   1.2000000   1.2000000   1.2000000   1.2000000   1.2000000
           13          14          15
    1   1.2000000   1.2000000   1.2000000
 Changing PCM_VDW_RADII to SMD_RADIUS
 Discretize the solute cavity surface with Lebedev spheres
	Using 110 Lebedev grid points for each H atom
	Using 194 Lebedev grid points for other atoms
	Atomic van der Waals radii will be scaled by 1.20
 Remove points where switching function is < 1.0e-08
 Keep 1077 surface tesserae and discard 1161 interior tesserae
 Molecular Surface Area = 132.165 Angst**2

                       Distance Matrix (Angstroms)
             C (  1)   C (  2)   C (  3)   C (  4)   C (  5)   C (  6)
   C (  2)  3.787325
   C (  3)  2.513677  1.382522
   C (  4)  4.294465  1.384262  2.400381
   C (  5)  1.502601  2.411777  1.393526  2.792383
   C (  6)  3.799778  2.405184  2.777479  1.395320  2.421076
   C (  7)  2.517821  2.778122  2.406176  2.414577  1.397448  1.395241
   H (  8)  4.644910  1.077838  2.132699  2.137321  3.384851  3.382978
   H (  9)  2.722203  2.129057  1.080082  3.372192  2.150159  3.857406
   H ( 10)  5.374908  2.137538  3.376589  1.080493  3.872805  2.154015
   H ( 11)  4.669754  3.380636  3.856912  2.145564  3.401927  1.079580
   H ( 12)  1.090385  3.974247  2.601147  4.761565  2.120711  4.527775
   H ( 13)  1.089317  4.480582  3.311291  4.781205  2.126884  4.059482
   H ( 14)  2.725246  3.858737  3.388769  3.392253  2.153025  2.146654
   H ( 15)  1.100001  4.348021  3.131031  4.817321  2.184579  4.269466
             C (  7)   H (  8)   H (  9)   H ( 10)   H ( 11)   H ( 12)
   H (  8)  3.855947
   H (  9)  3.389508  2.442296
   H ( 10)  3.396715  2.459081  4.257461
   H ( 11)  2.154405  4.271268  4.936833  2.476383
   H ( 12)  3.376398  4.649289  2.378788  5.819212  5.482819
   H ( 13)  2.701723  5.399875  3.615705  5.842869  4.782741  1.750571
   H ( 14)  1.080677  4.936565  4.288621  4.288524  2.478548  3.729729
   H ( 15)  3.003040  5.183075  3.289247  5.877913  5.068240  1.784941
             H ( 13)   H ( 14)
   H ( 14)  2.558531
   H ( 15)  1.787161  3.058222
 
 A cutoff of  1.0D-14 yielded   8359 shell pairs
 There are     54495 function pairs (     69449 Cartesian)
 Smallest overlap matrix eigenvalue = 5.63E-07
 Linear dependence detected in AO basis
 Tighter screening thresholds may be required for diffuse basis sets
 Use S2THRESH > 14 and THRESH = 14 in case of SCF convergence issues
 Number of orthogonalized atomic orbitals = 330
 Maximum deviation from orthogonality = 1.178E-10

 Scale SEOQF with 1.000000e-01/1.000000e-01/1.000000e-01

 Standard Electronic Orientation quadrupole field applied
 Nucleus-field energy     =    -0.0000000244 hartrees
 Guess from superposition of atomic densities
 Warning:  Energy on first SCF cycle will be non-variational
 SAD guess density has 49.913408 electrons

 -----------------------------------------------------------------------
  General SCF calculation program by
  Eric Jon Sundstrom, Paul Horn, Yuezhi Mao, Dmitri Zuev, Alec White,
  David Stuck, Shaama M.S., Shane Yost, Joonho Lee, David Small,
  Daniel Levine, Susi Lehtola, Hugh Burton, Evgeny Epifanovsky
 -----------------------------------------------------------------------
 Exchange:     0.1670 Hartree-Fock + 1.0000 wB97X-V + LR-HF
 Correlation:  1.0000 wB97X-V
 Using Euler-Maclaurin-Lebedev (99,590) quadrature formula
 Nonlocal Correlation:  VV10 with C = 0.0100 and b = 6.00 and scale = 1.00000
 Grid used for NLC:  SG-1 standard quadrature
Energy prior to optimization (guess energy) = -271.519482071910
Begin Timing: Total SCF Calculation
begin iterations for algorithm: DIIS         
the SCF tolerance is set to 1.00e-08
    1    -271.5194820719      1.97e-03     00000 
    2    -271.5606922966      1.29e-03     00000 
    3    -271.5848418804      1.55e-04     00000 
    4    -271.5855354486      4.74e-05     00000 
    5    -271.5855867202      2.25e-05     00000 
    6    -271.5855951153      5.60e-06     00000 
    7    -271.5855958662      1.84e-06     00000 
    8    -271.5855959262      4.04e-07     00000 
    9    -271.5855959315      8.90e-08     00000 
   10    -271.5855959318      3.19e-08     00000 
   11    -271.5855959318      1.66e-08     00000 
   12    -271.5855959318      5.45e-09     00000 Convergence criterion met
Timing for Total SCF: 1372.00s (wall), 2718.22s (cpu)
(3)  G-ENP(liq) elect-nuc-pol free energy of system     -271.585595932 a.u.
(4)  G-CDS(liq) cavity-dispersion-solvent structure 
     free energy                                                3.1613 kcal/mol
(6)  G-S(liq) free energy of system                     -271.580558106 a.u.
E_pcm = -0.0073950980
E_cds = 0.0050378260
Multipole orders to be included
        2
        3
computing dipole RHS
computing quadrupole RHS
total number of RHS in solve_reponses: 8
RHS batch sizes
        8
Beginning Block Conjugate Gradient Iterations. Batch Number: 0
computing hessian-vector products by finite difference
              1      6.31e-01     00000 Conjugate Gradient Iteration
computing hessian-vector products by finite difference
              2      1.98e-01     00000 Conjugate Gradient Iteration
computing hessian-vector products by finite difference
              3      4.70e-02     00000 Conjugate Gradient Iteration
computing hessian-vector products by finite difference
              4      1.15e-02     00000 Conjugate Gradient Iteration
computing hessian-vector products by finite difference
              5      1.97e-03     00000 Conjugate Gradient Iteration
computing hessian-vector products by finite difference
              6      5.40e-04     00000 Conjugate Gradient Iteration
computing hessian-vector products by finite difference
              7      1.74e-04     00000 Conjugate Gradient Iteration
computing hessian-vector products by finite difference
              8      2.84e-05     00000 Conjugate Gradient Iteration
computing hessian-vector products by finite difference
              9      3.71e-06     00000 Conjugate Gradient Iteration
computing hessian-vector products by finite difference
             10      6.78e-07     00000 Conjugate Gradient Iteration
computing hessian-vector products by finite difference
             11      1.09e-07     00000 Conjugate Gradient Iteration
computing hessian-vector products by finite difference
             12      1.91e-08     00000 Conjugate Gradient Iteration
computing hessian-vector products by finite difference
             13      3.00e-09     00000 CG Converged
batch 0 complete
Done Calculating Responses
TESTING ORTHOGONALIZATION OF MULTIPOLE BASIS
Multipole virts passed orthogonality test
Virts Per Order
           75
          125
 
 --------------------------------------------------------------
 
                    Orbital Energies (a.u.)
 --------------------------------------------------------------
 
 Alpha MOs
 -- Occupied --
-10.2773 -10.2686 -10.2651 -10.2650 -10.2641 -10.2625 -10.2532  -0.9937
 -0.9018  -0.8752  -0.8070  -0.7248  -0.7006  -0.6243  -0.5687  -0.5603
 -0.5295  -0.5245  -0.5079  -0.4791  -0.4700  -0.4355  -0.4344  -0.3470
 -0.3342
 -- Virtual --
  0.0676   0.0683   0.0717   0.0844   0.0899   0.1096   0.1159   0.1183
  0.1409   0.1597   0.1710   0.1754   0.1902   0.1938   0.2003   0.2083
  0.2282   0.2313   0.2402   0.2448   0.2546   0.2636   0.2659   0.2727
  0.2869   0.2880   0.2917   0.2957   0.2981   0.3066   0.3078   0.3170
  0.3215   0.3312   0.3375   0.3429   0.3562   0.3573   0.3734   0.3772
  0.3818   0.3880   0.3902   0.3936   0.3965   0.4052   0.4098   0.4123
  0.4171   0.4328   0.4355   0.4404   0.4465   0.4531   0.4566   0.4584
  0.4681   0.4754   0.4810   0.4868   0.4967   0.5035   0.5171   0.5209
  0.5239   0.5304   0.5391   0.5420   0.5466   0.5521   0.5559   0.5722
  0.5838   0.5912   0.5982   0.6013   0.6060   0.6242   0.6456   0.6487
  0.6707   0.6804   0.6847   0.6898   0.6941   0.7033   0.7232   0.7260
  0.7331   0.7362   0.7497   0.7606   0.7681   0.7714   0.7802   0.7886
  0.7965   0.7983   0.8022   0.8067   0.8111   0.8261   0.8310   0.8364
  0.8400   0.8415   0.8496   0.8599   0.8636   0.8793   0.8920   0.8994
  0.9152   0.9279   0.9360   0.9521   0.9588   1.0155   1.0305   1.0467
  1.0504   1.0653   1.0756   1.0775   1.0910   1.0954   1.1084   1.1481
  1.1697   1.1834   1.2561   1.2835   1.3004   1.3235   1.3524   1.3582
  1.3841   1.4420   1.4570   1.4642   1.4676   1.4899   1.5328   1.5433
  1.6060   1.6099   1.6244   1.6292   1.6611   1.6892   1.7446   1.7865
  1.7969   1.8023   1.8067   1.8229   1.8348   1.8711   1.8922   1.9163
  1.9244   1.9324   1.9501   1.9716   1.9910   1.9998   2.0172   2.0296
  2.0386   2.0509   2.0752   2.0976   2.1172   2.1287   2.1780   2.1833
  2.2035   2.2388   2.2508   2.2729   2.2936   2.3170   2.3949   2.4040
  2.4095   2.4169   2.4873   2.5165   2.5438   2.5576   2.5685   2.6087
  2.6233   2.6375   2.6728   2.6853   2.7050   2.7183   2.7652   2.7784
  2.7946   2.8194   2.8245   2.8527   2.8672   2.9066   2.9168   2.9234
  2.9375   2.9474   2.9716   2.9826   2.9974   3.0226   3.0240   3.0577
  3.0676   3.0895   3.1068   3.1411   3.1806   3.1913   3.2037   3.2307
  3.2412   3.2487   3.2921   3.3031   3.3449   3.3590   3.3722   3.3819
  3.4064   3.4462   3.4506   3.4523   3.4648   3.4733   3.4921   3.5060
  3.5189   3.5375   3.5436   3.5506   3.5662   3.5773   3.5887   3.6103
  3.6258   3.6424   3.6645   3.6946   3.7233   3.7576   3.7865   3.8148
  3.8496   3.9017   3.9148   3.9603   3.9756   3.9941   4.0428   4.0593
  4.1239   4.2097   4.2771   4.2835   4.2988   4.3179   4.3288   4.3395
  4.3617   4.3743   4.3890   4.4079   4.4438   4.4555   4.4936   4.5390
  4.6100   4.6263   4.7601   4.7850   4.8307   4.8883   4.9113   4.9512
  5.0338   5.0554   5.1742   5.2737   5.3792   5.3958   5.5070   5.5321
  5.6805   5.8554  22.5827  22.6811  22.8984  22.9124  23.0231  23.0900
 23.4286
 --------------------------------------------------------------
 
          Ground-State Mulliken Net Atomic Charges

     Atom                 Charge (a.u.)
  ----------------------------------------
      1 C                    -1.079019
      2 C                    -0.562407
      3 C                    -0.426713
      4 C                    -0.546558
      5 C                     0.835173
      6 C                    -0.551926
      7 C                    -0.406609
      8 H                     0.373663
      9 H                     0.368345
     10 H                     0.393269
     11 H                     0.378915
     12 H                     0.297926
     13 H                     0.282649
     14 H                     0.400334
     15 H                     0.242957
  ----------------------------------------
  Sum of atomic charges =     0.000000

 -----------------------------------------------------------------
                    Cartesian Multipole Moments
 -----------------------------------------------------------------
    Charge (ESU x 10^10)
                 0.0000
    Dipole Moment (Debye)
         X       0.4779      Y       0.1107      Z      -0.2080
       Tot       0.5328
    Quadrupole Moments (Debye-Ang)
        XX     -39.7202     XY       0.3721     YY     -37.7798
        XZ      -4.8609     YZ       0.8119     ZZ     -43.1614
    Octopole Moments (Debye-Ang^2)
       XXX      21.4295    XXY      10.2383    XYY       5.0169
       YYY      32.4483    XXZ      98.6051    XYZ       0.1265
       YYZ      87.2880    XZZ      28.2585    YZZ       9.1455
       ZZZ     300.5518
    Hexadecapole Moments (Debye-Ang^3)
      XXXX    -480.0723   XXXY     -41.4945   XXYY    -131.5677
      XYYY     -35.7651   YYYY    -304.8208   XXXZ      50.1932
      XXYZ     -25.3048   XYYZ      17.7776   YYYZ     -71.8946
      XXZZ    -352.2158   XYZZ     -20.9935   YYZZ    -291.5171
      XZZZ     -10.4088   YZZZ     -75.6882   ZZZZ   -1580.3441
 -----------------------------------------------------------------
Archival summary:
1\1\nid00532\SP\ProcedureUnspecified\BasisUnspecified\78\meili\SunSep2612:41:262021SunSep2612:41:262021\0\\#,ProcedureUnspecified,BasisUnspecified,\\0,1\C\C,1,1.39353\H,2,1.08008,1,120.211\C,2,1.38252,1,120.634,3,179.832,0\H,4,1.07784,2,119.671,1,179.585,0\C,4,1.38426,2,120.355,1,-1.73544,0\H,6,1.08049,4,119.773,2,-178.447,0\C,6,1.39532,4,119.834,2,2.04077,0\H,8,1.07958,6,119.664,4,177.865,0\C,8,1.39524,6,119.826,4,-1.46252,0\H,10,1.08068,8,119.688,6,-179.999,0\C,1,1.5026,2,120.395,3,3.1656,0\H,12,1.08932,1,109.249,2,-139.282,0\H,12,1.09038,1,108.701,2,-23.0177,0\H,12,1.1,1,113.244,2,98.4744,0\\\@

 Total job time:  27497.27s(wall), 54626.44s(cpu) 
 Sun Sep 26 12:41:29 2021

        *************************************************************
        *                                                           *
        *  Thank you very much for using Q-Chem.  Have a nice day.  *
        *                                                           *
        *************************************************************


Done Job For Fragment 0
calling putenv with: QCSCRATCH=/global/cscratch1/sd/meili 
calling putenv with: QCLOCALSCR=/tmp 
calling putenv with: QCTHREADS=32 
Creating input file /tmp/qchem25029/Frg2.input
using default PutDataFrgm: nothing
calling putenv with: QCSCRATCH=/tmp/qchem25029/ 
calling putenv with: QCLOCALSCR=/tmp/qchem25029/ 
Spawning Job For Fragment 1
                  Welcome to Q-Chem
     A Quantum Leap Into The Future Of Chemistry


 Q-Chem 5.2, Q-Chem, Inc., Pleasanton, CA (2019)

 License issued to: National Energy Research Scientific Computing Center

 Yihan Shao,  Zhengting Gan,  E. Epifanovsky,  A. T. B. Gilbert,  M. Wormit,  
 J. Kussmann,  A. W. Lange,  A. Behn,  Jia Deng,  Xintian Feng,  D. Ghosh,  
 M. Goldey,  P. R. Horn,  L. D. Jacobson,  I. Kaliman,  T. Kus,  A. Landau,  
 Jie Liu,  E. I. Proynov,  R. M. Richard,  R. P. Steele,  E. J. Sundstrom,  
 H. L. Woodcock III,  P. M. Zimmerman,  D. Zuev,  B. Albrecht,  E. Alguire,  
 S. A. Baeppler,  D. Barton,  Z. Benda,  Y. A. Bernard,  E. J. Berquist,  
 K. B. Bravaya,  H. Burton,  D. Casanova,  Chun-Min Chang,  Yunqing Chen,  
 A. Chien,  K. D. Closser,  M. P. Coons,  S. Coriani,  S. Dasgupta,  
 A. L. Dempwolff,  M. Diedenhofen,  Hainam Do,  R. G. Edgar,  Po-Tung Fang,  
 S. Faraji,  S. Fatehi,  Qingguo Feng,  K. D. Fenk,  J. Fosso-Tande,  
 J. Gayvert,  Qinghui Ge,  A. Ghysels,  G. Gidofalvi,  J. Gomes,  
 J. Gonthier,  A. Gunina,  D. Hait,  M. W. D. Hanson-Heine,  
 P. H. P. Harbach,  A. W. Hauser,  M. F. Herbst,  J. E. Herr,  
 E. G. Hohenstein,  Z. C. Holden,  Kerwin Hui,  B. C. Huynh,  T.-C. Jagau,  
 Hyunjun Ji,  B. Kaduk,  K. Khistyaev,  Jaehoon Kim,  P. Klunzinger,  K. Koh,  
 D. Kosenkov,  L. Koulias,  T. Kowalczyk,  C. M. Krauter,  A. Kunitsa,  
 Ka Un Lao,  A. Laurent,  K. V. Lawler,  Joonho Lee,  D. Lefrancois,  
 S. Lehtola,  D. S. Levine,  Yi-Pei Li,  You-Sheng Lin,  Fenglai Liu,  
 E. Livshits,  A. Luenser,  P. Manohar,  E. Mansoor,  S. F. Manzer,  
 Shan-Ping Mao,  Yuezhi Mao,  N. Mardirossian,  A. V. Marenich,  
 T. Markovich,  L. A. Martinez-Martinez,  S. A. Maurer,  N. J. Mayhall,  
 S. C. McKenzie,  J.-M. Mewes,  P. Morgante,  A. F. Morrison,  
 J. W. Mullinax,  K. Nanda,  T. S. Nguyen-Beck,  R. Olivares-Amaya,  
 J. A. Parkhill,  Zheng Pei,  T. M. Perrine,  F. Plasser,  P. Pokhilko,  
 S. Prager,  A. Prociuk,  E. Ramos,  D. R. Rehn,  F. Rob,  M. Scheurer,  
 M. Schneider,  N. Sergueev,  S. M. Sharada,  S. Sharma,  D. W. Small,  
 T. Stauch,  T. Stein,  Yu-Chuan Su,  A. J. W. Thom,  A. Tkatchenko,  
 T. Tsuchimochi,  N. M. Tubman,  L. Vogt,  M. L. Vidal,  O. Vydrov,  
 M. A. Watson,  J. Wenzel,  M. de Wergifosse,  T. A. Wesolowski,  A. White,  
 J. Witte,  A. Yamada,  Jun Yang,  K. Yao,  S. Yeganeh,  S. R. Yost,  
 Zhi-Qiang You,  A. Zech,  Igor Ying Zhang,  Xing Zhang,  Yan Zhao,  
 Ying Zhu,  B. R. Brooks,  G. K. L. Chan,  C. J. Cramer,  M. S. Gordon,  
 W. J. Hehre,  A. Klamt,  M. W. Schmidt,  C. D. Sherrill,  D. G. Truhlar,  
 A. Aspuru-Guzik,  R. Baer,  A. T. Bell,  N. A. Besley,  Jeng-Da Chai,  
 A. E. DePrince, III,  R. A. DiStasio Jr.,  A. Dreuw,  B. D. Dunietz,  
 T. R. Furlani,  Chao-Ping Hsu,  Yousung Jung,  Jing Kong,  D. S. Lambrecht,  
 WanZhen Liang,  C. Ochsenfeld,  V. A. Rassolov,  L. V. Slipchenko,  
 J. E. Subotnik,  T. Van Voorhis,  J. M. Herbert,  A. I. Krylov,  
 P. M. W. Gill,  M. Head-Gordon

 Contributors to earlier versions of Q-Chem not listed above: 
 R. D. Adamson,  B. Austin,  J. Baker,  G. J. O. Beran,  K. Brandhorst,  
 S. T. Brown,  E. F. C. Byrd,  A. K. Chakraborty,  C.-L. Cheng,  
 Siu Hung Chien,  D. M. Chipman,  D. L. Crittenden,  H. Dachsel,  
 R. J. Doerksen,  A. D. Dutoi,  L. Fusti-Molnar,  W. A. Goddard III,  
 A. Golubeva-Zadorozhnaya,  S. R. Gwaltney,  G. Hawkins,  A. Heyden,  
 S. Hirata,  G. Kedziora,  F. J. Keil,  C. Kelley,  Jihan Kim,  R. A. King,  
 R. Z. Khaliullin,  P. P. Korambath,  W. Kurlancheek,  A. M. Lee,  M. S. Lee,  
 S. V. Levchenko,  Ching Yeh Lin,  D. Liotard,  R. C. Lochan,  I. Lotan,  
 P. E. Maslen,  N. Nair,  D. P. O'Neill,  D. Neuhauser,  E. Neuscamman,  
 C. M. Oana,  R. Olson,  B. Peters,  R. Peverati,  P. A. Pieniazek,  
 Y. M. Rhee,  J. Ritchie,  M. A. Rohrdanz,  E. Rosta,  N. J. Russ,  
 H. F. Schaefer III,  N. E. Schultz,  N. Shenvi,  A. C. Simmonett,  A. Sodt,  
 D. Stuck,  K. S. Thanthiriwatte,  V. Vanovschi,  Tao Wang,  A. Warshel,  
 C. F. Williams,  Q. Wu,  X. Xu,  W. Zhang

 Please cite Q-Chem as follows:
 Y. Shao et al., Mol. Phys. 113, 184-215 (2015)
 DOI: 10.1080/00268976.2014.952696

 Q-Chem 5.2.0 for Intel X86 EM64T Linux

 Parts of Q-Chem use Armadillo 8.300.2 (Tropical Shenanigans).
 http://arma.sourceforge.net/

 Q-Chem begins on Sun Sep 26 12:41:32 2021  

Host: cori01
0

     Scratch files written to /tmp/qchem25029//Frg2//
 May1019 |scratch|qcdevops|jenkins|workspace|build_RNUM -1
Processing $rem in /global/common/cori/software/qchem/5.2/config/preferences:
	 MEM_TOTAL  96000 
NAlpha2: 44
NElect   44
Mult     1
Symmetry turned off for PCM/SM12/SMD calculation

Checking the input file for inconsistencies... 	...done.

--------------------------------------------------------------
User input:
--------------------------------------------------------------
$molecule
0 1
 6	-0.2018894572	-1.7935534447	2.1439069429
 6	-0.5888894572	0.7614465553	1.9869069429
 6	0.0771105428	-0.3405534447	2.4179069429
 6	1.0701105428	1.4284465553	3.2649069429
 7	0.0491105428	1.8554465553	2.5309069429
 7	1.1061105428	0.1054465553	3.2199069429
 1	-1.4758894572	0.7594465553	1.3649069429
 1	-0.3268894572	2.7934465553	2.5899069429
 1	-1.1488894572	-1.8455534447	1.6109069429
 1	-0.3108894572	-2.3225534447	3.0879069429
 1	1.7181105428	2.0424465553	3.8749069429
 1	0.5654605428	-2.2924434447	1.5337569429
$end
$rem
EDA2		1
METHOD		WB97X-V
BASIS		DEF2-TZVPD
XC_GRID		000099000590
NL_GRID		1
UNRESTRICTED		FALSE
MAX_SCF_CYCLES		200
SYMMETRY		FALSE
SYM_IGNORE		TRUE
BASIS_LIN_DEP_THRESH		6
THRESH		14
SCF_CONVERGENCE		8
SCF_PRINT_FRGM		TRUE
SOLVENT_METHOD		SMD
!required keywords
JOBTYPE		SP
SYM_IGNORE		TRUE
SUBSYSTEM		TRUE
GEN_SCFMAN		TRUE
CHILD_INSTRUCTION		2
SYM_IGNORE		TRUE
SCFMI		0
RI_K 0		
PARI_K 0		
MIN_PARI_K 0		
IARI_K 0		
OCC_RI_K 0		
PURECART		1111
MEM_STATIC		2000
MEM_TOTAL		96000
GUI		0
CHILD_MP		1
CHILD_MP_ORDERS		232
FRZ_RELAX		0
FRZ_RELAX_METHOD		0
EDA_CLS_ELEC		1
EDA_CLS_DISP		0
FRZ_ORTHO_DECOMP		1
EDA2		FALSE
FRGM_METHOD		FALSE
CIS_N_ROOTS  0
LOCAL_CIS    0
CIS_RLX_DNS  1
$end
$smx
SOLVENT			WATER
$end
--------------------------------------------------------------
 ----------------------------------------------------------------
             Standard Nuclear Orientation (Angstroms)
    I     Atom           X                Y                Z
 ----------------------------------------------------------------
    1      C      -0.2018894572    -1.7935534447     2.1439069429
    2      C      -0.5888894572     0.7614465553     1.9869069429
    3      C       0.0771105428    -0.3405534447     2.4179069429
    4      C       1.0701105428     1.4284465553     3.2649069429
    5      N       0.0491105428     1.8554465553     2.5309069429
    6      N       1.1061105428     0.1054465553     3.2199069429
    7      H      -1.4758894572     0.7594465553     1.3649069429
    8      H      -0.3268894572     2.7934465553     2.5899069429
    9      H      -1.1488894572    -1.8455534447     1.6109069429
   10      H      -0.3108894572    -2.3225534447     3.0879069429
   11      H       1.7181105428     2.0424465553     3.8749069429
   12      H       0.5654605428    -2.2924434447     1.5337569429
 ----------------------------------------------------------------
 Nuclear Repulsion Energy =         224.70510488 hartrees
 There are       22 alpha and       22 beta electrons
 Requested basis set is def2-TZVPD
 There are 108 shells and 276 basis functions

 Total QAlloc Memory Limit  96000 MB
 Mega-Array Size      1956 MB
 MEM_STATIC part      2000 MB
 
 Citation of the SMD model:
 Marenich, A.V.; Cramer, C.J.; Truhlar, D.G.
 J. Phys. Chem. B 2009, 113, 6378-6396.
 iSolventCode=           1
 Solvent: water                                                           
 
 vradii
            1           2           3           4           5           6
    1   1.8500000   1.8500000   1.8500000   1.8500000   1.8900000   1.8900000
            7           8           9          10          11          12
    1   1.2000000   1.2000000   1.2000000   1.2000000   1.2000000   1.2000000
 Changing PCM_VDW_RADII to SMD_RADIUS
 Discretize the solute cavity surface with Lebedev spheres
	Using 110 Lebedev grid points for each H atom
	Using 194 Lebedev grid points for other atoms
	Atomic van der Waals radii will be scaled by 1.20
 Remove points where switching function is < 1.0e-08
 Keep 903 surface tesserae and discard 921 interior tesserae
 Molecular Surface Area = 116.241 Angst**2

                       Distance Matrix (Angstroms)
             C (  1)   C (  2)   C (  3)   C (  4)   N (  5)   N (  6)
   C (  2)  2.588908
   C (  3)  1.504701  1.357837
   C (  4)  3.640867  2.197829  2.198367
   N (  5)  3.678039  1.378338  2.199084  1.327978
   N (  6)  2.544571  2.196281  1.378753  1.324255  2.157422
   H (  7)  2.957655  1.083355  2.174998  3.246487  2.210520  3.245838
   H (  8)  4.610326  2.135715  3.164610  2.066509  1.012275  3.110584
   H (  9)  1.087935  2.692847  2.102225  4.287045  3.997375  3.388260
   H ( 10)  1.087593  3.286418  2.127855  4.001061  4.230311  2.814338
   H ( 11)  4.625760  3.244650  3.239509  1.081203  2.151015  2.134371
   H ( 12)  1.100000  3.296075  2.197745  4.134800  4.297199  2.980819
             H (  7)   H (  8)   H (  9)   H ( 10)   H ( 11)
   H (  8)  2.637799
   H (  9)  2.636943  4.811907
   H ( 10)  3.718155  5.140206  1.763888
   H ( 11)  4.260026  2.529279  5.334972  4.877441
   H ( 12)  3.675548  5.270486  1.773319  1.784455  5.059729
 
 A cutoff of  1.0D-14 yielded   5739 shell pairs
 There are     38179 function pairs (     48961 Cartesian)
 Smallest overlap matrix eigenvalue = 1.87E-06

 Scale SEOQF with 1.000000e-01/1.000000e-01/1.000000e-01

 Standard Electronic Orientation quadrupole field applied
 Nucleus-field energy     =    -0.0000000257 hartrees
 Guess from superposition of atomic densities
 Warning:  Energy on first SCF cycle will be non-variational
 SAD guess density has 43.559167 electrons

 -----------------------------------------------------------------------
  General SCF calculation program by
  Eric Jon Sundstrom, Paul Horn, Yuezhi Mao, Dmitri Zuev, Alec White,
  David Stuck, Shaama M.S., Shane Yost, Joonho Lee, David Small,
  Daniel Levine, Susi Lehtola, Hugh Burton, Evgeny Epifanovsky
 -----------------------------------------------------------------------
 Exchange:     0.1670 Hartree-Fock + 1.0000 wB97X-V + LR-HF
 Correlation:  1.0000 wB97X-V
 Using Euler-Maclaurin-Lebedev (99,590) quadrature formula
 Nonlocal Correlation:  VV10 with C = 0.0100 and b = 6.00 and scale = 1.00000
 Grid used for NLC:  SG-1 standard quadrature
Energy prior to optimization (guess energy) = -265.141255243650
Begin Timing: Total SCF Calculation
begin iterations for algorithm: DIIS         
the SCF tolerance is set to 1.00e-08
    1    -265.1412552436      7.23e-03     00000 
    2    -265.1020410349      7.38e-03     00000 
    3    -265.5657400384      7.25e-04     00000 
    4    -265.5704116660      3.81e-04     00000 
    5    -265.5718140582      1.11e-04     00000 
    6    -265.5719725601      4.17e-05     00000 
    7    -265.5719971310      1.17e-05     00000 
    8    -265.5719997725      3.35e-06     00000 
    9    -265.5720000664      1.66e-06     00000 
   10    -265.5720001164      4.05e-07     00000 
   11    -265.5720001216      7.65e-08     00000 
   12    -265.5720001218      3.82e-08     00000 
   13    -265.5720001218      1.07e-08     00000 
   14    -265.5720001218      4.13e-09     00000 Convergence criterion met
Timing for Total SCF: 942.00s (wall), 1859.09s (cpu)
(3)  G-ENP(liq) elect-nuc-pol free energy of system     -265.572000122 a.u.
(4)  G-CDS(liq) cavity-dispersion-solvent structure 
     free energy                                                2.0429 kcal/mol
(6)  G-S(liq) free energy of system                     -265.568744542 a.u.
E_pcm = -0.0227408780
E_cds = 0.0032555799
Multipole orders to be included
        2
        3
computing dipole RHS
computing quadrupole RHS
total number of RHS in solve_reponses: 8
RHS batch sizes
        8
Beginning Block Conjugate Gradient Iterations. Batch Number: 0
computing hessian-vector products by finite difference
              1      6.39e-01     00000 Conjugate Gradient Iteration
computing hessian-vector products by finite difference
              2      1.92e-01     00000 Conjugate Gradient Iteration
computing hessian-vector products by finite difference
              3      4.45e-02     00000 Conjugate Gradient Iteration
computing hessian-vector products by finite difference
              4      1.36e-02     00000 Conjugate Gradient Iteration
computing hessian-vector products by finite difference
              5      3.18e-03     00000 Conjugate Gradient Iteration
computing hessian-vector products by finite difference
              6      5.98e-04     00000 Conjugate Gradient Iteration
computing hessian-vector products by finite difference
              7      1.02e-04     00000 Conjugate Gradient Iteration
computing hessian-vector products by finite difference
              8      1.60e-05     00000 Conjugate Gradient Iteration
computing hessian-vector products by finite difference
              9      2.54e-06     00000 Conjugate Gradient Iteration
computing hessian-vector products by finite difference
             10      5.73e-07     00000 Conjugate Gradient Iteration
computing hessian-vector products by finite difference
             11      9.03e-08     00000 Conjugate Gradient Iteration
computing hessian-vector products by finite difference
             12      1.48e-08     00000 Conjugate Gradient Iteration
computing hessian-vector products by finite difference
             13      2.80e-09     00000 CG Converged
batch 0 complete
Done Calculating Responses
TESTING ORTHOGONALIZATION OF MULTIPOLE BASIS
Multipole virts passed orthogonality test
Virts Per Order
           66
          110
 
 --------------------------------------------------------------
 
                    Orbital Energies (a.u.)
 --------------------------------------------------------------
 
 Alpha MOs
 -- Occupied --
-14.4578 -14.3853 -10.3166 -10.2838 -10.2829 -10.2575  -1.1527  -0.9937
 -0.8957  -0.8220  -0.7218  -0.6825  -0.6634  -0.5638  -0.5514  -0.5354
 -0.5093  -0.4946  -0.4764  -0.3789  -0.3736  -0.3225
 -- Virtual --
  0.0688   0.0878   0.0979   0.1066   0.1189   0.1308   0.1356   0.1481
  0.1715   0.1722   0.1806   0.1848   0.2035   0.2069   0.2272   0.2367
  0.2490   0.2535   0.2634   0.2684   0.2739   0.2930   0.3002   0.3098
  0.3143   0.3172   0.3224   0.3246   0.3316   0.3381   0.3523   0.3603
  0.3624   0.3694   0.3807   0.3846   0.3979   0.4052   0.4084   0.4174
  0.4222   0.4299   0.4328   0.4492   0.4559   0.4714   0.4730   0.4858
  0.4926   0.4978   0.5039   0.5225   0.5362   0.5405   0.5539   0.5587
  0.5702   0.5790   0.5937   0.5952   0.6077   0.6136   0.6269   0.6416
  0.6434   0.6558   0.6731   0.6857   0.6887   0.7061   0.7097   0.7157
  0.7387   0.7444   0.7608   0.7741   0.7771   0.7888   0.7919   0.8044
  0.8079   0.8214   0.8268   0.8331   0.8554   0.8640   0.8825   0.8999
  0.9195   0.9372   0.9750   0.9959   0.9999   1.0084   1.0182   1.0256
  1.0687   1.0878   1.1075   1.1178   1.1290   1.1551   1.1749   1.1829
  1.2263   1.2521   1.2787   1.3487   1.3491   1.3570   1.3820   1.4287
  1.4350   1.4614   1.5518   1.5647   1.6095   1.6402   1.6550   1.6809
  1.7009   1.7384   1.7606   1.8158   1.8302   1.8493   1.8741   1.9022
  1.9450   1.9516   1.9541   1.9593   1.9743   1.9865   2.0019   2.0132
  2.0433   2.0627   2.0934   2.1359   2.1801   2.2243   2.2664   2.2795
  2.3066   2.3453   2.3607   2.3950   2.4352   2.4544   2.4785   2.5091
  2.5514   2.5992   2.6089   2.6199   2.6382   2.6631   2.6899   2.7200
  2.7525   2.7716   2.7876   2.8421   2.8691   2.8751   2.9068   2.9917
  3.0099   3.0414   3.0593   3.0796   3.0909   3.0964   3.1215   3.1691
  3.1793   3.1968   3.2176   3.2269   3.2697   3.2956   3.3137   3.3383
  3.3546   3.3698   3.3925   3.3974   3.4270   3.4520   3.4811   3.5007
  3.5223   3.5418   3.5766   3.5997   3.6185   3.6555   3.7086   3.7327
  3.7590   3.8028   3.8380   3.8591   3.8746   3.9521   3.9745   4.0422
  4.0757   4.1000   4.1558   4.2362   4.2956   4.4072   4.4328   4.4812
  4.5078   4.5408   4.6129   4.6971   4.7039   4.7746   4.8762   4.9399
  4.9584   4.9756   5.0004   5.0439   5.0498   5.0853   5.1724   5.2340
  5.2591   5.3108   5.3784   5.4438   5.4922   5.5376   5.5797   5.5998
  5.6681   5.6928   5.7183   5.7964   5.8766   6.0342   6.2193   6.2818
 22.6306  22.8732  23.1327  23.3791  32.6547  32.7743
 --------------------------------------------------------------
 
          Ground-State Mulliken Net Atomic Charges

     Atom                 Charge (a.u.)
  ----------------------------------------
      1 C                    -0.800234
      2 C                    -0.564228
      3 C                     0.504944
      4 C                    -0.266365
      5 N                     0.045136
      6 N                    -0.538281
      7 H                     0.324594
      8 H                     0.249106
      9 H                     0.227807
     10 H                     0.236510
     11 H                     0.340634
     12 H                     0.240377
  ----------------------------------------
  Sum of atomic charges =     0.000000

 -----------------------------------------------------------------
                    Cartesian Multipole Moments
 -----------------------------------------------------------------
    Charge (ESU x 10^10)
                 0.0000
    Dipole Moment (Debye)
         X      -2.8913      Y       3.8372      Z      -1.1931
       Tot       4.9505
    Quadrupole Moments (Debye-Ang)
        XX     -38.1085     XY       1.4304     YY     -22.9733
        XZ      -6.6587     YZ      13.0315     ZZ     -43.5026
    Octopole Moments (Debye-Ang^2)
       XXX     -31.6451    XXY      -2.5941    XYY      -7.8723
       YYY       4.9862    XXZ    -101.8058    XYZ      10.0905
       YYZ     -54.1939    XZZ     -25.4945    YZZ      34.2463
       ZZZ    -313.0953
    Hexadecapole Moments (Debye-Ang^3)
      XXXX    -170.5360   XXXY     -22.5069   XXYY     -88.9146
      XYYY     -35.9686   YYYY    -337.0094   XXXZ    -117.7325
      XXYZ      -7.9028   XYYZ     -25.4588   YYYZ      -4.4522
      XXZZ    -313.2831   XYZZ      37.0392   YYZZ    -212.0677
      XZZZ    -153.0008   YZZZ      44.7970   ZZZZ   -1691.6921
 -----------------------------------------------------------------
Archival summary:
1\1\nid00532\SP\ProcedureUnspecified\BasisUnspecified\246\meili\SunSep2617:10:072021SunSep2617:10:072021\0\\#,ProcedureUnspecified,BasisUnspecified,\\0,1\N\C,1,1.32425\H,2,1.0812,1,124.766\N,2,1.32798,1,108.866,3,-175.014,0\H,4,1.01228,2,123.457,1,164.175,0\C,4,1.37834,2,108.591,1,-0.408041,0\H,6,1.08335,4,127.376,2,177.918,0\C,6,1.35784,4,106.969,2,0.136091,0\C,8,1.5047,6,129.417,4,179.08,0\H,9,1.08759,8,109.282,6,-124.348,0\H,9,1.08793,8,107.263,6,-7.09595,0\H,9,1.1,8,114.18,6,112.887,0\\\@

 Total job time:  16118.21s(wall), 31943.78s(cpu) 
 Sun Sep 26 17:10:10 2021

        *************************************************************
        *                                                           *
        *  Thank you very much for using Q-Chem.  Have a nice day.  *
        *                                                           *
        *************************************************************


Done Job For Fragment 1
calling putenv with: QCSCRATCH=/global/cscratch1/sd/meili 
calling putenv with: QCLOCALSCR=/tmp 
calling putenv with: QCTHREADS=32 
Doing General SCFMI
 Exchange:     0.1670 Hartree-Fock + 1.0000 wB97X-V + LR-HF
 Correlation:  1.0000 wB97X-V
 Using Euler-Maclaurin-Lebedev (99,590) quadrature formula
 Nonlocal Correlation:  VV10 with C = 0.0100 and b = 6.00 and scale = 1.00000
 Grid used for NLC:  SG-1 standard quadrature
performing fock build before subrot guess so that all methods have access
Printing subrot_rss_gen Method Specification:
Occupied Subspace Method is 0
Virtual Subspace Method is 0
Energy of the unrelaxed supersystem initial determinant -537.128580803278
performing fock build before subrot guess so that all methods have access
Printing subrot_rss_gen Method Specification:
Occupied Subspace Method is 0
Virtual Subspace Method is 0
Energy of the unrelaxed supersystem initial determinant w/ solvent -537.159632760711
write pseudocanon occs and virts to disk
write pseudocanon orbital energies to disk
Tolerance of ortho_decomp_scf: 1.00e-06
GDM subspace size: 20
Beginning the Orthogonal Decomposition of the Initial Supersystem Wavefunction
    1    -537.1167186690      1.66e-02     ortho_decomp Preconditoned Steepest Descent
    2    -537.1177779140      4.00e-04     ortho_decomp BFGS Step
    3    -537.1177809758      2.92e-05     ortho_decomp BFGS Step
    4    -537.1177809813      1.17e-06     ortho_decomp BFGS Step
    5    -537.1177809814      3.34e-08     ortho_decomp 00000 Convergence criterion met
 Hartree-Fock
 Hartree-Fock
 Hartree-Fock
Doing General SCFMI
 Exchange:     0.1670 Hartree-Fock + 1.0000 wB97X-V + LR-HF
 Correlation:  1.0000 wB97X-V
 Using Euler-Maclaurin-Lebedev (99,590) quadrature formula
 Nonlocal Correlation:  VV10 with C = 0.0100 and b = 6.00 and scale = 1.00000
 Grid used for NLC:  SG-1 standard quadrature
performing fock build at end of subrot_r(subrot) constructor so that all methods have access
<S^2> of initial wavefunction before polarization iterations 0.0000000000
Beginning iterations for the determination of the polarized wavefunction
Energy prior to optimization (guess energy) = -537.159632760711
Begin Timing: Total SCF Calculation
begin iterations for algorithm: DIIS         
the SCF tolerance is set to 1.00e-08
    1    -537.1596327607      3.16e-05     00000 
    2    -537.1597156786      1.39e-05     00000 
    3    -537.1597258664      7.07e-06     00000 
    4    -537.1597291115      1.90e-06     00000 
    5    -537.1597294040      9.82e-07     00000 
    6    -537.1597294781      3.53e-07     00000 
    7    -537.1597294855      1.63e-07     00000 
    8    -537.1597294872      4.71e-08     00000 
    9    -537.1597294874      1.83e-08     00000 
   10    -537.1597294874      7.18e-09     00000 Convergence criterion met
write pseudocanon occs and virts to disk
write pseudocanon orbital energies to disk
Timing for Total SCF: 6398.00s (wall), 12730.61s (cpu)
<S^2> of polarized wavefunction after polarization iterations 0.0000000000
relaxing scfmi constraint to allow all rotations in the entire AO span
Doing General SCFMI
 Exchange:     0.1670 Hartree-Fock + 1.0000 wB97X-V + LR-HF
 Correlation:  1.0000 wB97X-V
 Using Euler-Maclaurin-Lebedev (99,590) quadrature formula
 Nonlocal Correlation:  VV10 with C = 0.0100 and b = 6.00 and scale = 1.00000
 Grid used for NLC:  SG-1 standard quadrature
performing fock build at end of subrot_r(subrot) constructor so that all methods have access
<S^2> of polarized wavefunction before ct-allowed iterations 0.0000000000
Beginning iterations for the determination of the CT-Allowed wavefunction
Energy prior to optimization (guess energy) = -537.159729487379
Begin Timing: Total SCF Calculation
begin iterations for algorithm: DIIS         
the SCF tolerance is set to 1.00e-08
    1    -537.1597294874      5.09e-05     00000 
    2    -537.1602029970      5.06e-06     00000 
    3    -537.1602179297      8.76e-07     00000 
    4    -537.1602185300      2.56e-07     00000 
    5    -537.1602185498      1.30e-07     00000 
    6    -537.1602185548      2.74e-08     00000 
    7    -537.1602185550      1.37e-08     00000 
    8    -537.1602185551      4.51e-09     00000 Convergence criterion met
write pseudocanon occs and virts to disk
write pseudocanon orbital energies to disk
Timing for Total SCF: 5036.00s (wall), 10020.07s (cpu)
<S^2> of ct_allowed wavefunction after ct-allowed iterations 0.0000000000

================================
        Results of EDA2         
================================
Basic EDA Quantities
--------------------
Fragment Energies (Ha):
1 -271.5805581058
2 -265.5687445419
--------------------
  E_prp (kJ/mol) = -0.0000
  E_sol (kJ/mol) = -4.2967
  E_frz (kJ/mol) = -2.9425
  E_pol (kJ/mol) = -0.2540
  E_vct (kJ/mol) = -1.2841
  E_int (kJ/mol) = -8.7773
--------------------


Initial Wavefunction Decomposition
--------------------
  --------------------
  Orthogonal Fragment Subspace Decomposition:
  --------------------
     E_elec   (ELEC)   (kJ/mol) = -9.3350
     E_pauli  (PAULI)  (kJ/mol) = 19.6435
     E_disp   (DISP)   (kJ/mol) = -13.2510
     --------------------
     Terms summing to E_pauli:
     --------------------
        E_kep_pauli       (kJ/mol) = 25.4128
        E_disp_free_pauli (kJ/mol) = -5.7692
  --------------------
  Classical Frozen Decomposition:
  --------------------
     E_cls_elec  (CLS ELEC)  (kJ/mol) = -0.8282
     E_cls_pauli (CLS PAULI) (kJ/mol) = -2.1143
    [E_mod_pauli (MOD PAULI) (kJ/mol) = 11.1367 (CLS PAULI - DISP from orthogonal decomposition) ]
  --------------------
--------------------

Simplified EDA Summary (kJ/mol)
--------------------
 PREPARATION     -0.0000
 SOLVATION       -4.2967
 FROZEN          10.3085      (does not include dispersion)
[PAULI           19.6435]     (if this is negligible, then frozen describes electrostatics)
 DISPERSION      -13.2510
 POLARIZATION    -0.2540
 CHARGE TRANSFER -1.2841
 TOTAL           -8.7773     (PRP + SOL + FRZ + DISP + POL + CT)
--------------------
 
 --------------------------------------------------------------
 
                    Orbital Energies (a.u.)
 --------------------------------------------------------------
 
 Alpha MOs
 -- Occupied --
-14.4577 -14.3852 -10.3164 -10.2833 -10.2825 -10.2774 -10.2688 -10.2651
-10.2650 -10.2640 -10.2624 -10.2575 -10.2532  -1.1525  -0.9937  -0.9935
 -0.9020  -0.8954  -0.8753  -0.8218  -0.8070  -0.7250  -0.7215  -0.7007
 -0.6823  -0.6632  -0.6244  -0.5687  -0.5640  -0.5604  -0.5515  -0.5358
 -0.5294  -0.5239  -0.5093  -0.5079  -0.4945  -0.4791  -0.4777  -0.4683
 -0.4355  -0.4343  -0.3788  -0.3735  -0.3477  -0.3343  -0.3208
 -- Virtual --
  0.0613   0.0668   0.0696   0.0785   0.0804   0.0857   0.0979   0.1014
  0.1074   0.1102   0.1124   0.1196   0.1305   0.1357   0.1378   0.1456
  0.1499   0.1539   0.1640   0.1753   0.1781   0.1796   0.1816   0.1890
  0.1957   0.2045   0.2093   0.2119   0.2160   0.2239   0.2298   0.2348
  0.2417   0.2459   0.2513   0.2515   0.2593   0.2652   0.2683   0.2716
  0.2744   0.2809   0.2839   0.2871   0.2924   0.2936   0.2979   0.2995
  0.3043   0.3096   0.3132   0.3163   0.3199   0.3208   0.3275   0.3284
  0.3366   0.3376   0.3391   0.3448   0.3480   0.3516   0.3542   0.3587
  0.3607   0.3649   0.3706   0.3749   0.3766   0.3808   0.3829   0.3888
  0.3901   0.3945   0.3963   0.3991   0.4023   0.4071   0.4124   0.4143
  0.4193   0.4238   0.4261   0.4280   0.4343   0.4372   0.4423   0.4429
  0.4455   0.4502   0.4561   0.4587   0.4625   0.4646   0.4680   0.4708
  0.4733   0.4798   0.4849   0.4876   0.4931   0.4975   0.4994   0.5082
  0.5108   0.5128   0.5171   0.5244   0.5272   0.5277   0.5364   0.5419
  0.5448   0.5488   0.5517   0.5534   0.5595   0.5645   0.5658   0.5724
  0.5790   0.5806   0.5870   0.5903   0.5956   0.6086   0.6131   0.6153
  0.6180   0.6265   0.6290   0.6300   0.6333   0.6435   0.6494   0.6508
  0.6556   0.6579   0.6657   0.6707   0.6727   0.6840   0.6859   0.6950
  0.6975   0.7007   0.7057   0.7110   0.7148   0.7172   0.7228   0.7352
  0.7378   0.7395   0.7448   0.7517   0.7547   0.7597   0.7666   0.7695
  0.7739   0.7797   0.7813   0.7862   0.7873   0.7960   0.7989   0.7998
  0.8055   0.8066   0.8095   0.8128   0.8159   0.8232   0.8253   0.8289
  0.8308   0.8381   0.8428   0.8459   0.8527   0.8547   0.8605   0.8650
  0.8711   0.8730   0.8774   0.8811   0.8919   0.8980   0.9015   0.9063
  0.9089   0.9171   0.9249   0.9269   0.9347   0.9408   0.9468   0.9524
  0.9593   0.9701   0.9751   0.9838   0.9937   1.0025   1.0104   1.0164
  1.0223   1.0297   1.0409   1.0509   1.0717   1.0768   1.0902   1.0950
  1.1039   1.1074   1.1205   1.1265   1.1335   1.1472   1.1544   1.1564
  1.1606   1.1746   1.1901   1.1948   1.2052   1.2112   1.2216   1.2402
  1.2492   1.2661   1.2853   1.3018   1.3039   1.3322   1.3559   1.3617
  1.3669   1.3734   1.3846   1.4055   1.4089   1.4148   1.4286   1.4511
  1.4647   1.4652   1.4812   1.4867   1.4970   1.5034   1.5174   1.5446
  1.5556   1.5691   1.5955   1.6149   1.6285   1.6337   1.6402   1.6522
  1.6666   1.6732   1.6825   1.6991   1.7142   1.7312   1.7790   1.7849
  1.7946   1.8005   1.8071   1.8101   1.8265   1.8536   1.8586   1.8652
  1.8826   1.8979   1.9051   1.9177   1.9273   1.9333   1.9519   1.9576
  1.9599   1.9653   1.9707   1.9790   1.9862   1.9905   1.9995   2.0102
  2.0201   2.0321   2.0390   2.0428   2.0611   2.0658   2.0716   2.0816
  2.0903   2.1027   2.1096   2.1192   2.1278   2.1435   2.1671   2.1757
  2.1855   2.2018   2.2086   2.2191   2.2428   2.2557   2.2667   2.2748
  2.2953   2.3032   2.3076   2.3215   2.3302   2.3521   2.3697   2.3917
  2.4082   2.4194   2.4233   2.4261   2.4501   2.4649   2.4886   2.5018
  2.5219   2.5303   2.5386   2.5594   2.5733   2.5831   2.6037   2.6183
  2.6249   2.6304   2.6375   2.6477   2.6630   2.6713   2.6875   2.6983
  2.7002   2.7065   2.7194   2.7380   2.7522   2.7666   2.7811   2.7905
  2.7929   2.8193   2.8252   2.8330   2.8360   2.8633   2.8727   2.8781
  2.8893   2.9214   2.9231   2.9312   2.9368   2.9515   2.9699   2.9720
  2.9799   2.9942   3.0153   3.0194   3.0256   3.0377   3.0533   3.0660
  3.0701   3.0750   3.0901   3.0976   3.1014   3.1144   3.1225   3.1407
  3.1435   3.1570   3.1773   3.1912   3.2049   3.2181   3.2220   3.2390
  3.2510   3.2564   3.2580   3.2804   3.2898   3.2915   3.3118   3.3187
  3.3315   3.3395   3.3560   3.3658   3.3693   3.3776   3.3948   3.4035
  3.4079   3.4098   3.4167   3.4288   3.4528   3.4608   3.4679   3.4700
  3.4765   3.4836   3.4910   3.5082   3.5093   3.5171   3.5203   3.5372
  3.5500   3.5580   3.5593   3.5621   3.5758   3.5863   3.5913   3.5956
  3.6142   3.6205   3.6287   3.6339   3.6446   3.6637   3.6782   3.6815
  3.6963   3.7107   3.7226   3.7326   3.7496   3.7758   3.7934   3.8158
  3.8286   3.8487   3.8558   3.8748   3.8879   3.9070   3.9265   3.9666
  3.9710   3.9845   3.9916   4.0043   4.0539   4.0621   4.0843   4.1069
  4.1115   4.1324   4.1755   4.2247   4.2546   4.2873   4.2892   4.3037
  4.3055   4.3253   4.3356   4.3450   4.3711   4.3806   4.3990   4.4188
  4.4280   4.4436   4.4569   4.4716   4.4986   4.5012   4.5282   4.5510
  4.5633   4.6198   4.6274   4.6366   4.7093   4.7194   4.7650   4.7881
  4.7926   4.8335   4.8864   4.8961   4.9246   4.9497   4.9635   4.9825
  4.9883   5.0136   5.0486   5.0571   5.0634   5.0656   5.0923   5.1841
  5.1927   5.2437   5.2751   5.2826   5.3194   5.3805   5.3917   5.3965
  5.4592   5.5012   5.5110   5.5355   5.5478   5.5880   5.6107   5.6783
  5.6875   5.7055   5.7403   5.8114   5.8210   5.8874   6.0452   6.2284
  6.2931  22.6285  22.6715  22.6960  22.8998  22.9466  22.9520  23.0417
 23.1117  23.1494  23.3972  23.4358  32.6950  32.8170
 --------------------------------------------------------------
 
          Ground-State Mulliken Net Atomic Charges

     Atom                 Charge (a.u.)
  ----------------------------------------
      1 C                    -1.174054
      2 C                    -0.443847
      3 C                    -0.443884
      4 C                    -0.505929
      5 C                     0.681456
      6 C                    -0.484542
      7 C                    -0.420479
      8 H                     0.353486
      9 H                     0.386157
     10 H                     0.386698
     11 H                     0.387211
     12 H                     0.306566
     13 H                     0.303812
     14 H                     0.427479
     15 H                     0.245937
     16 C                    -0.759809
     17 C                    -0.617715
     18 C                     0.560238
     19 C                    -0.321805
     20 N                     0.058296
     21 N                    -0.548924
     22 H                     0.335960
     23 H                     0.264290
     24 H                     0.197193
     25 H                     0.263471
     26 H                     0.340173
     27 H                     0.222564
  ----------------------------------------
  Sum of atomic charges =     0.000000

 -----------------------------------------------------------------
                    Cartesian Multipole Moments
 -----------------------------------------------------------------
    Charge (ESU x 10^10)
                -0.0000
    Dipole Moment (Debye)
         X      -2.4363      Y       3.9666      Z      -1.4078
       Tot       4.8632
    Quadrupole Moments (Debye-Ang)
        XX     -77.8871     XY       1.7763     YY     -60.8217
        XZ     -11.5785     YZ      13.8254     ZZ     -86.8327
    Octopole Moments (Debye-Ang^2)
       XXX     -10.1203    XXY       7.6753    XYY      -2.8840
       YYY      37.4758    XXZ      -3.1813    XYZ      10.1908
       YYZ      33.0690    XZZ       2.8887    YZZ      43.2986
       ZZZ     -12.7262
    Hexadecapole Moments (Debye-Ang^3)
      XXXX    -651.4140   XXXY     -64.1188   XXYY    -220.6833
      XYYY     -71.7944   YYYY    -642.4055   XXXZ     -68.0663
      XXYZ     -33.2715   XYYZ      -7.7829   YYYZ     -76.3935
      XXZZ    -666.2820   XYZZ      16.0168   YYZZ    -504.1123
      XZZZ    -164.1912   YZZZ     -31.2285   ZZZZ   -3274.8220
 -----------------------------------------------------------------
Archival summary:
1\1\nid00532\SP\ProcedureUnspecified\BasisUnspecified\21114\meili\SunSep2623:22:452021SunSep2623:22:452021\0\\#,ProcedureUnspecified,BasisUnspecified,\\0,1\N\H,1,1.01228\C,1,1.32798,2,123.457\H,3,1.0812,1,126.159,2,-10.7521,0\N,3,1.32425,1,108.866,2,164.175,0\C,1,1.37834,2,125.912,3,161.874,0\H,6,1.08335,1,127.376,2,13.8112,0\C,6,1.35784,1,106.969,2,-163.971,0\C,8,1.5047,6,129.417,1,179.08,0\H,9,1.08759,8,109.282,6,-124.348,0\H,9,1.08793,8,107.263,6,-7.09595,0\H,9,1.1,8,114.18,6,112.887,0\H,7,2.53664,6,132.955,1,73.0132,0\C,13,1.07784,7,97.1157,6,68.5606,0\C,14,1.38252,13,119.671,7,-110.372,0\H,15,1.08008,14,119.155,13,-0.581308,0\C,14,1.38426,13,119.96,7,70.943,0\H,17,1.08049,14,119.773,13,0.229491,0\C,15,1.39353,14,120.634,13,179.585,0\C,17,1.39532,14,119.834,13,-179.283,0\H,20,1.07958,17,119.664,14,177.865,0\C,20,1.39524,17,119.826,14,-1.46252,0\H,22,1.08068,20,119.688,17,-179.999,0\C,19,1.5026,15,120.395,14,-177.002,0\H,24,1.08932,19,109.249,15,-139.282,0\H,24,1.09038,19,108.701,15,-23.0177,0\H,24,1.1,19,113.244,15,98.4744,0\\\@

 Total job time:  65983.11s(wall), 44489.98s(cpu) 
 Sun Sep 26 23:22:49 2021

        *************************************************************
        *                                                           *
        *  Thank you very much for using Q-Chem.  Have a nice day.  *
        *                                                           *
        *************************************************************


