                  Welcome to Q-Chem
     A Quantum Leap Into The Future Of Chemistry


 Q-Chem 5.2 (devel), Q-Chem, Inc., Pleasanton, CA (2019)

 Yihan Shao,  Zhengting Gan,  E. Epifanovsky,  A. T. B. Gilbert,  M. Wormit,  
 J. Kussmann,  A. W. Lange,  A. Behn,  Jia Deng,  Xintian Feng,  D. Ghosh,  
 M. Goldey,  P. R. Horn,  L. D. Jacobson,  I. Kaliman,  T. Kus,  A. Landau,  
 Jie Liu,  E. I. Proynov,  R. M. Richard,  R. P. Steele,  E. J. Sundstrom,  
 H. L. Woodcock III,  P. M. Zimmerman,  D. Zuev,  B. Albrecht,  E. Alguire,  
 S. A. Baeppler,  D. Barton,  Z. Benda,  Y. A. Bernard,  E. J. Berquist,  
 K. B. Bravaya,  H. Burton,  D. Casanova,  Chun-Min Chang,  Yunqing Chen,  
 A. Chien,  K. D. Closser,  M. P. Coons,  S. Coriani,  S. Dasgupta,  
 A. L. Dempwolff,  M. Diedenhofen,  Hainam Do,  R. G. Edgar,  Po-Tung Fang,  
 S. Faraji,  S. Fatehi,  Qingguo Feng,  K. D. Fenk,  J. Fosso-Tande,  
 J. Gayvert,  Qinghui Ge,  A. Ghysels,  G. Gidofalvi,  J. Gomes,  
 J. Gonthier,  A. Gunina,  D. Hait,  M. W. D. Hanson-Heine,  
 P. H. P. Harbach,  A. W. Hauser,  M. F. Herbst,  J. E. Herr,  
 E. G. Hohenstein,  Z. C. Holden,  Kerwin Hui,  B. C. Huynh,  T.-C. Jagau,  
 Hyunjun Ji,  B. Kaduk,  K. Khistyaev,  Jaehoon Kim,  P. Klunzinger,  K. Koh,  
 D. Kosenkov,  L. Koulias,  T. Kowalczyk,  C. M. Krauter,  A. Kunitsa,  
 Ka Un Lao,  A. Laurent,  K. V. Lawler,  Joonho Lee,  D. Lefrancois,  
 S. Lehtola,  D. S. Levine,  Yi-Pei Li,  You-Sheng Lin,  Fenglai Liu,  
 E. Livshits,  A. Luenser,  P. Manohar,  E. Mansoor,  S. F. Manzer,  
 Shan-Ping Mao,  Yuezhi Mao,  N. Mardirossian,  A. V. Marenich,  
 T. Markovich,  L. A. Martinez-Martinez,  S. A. Maurer,  N. J. Mayhall,  
 S. C. McKenzie,  J.-M. Mewes,  P. Morgante,  A. F. Morrison,  
 J. W. Mullinax,  K. Nanda,  T. S. Nguyen-Beck,  R. Olivares-Amaya,  
 J. A. Parkhill,  Zheng Pei,  T. M. Perrine,  F. Plasser,  P. Pokhilko,  
 S. Prager,  A. Prociuk,  E. Ramos,  D. R. Rehn,  F. Rob,  M. Scheurer,  
 M. Schneider,  N. Sergueev,  S. M. Sharada,  S. Sharma,  D. W. Small,  
 T. Stauch,  T. Stein,  Yu-Chuan Su,  A. J. W. Thom,  A. Tkatchenko,  
 T. Tsuchimochi,  N. M. Tubman,  L. Vogt,  M. L. Vidal,  O. Vydrov,  
 M. A. Watson,  J. Wenzel,  M. de Wergifosse,  T. A. Wesolowski,  A. White,  
 J. Witte,  A. Yamada,  Jun Yang,  K. Yao,  S. Yeganeh,  S. R. Yost,  
 Zhi-Qiang You,  A. Zech,  Igor Ying Zhang,  Xing Zhang,  Yan Zhao,  
 Ying Zhu,  B. R. Brooks,  G. K. L. Chan,  C. J. Cramer,  M. S. Gordon,  
 W. J. Hehre,  A. Klamt,  M. W. Schmidt,  C. D. Sherrill,  D. G. Truhlar,  
 A. Aspuru-Guzik,  R. Baer,  A. T. Bell,  N. A. Besley,  Jeng-Da Chai,  
 A. E. DePrince, III,  R. A. DiStasio Jr.,  A. Dreuw,  B. D. Dunietz,  
 T. R. Furlani,  Chao-Ping Hsu,  Yousung Jung,  Jing Kong,  D. S. Lambrecht,  
 WanZhen Liang,  C. Ochsenfeld,  V. A. Rassolov,  L. V. Slipchenko,  
 J. E. Subotnik,  T. Van Voorhis,  J. M. Herbert,  A. I. Krylov,  
 P. M. W. Gill,  M. Head-Gordon

 Contributors to earlier versions of Q-Chem not listed above: 
 R. D. Adamson,  B. Austin,  J. Baker,  G. J. O. Beran,  K. Brandhorst,  
 S. T. Brown,  E. F. C. Byrd,  A. K. Chakraborty,  C.-L. Cheng,  
 Siu Hung Chien,  D. M. Chipman,  D. L. Crittenden,  H. Dachsel,  
 R. J. Doerksen,  A. D. Dutoi,  L. Fusti-Molnar,  W. A. Goddard III,  
 A. Golubeva-Zadorozhnaya,  S. R. Gwaltney,  G. Hawkins,  A. Heyden,  
 S. Hirata,  G. Kedziora,  F. J. Keil,  C. Kelley,  Jihan Kim,  R. A. King,  
 R. Z. Khaliullin,  P. P. Korambath,  W. Kurlancheek,  A. M. Lee,  M. S. Lee,  
 S. V. Levchenko,  Ching Yeh Lin,  D. Liotard,  R. C. Lochan,  I. Lotan,  
 P. E. Maslen,  N. Nair,  D. P. O'Neill,  D. Neuhauser,  E. Neuscamman,  
 C. M. Oana,  R. Olson,  B. Peters,  R. Peverati,  P. A. Pieniazek,  
 Y. M. Rhee,  J. Ritchie,  M. A. Rohrdanz,  E. Rosta,  N. J. Russ,  
 H. F. Schaefer III,  N. E. Schultz,  N. Shenvi,  A. C. Simmonett,  A. Sodt,  
 D. Stuck,  K. S. Thanthiriwatte,  V. Vanovschi,  Tao Wang,  A. Warshel,  
 C. F. Williams,  Q. Wu,  X. Xu,  W. Zhang

 Please cite Q-Chem as follows:
 Y. Shao et al., Mol. Phys. 113, 184-215 (2015)
 DOI: 10.1080/00268976.2014.952696

 Q-Chem 5.2.1 for Intel X86 EM64T Linux

 Parts of Q-Chem use Armadillo 8.300.2 (Tropical Shenanigans).
 http://arma.sourceforge.net/

 Q-Chem begins on Wed Sep 29 06:38:46 2021  

compute-0-8.local
Host: 0

     Scratch files written to /home/meili/scratch/qchem62347//
NAlpha2: 128
NElect   128
Mult     1
Symmetry turned off for PCM/SM12/SMD calculation

 Q-Chem warning in module libgen/rem_setup.C, line 2813:

 Neither GIA nor STOLL is specified by user. Use STOLL as the default


Checking the input file for inconsistencies... 	...done.

--------------------------------------------------------------
User input:
--------------------------------------------------------------
$comment
SSI-047TRP-083TYR-1.pdb
$end

$molecule
0 1
--
0 1
C   -0.245181464028    1.905552236001   -4.476196890058
C    0.607818535972    1.864552236001   -2.019196890058
C    0.048818535972    2.520552236001   -3.167196890058
C    0.709818535972    2.841552236001   -0.994196890058
C   -0.149181464028    3.817552236001   -2.815196890058
C    1.563818535972    0.270552236001   -0.482196890058
C    1.641818535972    1.261552236001    0.507803109942
C    1.045818535972    0.557552236001   -1.751196890058
C    1.216818535972    2.553552236001    0.259803109942
N    0.245818535972    4.019552236001   -1.515196890058
H    1.889818535972   -0.730447763999   -0.254196890058
H    2.046818535972    1.014552236001    1.478803109942
H    1.000818535972   -0.202447763999   -2.516196890058
H    1.275818535972    3.317552236001    1.018803109942
H   -1.034181464028    2.471552236001   -4.975196890058
H   -0.628181464028    0.902552236001   -4.289196890058
H   -0.558181464028    4.583552236001   -3.468196890058
H    0.225818535972    4.915552236001   -1.040196890058
H    0.633627635972    1.837008036001   -5.134216890058
--
0 1
C    0.888818535972   -2.272447763999    4.416803109942
C   -0.934181464028   -1.585447763999    1.133803109942
C   -1.582181464028   -2.801447763999    0.916803109942
C   -0.134181464028   -1.419447763999    2.270803109942
C    0.044818535972   -2.464447763999    3.179803109942
C   -1.414181464028   -3.850447763999    1.820803109942
C   -0.615181464028   -3.672447763999    2.949803109942
O   -2.374181464028   -2.979447763999   -0.179196890058
H   -1.061181464028   -0.776447763999    0.428803109942
H    0.359818535972   -0.472447763999    2.434803109942
H   -1.885181464028   -4.803447763999    1.639803109942
H   -2.805181464028   -3.840447763999   -0.181196890058
H    0.382818535972   -2.774447763999    5.237803109942
H    0.943818535972   -1.216447763999    4.663803109942
H   -0.514181464028   -4.487447763999    3.652803109942
H    1.913441835972   -2.667474763999    4.352763109942
$end

$rem
JOBTYPE			EDA
EDA2			1
method			wB97X-V
BASIS			def2-TZVPD
XC_GRID			000099000590
NL_GRID			1
UNRESTRICTED		FALSE
MAX_SCF_CYCLES		200
SYMMETRY		FALSE
SYM_IGNORE		TRUE
MEM_STATIC		2000
BASIS_LIN_DEP_THRESH 	6
THRESH 			14
SCF_CONVERGENCE 	8
SCF_PRINT_FRGM 		TRUE
SOLVENT_METHOD          PCM
$end

$PCM
THEORY                  CPCM
METHOD                  SWIG
SOLVER                  INVERSION
RADII                   UFF
HPOINTS                 302
HEAVYPOINTS             302
PRINTLEVEL              0
$END

$SOLVENT
DIELECTRIC              78.390000 ! water
$END
--------------------------------------------------------------
 ----------------------------------------------------------------
             Standard Nuclear Orientation (Angstroms)
    I     Atom           X                Y                Z
 ----------------------------------------------------------------
    1      C      -0.2451814640     1.9055522360    -4.4761968901
    2      C       0.6078185360     1.8645522360    -2.0191968901
    3      C       0.0488185360     2.5205522360    -3.1671968901
    4      C       0.7098185360     2.8415522360    -0.9941968901
    5      C      -0.1491814640     3.8175522360    -2.8151968901
    6      C       1.5638185360     0.2705522360    -0.4821968901
    7      C       1.6418185360     1.2615522360     0.5078031099
    8      C       1.0458185360     0.5575522360    -1.7511968901
    9      C       1.2168185360     2.5535522360     0.2598031099
   10      N       0.2458185360     4.0195522360    -1.5151968901
   11      H       1.8898185360    -0.7304477640    -0.2541968901
   12      H       2.0468185360     1.0145522360     1.4788031099
   13      H       1.0008185360    -0.2024477640    -2.5161968901
   14      H       1.2758185360     3.3175522360     1.0188031099
   15      H      -1.0341814640     2.4715522360    -4.9751968901
   16      H      -0.6281814640     0.9025522360    -4.2891968901
   17      H      -0.5581814640     4.5835522360    -3.4681968901
   18      H       0.2258185360     4.9155522360    -1.0401968901
   19      H       0.6336276360     1.8370080360    -5.1342168901
   20      C       0.8888185360    -2.2724477640     4.4168031099
   21      C      -0.9341814640    -1.5854477640     1.1338031099
   22      C      -1.5821814640    -2.8014477640     0.9168031099
   23      C      -0.1341814640    -1.4194477640     2.2708031099
   24      C       0.0448185360    -2.4644477640     3.1798031099
   25      C      -1.4141814640    -3.8504477640     1.8208031099
   26      C      -0.6151814640    -3.6724477640     2.9498031099
   27      O      -2.3741814640    -2.9794477640    -0.1791968901
   28      H      -1.0611814640    -0.7764477640     0.4288031099
   29      H       0.3598185360    -0.4724477640     2.4348031099
   30      H      -1.8851814640    -4.8034477640     1.6398031099
   31      H      -2.8051814640    -3.8404477640    -0.1811968901
   32      H       0.3828185360    -2.7744477640     5.2378031099
   33      H       0.9438185360    -1.2164477640     4.6638031099
   34      H      -0.5141814640    -4.4874477640     3.6528031099
   35      H       1.9134418360    -2.6674747640     4.3527631099
 ----------------------------------------------------------------
 Nuclear Repulsion Energy =        1167.01030749 hartrees
 There are       64 alpha and       64 beta electrons
 Requested basis set is def2-TZVPD
 There are 320 shells and 822 basis functions

 Total QAlloc Memory Limit   2000 MB
 Mega-Array Size      1956 MB
 MEM_STATIC part      2000 MB
 Discretize the solute cavity surface with Lebedev spheres
	Using 302 Lebedev grid points for each H atom
	Using 302 Lebedev grid points for other atoms
	Atomic van der Waals radii will be scaled by 1.20
 Remove points where switching function is < 1.0e-08
 Keep 3813 surface tesserae and discard 6757 interior tesserae
 Molecular Surface Area = 373.002 Angst**2
 A cutoff of  1.0D-14 yielded  40809 shell pairs
 There are    268835 function pairs (    340672 Cartesian)
 Smallest overlap matrix eigenvalue = 4.25E-07
 Linear dependence detected in AO basis
 Tighter screening thresholds may be required for diffuse basis sets
 Use S2THRESH > 14 and THRESH = 14 in case of SCF convergence issues
 Number of orthogonalized atomic orbitals = 816
 Maximum deviation from orthogonality = 1.732E-10

 Scale SEOQF with 1.000000e-01/1.000000e-01/1.000000e-02

 Standard Electronic Orientation quadrupole field applied
 Nucleus-field energy     =     0.0000000624 hartrees

 -----------------------------------------------------------------------
  General SCF calculation program by
  Eric Jon Sundstrom, Paul Horn, Yuezhi Mao, Dmitri Zuev, Alec White,
  David Stuck, Shaama M.S., Shane Yost, Joonho Lee, David Small,
  Daniel Levine, Susi Lehtola, Hugh Burton, Evgeny Epifanovsky,
  Bang C. Huynh
 -----------------------------------------------------------------------
================================================================
                 ALMO-EDA with the EDA2 driver                  
================================================================
 The second-generation ALMO-EDA (for DFT):                      
 P. R. Horn, Y. Mao and M. Head-Gordon, PCCP, 18, 23067 (2016)  
 Decomposition of the frozen energy:                            
 P. R. Horn, Y. Mao and M. Head-Gordon, JCP, 144, 114107 (2016) 
 FERF model for polarization:                                   
 P. R. Horn and M. Head-Gordon, JCP, 143, 114111 (2015)         
Using eda2 option set 1
Option set summary: Frozen orbital wavefunction, initial wavefunction decomposition, and nDQ polarization.
--------------------------------
Printing EDA Options
--------------------------------
eda_child_super_basis      0
fragmo_guess_mode          0
child_mp                   1
child_mp_orders            232
cls_elec                   1
cls_disp                   0
scfmi_mode                 1
scfmi_occs                 0
scfmi_virts                0
frz_relax                  0
frz_relax_method           0
dc_pen_start               0
dc_pen_conv                0
dc_pen_increment           0
dc_pen_steps               0
dc_pen_thresh_factor       0
dc_pen_pre_newton_thresh   0
frz_ortho_decomp           1
frz_ortho_decomp_conv      6
frgm_method                2
scfmi_freeze_ss            0
separate_rehyb             0
plot_diff_den              0
eda_nocv                   0
eda_vct_relax              1
disp_free_x                0
disp_free_c                0
eda_bsse                   0
eda_pct_a                  0
eda_covp                   0
--------------------------------
Attempting to make child job directory: /home/meili/scratch/qchem62347//Frg1/
Attempting to make child job directory: /home/meili/scratch/qchem62347//Frg2/
Creating input file /home/meili/scratch/qchem62347/Frg1.input
using default PutDataFrgm: nothing
calling putenv with: QCSCRATCH=/home/meili/scratch/qchem62347/ 
Spawning Job For Fragment 0
                  Welcome to Q-Chem
     A Quantum Leap Into The Future Of Chemistry


 Q-Chem 5.2 (devel), Q-Chem, Inc., Pleasanton, CA (2019)

 Yihan Shao,  Zhengting Gan,  E. Epifanovsky,  A. T. B. Gilbert,  M. Wormit,  
 J. Kussmann,  A. W. Lange,  A. Behn,  Jia Deng,  Xintian Feng,  D. Ghosh,  
 M. Goldey,  P. R. Horn,  L. D. Jacobson,  I. Kaliman,  T. Kus,  A. Landau,  
 Jie Liu,  E. I. Proynov,  R. M. Richard,  R. P. Steele,  E. J. Sundstrom,  
 H. L. Woodcock III,  P. M. Zimmerman,  D. Zuev,  B. Albrecht,  E. Alguire,  
 S. A. Baeppler,  D. Barton,  Z. Benda,  Y. A. Bernard,  E. J. Berquist,  
 K. B. Bravaya,  H. Burton,  D. Casanova,  Chun-Min Chang,  Yunqing Chen,  
 A. Chien,  K. D. Closser,  M. P. Coons,  S. Coriani,  S. Dasgupta,  
 A. L. Dempwolff,  M. Diedenhofen,  Hainam Do,  R. G. Edgar,  Po-Tung Fang,  
 S. Faraji,  S. Fatehi,  Qingguo Feng,  K. D. Fenk,  J. Fosso-Tande,  
 J. Gayvert,  Qinghui Ge,  A. Ghysels,  G. Gidofalvi,  J. Gomes,  
 J. Gonthier,  A. Gunina,  D. Hait,  M. W. D. Hanson-Heine,  
 P. H. P. Harbach,  A. W. Hauser,  M. F. Herbst,  J. E. Herr,  
 E. G. Hohenstein,  Z. C. Holden,  Kerwin Hui,  B. C. Huynh,  T.-C. Jagau,  
 Hyunjun Ji,  B. Kaduk,  K. Khistyaev,  Jaehoon Kim,  P. Klunzinger,  K. Koh,  
 D. Kosenkov,  L. Koulias,  T. Kowalczyk,  C. M. Krauter,  A. Kunitsa,  
 Ka Un Lao,  A. Laurent,  K. V. Lawler,  Joonho Lee,  D. Lefrancois,  
 S. Lehtola,  D. S. Levine,  Yi-Pei Li,  You-Sheng Lin,  Fenglai Liu,  
 E. Livshits,  A. Luenser,  P. Manohar,  E. Mansoor,  S. F. Manzer,  
 Shan-Ping Mao,  Yuezhi Mao,  N. Mardirossian,  A. V. Marenich,  
 T. Markovich,  L. A. Martinez-Martinez,  S. A. Maurer,  N. J. Mayhall,  
 S. C. McKenzie,  J.-M. Mewes,  P. Morgante,  A. F. Morrison,  
 J. W. Mullinax,  K. Nanda,  T. S. Nguyen-Beck,  R. Olivares-Amaya,  
 J. A. Parkhill,  Zheng Pei,  T. M. Perrine,  F. Plasser,  P. Pokhilko,  
 S. Prager,  A. Prociuk,  E. Ramos,  D. R. Rehn,  F. Rob,  M. Scheurer,  
 M. Schneider,  N. Sergueev,  S. M. Sharada,  S. Sharma,  D. W. Small,  
 T. Stauch,  T. Stein,  Yu-Chuan Su,  A. J. W. Thom,  A. Tkatchenko,  
 T. Tsuchimochi,  N. M. Tubman,  L. Vogt,  M. L. Vidal,  O. Vydrov,  
 M. A. Watson,  J. Wenzel,  M. de Wergifosse,  T. A. Wesolowski,  A. White,  
 J. Witte,  A. Yamada,  Jun Yang,  K. Yao,  S. Yeganeh,  S. R. Yost,  
 Zhi-Qiang You,  A. Zech,  Igor Ying Zhang,  Xing Zhang,  Yan Zhao,  
 Ying Zhu,  B. R. Brooks,  G. K. L. Chan,  C. J. Cramer,  M. S. Gordon,  
 W. J. Hehre,  A. Klamt,  M. W. Schmidt,  C. D. Sherrill,  D. G. Truhlar,  
 A. Aspuru-Guzik,  R. Baer,  A. T. Bell,  N. A. Besley,  Jeng-Da Chai,  
 A. E. DePrince, III,  R. A. DiStasio Jr.,  A. Dreuw,  B. D. Dunietz,  
 T. R. Furlani,  Chao-Ping Hsu,  Yousung Jung,  Jing Kong,  D. S. Lambrecht,  
 WanZhen Liang,  C. Ochsenfeld,  V. A. Rassolov,  L. V. Slipchenko,  
 J. E. Subotnik,  T. Van Voorhis,  J. M. Herbert,  A. I. Krylov,  
 P. M. W. Gill,  M. Head-Gordon

 Contributors to earlier versions of Q-Chem not listed above: 
 R. D. Adamson,  B. Austin,  J. Baker,  G. J. O. Beran,  K. Brandhorst,  
 S. T. Brown,  E. F. C. Byrd,  A. K. Chakraborty,  C.-L. Cheng,  
 Siu Hung Chien,  D. M. Chipman,  D. L. Crittenden,  H. Dachsel,  
 R. J. Doerksen,  A. D. Dutoi,  L. Fusti-Molnar,  W. A. Goddard III,  
 A. Golubeva-Zadorozhnaya,  S. R. Gwaltney,  G. Hawkins,  A. Heyden,  
 S. Hirata,  G. Kedziora,  F. J. Keil,  C. Kelley,  Jihan Kim,  R. A. King,  
 R. Z. Khaliullin,  P. P. Korambath,  W. Kurlancheek,  A. M. Lee,  M. S. Lee,  
 S. V. Levchenko,  Ching Yeh Lin,  D. Liotard,  R. C. Lochan,  I. Lotan,  
 P. E. Maslen,  N. Nair,  D. P. O'Neill,  D. Neuhauser,  E. Neuscamman,  
 C. M. Oana,  R. Olson,  B. Peters,  R. Peverati,  P. A. Pieniazek,  
 Y. M. Rhee,  J. Ritchie,  M. A. Rohrdanz,  E. Rosta,  N. J. Russ,  
 H. F. Schaefer III,  N. E. Schultz,  N. Shenvi,  A. C. Simmonett,  A. Sodt,  
 D. Stuck,  K. S. Thanthiriwatte,  V. Vanovschi,  Tao Wang,  A. Warshel,  
 C. F. Williams,  Q. Wu,  X. Xu,  W. Zhang

 Please cite Q-Chem as follows:
 Y. Shao et al., Mol. Phys. 113, 184-215 (2015)
 DOI: 10.1080/00268976.2014.952696

 Q-Chem 5.2.1 for Intel X86 EM64T Linux

 Parts of Q-Chem use Armadillo 8.300.2 (Tropical Shenanigans).
 http://arma.sourceforge.net/

 Q-Chem begins on Wed Sep 29 06:38:56 2021  

compute-0-8.local
Host: 0

     Scratch files written to /home/meili/scratch/qchem62347//Frg1//
NAlpha2: 70
NElect   70
Mult     1
Symmetry turned off for PCM/SM12/SMD calculation

Checking the input file for inconsistencies... 	...done.

--------------------------------------------------------------
User input:
--------------------------------------------------------------
$molecule
0 1
 6	-0.2451814640	1.9055522360	-4.4761968901
 6	0.6078185360	1.8645522360	-2.0191968901
 6	0.0488185360	2.5205522360	-3.1671968901
 6	0.7098185360	2.8415522360	-0.9941968901
 6	-0.1491814640	3.8175522360	-2.8151968901
 6	1.5638185360	0.2705522360	-0.4821968901
 6	1.6418185360	1.2615522360	0.5078031099
 6	1.0458185360	0.5575522360	-1.7511968901
 6	1.2168185360	2.5535522360	0.2598031099
 7	0.2458185360	4.0195522360	-1.5151968901
 1	1.8898185360	-0.7304477640	-0.2541968901
 1	2.0468185360	1.0145522360	1.4788031099
 1	1.0008185360	-0.2024477640	-2.5161968901
 1	1.2758185360	3.3175522360	1.0188031099
 1	-1.0341814640	2.4715522360	-4.9751968901
 1	-0.6281814640	0.9025522360	-4.2891968901
 1	-0.5581814640	4.5835522360	-3.4681968901
 1	0.2258185360	4.9155522360	-1.0401968901
 1	0.6336276360	1.8370080360	-5.1342168901
$end
$rem
EDA2		1
METHOD		WB97X-V
BASIS		DEF2-TZVPD
XC_GRID		000099000590
NL_GRID		1
UNRESTRICTED		FALSE
MAX_SCF_CYCLES		200
SYMMETRY		FALSE
SYM_IGNORE		TRUE
BASIS_LIN_DEP_THRESH		6
THRESH		14
SCF_CONVERGENCE		8
SCF_PRINT_FRGM		TRUE
SOLVENT_METHOD		PCM
!required keywords
JOBTYPE		SP
SYM_IGNORE		TRUE
SUBSYSTEM		TRUE
GEN_SCFMAN		TRUE
CHILD_INSTRUCTION		2
SYM_IGNORE		TRUE
SCFMI		0
RI_K 0		
PARI_K 0		
MIN_PARI_K 0		
IARI_K 0		
OCC_RI_K 0		
PURECART		1111
MEM_STATIC		2000
MEM_TOTAL		2000
GUI		0
CHILD_MP		1
CHILD_MP_ORDERS		232
FRZ_RELAX		0
FRZ_RELAX_METHOD		0
EDA_CLS_ELEC		1
EDA_CLS_DISP		0
FRZ_ORTHO_DECOMP		1
EDA2		FALSE
FRGM_METHOD		FALSE
CIS_N_ROOTS  0
LOCAL_CIS    0
CIS_RLX_DNS  1
$end
$pcm
THEORY                  CPCM
METHOD                  SWIG
SOLVER                  INVERSION
RADII                   UFF
HPOINTS                 302
HEAVYPOINTS             302
PRINTLEVEL              0
$end
$solvent
DIELECTRIC              78.390000 ! water
$end
--------------------------------------------------------------
 ----------------------------------------------------------------
             Standard Nuclear Orientation (Angstroms)
    I     Atom           X                Y                Z
 ----------------------------------------------------------------
    1      C      -0.2451814640     1.9055522360    -4.4761968901
    2      C       0.6078185360     1.8645522360    -2.0191968901
    3      C       0.0488185360     2.5205522360    -3.1671968901
    4      C       0.7098185360     2.8415522360    -0.9941968901
    5      C      -0.1491814640     3.8175522360    -2.8151968901
    6      C       1.5638185360     0.2705522360    -0.4821968901
    7      C       1.6418185360     1.2615522360     0.5078031099
    8      C       1.0458185360     0.5575522360    -1.7511968901
    9      C       1.2168185360     2.5535522360     0.2598031099
   10      N       0.2458185360     4.0195522360    -1.5151968901
   11      H       1.8898185360    -0.7304477640    -0.2541968901
   12      H       2.0468185360     1.0145522360     1.4788031099
   13      H       1.0008185360    -0.2024477640    -2.5161968901
   14      H       1.2758185360     3.3175522360     1.0188031099
   15      H      -1.0341814640     2.4715522360    -4.9751968901
   16      H      -0.6281814640     0.9025522360    -4.2891968901
   17      H      -0.5581814640     4.5835522360    -3.4681968901
   18      H       0.2258185360     4.9155522360    -1.0401968901
   19      H       0.6336276360     1.8370080360    -5.1342168901
 ----------------------------------------------------------------
 Nuclear Repulsion Energy =         485.66934070 hartrees
 There are       35 alpha and       35 beta electrons
 Requested basis set is def2-TZVPD
 There are 175 shells and 451 basis functions

 Total QAlloc Memory Limit   2000 MB
 Mega-Array Size      1956 MB
 MEM_STATIC part      2000 MB
 Discretize the solute cavity surface with Lebedev spheres
	Using 302 Lebedev grid points for each H atom
	Using 302 Lebedev grid points for other atoms
	Atomic van der Waals radii will be scaled by 1.20
 Remove points where switching function is < 1.0e-08
 Keep 2193 surface tesserae and discard 3545 interior tesserae
 Molecular Surface Area = 214.700 Angst**2
 A cutoff of  1.0D-14 yielded  14472 shell pairs
 There are     98260 function pairs (    126436 Cartesian)
 Smallest overlap matrix eigenvalue = 5.08E-07
 Linear dependence detected in AO basis
 Tighter screening thresholds may be required for diffuse basis sets
 Use S2THRESH > 14 and THRESH = 14 in case of SCF convergence issues
 Number of orthogonalized atomic orbitals = 448
 Maximum deviation from orthogonality = 2.249E-10

 Scale SEOQF with 1.000000e-01/1.000000e-01/1.000000e-02

 Standard Electronic Orientation quadrupole field applied
 Nucleus-field energy     =     0.0000000302 hartrees
 Guess from superposition of atomic densities
 Warning:  Energy on first SCF cycle will be non-variational
 SAD guess density has 70.000000 electrons

 -----------------------------------------------------------------------
  General SCF calculation program by
  Eric Jon Sundstrom, Paul Horn, Yuezhi Mao, Dmitri Zuev, Alec White,
  David Stuck, Shaama M.S., Shane Yost, Joonho Lee, David Small,
  Daniel Levine, Susi Lehtola, Hugh Burton, Evgeny Epifanovsky,
  Bang C. Huynh
 -----------------------------------------------------------------------
 Exchange:     0.1670 Hartree-Fock + 1.0000 wB97X-V + LR-HF
 Correlation:  1.0000 wB97X-V
 Using Euler-Maclaurin-Lebedev (99,590) quadrature formula
 Nonlocal Correlation:  VV10 with C = 0.0100 and b = 6.00 and scale = 1.00000
 Grid used for NLC:  SG-1 standard quadrature
Energy prior to optimization (guess energy) = -403.080475943587
Begin Timing: Total SCF Calculation
begin iterations for algorithm: DIIS         
the SCF tolerance is set to 1.00e-08
    1    -403.0804759436      1.68e-03     00000 
    2    -403.1292452268      1.21e-03     00000 
    3    -403.1672361557      2.56e-04     00000 
    4    -403.1687469596      1.21e-04     00000 
    5    -403.1691159540      2.46e-05     00000 
    6    -403.1691355497      9.60e-06     00000 
    7    -403.1691382252      2.89e-06     00000 
    8    -403.1691386818      6.74e-07     00000 
    9    -403.1691387382      2.99e-07     00000 
   10    -403.1691387503      1.56e-07     00000 
   11    -403.1691387532      6.26e-08     00000 
   12    -403.1691387537      2.63e-08     00000 
   13    -403.1691387538      9.49e-09     00000 Convergence criterion met
Timing for Total SCF: 1775.00s (wall), 10634.65s (cpu)

************** Final PCM Free Energy Summary **************
 G_electrostatic  =      -0.00636886 hartree =      -3.99651851 kcal/mol
 G_cavitation     =       0.00000000 hartree =       0.00000000 kcal/mol
 G_dispersion     =       0.00000000 hartree =       0.00000000 kcal/mol
 G_repulsion      =       0.00000000 hartree =       0.00000000 kcal/mol
 --------------------------------------------------
 Non-electrostatic Free Energy =       0.00000000 hartree =       0.00000000 kcal/mol
 Total                         =      -0.00636886 hartree =      -3.99651851 kcal/mol
 --------------------------------------------------
 SCF Energy (H0 + V/2)                       =    -403.16913875 
 Solute Internal Energy (H0)                 =    -403.16276990 
 Total Free Energy (H0 + V/2 + non-elec)     =    -403.16913875 hartree
                                             = -252992.45298292 kcal/mol
***********************************************************

E_pcm = -0.0063688577
Multipole orders to be included
        2
        3
computing dipole RHS
computing quadrupole RHS
total number of RHS in solve_reponses: 8
RHS batch sizes
        8
Beginning Block Conjugate Gradient Iterations. Batch Number: 0
computing hessian-vector products by finite difference
              1      6.30e-01     00000 Conjugate Gradient Iteration
computing hessian-vector products by finite difference
              2      2.13e-01     00000 Conjugate Gradient Iteration
computing hessian-vector products by finite difference
              3      6.13e-02     00000 Conjugate Gradient Iteration
computing hessian-vector products by finite difference
              4      2.50e-02     00000 Conjugate Gradient Iteration
computing hessian-vector products by finite difference
              5      8.68e-03     00000 Conjugate Gradient Iteration
computing hessian-vector products by finite difference
              6      2.22e-03     00000 Conjugate Gradient Iteration
computing hessian-vector products by finite difference
              7      5.11e-04     00000 Conjugate Gradient Iteration
computing hessian-vector products by finite difference
              8      1.01e-04     00000 Conjugate Gradient Iteration
computing hessian-vector products by finite difference
              9      1.82e-05     00000 Conjugate Gradient Iteration
computing hessian-vector products by finite difference
             10      2.85e-06     00000 Conjugate Gradient Iteration
computing hessian-vector products by finite difference
             11      4.80e-07     00000 Conjugate Gradient Iteration
computing hessian-vector products by finite difference
             12      9.53e-08     00000 Conjugate Gradient Iteration
computing hessian-vector products by finite difference
             13      1.64e-08     00000 Conjugate Gradient Iteration
computing hessian-vector products by finite difference
             14      4.83e-09     00000 CG Converged
batch 0 complete
Done Calculating Responses
TESTING ORTHOGONALIZATION OF MULTIPOLE BASIS
Multipole virts passed orthogonality test
Virts Per Order
          105
          175

 --------------------------------------------------------------

                    Orbital Energies (a.u.)
 --------------------------------------------------------------

 Alpha MOs
 -- Occupied --
-14.4497 -10.3017 -10.2956 -10.2730 -10.2708 -10.2687 -10.2673 -10.2657
-10.2603 -10.2596  -1.1173  -0.9793  -0.9348  -0.8700  -0.8626  -0.8188
 -0.7473  -0.7155  -0.6775  -0.6529  -0.6013  -0.5844  -0.5568  -0.5520
 -0.5401  -0.5181  -0.5143  -0.4964  -0.4814  -0.4540  -0.4520  -0.4337
 -0.3785  -0.3165  -0.2918
 -- Virtual --
  0.0530   0.0599   0.0748   0.0763   0.0899   0.0971   0.0988   0.1055
  0.1266   0.1312   0.1344   0.1468   0.1555   0.1631   0.1719   0.1760
  0.1852   0.1926   0.2004   0.2064   0.2101   0.2186   0.2243   0.2455
  0.2465   0.2536   0.2590   0.2599   0.2652   0.2716   0.2740   0.2758
  0.2803   0.2829   0.2876   0.2899   0.3018   0.3068   0.3128   0.3192
  0.3285   0.3291   0.3336   0.3356   0.3408   0.3425   0.3456   0.3508
  0.3538   0.3599   0.3697   0.3761   0.3773   0.3870   0.3898   0.3931
  0.3991   0.4058   0.4097   0.4136   0.4170   0.4204   0.4252   0.4365
  0.4377   0.4480   0.4500   0.4524   0.4570   0.4610   0.4618   0.4718
  0.4813   0.4909   0.4953   0.4966   0.4997   0.5157   0.5200   0.5219
  0.5272   0.5345   0.5383   0.5448   0.5478   0.5510   0.5587   0.5634
  0.5663   0.5777   0.5834   0.5887   0.6037   0.6102   0.6109   0.6253
  0.6315   0.6388   0.6435   0.6472   0.6525   0.6663   0.6758   0.6838
  0.6863   0.6941   0.6999   0.7017   0.7091   0.7146   0.7218   0.7310
  0.7388   0.7452   0.7463   0.7563   0.7632   0.7674   0.7701   0.7752
  0.7794   0.7824   0.7874   0.7913   0.7971   0.7996   0.8095   0.8115
  0.8198   0.8289   0.8303   0.8343   0.8380   0.8508   0.8516   0.8622
  0.8644   0.8649   0.8774   0.8907   0.9023   0.9072   0.9136   0.9390
  0.9451   0.9482   0.9586   0.9852   0.9900   1.0078   1.0102   1.0162
  1.0366   1.0446   1.0532   1.0610   1.0743   1.0819   1.0907   1.0968
  1.1141   1.1317   1.1391   1.1499   1.1716   1.1814   1.1965   1.2153
  1.2367   1.2530   1.2615   1.2644   1.2956   1.3111   1.3401   1.3453
  1.3801   1.3952   1.3967   1.4117   1.4269   1.4440   1.4537   1.4701
  1.5131   1.5456   1.5583   1.5677   1.5802   1.5986   1.6128   1.6197
  1.6425   1.6594   1.6919   1.6996   1.7232   1.7264   1.7466   1.7655
  1.7887   1.8250   1.8441   1.8508   1.8626   1.8707   1.8788   1.8908
  1.9018   1.9156   1.9323   1.9383   1.9534   1.9662   1.9771   1.9855
  1.9974   1.9987   1.9998   2.0230   2.0320   2.0587   2.0611   2.0721
  2.0873   2.1206   2.1322   2.1727   2.1815   2.1953   2.2100   2.2258
  2.2556   2.2939   2.3008   2.3154   2.3290   2.3527   2.3662   2.3864
  2.4017   2.4279   2.4445   2.4568   2.4901   2.5054   2.5119   2.5424
  2.5628   2.5748   2.5989   2.6071   2.6214   2.6493   2.6582   2.6810
  2.6894   2.7237   2.7538   2.7572   2.7684   2.7840   2.7864   2.8027
  2.8167   2.8337   2.8477   2.8631   2.8769   2.8915   2.8996   2.9151
  2.9237   2.9404   2.9624   2.9687   2.9915   3.0034   3.0302   3.0351
  3.0430   3.0684   3.0831   3.0999   3.1215   3.1294   3.1482   3.1606
  3.1680   3.1911   3.2100   3.2204   3.2340   3.2479   3.2616   3.2695
  3.2876   3.2991   3.3049   3.3206   3.3508   3.3610   3.3798   3.3913
  3.4003   3.4127   3.4213   3.4399   3.4459   3.4528   3.4725   3.4804
  3.4913   3.5089   3.5156   3.5176   3.5229   3.5414   3.5534   3.5754
  3.5855   3.5951   3.6112   3.6312   3.6403   3.6589   3.6653   3.6695
  3.7057   3.7137   3.7165   3.7285   3.7552   3.7652   3.7797   3.7936
  3.8152   3.8592   3.8760   3.9157   3.9359   3.9520   3.9777   4.0306
  4.0467   4.0649   4.1169   4.1467   4.1829   4.1985   4.2181   4.2292
  4.2551   4.2698   4.2805   4.2943   4.3144   4.3466   4.3602   4.3653
  4.4034   4.4166   4.4358   4.4624   4.4815   4.5187   4.5583   4.6063
  4.6422   4.6489   4.6813   4.7508   4.7937   4.8194   4.8466   4.9293
  4.9385   4.9595   4.9802   4.9916   5.0105   5.0668   5.0747   5.1145
  5.1265   5.1548   5.2020   5.2214   5.2679   5.3858   5.4100   5.4533
  5.5041   5.5577   5.5936   5.6370   5.7142   5.8095   5.8254   5.9554
  5.9734   6.2758   6.3531  22.6674  22.7531  22.9273  22.9460  22.9703
 23.1918  23.2686  23.4946  23.7943  32.8377
 --------------------------------------------------------------

          Ground-State Mulliken Net Atomic Charges

     Atom                 Charge (a.u.)
  ----------------------------------------
      1 C                    -1.023437
      2 C                     0.363451
      3 C                     0.814934
      4 C                    -0.069626
      5 C                    -0.722181
      6 C                    -0.602415
      7 C                    -0.392774
      8 C                    -0.440995
      9 C                    -0.645848
     10 N                     0.162164
     11 H                     0.349938
     12 H                     0.338845
     13 H                     0.341148
     14 H                     0.342063
     15 H                     0.279113
     16 H                     0.268522
     17 H                     0.249137
     18 H                     0.186155
     19 H                     0.201804
  ----------------------------------------
  Sum of atomic charges =     0.000000

 -----------------------------------------------------------------
                    Cartesian Multipole Moments
 -----------------------------------------------------------------
    Charge (ESU x 10^10)
                -0.0000
    Dipole Moment (Debye)
         X      -0.6329      Y       2.6562      Z      -0.1604
       Tot       2.7353
    Quadrupole Moments (Debye-Ang)
        XX     -63.6858     XY      -2.7468     YY     -36.9922
        XZ       3.8510     YZ      -2.5545     ZZ     -54.0704
    Octopole Moments (Debye-Ang^2)
       XXX    -128.4859    XXY    -137.4170    XYY     -44.4722
       YYY    -249.4618    XXZ     109.1316    XYZ      12.3879
       YYZ      75.6885    XZZ     -44.3572    YZZ    -109.7587
       ZZZ     281.2039
    Hexadecapole Moments (Debye-Ang^3)
      XXXX    -440.1780   XXXY    -173.0052   XXYY    -468.5218
      XYYY    -173.9458   YYYY   -1543.1390   XXXZ      35.6076
      XXYZ     253.1329   XYYZ      53.8164   YYYZ     558.5490
      XXZZ    -407.0557   XYZZ     -84.2973   YYZZ    -623.7116
      XZZZ      48.5044   YZZZ     645.0660   ZZZZ   -1923.4029
 -----------------------------------------------------------------
Archival summary:
1\1\compute-0-8.local\SP\ProcedureUnspecified\BasisUnspecified\199\meili\WedSep2916:13:202021WedSep2916:13:202021\0\\#,ProcedureUnspecified,BasisUnspecified,\\0,1\C\C,1,1.40425\H,2,1.07928,1,120.473\C,2,1.40038,1,118.625,3,178.799,0\H,4,1.07715,2,119.618,1,179.025,0\C,4,1.40295,2,121.014,1,0.253751,0\H,6,1.08068,4,119.566,2,-179.928,0\C,6,1.38253,4,121.094,2,-0.353877,0\H,8,1.07854,6,121.26,4,-179.982,0\C,8,1.38293,6,118.032,4,0.0838303,0\N,10,1.36909,8,130.428,6,-178.743,0\H,11,1.01432,10,126.053,8,1.83796,0\C,11,1.37362,10,109.334,8,179.562,0\H,13,1.08648,11,124.986,10,-179.997,0\C,13,1.35842,11,110.104,10,-0.136732,0\C,15,1.47585,13,126.774,11,-179.88,0\H,16,1.0898,15,107.538,13,-142.096,0\H,16,1.09173,15,109.471,13,-25.5316,0\H,16,1.1,15,113.415,13,97.2728,0\\\@

 Total job time:  34463.49s(wall), 209354.76s(cpu) 
 Wed Sep 29 16:13:20 2021

        *************************************************************
        *                                                           *
        *  Thank you very much for using Q-Chem.  Have a nice day.  *
        *                                                           *
        *************************************************************


Done Job For Fragment 0
calling putenv with: QCSCRATCH=/home/meili/scratch 
calling putenv with: QCTHREADS=8 
Creating input file /home/meili/scratch/qchem62347/Frg2.input
using default PutDataFrgm: nothing
calling putenv with: QCSCRATCH=/home/meili/scratch/qchem62347/ 
Spawning Job For Fragment 1
                  Welcome to Q-Chem
     A Quantum Leap Into The Future Of Chemistry


 Q-Chem 5.2 (devel), Q-Chem, Inc., Pleasanton, CA (2019)

 Yihan Shao,  Zhengting Gan,  E. Epifanovsky,  A. T. B. Gilbert,  M. Wormit,  
 J. Kussmann,  A. W. Lange,  A. Behn,  Jia Deng,  Xintian Feng,  D. Ghosh,  
 M. Goldey,  P. R. Horn,  L. D. Jacobson,  I. Kaliman,  T. Kus,  A. Landau,  
 Jie Liu,  E. I. Proynov,  R. M. Richard,  R. P. Steele,  E. J. Sundstrom,  
 H. L. Woodcock III,  P. M. Zimmerman,  D. Zuev,  B. Albrecht,  E. Alguire,  
 S. A. Baeppler,  D. Barton,  Z. Benda,  Y. A. Bernard,  E. J. Berquist,  
 K. B. Bravaya,  H. Burton,  D. Casanova,  Chun-Min Chang,  Yunqing Chen,  
 A. Chien,  K. D. Closser,  M. P. Coons,  S. Coriani,  S. Dasgupta,  
 A. L. Dempwolff,  M. Diedenhofen,  Hainam Do,  R. G. Edgar,  Po-Tung Fang,  
 S. Faraji,  S. Fatehi,  Qingguo Feng,  K. D. Fenk,  J. Fosso-Tande,  
 J. Gayvert,  Qinghui Ge,  A. Ghysels,  G. Gidofalvi,  J. Gomes,  
 J. Gonthier,  A. Gunina,  D. Hait,  M. W. D. Hanson-Heine,  
 P. H. P. Harbach,  A. W. Hauser,  M. F. Herbst,  J. E. Herr,  
 E. G. Hohenstein,  Z. C. Holden,  Kerwin Hui,  B. C. Huynh,  T.-C. Jagau,  
 Hyunjun Ji,  B. Kaduk,  K. Khistyaev,  Jaehoon Kim,  P. Klunzinger,  K. Koh,  
 D. Kosenkov,  L. Koulias,  T. Kowalczyk,  C. M. Krauter,  A. Kunitsa,  
 Ka Un Lao,  A. Laurent,  K. V. Lawler,  Joonho Lee,  D. Lefrancois,  
 S. Lehtola,  D. S. Levine,  Yi-Pei Li,  You-Sheng Lin,  Fenglai Liu,  
 E. Livshits,  A. Luenser,  P. Manohar,  E. Mansoor,  S. F. Manzer,  
 Shan-Ping Mao,  Yuezhi Mao,  N. Mardirossian,  A. V. Marenich,  
 T. Markovich,  L. A. Martinez-Martinez,  S. A. Maurer,  N. J. Mayhall,  
 S. C. McKenzie,  J.-M. Mewes,  P. Morgante,  A. F. Morrison,  
 J. W. Mullinax,  K. Nanda,  T. S. Nguyen-Beck,  R. Olivares-Amaya,  
 J. A. Parkhill,  Zheng Pei,  T. M. Perrine,  F. Plasser,  P. Pokhilko,  
 S. Prager,  A. Prociuk,  E. Ramos,  D. R. Rehn,  F. Rob,  M. Scheurer,  
 M. Schneider,  N. Sergueev,  S. M. Sharada,  S. Sharma,  D. W. Small,  
 T. Stauch,  T. Stein,  Yu-Chuan Su,  A. J. W. Thom,  A. Tkatchenko,  
 T. Tsuchimochi,  N. M. Tubman,  L. Vogt,  M. L. Vidal,  O. Vydrov,  
 M. A. Watson,  J. Wenzel,  M. de Wergifosse,  T. A. Wesolowski,  A. White,  
 J. Witte,  A. Yamada,  Jun Yang,  K. Yao,  S. Yeganeh,  S. R. Yost,  
 Zhi-Qiang You,  A. Zech,  Igor Ying Zhang,  Xing Zhang,  Yan Zhao,  
 Ying Zhu,  B. R. Brooks,  G. K. L. Chan,  C. J. Cramer,  M. S. Gordon,  
 W. J. Hehre,  A. Klamt,  M. W. Schmidt,  C. D. Sherrill,  D. G. Truhlar,  
 A. Aspuru-Guzik,  R. Baer,  A. T. Bell,  N. A. Besley,  Jeng-Da Chai,  
 A. E. DePrince, III,  R. A. DiStasio Jr.,  A. Dreuw,  B. D. Dunietz,  
 T. R. Furlani,  Chao-Ping Hsu,  Yousung Jung,  Jing Kong,  D. S. Lambrecht,  
 WanZhen Liang,  C. Ochsenfeld,  V. A. Rassolov,  L. V. Slipchenko,  
 J. E. Subotnik,  T. Van Voorhis,  J. M. Herbert,  A. I. Krylov,  
 P. M. W. Gill,  M. Head-Gordon

 Contributors to earlier versions of Q-Chem not listed above: 
 R. D. Adamson,  B. Austin,  J. Baker,  G. J. O. Beran,  K. Brandhorst,  
 S. T. Brown,  E. F. C. Byrd,  A. K. Chakraborty,  C.-L. Cheng,  
 Siu Hung Chien,  D. M. Chipman,  D. L. Crittenden,  H. Dachsel,  
 R. J. Doerksen,  A. D. Dutoi,  L. Fusti-Molnar,  W. A. Goddard III,  
 A. Golubeva-Zadorozhnaya,  S. R. Gwaltney,  G. Hawkins,  A. Heyden,  
 S. Hirata,  G. Kedziora,  F. J. Keil,  C. Kelley,  Jihan Kim,  R. A. King,  
 R. Z. Khaliullin,  P. P. Korambath,  W. Kurlancheek,  A. M. Lee,  M. S. Lee,  
 S. V. Levchenko,  Ching Yeh Lin,  D. Liotard,  R. C. Lochan,  I. Lotan,  
 P. E. Maslen,  N. Nair,  D. P. O'Neill,  D. Neuhauser,  E. Neuscamman,  
 C. M. Oana,  R. Olson,  B. Peters,  R. Peverati,  P. A. Pieniazek,  
 Y. M. Rhee,  J. Ritchie,  M. A. Rohrdanz,  E. Rosta,  N. J. Russ,  
 H. F. Schaefer III,  N. E. Schultz,  N. Shenvi,  A. C. Simmonett,  A. Sodt,  
 D. Stuck,  K. S. Thanthiriwatte,  V. Vanovschi,  Tao Wang,  A. Warshel,  
 C. F. Williams,  Q. Wu,  X. Xu,  W. Zhang

 Please cite Q-Chem as follows:
 Y. Shao et al., Mol. Phys. 113, 184-215 (2015)
 DOI: 10.1080/00268976.2014.952696

 Q-Chem 5.2.1 for Intel X86 EM64T Linux

 Parts of Q-Chem use Armadillo 8.300.2 (Tropical Shenanigans).
 http://arma.sourceforge.net/

 Q-Chem begins on Wed Sep 29 16:13:20 2021  

compute-0-8.local
Host: 0

     Scratch files written to /home/meili/scratch/qchem62347//Frg2//
NAlpha2: 58
NElect   58
Mult     1
Symmetry turned off for PCM/SM12/SMD calculation

Checking the input file for inconsistencies... 	...done.

--------------------------------------------------------------
User input:
--------------------------------------------------------------
$molecule
0 1
 6	0.8888185360	-2.2724477640	4.4168031099
 6	-0.9341814640	-1.5854477640	1.1338031099
 6	-1.5821814640	-2.8014477640	0.9168031099
 6	-0.1341814640	-1.4194477640	2.2708031099
 6	0.0448185360	-2.4644477640	3.1798031099
 6	-1.4141814640	-3.8504477640	1.8208031099
 6	-0.6151814640	-3.6724477640	2.9498031099
 8	-2.3741814640	-2.9794477640	-0.1791968901
 1	-1.0611814640	-0.7764477640	0.4288031099
 1	0.3598185360	-0.4724477640	2.4348031099
 1	-1.8851814640	-4.8034477640	1.6398031099
 1	-2.8051814640	-3.8404477640	-0.1811968901
 1	0.3828185360	-2.7744477640	5.2378031099
 1	0.9438185360	-1.2164477640	4.6638031099
 1	-0.5141814640	-4.4874477640	3.6528031099
 1	1.9134418360	-2.6674747640	4.3527631099
$end
$rem
EDA2		1
METHOD		WB97X-V
BASIS		DEF2-TZVPD
XC_GRID		000099000590
NL_GRID		1
UNRESTRICTED		FALSE
MAX_SCF_CYCLES		200
SYMMETRY		FALSE
SYM_IGNORE		TRUE
BASIS_LIN_DEP_THRESH		6
THRESH		14
SCF_CONVERGENCE		8
SCF_PRINT_FRGM		TRUE
SOLVENT_METHOD		PCM
!required keywords
JOBTYPE		SP
SYM_IGNORE		TRUE
SUBSYSTEM		TRUE
GEN_SCFMAN		TRUE
CHILD_INSTRUCTION		2
SYM_IGNORE		TRUE
SCFMI		0
RI_K 0		
PARI_K 0		
MIN_PARI_K 0		
IARI_K 0		
OCC_RI_K 0		
PURECART		1111
MEM_STATIC		2000
MEM_TOTAL		2000
GUI		0
CHILD_MP		1
CHILD_MP_ORDERS		232
FRZ_RELAX		0
FRZ_RELAX_METHOD		0
EDA_CLS_ELEC		1
EDA_CLS_DISP		0
FRZ_ORTHO_DECOMP		1
EDA2		FALSE
FRGM_METHOD		FALSE
CIS_N_ROOTS  0
LOCAL_CIS    0
CIS_RLX_DNS  1
$end
$pcm
THEORY                  CPCM
METHOD                  SWIG
SOLVER                  INVERSION
RADII                   UFF
HPOINTS                 302
HEAVYPOINTS             302
PRINTLEVEL              0
$end
$solvent
DIELECTRIC              78.390000 ! water
$end
--------------------------------------------------------------
 ----------------------------------------------------------------
             Standard Nuclear Orientation (Angstroms)
    I     Atom           X                Y                Z
 ----------------------------------------------------------------
    1      C       0.8888185360    -2.2724477640     4.4168031099
    2      C      -0.9341814640    -1.5854477640     1.1338031099
    3      C      -1.5821814640    -2.8014477640     0.9168031099
    4      C      -0.1341814640    -1.4194477640     2.2708031099
    5      C       0.0448185360    -2.4644477640     3.1798031099
    6      C      -1.4141814640    -3.8504477640     1.8208031099
    7      C      -0.6151814640    -3.6724477640     2.9498031099
    8      O      -2.3741814640    -2.9794477640    -0.1791968901
    9      H      -1.0611814640    -0.7764477640     0.4288031099
   10      H       0.3598185360    -0.4724477640     2.4348031099
   11      H      -1.8851814640    -4.8034477640     1.6398031099
   12      H      -2.8051814640    -3.8404477640    -0.1811968901
   13      H       0.3828185360    -2.7744477640     5.2378031099
   14      H       0.9438185360    -1.2164477640     4.6638031099
   15      H      -0.5141814640    -4.4874477640     3.6528031099
   16      H       1.9134418360    -2.6674747640     4.3527631099
 ----------------------------------------------------------------
 Nuclear Repulsion Energy =         342.53115869 hartrees
 There are       29 alpha and       29 beta electrons
 Requested basis set is def2-TZVPD
 There are 145 shells and 371 basis functions

 Total QAlloc Memory Limit   2000 MB
 Mega-Array Size      1956 MB
 MEM_STATIC part      2000 MB
 Discretize the solute cavity surface with Lebedev spheres
	Using 302 Lebedev grid points for each H atom
	Using 302 Lebedev grid points for other atoms
	Atomic van der Waals radii will be scaled by 1.20
 Remove points where switching function is < 1.0e-08
 Keep 1860 surface tesserae and discard 2972 interior tesserae
 Molecular Surface Area = 190.615 Angst**2
 A cutoff of  1.0D-14 yielded  10043 shell pairs
 There are     67085 function pairs (     85784 Cartesian)
 Smallest overlap matrix eigenvalue = 5.81E-07
 Linear dependence detected in AO basis
 Tighter screening thresholds may be required for diffuse basis sets
 Use S2THRESH > 14 and THRESH = 14 in case of SCF convergence issues
 Number of orthogonalized atomic orbitals = 370
 Maximum deviation from orthogonality = 2.059E-10

 Scale SEOQF with 1.000000e-01/1.000000e-01/1.000000e-02

 Standard Electronic Orientation quadrupole field applied
 Nucleus-field energy     =     0.0000000322 hartrees
 Guess from superposition of atomic densities
 Warning:  Energy on first SCF cycle will be non-variational
 SAD guess density has 58.000000 electrons

 -----------------------------------------------------------------------
  General SCF calculation program by
  Eric Jon Sundstrom, Paul Horn, Yuezhi Mao, Dmitri Zuev, Alec White,
  David Stuck, Shaama M.S., Shane Yost, Joonho Lee, David Small,
  Daniel Levine, Susi Lehtola, Hugh Burton, Evgeny Epifanovsky,
  Bang C. Huynh
 -----------------------------------------------------------------------
 Exchange:     0.1670 Hartree-Fock + 1.0000 wB97X-V + LR-HF
 Correlation:  1.0000 wB97X-V
 Using Euler-Maclaurin-Lebedev (99,590) quadrature formula
 Nonlocal Correlation:  VV10 with C = 0.0100 and b = 6.00 and scale = 1.00000
 Grid used for NLC:  SG-1 standard quadrature
Energy prior to optimization (guess energy) = -346.732485286156
Begin Timing: Total SCF Calculation
begin iterations for algorithm: DIIS         
the SCF tolerance is set to 1.00e-08
    1    -346.7324852862      2.19e-03     00000 
    2    -346.7786257793      1.70e-03     00000 
    3    -346.8150481858      2.81e-04     00000 
    4    -346.8161661389      1.28e-04     00000 
    5    -346.8164414243      2.36e-05     00000 
    6    -346.8164532759      8.51e-06     00000 
    7    -346.8164549017      3.73e-06     00000 
    8    -346.8164552234      8.83e-07     00000 
    9    -346.8164552555      4.29e-07     00000 
   10    -346.8164552623      1.50e-07     00000 
   11    -346.8164552637      5.25e-08     00000 
   12    -346.8164552639      2.17e-08     00000 
   13    -346.8164552639      6.32e-09     00000 Convergence criterion met
Timing for Total SCF: 1166.00s (wall), 6595.84s (cpu)

************** Final PCM Free Energy Summary **************
 G_electrostatic  =      -0.00565228 hartree =      -3.54685787 kcal/mol
 G_cavitation     =       0.00000000 hartree =       0.00000000 kcal/mol
 G_dispersion     =       0.00000000 hartree =       0.00000000 kcal/mol
 G_repulsion      =       0.00000000 hartree =       0.00000000 kcal/mol
 --------------------------------------------------
 Non-electrostatic Free Energy =       0.00000000 hartree =       0.00000000 kcal/mol
 Total                         =      -0.00565228 hartree =      -3.54685787 kcal/mol
 --------------------------------------------------
 SCF Energy (H0 + V/2)                       =    -346.81645526 
 Solute Internal Energy (H0)                 =    -346.81080299 
 Total Free Energy (H0 + V/2 + non-elec)     =    -346.81645526 hartree
                                             = -217630.61037677 kcal/mol
***********************************************************

E_pcm = -0.0056522778
Multipole orders to be included
        2
        3
computing dipole RHS
computing quadrupole RHS
total number of RHS in solve_reponses: 8
RHS batch sizes
        8
Beginning Block Conjugate Gradient Iterations. Batch Number: 0
computing hessian-vector products by finite difference
              1      5.95e-01     00000 Conjugate Gradient Iteration
computing hessian-vector products by finite difference
              2      1.91e-01     00000 Conjugate Gradient Iteration
computing hessian-vector products by finite difference
              3      4.91e-02     00000 Conjugate Gradient Iteration
computing hessian-vector products by finite difference
              4      1.42e-02     00000 Conjugate Gradient Iteration
computing hessian-vector products by finite difference
              5      4.40e-03     00000 Conjugate Gradient Iteration
computing hessian-vector products by finite difference
              6      1.65e-03     00000 Conjugate Gradient Iteration
computing hessian-vector products by finite difference
              7      4.09e-04     00000 Conjugate Gradient Iteration
computing hessian-vector products by finite difference
              8      7.84e-05     00000 Conjugate Gradient Iteration
computing hessian-vector products by finite difference
              9      1.44e-05     00000 Conjugate Gradient Iteration
computing hessian-vector products by finite difference
             10      1.88e-06     00000 Conjugate Gradient Iteration
computing hessian-vector products by finite difference
             11      3.04e-07     00000 Conjugate Gradient Iteration
computing hessian-vector products by finite difference
             12      5.90e-08     00000 Conjugate Gradient Iteration
computing hessian-vector products by finite difference
             13      1.02e-08     00000 Conjugate Gradient Iteration
computing hessian-vector products by finite difference
             14      4.23e-09     00000 CG Converged
batch 0 complete
Done Calculating Responses
TESTING ORTHOGONALIZATION OF MULTIPOLE BASIS
Multipole virts passed orthogonality test
Virts Per Order
           87
          145

 --------------------------------------------------------------

                    Orbital Energies (a.u.)
 --------------------------------------------------------------

 Alpha MOs
 -- Occupied --
-19.2455 -10.3371 -10.2774 -10.2761 -10.2752 -10.2732 -10.2728 -10.2609
 -1.1953  -0.9945  -0.9017  -0.8837  -0.8112  -0.7486  -0.7157  -0.6670
 -0.6033  -0.5816  -0.5518  -0.5398  -0.5341  -0.5213  -0.5114  -0.4772
 -0.4572  -0.4443  -0.4401  -0.3524  -0.3136
 -- Virtual --
  0.0576   0.0582   0.0682   0.0772   0.0831   0.0941   0.1087   0.1101
  0.1135   0.1312   0.1442   0.1499   0.1583   0.1700   0.1739   0.1919
  0.1989   0.2030   0.2132   0.2223   0.2359   0.2406   0.2498   0.2519
  0.2598   0.2661   0.2701   0.2788   0.2790   0.2935   0.2953   0.3037
  0.3044   0.3073   0.3100   0.3247   0.3326   0.3385   0.3432   0.3466
  0.3523   0.3553   0.3613   0.3729   0.3751   0.3784   0.3809   0.3908
  0.3943   0.3949   0.3982   0.4069   0.4130   0.4179   0.4239   0.4317
  0.4361   0.4493   0.4542   0.4595   0.4707   0.4713   0.4758   0.4824
  0.4842   0.4898   0.4977   0.5018   0.5121   0.5138   0.5239   0.5386
  0.5409   0.5456   0.5475   0.5527   0.5614   0.5667   0.5831   0.5931
  0.6038   0.6043   0.6166   0.6322   0.6391   0.6559   0.6601   0.6728
  0.6779   0.6813   0.6853   0.6914   0.6998   0.7011   0.7194   0.7274
  0.7286   0.7381   0.7460   0.7487   0.7581   0.7692   0.7786   0.7834
  0.7875   0.7895   0.7958   0.7974   0.8060   0.8147   0.8263   0.8352
  0.8367   0.8476   0.8508   0.8533   0.8652   0.8741   0.8796   0.8917
  0.9027   0.9091   0.9267   0.9452   0.9627   0.9747   0.9871   1.0137
  1.0200   1.0330   1.0381   1.0470   1.0548   1.0711   1.0739   1.0860
  1.0980   1.1179   1.1338   1.1720   1.1918   1.2347   1.2686   1.2957
  1.3061   1.3090   1.3289   1.3534   1.3649   1.3817   1.3918   1.4322
  1.4548   1.4651   1.4744   1.4847   1.5271   1.5595   1.6035   1.6196
  1.6254   1.6282   1.6821   1.6929   1.7028   1.7227   1.7808   1.8016
  1.8118   1.8280   1.8294   1.8606   1.8722   1.8782   1.9171   1.9187
  1.9382   1.9452   1.9674   1.9803   2.0025   2.0263   2.0334   2.0496
  2.0551   2.0747   2.0886   2.1034   2.1191   2.1515   2.1948   2.2014
  2.2161   2.2339   2.2693   2.2828   2.3001   2.3161   2.3400   2.3679
  2.3949   2.4005   2.4257   2.4635   2.4893   2.4949   2.5217   2.5511
  2.5727   2.5933   2.6290   2.6400   2.6505   2.6677   2.6843   2.7440
  2.7521   2.7561   2.7734   2.7921   2.8145   2.8270   2.8647   2.8736
  2.9056   2.9155   2.9357   2.9482   2.9619   2.9702   2.9733   3.0037
  3.0148   3.0409   3.0689   3.0745   3.0953   3.1174   3.1460   3.1592
  3.1873   3.2036   3.2103   3.2247   3.2462   3.2520   3.2799   3.2908
  3.3186   3.3381   3.3774   3.3866   3.3922   3.4109   3.4519   3.4536
  3.4620   3.4698   3.4886   3.5084   3.5199   3.5228   3.5371   3.5416
  3.5492   3.5672   3.5825   3.5883   3.5972   3.6220   3.6421   3.6575
  3.6850   3.7033   3.7342   3.7556   3.7998   3.8189   3.8397   3.8863
  3.9221   3.9526   3.9723   3.9926   4.0349   4.0792   4.1311   4.1559
  4.2437   4.2681   4.2816   4.3088   4.3170   4.3270   4.3416   4.3574
  4.3711   4.3817   4.4276   4.4473   4.4865   4.5280   4.5819   4.6253
  4.7167   4.7252   4.7819   4.8085   4.8741   4.9172   5.0209   5.0524
  5.0880   5.1207   5.1568   5.2949   5.3225   5.3930   5.4408   5.5304
  5.6108   5.6418   5.7041   5.7618   5.9435   6.2083   6.4819   6.5898
  6.6329   6.8720   7.0076   7.3007   7.4523  22.6620  22.6764  22.9300
 22.9772  23.0206  23.1701  23.4895  44.4153
 --------------------------------------------------------------

          Ground-State Mulliken Net Atomic Charges

     Atom                 Charge (a.u.)
  ----------------------------------------
      1 C                    -1.048067
      2 C                    -0.756317
      3 C                     0.808217
      4 C                    -0.413647
      5 C                     0.611736
      6 C                    -0.390562
      7 C                    -0.628731
      8 O                    -0.485021
      9 H                     0.331700
     10 H                     0.312370
     11 H                     0.274974
     12 H                     0.294242
     13 H                     0.269170
     14 H                     0.281932
     15 H                     0.322080
     16 H                     0.215923
  ----------------------------------------
  Sum of atomic charges =     0.000000

 -----------------------------------------------------------------
                    Cartesian Multipole Moments
 -----------------------------------------------------------------
    Charge (ESU x 10^10)
                 0.0000
    Dipole Moment (Debye)
         X      -0.1027      Y      -1.4511      Z       1.0034
       Tot       1.7672
    Quadrupole Moments (Debye-Ang)
        XX     -46.9974     XY       7.0414     YY     -33.6885
        XZ       1.9702     YZ      -3.7155     ZZ     -44.6296
    Octopole Moments (Debye-Ang^2)
       XXX      97.8463    XXY     105.3466    XYY     -12.7621
       YYY     292.4127    XXZ    -106.4031    XYZ      -0.5926
       YYZ     -82.2367    XZZ      45.6468    YZZ     111.4927
       ZZZ    -289.2874
    Hexadecapole Moments (Debye-Ang^3)
      XXXX    -489.3674   XXXY    -267.2198   XXYY    -339.2149
      XYYY     -77.6020   YYYY   -1848.0268   XXXZ      33.5211
      XXYZ     272.9735   XYYZ      -3.6280   YYYZ     690.6427
      XXZZ    -434.5546   XYZZ    -125.4114   YYZZ    -633.5873
      XZZZ      52.1436   YZZZ     721.4324   ZZZZ   -1905.9543
 -----------------------------------------------------------------
Archival summary:
1\1\compute-0-8.local\SP\ProcedureUnspecified\BasisUnspecified\178\meili\WedSep2922:27:302021WedSep2922:27:302021\0\\#,ProcedureUnspecified,BasisUnspecified,\\0,1\C\O,1,1.36388\H,2,0.962853,1,112.229\C,1,1.39487,2,120.568,3,-176.365,0\H,4,1.08057,1,119.774,2,0.0829407,0\C,1,1.39493,2,119.509,3,4.08946,0\H,6,1.07834,1,120.213,2,1.68368,0\C,6,1.39453,1,119.847,2,-179.45,0\H,8,1.08103,6,118.933,1,178.554,0\C,8,1.39562,6,120.988,1,-1.27139,0\C,10,1.39655,8,118.672,6,1.48159,0\H,11,1.08062,10,119.892,8,179.408,0\C,10,1.50976,8,120.629,6,178.946,0\H,13,1.0859,10,109.777,8,-154.489,0\H,13,1.08724,10,107.446,8,-37.8683,0\H,13,1.1,10,115.3,8,82.7888,0\\\@

 Total job time:  22450.21s(wall), 128522.40s(cpu) 
 Wed Sep 29 22:27:30 2021

        *************************************************************
        *                                                           *
        *  Thank you very much for using Q-Chem.  Have a nice day.  *
        *                                                           *
        *************************************************************


Done Job For Fragment 1
calling putenv with: QCSCRATCH=/home/meili/scratch 
calling putenv with: QCTHREADS=8 
Doing General SCFMI
 Exchange:     0.1670 Hartree-Fock + 1.0000 wB97X-V + LR-HF
 Correlation:  1.0000 wB97X-V
 Using Euler-Maclaurin-Lebedev (99,590) quadrature formula
 Nonlocal Correlation:  VV10 with C = 0.0100 and b = 6.00 and scale = 1.00000
 Grid used for NLC:  SG-1 standard quadrature
performing fock build before subrot guess so that all methods have access
Printing subrot_rss_gen Method Specification:
Occupied Subspace Method is 0
Virtual Subspace Method is 0
Energy of the unrelaxed supersystem initial determinant -749.975570637440
performing fock build before subrot guess so that all methods have access
Printing subrot_rss_gen Method Specification:
Occupied Subspace Method is 0
Virtual Subspace Method is 0
Energy of the unrelaxed supersystem initial determinant w/ solvent -749.987350314128
write pseudocanon occs and virts to disk
write pseudocanon orbital energies to disk
Tolerance of ortho_decomp_scf: 1.00e-06
GDM subspace size: 20
Beginning the Orthogonal Decomposition of the Initial Supersystem Wavefunction
    1    -749.9583961358      1.48e-02     ortho_decomp Preconditoned Steepest Descent
    2    -749.9600184293      3.82e-04     ortho_decomp BFGS Step
    3    -749.9600238402      2.98e-05     ortho_decomp BFGS Step
    4    -749.9600238514      1.30e-06     ortho_decomp BFGS Step
    5    -749.9600238514      4.42e-08     ortho_decomp 00000 Convergence criterion met
 Hartree-Fock
 Hartree-Fock
 Hartree-Fock
Doing General SCFMI
 Exchange:     0.1670 Hartree-Fock + 1.0000 wB97X-V + LR-HF
 Correlation:  1.0000 wB97X-V
 Using Euler-Maclaurin-Lebedev (99,590) quadrature formula
 Nonlocal Correlation:  VV10 with C = 0.0100 and b = 6.00 and scale = 1.00000
 Grid used for NLC:  SG-1 standard quadrature
performing fock build at end of subrot_r(subrot) constructor so that all methods have access
<S^2> of initial wavefunction before polarization iterations 0.0000000000
Beginning iterations for the determination of the polarized wavefunction
Energy prior to optimization (guess energy) = -749.987350314127
Begin Timing: Total SCF Calculation
begin iterations for algorithm: DIIS         
the SCF tolerance is set to 1.00e-08
    1    -749.9873503141      3.17e-05     00000 
    2    -749.9875092191      1.59e-05     00000 
    3    -749.9875321647      8.15e-06     00000 
    4    -749.9875401588      2.13e-06     00000 
    5    -749.9875408657      1.06e-06     00000 
    6    -749.9875410314      4.37e-07     00000 
    7    -749.9875410532      1.86e-07     00000 
    8    -749.9875410566      7.27e-08     00000 
    9    -749.9875410571      2.68e-08     00000 
   10    -749.9875410572      1.30e-08     00000 
   11    -749.9875410572      4.70e-09     00000 Convergence criterion met
write pseudocanon occs and virts to disk
write pseudocanon orbital energies to disk
Timing for Total SCF: 7523.00s (wall), 47334.05s (cpu)
<S^2> of polarized wavefunction after polarization iterations 0.0000000000
relaxing scfmi constraint to allow all rotations in the entire AO span
Doing General SCFMI
 Exchange:     0.1670 Hartree-Fock + 1.0000 wB97X-V + LR-HF
 Correlation:  1.0000 wB97X-V
 Using Euler-Maclaurin-Lebedev (99,590) quadrature formula
 Nonlocal Correlation:  VV10 with C = 0.0100 and b = 6.00 and scale = 1.00000
 Grid used for NLC:  SG-1 standard quadrature
performing fock build at end of subrot_r(subrot) constructor so that all methods have access
<S^2> of polarized wavefunction before ct-allowed iterations 0.0000000000
Beginning iterations for the determination of the CT-Allowed wavefunction
Energy prior to optimization (guess energy) = -749.987541057184
Begin Timing: Total SCF Calculation
begin iterations for algorithm: DIIS         
the SCF tolerance is set to 1.00e-08
    1    -749.9875410572      4.39e-05     00000 
    2    -749.9882181744      4.59e-06     00000 
    3    -749.9882399917      7.56e-07     00000 
    4    -749.9882407558      2.45e-07     00000 
    5    -749.9882407826      1.13e-07     00000 
    6    -749.9882407889      2.88e-08     00000 
    7    -749.9882407893      1.06e-08     00000 
    8    -749.9882407894      3.95e-09     00000 Convergence criterion met
write pseudocanon occs and virts to disk
write pseudocanon orbital energies to disk
Timing for Total SCF: 6103.00s (wall), 38787.02s (cpu)
<S^2> of ct_allowed wavefunction after ct-allowed iterations 0.0000000000

================================
        Results of EDA2         
================================
Basic EDA Quantities
--------------------
Fragment Energies (Ha):
1 -403.1691387538
2 -346.8164552639
--------------------
  E_prp (kJ/mol) = 0.0000
  E_sol (kJ/mol) = 0.6340
  E_frz (kJ/mol) = -5.2452
  E_pol (kJ/mol) = -0.5008
  E_vct (kJ/mol) = -1.8372
  E_int (kJ/mol) = -6.9492
--------------------


Initial Wavefunction Decomposition
--------------------
  --------------------
  Orthogonal Fragment Subspace Decomposition:
  --------------------
     E_elec   (ELEC)   (kJ/mol) = -17.5852
     E_pauli  (PAULI)  (kJ/mol) = 27.6181
     E_disp   (DISP)   (kJ/mol) = -15.2781
     --------------------
     Terms summing to E_pauli:
     --------------------
        E_kep_pauli       (kJ/mol) = 35.5734
        E_disp_free_pauli (kJ/mol) = -7.9553
  --------------------
  Classical Frozen Decomposition:
  --------------------
     E_cls_elec  (CLS ELEC)  (kJ/mol) = -6.3013
     E_cls_pauli (CLS PAULI) (kJ/mol) = 1.0561
    [E_mod_pauli (MOD PAULI) (kJ/mol) = 16.3342 (CLS PAULI - DISP from orthogonal decomposition) ]
  --------------------
--------------------

Simplified EDA Summary (kJ/mol)
--------------------
 PREPARATION     0.0000
 SOLVATION       0.6340
 FROZEN          10.0329      (does not include dispersion)
[PAULI           27.6181]     (if this is negligible, then frozen describes electrostatics)
 DISPERSION      -15.2781
 POLARIZATION    -0.5008
 CHARGE TRANSFER -1.8372
 TOTAL           -6.9492     (PRP + SOL + FRZ + DISP + POL + CT)
--------------------

 --------------------------------------------------------------

                    Orbital Energies (a.u.)
 --------------------------------------------------------------

 Alpha MOs
 -- Occupied --
-19.2447 -14.4498 -10.3357 -10.3017 -10.2956 -10.2763 -10.2741 -10.2740
-10.2727 -10.2718 -10.2713 -10.2710 -10.2689 -10.2674 -10.2654 -10.2605
-10.2603 -10.2596  -1.1944  -1.1173  -0.9932  -0.9794  -0.9349  -0.9006
 -0.8824  -0.8699  -0.8627  -0.8188  -0.8103  -0.7482  -0.7467  -0.7158
 -0.7141  -0.6775  -0.6660  -0.6530  -0.6024  -0.6016  -0.5849  -0.5799
 -0.5569  -0.5521  -0.5505  -0.5405  -0.5386  -0.5329  -0.5207  -0.5181
 -0.5142  -0.5106  -0.4964  -0.4818  -0.4763  -0.4567  -0.4542  -0.4513
 -0.4431  -0.4383  -0.4337  -0.3785  -0.3512  -0.3159  -0.3123  -0.2919
 -- Virtual --
  0.0495   0.0545   0.0584   0.0636   0.0646   0.0724   0.0786   0.0803
  0.0895   0.0904   0.0938   0.0970   0.1017   0.1026   0.1165   0.1184
  0.1239   0.1298   0.1302   0.1357   0.1382   0.1432   0.1526   0.1551
  0.1585   0.1628   0.1711   0.1731   0.1757   0.1797   0.1875   0.1931
  0.1955   0.1971   0.2001   0.2045   0.2104   0.2151   0.2211   0.2276
  0.2288   0.2325   0.2377   0.2394   0.2424   0.2498   0.2530   0.2566
  0.2588   0.2614   0.2639   0.2656   0.2711   0.2745   0.2766   0.2775
  0.2804   0.2857   0.2882   0.2893   0.2920   0.2953   0.2976   0.3001
  0.3039   0.3062   0.3096   0.3146   0.3176   0.3194   0.3205   0.3264
  0.3285   0.3310   0.3328   0.3362   0.3387   0.3419   0.3461   0.3464
  0.3492   0.3519   0.3534   0.3583   0.3608   0.3632   0.3639   0.3670
  0.3733   0.3750   0.3764   0.3782   0.3831   0.3857   0.3863   0.3904
  0.3920   0.3935   0.3955   0.3996   0.4035   0.4058   0.4085   0.4107
  0.4134   0.4180   0.4215   0.4231   0.4262   0.4263   0.4300   0.4335
  0.4381   0.4395   0.4425   0.4443   0.4499   0.4544   0.4546   0.4573
  0.4611   0.4635   0.4656   0.4718   0.4729   0.4764   0.4781   0.4826
  0.4856   0.4884   0.4902   0.4946   0.4975   0.4990   0.5029   0.5074
  0.5107   0.5130   0.5142   0.5175   0.5224   0.5279   0.5293   0.5336
  0.5351   0.5393   0.5427   0.5456   0.5467   0.5514   0.5539   0.5604
  0.5635   0.5638   0.5676   0.5687   0.5771   0.5825   0.5833   0.5872
  0.5956   0.5979   0.6000   0.6029   0.6084   0.6155   0.6161   0.6183
  0.6257   0.6283   0.6321   0.6363   0.6430   0.6461   0.6509   0.6529
  0.6579   0.6613   0.6642   0.6701   0.6727   0.6761   0.6793   0.6845
  0.6850   0.6883   0.6935   0.6986   0.7037   0.7043   0.7098   0.7141
  0.7185   0.7202   0.7236   0.7273   0.7295   0.7338   0.7348   0.7377
  0.7416   0.7433   0.7487   0.7535   0.7547   0.7555   0.7593   0.7604
  0.7640   0.7682   0.7727   0.7750   0.7798   0.7812   0.7854   0.7867
  0.7892   0.7922   0.7955   0.7968   0.8012   0.8035   0.8118   0.8138
  0.8144   0.8172   0.8198   0.8254   0.8263   0.8297   0.8310   0.8346
  0.8362   0.8388   0.8414   0.8461   0.8508   0.8536   0.8615   0.8646
  0.8671   0.8709   0.8795   0.8848   0.8894   0.8924   0.8948   0.8972
  0.9025   0.9081   0.9109   0.9165   0.9181   0.9263   0.9300   0.9356
  0.9388   0.9468   0.9479   0.9539   0.9544   0.9600   0.9656   0.9746
  0.9798   0.9857   0.9896   0.9954   1.0000   1.0077   1.0087   1.0163
  1.0211   1.0240   1.0315   1.0349   1.0462   1.0496   1.0520   1.0674
  1.0687   1.0709   1.0794   1.0866   1.0905   1.1001   1.1069   1.1125
  1.1170   1.1209   1.1262   1.1330   1.1417   1.1462   1.1505   1.1569
  1.1656   1.1708   1.1757   1.1902   1.1930   1.2005   1.2079   1.2183
  1.2336   1.2472   1.2485   1.2507   1.2687   1.2737   1.2832   1.3022
  1.3078   1.3107   1.3217   1.3419   1.3446   1.3556   1.3614   1.3630
  1.3786   1.3832   1.3942   1.4054   1.4080   1.4104   1.4230   1.4295
  1.4342   1.4535   1.4639   1.4676   1.4761   1.4796   1.4942   1.5034
  1.5138   1.5285   1.5344   1.5464   1.5647   1.5708   1.5761   1.5903
  1.6077   1.6187   1.6204   1.6311   1.6322   1.6355   1.6515   1.6568
  1.6654   1.6777   1.6877   1.7061   1.7163   1.7248   1.7329   1.7346
  1.7515   1.7649   1.7769   1.7924   1.8020   1.8109   1.8339   1.8385
  1.8460   1.8502   1.8598   1.8722   1.8826   1.8856   1.8913   1.8937
  1.9038   1.9107   1.9232   1.9263   1.9328   1.9374   1.9462   1.9492
  1.9534   1.9631   1.9695   1.9727   1.9815   1.9848   1.9968   2.0039
  2.0114   2.0214   2.0264   2.0280   2.0425   2.0458   2.0533   2.0567
  2.0655   2.0688   2.0747   2.0783   2.0949   2.1041   2.1089   2.1226
  2.1275   2.1413   2.1448   2.1515   2.1733   2.1788   2.1976   2.2005
  2.2078   2.2132   2.2272   2.2336   2.2430   2.2575   2.2638   2.2704
  2.2853   2.2911   2.3068   2.3143   2.3178   2.3306   2.3320   2.3343
  2.3467   2.3597   2.3658   2.3821   2.3934   2.4037   2.4101   2.4159
  2.4357   2.4460   2.4518   2.4545   2.4740   2.4942   2.5020   2.5154
  2.5175   2.5196   2.5346   2.5437   2.5504   2.5693   2.5765   2.5885
  2.5973   2.6112   2.6184   2.6345   2.6420   2.6522   2.6605   2.6609
  2.6646   2.6728   2.6889   2.6991   2.7135   2.7190   2.7320   2.7534
  2.7632   2.7685   2.7717   2.7763   2.7849   2.7914   2.7920   2.7985
  2.8051   2.8175   2.8227   2.8355   2.8472   2.8544   2.8609   2.8730
  2.8805   2.8879   2.8946   2.8990   2.9079   2.9197   2.9247   2.9309
  2.9493   2.9563   2.9617   2.9732   2.9765   2.9821   2.9853   2.9899
  3.0005   3.0073   3.0140   3.0260   3.0342   3.0440   3.0545   3.0584
  3.0662   3.0768   3.0846   3.1013   3.1082   3.1116   3.1224   3.1312
  3.1348   3.1384   3.1597   3.1656   3.1693   3.1818   3.1968   3.2055
  3.2085   3.2190   3.2207   3.2339   3.2372   3.2553   3.2595   3.2613
  3.2633   3.2713   3.2862   3.2909   3.2992   3.3085   3.3175   3.3281
  3.3384   3.3480   3.3517   3.3632   3.3740   3.3785   3.3892   3.3931
  3.3986   3.4069   3.4140   3.4222   3.4274   3.4348   3.4389   3.4545
  3.4588   3.4666   3.4680   3.4699   3.4830   3.4921   3.4986   3.5021
  3.5055   3.5118   3.5213   3.5242   3.5305   3.5309   3.5409   3.5443
  3.5477   3.5541   3.5565   3.5668   3.5705   3.5787   3.5880   3.5927
  3.5968   3.5979   3.6078   3.6141   3.6175   3.6287   3.6361   3.6406
  3.6551   3.6574   3.6669   3.6726   3.6735   3.6872   3.6940   3.7104
  3.7167   3.7259   3.7322   3.7355   3.7400   3.7644   3.7709   3.7769
  3.7897   3.8072   3.8187   3.8227   3.8318   3.8493   3.8651   3.8809
  3.8987   3.9208   3.9341   3.9346   3.9539   3.9634   3.9881   3.9903
  4.0059   4.0431   4.0467   4.0520   4.0797   4.0995   4.1240   4.1432
  4.1541   4.1658   4.1886   4.2083   4.2256   4.2331   4.2558   4.2614
  4.2780   4.2838   4.2864   4.3021   4.3100   4.3178   4.3231   4.3270
  4.3412   4.3523   4.3637   4.3669   4.3706   4.3745   4.3846   4.3995
  4.4127   4.4218   4.4436   4.4448   4.4591   4.4783   4.5001   4.5019
  4.5302   4.5382   4.5700   4.5972   4.6147   4.6348   4.6503   4.6567
  4.6851   4.7211   4.7371   4.7608   4.7924   4.7988   4.8179   4.8285
  4.8527   4.8819   4.9406   4.9425   4.9568   4.9621   4.9927   4.9990
  5.0210   5.0389   5.0599   5.0698   5.0831   5.1017   5.1194   5.1317
  5.1387   5.1619   5.1765   5.2048   5.2290   5.2762   5.3038   5.3273
  5.3948   5.3996   5.4147   5.4456   5.4650   5.5081   5.5352   5.5557
  5.5996   5.6144   5.6459   5.6475   5.7124   5.7238   5.7591   5.8039
  5.8306   5.9475   5.9592   5.9748   6.2125   6.2800   6.3505   6.4799
  6.6000   6.6465   6.8799   7.0135   7.3094   7.4621  22.6751  22.6814
 22.7268  22.7884  22.9527  22.9603  22.9736  22.9953  23.0015  23.0392
 23.1922  23.2075  23.2787  23.4991  23.5072  23.7996  32.8510  44.4388
 --------------------------------------------------------------

          Ground-State Mulliken Net Atomic Charges

     Atom                 Charge (a.u.)
  ----------------------------------------
      1 C                    -1.048908
      2 C                     0.391089
      3 C                     0.717261
      4 C                    -0.130120
      5 C                    -0.559299
      6 C                    -0.648889
      7 C                    -0.370501
      8 C                    -0.520800
      9 C                    -0.628049
     10 N                     0.142946
     11 H                     0.353024
     12 H                     0.406733
     13 H                     0.357920
     14 H                     0.353546
     15 H                     0.279850
     16 H                     0.265484
     17 H                     0.253060
     18 H                     0.187880
     19 H                     0.210708
     20 C                    -1.106004
     21 C                    -0.567792
     22 C                     0.693868
     23 C                    -0.511144
     24 C                     0.563355
     25 C                    -0.454255
     26 C                    -0.579550
     27 O                    -0.490006
     28 H                     0.392630
     29 H                     0.303700
     30 H                     0.297138
     31 H                     0.303028
     32 H                     0.290477
     33 H                     0.272857
     34 H                     0.353958
     35 H                     0.224803
  ----------------------------------------
  Sum of atomic charges =     0.000000

 -----------------------------------------------------------------
                    Cartesian Multipole Moments
 -----------------------------------------------------------------
    Charge (ESU x 10^10)
                 0.0000
    Dipole Moment (Debye)
         X      -0.6981      Y       1.2851      Z       0.7419
       Tot       1.6399
    Quadrupole Moments (Debye-Ang)
        XX    -110.9174     XY       4.1084     YY     -71.1897
        XZ       5.8524     YZ      -5.9893     ZZ     -99.1480
    Octopole Moments (Debye-Ang^2)
       XXX     -30.5590    XXY     -31.6657    XYY     -56.5964
       YYY      45.3615    XXZ       2.5008    XYZ      11.6528
       YYZ      -7.8457    XZZ       1.2484    YZZ       2.9243
       ZZZ      -9.8385
    Hexadecapole Moments (Debye-Ang^3)
      XXXX    -932.2254   XXXY    -441.5063   XXYY    -809.5684
      XYYY    -254.1236   YYYY   -3401.4234   XXXZ      69.4710
      XXYZ     526.7627   XYYZ      50.8653   YYYZ    1254.2308
      XXZZ    -842.9186   XYZZ    -210.1150   YYZZ   -1261.5104
      XZZZ     100.4805   YZZZ    1370.7265   ZZZZ   -3837.0772
 -----------------------------------------------------------------
Archival summary:
1\1\compute-0-8.local\SP\ProcedureUnspecified\BasisUnspecified\111617\meili\ThuSep3006:24:562021ThuSep3006:24:562021\0\\#,ProcedureUnspecified,BasisUnspecified,\\0,1\C\C,1,1.40425\H,2,1.07928,1,120.473\C,2,1.40038,1,118.625,3,178.799,0\H,4,1.07715,2,119.618,1,179.025,0\C,4,1.40295,2,121.014,1,0.253751,0\H,6,1.08068,4,119.566,2,-179.928,0\C,6,1.38253,4,121.094,2,-0.353877,0\H,8,1.07854,6,121.26,4,-179.982,0\C,8,1.38293,6,118.032,4,0.0838303,0\N,10,1.36909,8,130.428,6,-178.743,0\H,11,1.01432,10,126.053,8,1.83796,0\C,11,1.37362,10,109.334,8,179.562,0\H,13,1.08648,11,124.986,10,-179.997,0\C,13,1.35842,11,110.104,10,-0.136732,0\C,15,1.47585,13,126.774,11,-179.88,0\H,16,1.0898,15,107.538,13,-142.096,0\H,16,1.09173,15,109.471,13,-25.5316,0\H,16,1.1,15,113.415,13,97.2728,0\H,7,2.44358,6,103.408,4,-68.7557,0\C,20,1.08062,7,142.14,6,60.8875,0\C,21,1.39655,20,119.892,7,115.377,0\C,22,1.39562,21,118.672,20,179.408,0\H,23,1.08103,22,120.079,21,-178.342,0\C,23,1.39453,22,120.988,21,1.48159,0\H,25,1.07834,23,119.931,22,177.598,0\C,25,1.39493,23,119.847,22,-1.27139,0\O,27,1.36388,25,119.509,23,-179.45,0\H,28,0.962853,27,112.229,25,4.08946,0\C,27,1.39487,25,119.921,23,1.00204,0\H,30,1.08057,27,119.774,25,179.626,0\C,22,1.50976,21,120.65,20,1.94462,0\H,32,1.0859,22,109.777,21,22.9244,0\H,32,1.08724,22,107.446,21,139.545,0\H,32,1.1,22,115.3,21,-99.7975,0\\\@

 Total job time:  85570.10s(wall), 185036.21s(cpu) 
 Thu Sep 30 06:24:56 2021

        *************************************************************
        *                                                           *
        *  Thank you very much for using Q-Chem.  Have a nice day.  *
        *                                                           *
        *************************************************************


