
Running Job 1 of 1 SSI-090TYR-095ARG-1_SMD_TZVPD.in
qchem SSI-090TYR-095ARG-1_SMD_TZVPD.in_20881.0 /tmp/qchem20881/ 0
/global/common/cori/software/qchem/5.2/exe/qcprog.exe_s SSI-090TYR-095ARG-1_SMD_TZVPD.in_20881.0 /tmp/qchem20881/
                  Welcome to Q-Chem
     A Quantum Leap Into The Future Of Chemistry


 Q-Chem 5.2, Q-Chem, Inc., Pleasanton, CA (2019)

 License issued to: National Energy Research Scientific Computing Center

 Yihan Shao,  Zhengting Gan,  E. Epifanovsky,  A. T. B. Gilbert,  M. Wormit,  
 J. Kussmann,  A. W. Lange,  A. Behn,  Jia Deng,  Xintian Feng,  D. Ghosh,  
 M. Goldey,  P. R. Horn,  L. D. Jacobson,  I. Kaliman,  T. Kus,  A. Landau,  
 Jie Liu,  E. I. Proynov,  R. M. Richard,  R. P. Steele,  E. J. Sundstrom,  
 H. L. Woodcock III,  P. M. Zimmerman,  D. Zuev,  B. Albrecht,  E. Alguire,  
 S. A. Baeppler,  D. Barton,  Z. Benda,  Y. A. Bernard,  E. J. Berquist,  
 K. B. Bravaya,  H. Burton,  D. Casanova,  Chun-Min Chang,  Yunqing Chen,  
 A. Chien,  K. D. Closser,  M. P. Coons,  S. Coriani,  S. Dasgupta,  
 A. L. Dempwolff,  M. Diedenhofen,  Hainam Do,  R. G. Edgar,  Po-Tung Fang,  
 S. Faraji,  S. Fatehi,  Qingguo Feng,  K. D. Fenk,  J. Fosso-Tande,  
 J. Gayvert,  Qinghui Ge,  A. Ghysels,  G. Gidofalvi,  J. Gomes,  
 J. Gonthier,  A. Gunina,  D. Hait,  M. W. D. Hanson-Heine,  
 P. H. P. Harbach,  A. W. Hauser,  M. F. Herbst,  J. E. Herr,  
 E. G. Hohenstein,  Z. C. Holden,  Kerwin Hui,  B. C. Huynh,  T.-C. Jagau,  
 Hyunjun Ji,  B. Kaduk,  K. Khistyaev,  Jaehoon Kim,  P. Klunzinger,  K. Koh,  
 D. Kosenkov,  L. Koulias,  T. Kowalczyk,  C. M. Krauter,  A. Kunitsa,  
 Ka Un Lao,  A. Laurent,  K. V. Lawler,  Joonho Lee,  D. Lefrancois,  
 S. Lehtola,  D. S. Levine,  Yi-Pei Li,  You-Sheng Lin,  Fenglai Liu,  
 E. Livshits,  A. Luenser,  P. Manohar,  E. Mansoor,  S. F. Manzer,  
 Shan-Ping Mao,  Yuezhi Mao,  N. Mardirossian,  A. V. Marenich,  
 T. Markovich,  L. A. Martinez-Martinez,  S. A. Maurer,  N. J. Mayhall,  
 S. C. McKenzie,  J.-M. Mewes,  P. Morgante,  A. F. Morrison,  
 J. W. Mullinax,  K. Nanda,  T. S. Nguyen-Beck,  R. Olivares-Amaya,  
 J. A. Parkhill,  Zheng Pei,  T. M. Perrine,  F. Plasser,  P. Pokhilko,  
 S. Prager,  A. Prociuk,  E. Ramos,  D. R. Rehn,  F. Rob,  M. Scheurer,  
 M. Schneider,  N. Sergueev,  S. M. Sharada,  S. Sharma,  D. W. Small,  
 T. Stauch,  T. Stein,  Yu-Chuan Su,  A. J. W. Thom,  A. Tkatchenko,  
 T. Tsuchimochi,  N. M. Tubman,  L. Vogt,  M. L. Vidal,  O. Vydrov,  
 M. A. Watson,  J. Wenzel,  M. de Wergifosse,  T. A. Wesolowski,  A. White,  
 J. Witte,  A. Yamada,  Jun Yang,  K. Yao,  S. Yeganeh,  S. R. Yost,  
 Zhi-Qiang You,  A. Zech,  Igor Ying Zhang,  Xing Zhang,  Yan Zhao,  
 Ying Zhu,  B. R. Brooks,  G. K. L. Chan,  C. J. Cramer,  M. S. Gordon,  
 W. J. Hehre,  A. Klamt,  M. W. Schmidt,  C. D. Sherrill,  D. G. Truhlar,  
 A. Aspuru-Guzik,  R. Baer,  A. T. Bell,  N. A. Besley,  Jeng-Da Chai,  
 A. E. DePrince, III,  R. A. DiStasio Jr.,  A. Dreuw,  B. D. Dunietz,  
 T. R. Furlani,  Chao-Ping Hsu,  Yousung Jung,  Jing Kong,  D. S. Lambrecht,  
 WanZhen Liang,  C. Ochsenfeld,  V. A. Rassolov,  L. V. Slipchenko,  
 J. E. Subotnik,  T. Van Voorhis,  J. M. Herbert,  A. I. Krylov,  
 P. M. W. Gill,  M. Head-Gordon

 Contributors to earlier versions of Q-Chem not listed above: 
 R. D. Adamson,  B. Austin,  J. Baker,  G. J. O. Beran,  K. Brandhorst,  
 S. T. Brown,  E. F. C. Byrd,  A. K. Chakraborty,  C.-L. Cheng,  
 Siu Hung Chien,  D. M. Chipman,  D. L. Crittenden,  H. Dachsel,  
 R. J. Doerksen,  A. D. Dutoi,  L. Fusti-Molnar,  W. A. Goddard III,  
 A. Golubeva-Zadorozhnaya,  S. R. Gwaltney,  G. Hawkins,  A. Heyden,  
 S. Hirata,  G. Kedziora,  F. J. Keil,  C. Kelley,  Jihan Kim,  R. A. King,  
 R. Z. Khaliullin,  P. P. Korambath,  W. Kurlancheek,  A. M. Lee,  M. S. Lee,  
 S. V. Levchenko,  Ching Yeh Lin,  D. Liotard,  R. C. Lochan,  I. Lotan,  
 P. E. Maslen,  N. Nair,  D. P. O'Neill,  D. Neuhauser,  E. Neuscamman,  
 C. M. Oana,  R. Olson,  B. Peters,  R. Peverati,  P. A. Pieniazek,  
 Y. M. Rhee,  J. Ritchie,  M. A. Rohrdanz,  E. Rosta,  N. J. Russ,  
 H. F. Schaefer III,  N. E. Schultz,  N. Shenvi,  A. C. Simmonett,  A. Sodt,  
 D. Stuck,  K. S. Thanthiriwatte,  V. Vanovschi,  Tao Wang,  A. Warshel,  
 C. F. Williams,  Q. Wu,  X. Xu,  W. Zhang

 Please cite Q-Chem as follows:
 Y. Shao et al., Mol. Phys. 113, 184-215 (2015)
 DOI: 10.1080/00268976.2014.952696

 Q-Chem 5.2.0 for Intel X86 EM64T Linux

 Parts of Q-Chem use Armadillo 8.300.2 (Tropical Shenanigans).
 http://arma.sourceforge.net/

 Q-Chem begins on Sun Sep 26 12:24:55 2021  

Host: cori01
0

     Scratch files written to /tmp/qchem20881//
 May1019 |scratch|qcdevops|jenkins|workspace|build_RNUM -1
Processing $rem in /global/common/cori/software/qchem/5.2/config/preferences:
	 MEM_TOTAL  96000 
NAlpha2: 106
NElect   106
Mult     1
Symmetry turned off for PCM/SM12/SMD calculation

 Q-Chem warning in module libgen/rem_setup.C, line 2803:

 Neither GIA nor STOLL is specified by user. Use STOLL as the default


Checking the input file for inconsistencies... 	...done.

--------------------------------------------------------------
User input:
--------------------------------------------------------------
$comment
SSI-090TYR-095ARG-1.pdb
$end

$molecule
1 1
--
0 1
C    0.094413245171    4.858554445260   -0.323930905816
C    1.271413245171    0.726554445260   -0.967930905816
C    0.140413245171    1.241554445260   -1.597930905816
C    2.019413245171    1.534554445260   -0.128930905816
C   -0.249586754829    2.585554445260   -1.384930905816
C    1.632413245171    2.870554445260    0.079069094184
C    0.494413245171    3.410554445260   -0.542930905816
O    1.619413245171   -0.580445554740   -1.166930905816
H   -0.448586754829    0.613554445260   -2.251930905816
H    1.069413245171   -1.000445554740   -1.838930905816
H    2.892413245171    1.126554445260    0.359069094184
H   -1.130586754829    2.974554445260   -1.879930905816
H    2.219413245171    3.494554445260    0.738069094184
H    0.510413245171    5.209554445260    0.622069094184
H   -0.990586754829    4.904554445260   -0.250930905816
H    0.414971745171    5.529791445260   -1.134290905816
--
1 1
C   -1.056586754829   -1.063445554740    1.306069094184
C   -2.142586754829   -0.109445554740    1.748069094184
C   -0.832586754829   -3.437445554740    0.658069094184
N   -1.575586754829   -2.417445554740    1.069069094184
N    0.454413245171   -3.269445554740    0.430069094184
N   -1.366586754829   -4.626445554740    0.464069094184
H   -0.619586754829   -0.674445554740    0.386069094184
H   -0.288586754829   -1.101445554740    2.083069094184
H   -2.619586754829   -0.539445554740    2.629069094184
H   -2.888586754829   -0.017445554740    0.957069094184
H   -2.557586754829   -2.587445554740    1.231069094184
H    0.869413245171   -2.360445554740    0.555069094184
H    1.005413245171   -4.018445554740    0.044069094184
H   -2.351586754829   -4.769445554740    0.626069094184
H   -0.806586754829   -5.396445554740    0.138069094184
H   -1.740873754829    0.886601445260    1.985803094184
$end

$rem
JOBTYPE			EDA
EDA2			1
method			wB97X-V
BASIS			def2-TZVPD
XC_GRID			000099000590
NL_GRID			1
UNRESTRICTED		FALSE
MAX_SCF_CYCLES		200
SYMMETRY		FALSE
SYM_IGNORE		TRUE
MEM_STATIC		2000
BASIS_LIN_DEP_THRESH 	6
THRESH 			14
SCF_CONVERGENCE 	8
SCF_PRINT_FRGM 		TRUE
SOLVENT_METHOD          SMD
$end

$SMX
SOLVENT			WATER
$END
--------------------------------------------------------------
 ----------------------------------------------------------------
             Standard Nuclear Orientation (Angstroms)
    I     Atom           X                Y                Z
 ----------------------------------------------------------------
    1      C       0.0944132452     4.8585544453    -0.3239309058
    2      C       1.2714132452     0.7265544453    -0.9679309058
    3      C       0.1404132452     1.2415544453    -1.5979309058
    4      C       2.0194132452     1.5345544453    -0.1289309058
    5      C      -0.2495867548     2.5855544453    -1.3849309058
    6      C       1.6324132452     2.8705544453     0.0790690942
    7      C       0.4944132452     3.4105544453    -0.5429309058
    8      O       1.6194132452    -0.5804455547    -1.1669309058
    9      H      -0.4485867548     0.6135544453    -2.2519309058
   10      H       1.0694132452    -1.0004455547    -1.8389309058
   11      H       2.8924132452     1.1265544453     0.3590690942
   12      H      -1.1305867548     2.9745544453    -1.8799309058
   13      H       2.2194132452     3.4945544453     0.7380690942
   14      H       0.5104132452     5.2095544453     0.6220690942
   15      H      -0.9905867548     4.9045544453    -0.2509309058
   16      H       0.4149717452     5.5297914453    -1.1342909058
   17      C      -1.0565867548    -1.0634455547     1.3060690942
   18      C      -2.1425867548    -0.1094455547     1.7480690942
   19      C      -0.8325867548    -3.4374455547     0.6580690942
   20      N      -1.5755867548    -2.4174455547     1.0690690942
   21      N       0.4544132452    -3.2694455547     0.4300690942
   22      N      -1.3665867548    -4.6264455547     0.4640690942
   23      H      -0.6195867548    -0.6744455547     0.3860690942
   24      H      -0.2885867548    -1.1014455547     2.0830690942
   25      H      -2.6195867548    -0.5394455547     2.6290690942
   26      H      -2.8885867548    -0.0174455547     0.9570690942
   27      H      -2.5575867548    -2.5874455547     1.2310690942
   28      H       0.8694132452    -2.3604455547     0.5550690942
   29      H       1.0054132452    -4.0184455547     0.0440690942
   30      H      -2.3515867548    -4.7694455547     0.6260690942
   31      H      -0.8065867548    -5.3964455547     0.1380690942
   32      H      -1.7408737548     0.8866014453     1.9858030942
 ----------------------------------------------------------------
 Nuclear Repulsion Energy =         878.07203852 hartrees
 There are       53 alpha and       53 beta electrons
 Requested basis set is def2-TZVPD
 There are 273 shells and 683 basis functions

 Total QAlloc Memory Limit  96000 MB
 Mega-Array Size      1956 MB
 MEM_STATIC part      2000 MB
 
 Citation of the SMD model:
 Marenich, A.V.; Cramer, C.J.; Truhlar, D.G.
 J. Phys. Chem. B 2009, 113, 6378-6396.
 iSolventCode=           1
 Solvent: water                                                           
 
 vradii
            1           2           3           4           5           6
    1   1.8500000   1.8500000   1.8500000   1.8500000   1.8500000   1.8500000
            7           8           9          10          11          12
    1   1.8500000   1.5200000   1.2000000   1.2000000   1.2000000   1.2000000
           13          14          15          16          17          18
    1   1.2000000   1.2000000   1.2000000   1.2000000   1.8500000   1.8500000
           19          20          21          22          23          24
    1   1.8500000   1.8900000   1.8900000   1.8900000   1.2000000   1.2000000
           25          26          27          28          29          30
    1   1.2000000   1.2000000   1.2000000   1.2000000   1.2000000   1.2000000
           31          32
    1   1.2000000   1.2000000
 Changing PCM_VDW_RADII to SMD_RADIUS
 Discretize the solute cavity surface with Lebedev spheres
	Using 110 Lebedev grid points for each H atom
	Using 194 Lebedev grid points for other atoms
	Atomic van der Waals radii will be scaled by 1.20
 Remove points where switching function is < 1.0e-08
 Keep 2283 surface tesserae and discard 2413 interior tesserae
 Molecular Surface Area = 269.780 Angst**2
 A cutoff of  1.0D-14 yielded  31421 shell pairs
 There are    196745 function pairs (    246081 Cartesian)
 Smallest overlap matrix eigenvalue = 5.01E-07
 Linear dependence detected in AO basis
 Tighter screening thresholds may be required for diffuse basis sets
 Use S2THRESH > 14 and THRESH = 14 in case of SCF convergence issues
 Number of orthogonalized atomic orbitals = 681
 Maximum deviation from orthogonality = 1.769E-10

 Scale SEOQF with 1.000000e-01/1.000000e-02/1.000000e-01

 Standard Electronic Orientation quadrupole field applied
 Nucleus-field energy     =     0.0000000001 hartrees

 -----------------------------------------------------------------------
  General SCF calculation program by
  Eric Jon Sundstrom, Paul Horn, Yuezhi Mao, Dmitri Zuev, Alec White,
  David Stuck, Shaama M.S., Shane Yost, Joonho Lee, David Small,
  Daniel Levine, Susi Lehtola, Hugh Burton, Evgeny Epifanovsky
 -----------------------------------------------------------------------
================================================================
                 ALMO-EDA with the EDA2 driver                  
================================================================
 The second-generation ALMO-EDA (for DFT):                      
 P. R. Horn, Y. Mao and M. Head-Gordon, PCCP, 18, 23067 (2016)  
 Decomposition of the frozen energy:                            
 P. R. Horn, Y. Mao and M. Head-Gordon, JCP, 144, 114107 (2016) 
 FERF model for polarization:                                   
 P. R. Horn and M. Head-Gordon, JCP, 143, 114111 (2015)         
Using eda2 option set 1
Option set summary: Frozen orbital wavefunction, initial wavefunction decomposition, and nDQ polarization.
--------------------------------
Printing EDA Options
--------------------------------
eda_child_super_basis      0
fragmo_guess_mode          0
child_mp                   1
child_mp_orders            232
cls_elec                   1
cls_disp                   0
scfmi_mode                 1
scfmi_occs                 0
scfmi_virts                0
frz_relax                  0
frz_relax_method           0
dc_pen_start               0
dc_pen_conv                0
dc_pen_increment           0
dc_pen_steps               0
dc_pen_thresh_factor       0
dc_pen_pre_newton_thresh   0
frz_ortho_decomp           1
frz_ortho_decomp_conv      6
frgm_method                2
scfmi_freeze_ss            0
separate_rehyb             0
plot_diff_den              0
eda_nocv                   0
eda_vct_relax              1
disp_free_x                0
disp_free_c                0
eda_bsse                   0
eda_pct_a                  0
eda_covp                   0
--------------------------------
Attempting to make child job directory: /tmp/qchem20881//Frg1/
Attempting to make child job directory: /tmp/qchem20881//Frg2/
Creating input file /tmp/qchem20881/Frg1.input
using default PutDataFrgm: nothing
calling putenv with: QCSCRATCH=/tmp/qchem20881/ 
calling putenv with: QCLOCALSCR=/tmp/qchem20881/ 
Spawning Job For Fragment 0
                  Welcome to Q-Chem
     A Quantum Leap Into The Future Of Chemistry


 Q-Chem 5.2, Q-Chem, Inc., Pleasanton, CA (2019)

 License issued to: National Energy Research Scientific Computing Center

 Yihan Shao,  Zhengting Gan,  E. Epifanovsky,  A. T. B. Gilbert,  M. Wormit,  
 J. Kussmann,  A. W. Lange,  A. Behn,  Jia Deng,  Xintian Feng,  D. Ghosh,  
 M. Goldey,  P. R. Horn,  L. D. Jacobson,  I. Kaliman,  T. Kus,  A. Landau,  
 Jie Liu,  E. I. Proynov,  R. M. Richard,  R. P. Steele,  E. J. Sundstrom,  
 H. L. Woodcock III,  P. M. Zimmerman,  D. Zuev,  B. Albrecht,  E. Alguire,  
 S. A. Baeppler,  D. Barton,  Z. Benda,  Y. A. Bernard,  E. J. Berquist,  
 K. B. Bravaya,  H. Burton,  D. Casanova,  Chun-Min Chang,  Yunqing Chen,  
 A. Chien,  K. D. Closser,  M. P. Coons,  S. Coriani,  S. Dasgupta,  
 A. L. Dempwolff,  M. Diedenhofen,  Hainam Do,  R. G. Edgar,  Po-Tung Fang,  
 S. Faraji,  S. Fatehi,  Qingguo Feng,  K. D. Fenk,  J. Fosso-Tande,  
 J. Gayvert,  Qinghui Ge,  A. Ghysels,  G. Gidofalvi,  J. Gomes,  
 J. Gonthier,  A. Gunina,  D. Hait,  M. W. D. Hanson-Heine,  
 P. H. P. Harbach,  A. W. Hauser,  M. F. Herbst,  J. E. Herr,  
 E. G. Hohenstein,  Z. C. Holden,  Kerwin Hui,  B. C. Huynh,  T.-C. Jagau,  
 Hyunjun Ji,  B. Kaduk,  K. Khistyaev,  Jaehoon Kim,  P. Klunzinger,  K. Koh,  
 D. Kosenkov,  L. Koulias,  T. Kowalczyk,  C. M. Krauter,  A. Kunitsa,  
 Ka Un Lao,  A. Laurent,  K. V. Lawler,  Joonho Lee,  D. Lefrancois,  
 S. Lehtola,  D. S. Levine,  Yi-Pei Li,  You-Sheng Lin,  Fenglai Liu,  
 E. Livshits,  A. Luenser,  P. Manohar,  E. Mansoor,  S. F. Manzer,  
 Shan-Ping Mao,  Yuezhi Mao,  N. Mardirossian,  A. V. Marenich,  
 T. Markovich,  L. A. Martinez-Martinez,  S. A. Maurer,  N. J. Mayhall,  
 S. C. McKenzie,  J.-M. Mewes,  P. Morgante,  A. F. Morrison,  
 J. W. Mullinax,  K. Nanda,  T. S. Nguyen-Beck,  R. Olivares-Amaya,  
 J. A. Parkhill,  Zheng Pei,  T. M. Perrine,  F. Plasser,  P. Pokhilko,  
 S. Prager,  A. Prociuk,  E. Ramos,  D. R. Rehn,  F. Rob,  M. Scheurer,  
 M. Schneider,  N. Sergueev,  S. M. Sharada,  S. Sharma,  D. W. Small,  
 T. Stauch,  T. Stein,  Yu-Chuan Su,  A. J. W. Thom,  A. Tkatchenko,  
 T. Tsuchimochi,  N. M. Tubman,  L. Vogt,  M. L. Vidal,  O. Vydrov,  
 M. A. Watson,  J. Wenzel,  M. de Wergifosse,  T. A. Wesolowski,  A. White,  
 J. Witte,  A. Yamada,  Jun Yang,  K. Yao,  S. Yeganeh,  S. R. Yost,  
 Zhi-Qiang You,  A. Zech,  Igor Ying Zhang,  Xing Zhang,  Yan Zhao,  
 Ying Zhu,  B. R. Brooks,  G. K. L. Chan,  C. J. Cramer,  M. S. Gordon,  
 W. J. Hehre,  A. Klamt,  M. W. Schmidt,  C. D. Sherrill,  D. G. Truhlar,  
 A. Aspuru-Guzik,  R. Baer,  A. T. Bell,  N. A. Besley,  Jeng-Da Chai,  
 A. E. DePrince, III,  R. A. DiStasio Jr.,  A. Dreuw,  B. D. Dunietz,  
 T. R. Furlani,  Chao-Ping Hsu,  Yousung Jung,  Jing Kong,  D. S. Lambrecht,  
 WanZhen Liang,  C. Ochsenfeld,  V. A. Rassolov,  L. V. Slipchenko,  
 J. E. Subotnik,  T. Van Voorhis,  J. M. Herbert,  A. I. Krylov,  
 P. M. W. Gill,  M. Head-Gordon

 Contributors to earlier versions of Q-Chem not listed above: 
 R. D. Adamson,  B. Austin,  J. Baker,  G. J. O. Beran,  K. Brandhorst,  
 S. T. Brown,  E. F. C. Byrd,  A. K. Chakraborty,  C.-L. Cheng,  
 Siu Hung Chien,  D. M. Chipman,  D. L. Crittenden,  H. Dachsel,  
 R. J. Doerksen,  A. D. Dutoi,  L. Fusti-Molnar,  W. A. Goddard III,  
 A. Golubeva-Zadorozhnaya,  S. R. Gwaltney,  G. Hawkins,  A. Heyden,  
 S. Hirata,  G. Kedziora,  F. J. Keil,  C. Kelley,  Jihan Kim,  R. A. King,  
 R. Z. Khaliullin,  P. P. Korambath,  W. Kurlancheek,  A. M. Lee,  M. S. Lee,  
 S. V. Levchenko,  Ching Yeh Lin,  D. Liotard,  R. C. Lochan,  I. Lotan,  
 P. E. Maslen,  N. Nair,  D. P. O'Neill,  D. Neuhauser,  E. Neuscamman,  
 C. M. Oana,  R. Olson,  B. Peters,  R. Peverati,  P. A. Pieniazek,  
 Y. M. Rhee,  J. Ritchie,  M. A. Rohrdanz,  E. Rosta,  N. J. Russ,  
 H. F. Schaefer III,  N. E. Schultz,  N. Shenvi,  A. C. Simmonett,  A. Sodt,  
 D. Stuck,  K. S. Thanthiriwatte,  V. Vanovschi,  Tao Wang,  A. Warshel,  
 C. F. Williams,  Q. Wu,  X. Xu,  W. Zhang

 Please cite Q-Chem as follows:
 Y. Shao et al., Mol. Phys. 113, 184-215 (2015)
 DOI: 10.1080/00268976.2014.952696

 Q-Chem 5.2.0 for Intel X86 EM64T Linux

 Parts of Q-Chem use Armadillo 8.300.2 (Tropical Shenanigans).
 http://arma.sourceforge.net/

 Q-Chem begins on Sun Sep 26 12:25:04 2021  

Host: cori01
0

     Scratch files written to /tmp/qchem20881//Frg1//
 May1019 |scratch|qcdevops|jenkins|workspace|build_RNUM -1
Processing $rem in /global/common/cori/software/qchem/5.2/config/preferences:
	 MEM_TOTAL  96000 
NAlpha2: 58
NElect   58
Mult     1
Symmetry turned off for PCM/SM12/SMD calculation

Checking the input file for inconsistencies... 	...done.

--------------------------------------------------------------
User input:
--------------------------------------------------------------
$molecule
0 1
 6	0.0944132452	4.8585544453	-0.3239309058
 6	1.2714132452	0.7265544453	-0.9679309058
 6	0.1404132452	1.2415544453	-1.5979309058
 6	2.0194132452	1.5345544453	-0.1289309058
 6	-0.2495867548	2.5855544453	-1.3849309058
 6	1.6324132452	2.8705544453	0.0790690942
 6	0.4944132452	3.4105544453	-0.5429309058
 8	1.6194132452	-0.5804455547	-1.1669309058
 1	-0.4485867548	0.6135544453	-2.2519309058
 1	1.0694132452	-1.0004455547	-1.8389309058
 1	2.8924132452	1.1265544453	0.3590690942
 1	-1.1305867548	2.9745544453	-1.8799309058
 1	2.2194132452	3.4945544453	0.7380690942
 1	0.5104132452	5.2095544453	0.6220690942
 1	-0.9905867548	4.9045544453	-0.2509309058
 1	0.4149717452	5.5297914453	-1.1342909058
$end
$rem
EDA2		1
METHOD		WB97X-V
BASIS		DEF2-TZVPD
XC_GRID		000099000590
NL_GRID		1
UNRESTRICTED		FALSE
MAX_SCF_CYCLES		200
SYMMETRY		FALSE
SYM_IGNORE		TRUE
BASIS_LIN_DEP_THRESH		6
THRESH		14
SCF_CONVERGENCE		8
SCF_PRINT_FRGM		TRUE
SOLVENT_METHOD		SMD
!required keywords
JOBTYPE		SP
SYM_IGNORE		TRUE
SUBSYSTEM		TRUE
GEN_SCFMAN		TRUE
CHILD_INSTRUCTION		2
SYM_IGNORE		TRUE
SCFMI		0
RI_K 0		
PARI_K 0		
MIN_PARI_K 0		
IARI_K 0		
OCC_RI_K 0		
PURECART		1111
MEM_STATIC		2000
MEM_TOTAL		96000
GUI		0
CHILD_MP		1
CHILD_MP_ORDERS		232
FRZ_RELAX		0
FRZ_RELAX_METHOD		0
EDA_CLS_ELEC		1
EDA_CLS_DISP		0
FRZ_ORTHO_DECOMP		1
EDA2		FALSE
FRGM_METHOD		FALSE
CIS_N_ROOTS  0
LOCAL_CIS    0
CIS_RLX_DNS  1
$end
$smx
SOLVENT			WATER
$end
--------------------------------------------------------------
 ----------------------------------------------------------------
             Standard Nuclear Orientation (Angstroms)
    I     Atom           X                Y                Z
 ----------------------------------------------------------------
    1      C       0.0944132452     4.8585544453    -0.3239309058
    2      C       1.2714132452     0.7265544453    -0.9679309058
    3      C       0.1404132452     1.2415544453    -1.5979309058
    4      C       2.0194132452     1.5345544453    -0.1289309058
    5      C      -0.2495867548     2.5855544453    -1.3849309058
    6      C       1.6324132452     2.8705544453     0.0790690942
    7      C       0.4944132452     3.4105544453    -0.5429309058
    8      O       1.6194132452    -0.5804455547    -1.1669309058
    9      H      -0.4485867548     0.6135544453    -2.2519309058
   10      H       1.0694132452    -1.0004455547    -1.8389309058
   11      H       2.8924132452     1.1265544453     0.3590690942
   12      H      -1.1305867548     2.9745544453    -1.8799309058
   13      H       2.2194132452     3.4945544453     0.7380690942
   14      H       0.5104132452     5.2095544453     0.6220690942
   15      H      -0.9905867548     4.9045544453    -0.2509309058
   16      H       0.4149717452     5.5297914453    -1.1342909058
 ----------------------------------------------------------------
 Nuclear Repulsion Energy =         341.59060761 hartrees
 There are       29 alpha and       29 beta electrons
 Requested basis set is def2-TZVPD
 There are 145 shells and 371 basis functions

 Total QAlloc Memory Limit  96000 MB
 Mega-Array Size      1956 MB
 MEM_STATIC part      2000 MB
 
 Citation of the SMD model:
 Marenich, A.V.; Cramer, C.J.; Truhlar, D.G.
 J. Phys. Chem. B 2009, 113, 6378-6396.
 iSolventCode=           1
 Solvent: water                                                           
 
 vradii
            1           2           3           4           5           6
    1   1.8500000   1.8500000   1.8500000   1.8500000   1.8500000   1.8500000
            7           8           9          10          11          12
    1   1.8500000   1.5200000   1.2000000   1.2000000   1.2000000   1.2000000
           13          14          15          16
    1   1.2000000   1.2000000   1.2000000   1.2000000
 Changing PCM_VDW_RADII to SMD_RADIUS
 Discretize the solute cavity surface with Lebedev spheres
	Using 110 Lebedev grid points for each H atom
	Using 194 Lebedev grid points for other atoms
	Atomic van der Waals radii will be scaled by 1.20
 Remove points where switching function is < 1.0e-08
 Keep 1177 surface tesserae and discard 1255 interior tesserae
 Molecular Surface Area = 141.986 Angst**2
 A cutoff of  1.0D-14 yielded  10036 shell pairs
 There are     67020 function pairs (     85697 Cartesian)
 Smallest overlap matrix eigenvalue = 5.82E-07
 Linear dependence detected in AO basis
 Tighter screening thresholds may be required for diffuse basis sets
 Use S2THRESH > 14 and THRESH = 14 in case of SCF convergence issues
 Number of orthogonalized atomic orbitals = 370
 Maximum deviation from orthogonality = 2.803E-10

 Scale SEOQF with 1.000000e-01/1.000000e-02/1.000000e-01

 Standard Electronic Orientation quadrupole field applied
 Nucleus-field energy     =    -0.0000000001 hartrees
 Guess from superposition of atomic densities
 Warning:  Energy on first SCF cycle will be non-variational
 SAD guess density has 57.738434 electrons

 -----------------------------------------------------------------------
  General SCF calculation program by
  Eric Jon Sundstrom, Paul Horn, Yuezhi Mao, Dmitri Zuev, Alec White,
  David Stuck, Shaama M.S., Shane Yost, Joonho Lee, David Small,
  Daniel Levine, Susi Lehtola, Hugh Burton, Evgeny Epifanovsky
 -----------------------------------------------------------------------
 Exchange:     0.1670 Hartree-Fock + 1.0000 wB97X-V + LR-HF
 Correlation:  1.0000 wB97X-V
 Using Euler-Maclaurin-Lebedev (99,590) quadrature formula
 Nonlocal Correlation:  VV10 with C = 0.0100 and b = 6.00 and scale = 1.00000
 Grid used for NLC:  SG-1 standard quadrature
Energy prior to optimization (guess energy) = -346.497240244211
Begin Timing: Total SCF Calculation
begin iterations for algorithm: DIIS         
the SCF tolerance is set to 1.00e-08
    1    -346.4972402442      5.16e-03     00000 
    2    -346.4350819864      5.60e-03     00000 
    3    -346.8202725291      5.26e-04     00000 
    4    -346.8250890621      1.74e-04     00000 
    5    -346.8257798146      3.75e-05     00000 
    6    -346.8258300377      1.36e-05     00000 
    7    -346.8258348868      5.22e-06     00000 
    8    -346.8258356658      1.63e-06     00000 
    9    -346.8258357595      5.43e-07     00000 
   10    -346.8258357721      2.33e-07     00000 
   11    -346.8258357753      6.37e-08     00000 
   12    -346.8258357758      3.05e-08     00000 
   13    -346.8258357759      1.26e-08     00000 
   14    -346.8258357759      3.55e-09     00000 Convergence criterion met
Timing for Total SCF: 2129.00s (wall), 4229.61s (cpu)
(3)  G-ENP(liq) elect-nuc-pol free energy of system     -346.825835776 a.u.
(4)  G-CDS(liq) cavity-dispersion-solvent structure 
     free energy                                                3.8064 kcal/mol
(6)  G-S(liq) free energy of system                     -346.819769937 a.u.
E_pcm = -0.0175595031
E_cds = 0.0060658385
Multipole orders to be included
        2
        3
computing dipole RHS
computing quadrupole RHS
total number of RHS in solve_reponses: 8
RHS batch sizes
        8
Beginning Block Conjugate Gradient Iterations. Batch Number: 0
computing hessian-vector products by finite difference
              1      6.51e-01     00000 Conjugate Gradient Iteration
computing hessian-vector products by finite difference
              2      1.91e-01     00000 Conjugate Gradient Iteration
computing hessian-vector products by finite difference
              3      4.93e-02     00000 Conjugate Gradient Iteration
computing hessian-vector products by finite difference
              4      1.45e-02     00000 Conjugate Gradient Iteration
computing hessian-vector products by finite difference
              5      4.19e-03     00000 Conjugate Gradient Iteration
computing hessian-vector products by finite difference
              6      1.69e-03     00000 Conjugate Gradient Iteration
computing hessian-vector products by finite difference
              7      4.09e-04     00000 Conjugate Gradient Iteration
computing hessian-vector products by finite difference
              8      8.35e-05     00000 Conjugate Gradient Iteration
computing hessian-vector products by finite difference
              9      1.57e-05     00000 Conjugate Gradient Iteration
computing hessian-vector products by finite difference
             10      2.18e-06     00000 Conjugate Gradient Iteration
computing hessian-vector products by finite difference
             11      3.24e-07     00000 Conjugate Gradient Iteration
computing hessian-vector products by finite difference
             12      6.95e-08     00000 Conjugate Gradient Iteration
computing hessian-vector products by finite difference
             13      1.18e-08     00000 Conjugate Gradient Iteration
computing hessian-vector products by finite difference
             14      2.44e-09     00000 CG Converged
batch 0 complete
Done Calculating Responses
TESTING ORTHOGONALIZATION OF MULTIPOLE BASIS
Multipole virts passed orthogonality test
Virts Per Order
           87
          145
 
 --------------------------------------------------------------
 
                    Orbital Energies (a.u.)
 --------------------------------------------------------------
 
 Alpha MOs
 -- Occupied --
-19.2399 -10.3311 -10.2745 -10.2721 -10.2716 -10.2686 -10.2681 -10.2544
 -1.1884  -0.9879  -0.8963  -0.8746  -0.8047  -0.7430  -0.7071  -0.6586
 -0.5955  -0.5742  -0.5453  -0.5359  -0.5238  -0.5146  -0.5059  -0.4726
 -0.4487  -0.4385  -0.4353  -0.3462  -0.3122
 -- Virtual --
  0.0603   0.0636   0.0742   0.0818   0.0890   0.0995   0.1142   0.1157
  0.1186   0.1365   0.1510   0.1566   0.1606   0.1769   0.1813   0.1980
  0.2071   0.2094   0.2210   0.2296   0.2404   0.2454   0.2555   0.2584
  0.2676   0.2726   0.2784   0.2803   0.2867   0.2991   0.3009   0.3061
  0.3093   0.3137   0.3162   0.3288   0.3374   0.3456   0.3489   0.3531
  0.3591   0.3602   0.3651   0.3766   0.3815   0.3838   0.3862   0.3969
  0.3990   0.4001   0.4031   0.4109   0.4164   0.4240   0.4290   0.4361
  0.4397   0.4556   0.4592   0.4637   0.4761   0.4774   0.4796   0.4845
  0.4917   0.4973   0.5018   0.5067   0.5158   0.5195   0.5281   0.5397
  0.5459   0.5517   0.5533   0.5609   0.5661   0.5709   0.5870   0.6002
  0.6037   0.6077   0.6209   0.6346   0.6410   0.6594   0.6704   0.6761
  0.6780   0.6834   0.6939   0.6964   0.7014   0.7034   0.7207   0.7330
  0.7356   0.7436   0.7477   0.7538   0.7626   0.7778   0.7858   0.7898
  0.7918   0.7951   0.7987   0.8027   0.8090   0.8163   0.8341   0.8398
  0.8457   0.8516   0.8558   0.8604   0.8675   0.8791   0.8864   0.8933
  0.9049   0.9135   0.9306   0.9532   0.9609   0.9792   0.9879   1.0151
  1.0225   1.0398   1.0427   1.0531   1.0560   1.0747   1.0767   1.0892
  1.1028   1.1187   1.1363   1.1714   1.1980   1.2372   1.2637   1.2975
  1.3079   1.3098   1.3317   1.3564   1.3673   1.3886   1.3937   1.4351
  1.4588   1.4683   1.4744   1.4813   1.5317   1.5636   1.6054   1.6235
  1.6328   1.6377   1.6823   1.6884   1.7041   1.7280   1.7864   1.8085
  1.8185   1.8309   1.8370   1.8628   1.8716   1.8805   1.9250   1.9295
  1.9431   1.9551   1.9750   1.9928   2.0009   2.0368   2.0400   2.0591
  2.0605   2.0769   2.0976   2.1100   2.1165   2.1592   2.1999   2.2075
  2.2252   2.2357   2.2752   2.2842   2.2996   2.3143   2.3447   2.3685
  2.4002   2.4082   2.4360   2.4646   2.4960   2.5018   2.5229   2.5574
  2.5780   2.6008   2.6275   2.6447   2.6548   2.6681   2.6884   2.7378
  2.7547   2.7619   2.7768   2.7954   2.8223   2.8331   2.8665   2.8810
  2.9057   2.9220   2.9416   2.9487   2.9623   2.9782   2.9799   3.0053
  3.0192   3.0453   3.0680   3.0821   3.1032   3.1265   3.1529   3.1667
  3.1820   3.2019   3.2170   3.2259   3.2468   3.2578   3.2793   3.2964
  3.3253   3.3501   3.3818   3.3876   3.3903   3.4115   3.4497   3.4604
  3.4659   3.4771   3.4927   3.5125   3.5191   3.5248   3.5399   3.5457
  3.5551   3.5670   3.5807   3.5919   3.5990   3.6203   3.6472   3.6624
  3.6832   3.7057   3.7368   3.7551   3.8003   3.8199   3.8335   3.8919
  3.9324   3.9545   3.9728   3.9854   4.0360   4.0806   4.1327   4.1624
  4.2359   4.2642   4.2850   4.2986   4.3132   4.3268   4.3314   4.3525
  4.3729   4.3784   4.4266   4.4373   4.4836   4.5380   4.5939   4.6121
  4.7186   4.7273   4.7741   4.7939   4.8644   4.9247   5.0164   5.0464
  5.0804   5.1232   5.1569   5.2873   5.3153   5.4009   5.4323   5.5324
  5.6070   5.6418   5.7127   5.7609   5.9439   6.2086   6.4789   6.5829
  6.6463   6.8740   7.0083   7.3034   7.4533  22.6557  22.6799  22.9338
 22.9518  22.9978  23.1712  23.4863  44.4184
 --------------------------------------------------------------
 
          Ground-State Mulliken Net Atomic Charges

     Atom                 Charge (a.u.)
  ----------------------------------------
      1 C                    -1.071568
      2 C                     0.646334
      3 C                    -0.374910
      4 C                    -0.783514
      5 C                    -0.614308
      6 C                    -0.464740
      7 C                     0.486155
      8 O                    -0.544166
      9 H                     0.369978
     10 H                     0.329921
     11 H                     0.402172
     12 H                     0.396968
     13 H                     0.387289
     14 H                     0.300155
     15 H                     0.289362
     16 H                     0.244873
  ----------------------------------------
  Sum of atomic charges =     0.000000

 -----------------------------------------------------------------
                    Cartesian Multipole Moments
 -----------------------------------------------------------------
    Charge (ESU x 10^10)
                 0.0000
    Dipole Moment (Debye)
         X      -1.5892      Y       0.4723      Z      -1.2424
       Tot       2.0717
    Quadrupole Moments (Debye-Ang)
        XX     -49.8136     XY       0.1403     YY     -41.0744
        XZ       4.7610     YZ       3.2759     ZZ     -44.0652
    Octopole Moments (Debye-Ang^2)
       XXX    -126.0522    XXY     -96.8236    XYY     -42.1515
       YYY    -278.5197    XXZ      45.3802    XYZ      11.1365
       YYZ      35.7763    XZZ     -44.9165    YZZ    -110.7378
       ZZZ      98.2298
    Hexadecapole Moments (Debye-Ang^3)
      XXXX    -489.2982   XXXY    -153.6825   XXYY    -445.1222
      XYYY    -155.1304   YYYY   -2071.5736   XXXZ      79.0763
      XXYZ      63.3100   XYYZ      45.0286   YYYZ     160.3209
      XXZZ    -141.3481   XYZZ     -67.1266   YYZZ    -419.7042
      XZZZ      54.0252   YZZZ     175.3663   ZZZZ    -324.9746
 -----------------------------------------------------------------
Archival summary:
1\1\nid00556\SP\ProcedureUnspecified\BasisUnspecified\178\meili\SunSep2623:17:022021SunSep2623:17:022021\0\\#,ProcedureUnspecified,BasisUnspecified,\\0,1\C\O,1,1.3671\H,2,0.964616,1,111.872\C,1,1.3843,2,120.578,3,-174.251,0\H,4,1.08016,1,119.345,2,0.850697,0\C,1,1.3933,2,119.616,3,6.86063,0\H,6,1.08121,1,120.067,2,-0.930606,0\C,4,1.40639,1,119.698,2,-178.991,0\H,8,1.08085,4,119.285,1,179.798,0\C,8,1.40482,4,121.505,1,0.251847,0\C,10,1.39396,8,118.184,4,-0.23516,0\H,11,1.08282,10,119.852,8,-179.87,0\C,10,1.51811,8,121.078,4,-179.299,0\H,13,1.08843,10,108.219,8,-141.05,0\H,13,1.09141,10,109.351,8,-23.6935,0\H,13,1.1,10,113.514,8,98.6945,0\\\@

 Total job time:  39120.92s(wall), 77836.60s(cpu) 
 Sun Sep 26 23:17:05 2021

        *************************************************************
        *                                                           *
        *  Thank you very much for using Q-Chem.  Have a nice day.  *
        *                                                           *
        *************************************************************


Done Job For Fragment 0
calling putenv with: QCSCRATCH=/global/cscratch1/sd/meili 
calling putenv with: QCLOCALSCR=/tmp 
calling putenv with: QCTHREADS=32 
Creating input file /tmp/qchem20881/Frg2.input
using default PutDataFrgm: nothing
calling putenv with: QCSCRATCH=/tmp/qchem20881/ 
calling putenv with: QCLOCALSCR=/tmp/qchem20881/ 
Spawning Job For Fragment 1
                  Welcome to Q-Chem
     A Quantum Leap Into The Future Of Chemistry


 Q-Chem 5.2, Q-Chem, Inc., Pleasanton, CA (2019)

 License issued to: National Energy Research Scientific Computing Center

 Yihan Shao,  Zhengting Gan,  E. Epifanovsky,  A. T. B. Gilbert,  M. Wormit,  
 J. Kussmann,  A. W. Lange,  A. Behn,  Jia Deng,  Xintian Feng,  D. Ghosh,  
 M. Goldey,  P. R. Horn,  L. D. Jacobson,  I. Kaliman,  T. Kus,  A. Landau,  
 Jie Liu,  E. I. Proynov,  R. M. Richard,  R. P. Steele,  E. J. Sundstrom,  
 H. L. Woodcock III,  P. M. Zimmerman,  D. Zuev,  B. Albrecht,  E. Alguire,  
 S. A. Baeppler,  D. Barton,  Z. Benda,  Y. A. Bernard,  E. J. Berquist,  
 K. B. Bravaya,  H. Burton,  D. Casanova,  Chun-Min Chang,  Yunqing Chen,  
 A. Chien,  K. D. Closser,  M. P. Coons,  S. Coriani,  S. Dasgupta,  
 A. L. Dempwolff,  M. Diedenhofen,  Hainam Do,  R. G. Edgar,  Po-Tung Fang,  
 S. Faraji,  S. Fatehi,  Qingguo Feng,  K. D. Fenk,  J. Fosso-Tande,  
 J. Gayvert,  Qinghui Ge,  A. Ghysels,  G. Gidofalvi,  J. Gomes,  
 J. Gonthier,  A. Gunina,  D. Hait,  M. W. D. Hanson-Heine,  
 P. H. P. Harbach,  A. W. Hauser,  M. F. Herbst,  J. E. Herr,  
 E. G. Hohenstein,  Z. C. Holden,  Kerwin Hui,  B. C. Huynh,  T.-C. Jagau,  
 Hyunjun Ji,  B. Kaduk,  K. Khistyaev,  Jaehoon Kim,  P. Klunzinger,  K. Koh,  
 D. Kosenkov,  L. Koulias,  T. Kowalczyk,  C. M. Krauter,  A. Kunitsa,  
 Ka Un Lao,  A. Laurent,  K. V. Lawler,  Joonho Lee,  D. Lefrancois,  
 S. Lehtola,  D. S. Levine,  Yi-Pei Li,  You-Sheng Lin,  Fenglai Liu,  
 E. Livshits,  A. Luenser,  P. Manohar,  E. Mansoor,  S. F. Manzer,  
 Shan-Ping Mao,  Yuezhi Mao,  N. Mardirossian,  A. V. Marenich,  
 T. Markovich,  L. A. Martinez-Martinez,  S. A. Maurer,  N. J. Mayhall,  
 S. C. McKenzie,  J.-M. Mewes,  P. Morgante,  A. F. Morrison,  
 J. W. Mullinax,  K. Nanda,  T. S. Nguyen-Beck,  R. Olivares-Amaya,  
 J. A. Parkhill,  Zheng Pei,  T. M. Perrine,  F. Plasser,  P. Pokhilko,  
 S. Prager,  A. Prociuk,  E. Ramos,  D. R. Rehn,  F. Rob,  M. Scheurer,  
 M. Schneider,  N. Sergueev,  S. M. Sharada,  S. Sharma,  D. W. Small,  
 T. Stauch,  T. Stein,  Yu-Chuan Su,  A. J. W. Thom,  A. Tkatchenko,  
 T. Tsuchimochi,  N. M. Tubman,  L. Vogt,  M. L. Vidal,  O. Vydrov,  
 M. A. Watson,  J. Wenzel,  M. de Wergifosse,  T. A. Wesolowski,  A. White,  
 J. Witte,  A. Yamada,  Jun Yang,  K. Yao,  S. Yeganeh,  S. R. Yost,  
 Zhi-Qiang You,  A. Zech,  Igor Ying Zhang,  Xing Zhang,  Yan Zhao,  
 Ying Zhu,  B. R. Brooks,  G. K. L. Chan,  C. J. Cramer,  M. S. Gordon,  
 W. J. Hehre,  A. Klamt,  M. W. Schmidt,  C. D. Sherrill,  D. G. Truhlar,  
 A. Aspuru-Guzik,  R. Baer,  A. T. Bell,  N. A. Besley,  Jeng-Da Chai,  
 A. E. DePrince, III,  R. A. DiStasio Jr.,  A. Dreuw,  B. D. Dunietz,  
 T. R. Furlani,  Chao-Ping Hsu,  Yousung Jung,  Jing Kong,  D. S. Lambrecht,  
 WanZhen Liang,  C. Ochsenfeld,  V. A. Rassolov,  L. V. Slipchenko,  
 J. E. Subotnik,  T. Van Voorhis,  J. M. Herbert,  A. I. Krylov,  
 P. M. W. Gill,  M. Head-Gordon

 Contributors to earlier versions of Q-Chem not listed above: 
 R. D. Adamson,  B. Austin,  J. Baker,  G. J. O. Beran,  K. Brandhorst,  
 S. T. Brown,  E. F. C. Byrd,  A. K. Chakraborty,  C.-L. Cheng,  
 Siu Hung Chien,  D. M. Chipman,  D. L. Crittenden,  H. Dachsel,  
 R. J. Doerksen,  A. D. Dutoi,  L. Fusti-Molnar,  W. A. Goddard III,  
 A. Golubeva-Zadorozhnaya,  S. R. Gwaltney,  G. Hawkins,  A. Heyden,  
 S. Hirata,  G. Kedziora,  F. J. Keil,  C. Kelley,  Jihan Kim,  R. A. King,  
 R. Z. Khaliullin,  P. P. Korambath,  W. Kurlancheek,  A. M. Lee,  M. S. Lee,  
 S. V. Levchenko,  Ching Yeh Lin,  D. Liotard,  R. C. Lochan,  I. Lotan,  
 P. E. Maslen,  N. Nair,  D. P. O'Neill,  D. Neuhauser,  E. Neuscamman,  
 C. M. Oana,  R. Olson,  B. Peters,  R. Peverati,  P. A. Pieniazek,  
 Y. M. Rhee,  J. Ritchie,  M. A. Rohrdanz,  E. Rosta,  N. J. Russ,  
 H. F. Schaefer III,  N. E. Schultz,  N. Shenvi,  A. C. Simmonett,  A. Sodt,  
 D. Stuck,  K. S. Thanthiriwatte,  V. Vanovschi,  Tao Wang,  A. Warshel,  
 C. F. Williams,  Q. Wu,  X. Xu,  W. Zhang

 Please cite Q-Chem as follows:
 Y. Shao et al., Mol. Phys. 113, 184-215 (2015)
 DOI: 10.1080/00268976.2014.952696

 Q-Chem 5.2.0 for Intel X86 EM64T Linux

 Parts of Q-Chem use Armadillo 8.300.2 (Tropical Shenanigans).
 http://arma.sourceforge.net/

 Q-Chem begins on Sun Sep 26 23:17:09 2021  

Host: cori01
0

     Scratch files written to /tmp/qchem20881//Frg2//
 May1019 |scratch|qcdevops|jenkins|workspace|build_RNUM -1
Processing $rem in /global/common/cori/software/qchem/5.2/config/preferences:
	 MEM_TOTAL  96000 
NAlpha2: 48
NElect   48
Mult     1
Symmetry turned off for PCM/SM12/SMD calculation

Checking the input file for inconsistencies... 	...done.

--------------------------------------------------------------
User input:
--------------------------------------------------------------
$molecule
1 1
 6	-1.0565867548	-1.0634455547	1.3060690942
 6	-2.1425867548	-0.1094455547	1.7480690942
 6	-0.8325867548	-3.4374455547	0.6580690942
 7	-1.5755867548	-2.4174455547	1.0690690942
 7	0.4544132452	-3.2694455547	0.4300690942
 7	-1.3665867548	-4.6264455547	0.4640690942
 1	-0.6195867548	-0.6744455547	0.3860690942
 1	-0.2885867548	-1.1014455547	2.0830690942
 1	-2.6195867548	-0.5394455547	2.6290690942
 1	-2.8885867548	-0.0174455547	0.9570690942
 1	-2.5575867548	-2.5874455547	1.2310690942
 1	0.8694132452	-2.3604455547	0.5550690942
 1	1.0054132452	-4.0184455547	0.0440690942
 1	-2.3515867548	-4.7694455547	0.6260690942
 1	-0.8065867548	-5.3964455547	0.1380690942
 1	-1.7408737548	0.8866014453	1.9858030942
$end
$rem
EDA2		1
METHOD		WB97X-V
BASIS		DEF2-TZVPD
XC_GRID		000099000590
NL_GRID		1
UNRESTRICTED		FALSE
MAX_SCF_CYCLES		200
SYMMETRY		FALSE
SYM_IGNORE		TRUE
BASIS_LIN_DEP_THRESH		6
THRESH		14
SCF_CONVERGENCE		8
SCF_PRINT_FRGM		TRUE
SOLVENT_METHOD		SMD
!required keywords
JOBTYPE		SP
SYM_IGNORE		TRUE
SUBSYSTEM		TRUE
GEN_SCFMAN		TRUE
CHILD_INSTRUCTION		2
SYM_IGNORE		TRUE
SCFMI		0
RI_K 0		
PARI_K 0		
MIN_PARI_K 0		
IARI_K 0		
OCC_RI_K 0		
PURECART		1111
MEM_STATIC		2000
MEM_TOTAL		96000
GUI		0
CHILD_MP		1
CHILD_MP_ORDERS		232
FRZ_RELAX		0
FRZ_RELAX_METHOD		0
EDA_CLS_ELEC		1
EDA_CLS_DISP		0
FRZ_ORTHO_DECOMP		1
EDA2		FALSE
FRGM_METHOD		FALSE
CIS_N_ROOTS  0
LOCAL_CIS    0
CIS_RLX_DNS  1
$end
$smx
SOLVENT			WATER
$end
--------------------------------------------------------------
 ----------------------------------------------------------------
             Standard Nuclear Orientation (Angstroms)
    I     Atom           X                Y                Z
 ----------------------------------------------------------------
    1      C      -1.0565867548    -1.0634455547     1.3060690942
    2      C      -2.1425867548    -0.1094455547     1.7480690942
    3      C      -0.8325867548    -3.4374455547     0.6580690942
    4      N      -1.5755867548    -2.4174455547     1.0690690942
    5      N       0.4544132452    -3.2694455547     0.4300690942
    6      N      -1.3665867548    -4.6264455547     0.4640690942
    7      H      -0.6195867548    -0.6744455547     0.3860690942
    8      H      -0.2885867548    -1.1014455547     2.0830690942
    9      H      -2.6195867548    -0.5394455547     2.6290690942
   10      H      -2.8885867548    -0.0174455547     0.9570690942
   11      H      -2.5575867548    -2.5874455547     1.2310690942
   12      H       0.8694132452    -2.3604455547     0.5550690942
   13      H       1.0054132452    -4.0184455547     0.0440690942
   14      H      -2.3515867548    -4.7694455547     0.6260690942
   15      H      -0.8065867548    -5.3964455547     0.1380690942
   16      H      -1.7408737548     0.8866014453     1.9858030942
 ----------------------------------------------------------------
 Nuclear Repulsion Energy =         256.79240817 hartrees
 There are       24 alpha and       24 beta electrons
 Requested basis set is def2-TZVPD
 There are 128 shells and 312 basis functions

 Total QAlloc Memory Limit  96000 MB
 Mega-Array Size      1956 MB
 MEM_STATIC part      2000 MB
 
 Citation of the SMD model:
 Marenich, A.V.; Cramer, C.J.; Truhlar, D.G.
 J. Phys. Chem. B 2009, 113, 6378-6396.
 iSolventCode=           1
 Solvent: water                                                           
 
 vradii
            1           2           3           4           5           6
    1   1.8500000   1.8500000   1.8500000   1.8900000   1.8900000   1.8900000
            7           8           9          10          11          12
    1   1.2000000   1.2000000   1.2000000   1.2000000   1.2000000   1.2000000
           13          14          15          16
    1   1.2000000   1.2000000   1.2000000   1.2000000
 Changing PCM_VDW_RADII to SMD_RADIUS
 Discretize the solute cavity surface with Lebedev spheres
	Using 110 Lebedev grid points for each H atom
	Using 194 Lebedev grid points for other atoms
	Atomic van der Waals radii will be scaled by 1.20
 Remove points where switching function is < 1.0e-08
 Keep 1110 surface tesserae and discard 1154 interior tesserae
 Molecular Surface Area = 133.093 Angst**2
 A cutoff of  1.0D-14 yielded   7894 shell pairs
 There are     47560 function pairs (     59265 Cartesian)
 Smallest overlap matrix eigenvalue = 7.26E-06

 Scale SEOQF with 1.000000e-01/1.000000e-02/1.000000e-01

 Standard Electronic Orientation quadrupole field applied
 Nucleus-field energy     =     0.0000000003 hartrees
 Guess from superposition of atomic densities
 Warning:  Energy on first SCF cycle will be non-variational
 SAD guess density has 48.375862 electrons

 -----------------------------------------------------------------------
  General SCF calculation program by
  Eric Jon Sundstrom, Paul Horn, Yuezhi Mao, Dmitri Zuev, Alec White,
  David Stuck, Shaama M.S., Shane Yost, Joonho Lee, David Small,
  Daniel Levine, Susi Lehtola, Hugh Burton, Evgeny Epifanovsky
 -----------------------------------------------------------------------
 Exchange:     0.1670 Hartree-Fock + 1.0000 wB97X-V + LR-HF
 Correlation:  1.0000 wB97X-V
 Using Euler-Maclaurin-Lebedev (99,590) quadrature formula
 Nonlocal Correlation:  VV10 with C = 0.0100 and b = 6.00 and scale = 1.00000
 Grid used for NLC:  SG-1 standard quadrature
Energy prior to optimization (guess energy) = -284.036897524379
Begin Timing: Total SCF Calculation
begin iterations for algorithm: DIIS         
the SCF tolerance is set to 1.00e-08
    1    -284.0368975244      6.61e-03     00000 
    2    -284.2800794037      5.19e-03     00000 
    3    -284.5249434941      3.09e-04     00000 
    4    -284.5262194756      1.62e-04     00000 
    5    -284.5265410353      4.54e-05     00000 
    6    -284.5265684605      1.84e-05     00000 
    7    -284.5265729377      3.25e-06     00000 
    8    -284.5265732395      8.95e-07     00000 
    9    -284.5265732602      4.35e-07     00000 
   10    -284.5265732647      1.07e-07     00000 
   11    -284.5265732651      4.92e-08     00000 
   12    -284.5265732652      1.36e-08     00000 
   13    -284.5265732652      2.07e-09     00000 Convergence criterion met
Timing for Total SCF: 1216.00s (wall), 2419.80s (cpu)
(3)  G-ENP(liq) elect-nuc-pol free energy of system     -284.526573265 a.u.
(4)  G-CDS(liq) cavity-dispersion-solvent structure 
     free energy                                                2.7217 kcal/mol
(6)  G-S(liq) free energy of system                     -284.522236018 a.u.
E_pcm = -0.1064662601
E_cds = 0.0043372469
Multipole orders to be included
        2
        3
computing dipole RHS
computing quadrupole RHS
total number of RHS in solve_reponses: 8
RHS batch sizes
        8
Beginning Block Conjugate Gradient Iterations. Batch Number: 0
computing hessian-vector products by finite difference
              1      4.80e-01     00000 Conjugate Gradient Iteration
computing hessian-vector products by finite difference
              2      1.84e-01     00000 Conjugate Gradient Iteration
computing hessian-vector products by finite difference
              3      4.99e-02     00000 Conjugate Gradient Iteration
computing hessian-vector products by finite difference
              4      1.43e-02     00000 Conjugate Gradient Iteration
computing hessian-vector products by finite difference
              5      2.18e-03     00000 Conjugate Gradient Iteration
computing hessian-vector products by finite difference
              6      4.09e-04     00000 Conjugate Gradient Iteration
computing hessian-vector products by finite difference
              7      6.77e-05     00000 Conjugate Gradient Iteration
computing hessian-vector products by finite difference
              8      1.27e-05     00000 Conjugate Gradient Iteration
computing hessian-vector products by finite difference
              9      1.75e-06     00000 Conjugate Gradient Iteration
computing hessian-vector products by finite difference
             10      2.32e-07     00000 Conjugate Gradient Iteration
computing hessian-vector products by finite difference
             11      2.57e-08     00000 Conjugate Gradient Iteration
computing hessian-vector products by finite difference
             12      2.81e-09     00000 CG Converged
batch 0 complete
Done Calculating Responses
TESTING ORTHOGONALIZATION OF MULTIPOLE BASIS
Multipole virts passed orthogonality test
Virts Per Order
           72
          120
 
 --------------------------------------------------------------
 
                    Orbital Energies (a.u.)
 --------------------------------------------------------------
 
 Alpha MOs
 -- Occupied --
-14.4528 -14.4473 -14.4451 -10.4218 -10.3094 -10.2602  -1.1735  -1.0577
 -1.0423  -0.9007  -0.7829  -0.7573  -0.7200  -0.6831  -0.6155  -0.6099
 -0.6065  -0.5750  -0.5539  -0.4988  -0.4704  -0.4654  -0.3993  -0.3753
 -- Virtual --
  0.0595   0.0822   0.0875   0.1030   0.1136   0.1213   0.1279   0.1323
  0.1555   0.1640   0.1691   0.1870   0.1961   0.1981   0.2102   0.2131
  0.2179   0.2257   0.2330   0.2466   0.2570   0.2586   0.2697   0.2731
  0.2749   0.2863   0.2891   0.2977   0.3084   0.3233   0.3291   0.3344
  0.3374   0.3493   0.3498   0.3514   0.3554   0.3580   0.3721   0.3748
  0.3830   0.3891   0.3913   0.4041   0.4054   0.4102   0.4275   0.4284
  0.4361   0.4448   0.4587   0.4603   0.4738   0.4771   0.4858   0.4876
  0.4894   0.5036   0.5076   0.5105   0.5194   0.5283   0.5302   0.5385
  0.5435   0.5516   0.5598   0.5619   0.5702   0.5806   0.5879   0.6008
  0.6053   0.6163   0.6357   0.6586   0.6630   0.6714   0.6788   0.6880
  0.6915   0.7059   0.7132   0.7419   0.7507   0.7631   0.7661   0.7752
  0.7866   0.7974   0.7984   0.8112   0.8271   0.8337   0.8462   0.8564
  0.8622   0.8735   0.8912   0.9038   0.9229   0.9259   0.9327   0.9352
  0.9546   0.9914   1.0043   1.0156   1.0377   1.0551   1.0732   1.0908
  1.1015   1.1122   1.1165   1.1513   1.1688   1.1776   1.1872   1.2113
  1.2135   1.2626   1.2826   1.3168   1.3408   1.3769   1.3929   1.4119
  1.4417   1.4543   1.4660   1.5115   1.5124   1.5511   1.5762   1.5990
  1.6781   1.6881   1.7044   1.7205   1.7567   1.8243   1.8385   1.8777
  1.8871   1.8933   1.9258   1.9321   1.9450   1.9466   1.9720   1.9845
  1.9903   2.0082   2.0468   2.0634   2.0816   2.1249   2.1305   2.1483
  2.1950   2.2094   2.2315   2.2553   2.2654   2.2905   2.3187   2.3348
  2.4098   2.4149   2.4171   2.4459   2.4723   2.5211   2.5569   2.5608
  2.5888   2.5957   2.6358   2.6396   2.6589   2.6789   2.6842   2.7283
  2.7502   2.7771   2.7890   2.8162   2.8364   2.8625   2.8761   2.9009
  2.9050   2.9310   2.9460   2.9757   3.0099   3.0593   3.1185   3.1547
  3.1624   3.1763   3.1935   3.2020   3.2455   3.2533   3.2811   3.2968
  3.3173   3.3356   3.3436   3.3543   3.3973   3.4035   3.4253   3.4357
  3.4782   3.5086   3.5139   3.5431   3.5731   3.6089   3.6429   3.6541
  3.6988   3.7149   3.7308   3.8220   3.9088   3.9290   3.9444   3.9823
  4.0218   4.0759   4.1247   4.1740   4.1969   4.2953   4.3172   4.3341
  4.3434   4.3679   4.3834   4.4278   4.5544   4.5697   4.6338   4.6784
  4.6904   4.8293   4.8481   4.8694   4.8752   4.9666   4.9941   5.0221
  5.0670   5.0723   5.1345   5.1458   5.1490   5.2212   5.2254   5.2273
  5.2996   5.3877   5.4095   5.4297   5.4578   5.4783   5.5093   5.5525
  5.6049   5.6830   5.7314   5.8265   5.8662   5.9422   6.1678   6.2119
  6.4207   6.5051  22.6432  22.8705  23.6939  32.3494  32.5139  32.9210
 --------------------------------------------------------------
 
          Ground-State Mulliken Net Atomic Charges

     Atom                 Charge (a.u.)
  ----------------------------------------
      1 C                    -0.295275
      2 C                    -1.162032
      3 C                     0.384696
      4 N                    -0.083016
      5 N                    -0.269061
      6 N                    -0.300442
      7 H                     0.319156
      8 H                     0.312219
      9 H                     0.294329
     10 H                     0.290257
     11 H                     0.286294
     12 H                     0.221332
     13 H                     0.238877
     14 H                     0.248260
     15 H                     0.241659
     16 H                     0.272745
  ----------------------------------------
  Sum of atomic charges =     1.000000

 -----------------------------------------------------------------
                    Cartesian Multipole Moments
 -----------------------------------------------------------------
    Charge (ESU x 10^10)
                 4.8032
    Dipole Moment (Debye)
         X      -4.1976      Y     -15.7088      Z       3.1531
       Tot      16.5629
    Quadrupole Moments (Debye-Ang)
        XX     -20.2375     XY      13.9109     YY      30.7546
        XZ      -6.1775     YZ      -5.5875     ZZ     -34.6702
    Octopole Moments (Debye-Ang^2)
       XXX      86.8253    XXY      30.9903    XYY     -19.6416
       YYY     -55.9363    XXZ     -20.1795    XYZ      17.4669
       YYZ     -21.2028    XZZ      34.9665    YZZ      89.1616
       ZZZ    -104.9536
    Hexadecapole Moments (Debye-Ang^3)
      XXXX    -390.6434   XXXY     -94.2807   XXYY    -172.3596
      XYYY      64.4817   YYYY    -279.8286   XXXZ     115.1353
      XXYZ       8.5132   XYYZ     -10.0339   YYYZ     130.2640
      XXZZ    -120.9702   XYZZ     -62.6369   YYZZ    -382.3757
      XZZZ     148.1825   YZZZ     174.3255   ZZZZ    -314.9735
 -----------------------------------------------------------------
Archival summary:
1\1\nid00556\SP\ProcedureUnspecified\BasisUnspecified\3310(1+,1)\meili\MonSep2705:05:112021MonSep2705:05:112021\0\\#,ProcedureUnspecified,BasisUnspecified,\\1,1\N\H,1,1.00969\C,1,1.32717,2,117.696\N,3,1.31777,1,120.809,2,0.324413,0\H,4,1.00637,3,120.834,1,178.997,0\H,4,1.00842,3,120.008,1,0.134824,0\N,3,1.31779,1,120.156,2,179.908,0\H,7,1.00678,3,120.397,1,-174.783,0\H,7,1.00704,3,119.74,1,-0.952058,0\C,1,1.4693,2,118.217,3,-179.782,0\H,10,1.09027,1,109.528,2,-120.961,0\H,10,1.09316,1,109.316,2,119.303,0\C,10,1.51158,1,112.024,2,-1.11069,0\H,13,1.09022,10,107.56,1,55.4848,0\H,13,1.09117,10,109.416,1,-62.3767,0\H,13,1.1,10,111.858,1,176.399,0\\\@

 Total job time:  20884.05s(wall), 41506.51s(cpu) 
 Mon Sep 27 05:05:13 2021

        *************************************************************
        *                                                           *
        *  Thank you very much for using Q-Chem.  Have a nice day.  *
        *                                                           *
        *************************************************************


Done Job For Fragment 1
calling putenv with: QCSCRATCH=/global/cscratch1/sd/meili 
calling putenv with: QCLOCALSCR=/tmp 
calling putenv with: QCTHREADS=32 
Doing General SCFMI
 Exchange:     0.1670 Hartree-Fock + 1.0000 wB97X-V + LR-HF
 Correlation:  1.0000 wB97X-V
 Using Euler-Maclaurin-Lebedev (99,590) quadrature formula
 Nonlocal Correlation:  VV10 with C = 0.0100 and b = 6.00 and scale = 1.00000
 Grid used for NLC:  SG-1 standard quadrature
performing fock build before subrot guess so that all methods have access
Printing subrot_rss_gen Method Specification:
Occupied Subspace Method is 0
Virtual Subspace Method is 0
Energy of the unrelaxed supersystem initial determinant -631.237739362730
performing fock build before subrot guess so that all methods have access
Printing subrot_rss_gen Method Specification:
Occupied Subspace Method is 0
Virtual Subspace Method is 0
Energy of the unrelaxed supersystem initial determinant w/ solvent -631.355135394254
write pseudocanon occs and virts to disk
write pseudocanon orbital energies to disk
Tolerance of ortho_decomp_scf: 1.00e-06
GDM subspace size: 20
Beginning the Orthogonal Decomposition of the Initial Supersystem Wavefunction
    1    -631.2113428089      2.30e-02     ortho_decomp Preconditoned Steepest Descent
    2    -631.2134730448      5.67e-04     ortho_decomp BFGS Step
    3    -631.2134795306      3.71e-05     ortho_decomp BFGS Step
    4    -631.2134795379      1.29e-06     ortho_decomp BFGS Step
    5    -631.2134795379      3.70e-08     ortho_decomp 00000 Convergence criterion met
 Hartree-Fock
 Hartree-Fock
 Hartree-Fock
Doing General SCFMI
 Exchange:     0.1670 Hartree-Fock + 1.0000 wB97X-V + LR-HF
 Correlation:  1.0000 wB97X-V
 Using Euler-Maclaurin-Lebedev (99,590) quadrature formula
 Nonlocal Correlation:  VV10 with C = 0.0100 and b = 6.00 and scale = 1.00000
 Grid used for NLC:  SG-1 standard quadrature
performing fock build at end of subrot_r(subrot) constructor so that all methods have access
<S^2> of initial wavefunction before polarization iterations 0.0000000000
Beginning iterations for the determination of the polarized wavefunction
Energy prior to optimization (guess energy) = -631.355135394254
Begin Timing: Total SCF Calculation
begin iterations for algorithm: DIIS         
the SCF tolerance is set to 1.00e-08
    1    -631.3551353943      3.96e-05     00000 
    2    -631.3553122712      2.03e-05     00000 
    3    -631.3553347425      1.13e-05     00000 
    4    -631.3553432768      3.01e-06     00000 
    5    -631.3553441830      1.62e-06     00000 
    6    -631.3553444996      6.99e-07     00000 
    7    -631.3553445404      3.86e-07     00000 
    8    -631.3553445482      1.58e-07     00000 
    9    -631.3553445494      7.69e-08     00000 
   10    -631.3553445498      3.66e-08     00000 
   11    -631.3553445500      1.28e-08     00000 
   12    -631.3553445500      5.28e-09     00000 Convergence criterion met
write pseudocanon occs and virts to disk
write pseudocanon orbital energies to disk
Timing for Total SCF: 9949.00s (wall), 19821.76s (cpu)
<S^2> of polarized wavefunction after polarization iterations 0.0000000000
relaxing scfmi constraint to allow all rotations in the entire AO span
Doing General SCFMI
 Exchange:     0.1670 Hartree-Fock + 1.0000 wB97X-V + LR-HF
 Correlation:  1.0000 wB97X-V
 Using Euler-Maclaurin-Lebedev (99,590) quadrature formula
 Nonlocal Correlation:  VV10 with C = 0.0100 and b = 6.00 and scale = 1.00000
 Grid used for NLC:  SG-1 standard quadrature
performing fock build at end of subrot_r(subrot) constructor so that all methods have access
<S^2> of polarized wavefunction before ct-allowed iterations 0.0000000000
Beginning iterations for the determination of the CT-Allowed wavefunction
Energy prior to optimization (guess energy) = -631.355344549987
Begin Timing: Total SCF Calculation
begin iterations for algorithm: DIIS         
the SCF tolerance is set to 1.00e-08
    1    -631.3553445500      6.32e-05     00000 
    2    -631.3562493898      6.62e-06     00000 
    3    -631.3562764770      1.34e-06     00000 
    4    -631.3562773846      1.05e-06     00000 
    5    -631.3562775801      1.56e-07     00000 
    6    -631.3562775931      7.22e-08     00000 
    7    -631.3562775949      1.51e-08     00000 
    8    -631.3562775951      8.35e-09     00000 Convergence criterion met
write pseudocanon occs and virts to disk
write pseudocanon orbital energies to disk
Timing for Total SCF: 6433.00s (wall), 12814.96s (cpu)
<S^2> of ct_allowed wavefunction after ct-allowed iterations 0.0000000000

================================
        Results of EDA2         
================================
Basic EDA Quantities
--------------------
Fragment Energies (Ha):
1 -346.8197699374
2 -284.5222360183
--------------------
  E_prp (kJ/mol) = 0.0000
  E_sol (kJ/mol) = 15.4534
  E_frz (kJ/mol) = -24.5647
  E_pol (kJ/mol) = -0.5491
  E_vct (kJ/mol) = -2.4497
  E_int (kJ/mol) = -12.1102
--------------------


Initial Wavefunction Decomposition
--------------------
  --------------------
  Orthogonal Fragment Subspace Decomposition:
  --------------------
     E_elec   (ELEC)   (kJ/mol) = -38.1046
     E_pauli  (PAULI)  (kJ/mol) = 30.1782
     E_disp   (DISP)   (kJ/mol) = -16.6384
     --------------------
     Terms summing to E_pauli:
     --------------------
        E_kep_pauli       (kJ/mol) = 39.1302
        E_disp_free_pauli (kJ/mol) = -8.9520
  --------------------
  Classical Frozen Decomposition:
  --------------------
     E_cls_elec  (CLS ELEC)  (kJ/mol) = -25.1700
     E_cls_pauli (CLS PAULI) (kJ/mol) = 0.6053
    [E_mod_pauli (MOD PAULI) (kJ/mol) = 17.2437 (CLS PAULI - DISP from orthogonal decomposition) ]
  --------------------
--------------------

Simplified EDA Summary (kJ/mol)
--------------------
 PREPARATION     0.0000
 SOLVATION       15.4534
 FROZEN          -7.9263      (does not include dispersion)
[PAULI           30.1782]     (if this is negligible, then frozen describes electrostatics)
 DISPERSION      -16.6384
 POLARIZATION    -0.5491
 CHARGE TRANSFER -2.4497
 TOTAL           -12.1102     (PRP + SOL + FRZ + DISP + POL + CT)
--------------------
 
 --------------------------------------------------------------
 
                    Orbital Energies (a.u.)
 --------------------------------------------------------------
 
 Alpha MOs
 -- Occupied --
-19.2423 -14.4523 -14.4461 -14.4448 -10.4212 -10.3327 -10.3083 -10.2760
-10.2736 -10.2731 -10.2704 -10.2698 -10.2602 -10.2554  -1.1907  -1.1730
 -1.0572  -1.0417  -0.9895  -0.9004  -0.8977  -0.8762  -0.8061  -0.7825
 -0.7568  -0.7447  -0.7197  -0.7087  -0.6828  -0.6603  -0.6151  -0.6100
 -0.6067  -0.5970  -0.5757  -0.5751  -0.5543  -0.5467  -0.5368  -0.5253
 -0.5162  -0.5075  -0.4985  -0.4739  -0.4697  -0.4645  -0.4501  -0.4401
 -0.4368  -0.3984  -0.3748  -0.3475  -0.3138
 -- Virtual --
  0.0548   0.0574   0.0671   0.0715   0.0798   0.0845   0.0893   0.0978
  0.1006   0.1041   0.1104   0.1133   0.1169   0.1287   0.1350   0.1374
  0.1419   0.1485   0.1529   0.1547   0.1618   0.1719   0.1767   0.1805
  0.1881   0.1902   0.1928   0.2008   0.2021   0.2049   0.2138   0.2165
  0.2220   0.2254   0.2322   0.2333   0.2370   0.2414   0.2490   0.2510
  0.2563   0.2620   0.2647   0.2654   0.2701   0.2716   0.2735   0.2775
  0.2853   0.2878   0.2904   0.2910   0.2946   0.3008   0.3036   0.3082
  0.3117   0.3163   0.3171   0.3198   0.3226   0.3250   0.3293   0.3305
  0.3369   0.3400   0.3434   0.3460   0.3492   0.3534   0.3553   0.3615
  0.3622   0.3651   0.3695   0.3710   0.3737   0.3768   0.3825   0.3845
  0.3884   0.3912   0.3938   0.3964   0.4000   0.4021   0.4066   0.4103
  0.4155   0.4175   0.4194   0.4252   0.4295   0.4326   0.4347   0.4404
  0.4437   0.4478   0.4509   0.4549   0.4558   0.4580   0.4598   0.4678
  0.4719   0.4742   0.4777   0.4803   0.4815   0.4880   0.4906   0.4961
  0.4987   0.5007   0.5029   0.5065   0.5108   0.5157   0.5188   0.5208
  0.5248   0.5281   0.5309   0.5314   0.5340   0.5363   0.5403   0.5477
  0.5515   0.5543   0.5586   0.5601   0.5653   0.5704   0.5716   0.5772
  0.5817   0.5894   0.5923   0.5944   0.5977   0.6010   0.6031   0.6145
  0.6173   0.6184   0.6225   0.6267   0.6299   0.6370   0.6401   0.6450
  0.6491   0.6568   0.6648   0.6705   0.6746   0.6791   0.6845   0.6874
  0.6892   0.6948   0.6988   0.7007   0.7084   0.7141   0.7206   0.7237
  0.7355   0.7385   0.7431   0.7469   0.7543   0.7561   0.7594   0.7661
  0.7689   0.7707   0.7744   0.7756   0.7837   0.7889   0.7924   0.7932
  0.7952   0.7970   0.8029   0.8055   0.8091   0.8207   0.8233   0.8265
  0.8306   0.8355   0.8363   0.8461   0.8480   0.8501   0.8585   0.8611
  0.8637   0.8685   0.8729   0.8775   0.8805   0.8822   0.8835   0.8923
  0.8958   0.8986   0.9104   0.9183   0.9245   0.9311   0.9364   0.9423
  0.9452   0.9520   0.9622   0.9681   0.9777   0.9808   0.9858   0.9924
  0.9943   1.0000   1.0054   1.0204   1.0249   1.0296   1.0360   1.0438
  1.0587   1.0614   1.0686   1.0752   1.0791   1.0849   1.0928   1.0966
  1.1001   1.1098   1.1213   1.1259   1.1367   1.1465   1.1515   1.1632
  1.1654   1.1744   1.1827   1.1923   1.2018   1.2056   1.2127   1.2243
  1.2355   1.2432   1.2478   1.2542   1.2800   1.2824   1.2993   1.3178
  1.3260   1.3392   1.3426   1.3592   1.3685   1.3794   1.3883   1.3998
  1.4159   1.4243   1.4326   1.4390   1.4501   1.4558   1.4691   1.4790
  1.4885   1.4967   1.5114   1.5160   1.5244   1.5389   1.5457   1.5540
  1.5623   1.5781   1.5826   1.6115   1.6201   1.6253   1.6369   1.6540
  1.6649   1.6930   1.7006   1.7048   1.7165   1.7401   1.7546   1.7676
  1.7766   1.7862   1.8161   1.8295   1.8474   1.8511   1.8567   1.8818
  1.8890   1.8990   1.9216   1.9246   1.9313   1.9404   1.9498   1.9511
  1.9562   1.9608   1.9668   1.9711   1.9828   1.9865   1.9981   2.0050
  2.0095   2.0240   2.0267   2.0364   2.0427   2.0605   2.0632   2.0721
  2.0808   2.0934   2.1059   2.1168   2.1205   2.1286   2.1415   2.1465
  2.1618   2.1805   2.1888   2.1932   2.2074   2.2206   2.2320   2.2370
  2.2485   2.2528   2.2780   2.2806   2.2902   2.3011   2.3085   2.3242
  2.3318   2.3468   2.3578   2.3739   2.3761   2.3978   2.4067   2.4226
  2.4252   2.4388   2.4523   2.4593   2.4668   2.4753   2.4820   2.5046
  2.5210   2.5295   2.5557   2.5667   2.5784   2.5890   2.5913   2.6159
  2.6203   2.6371   2.6483   2.6558   2.6617   2.6659   2.6739   2.6817
  2.6931   2.6958   2.7067   2.7101   2.7304   2.7406   2.7528   2.7689
  2.7904   2.7944   2.8052   2.8210   2.8252   2.8396   2.8443   2.8586
  2.8659   2.8676   2.8740   2.9083   2.9188   2.9272   2.9363   2.9451
  2.9532   2.9547   2.9603   2.9674   2.9864   2.9911   2.9944   3.0047
  3.0104   3.0265   3.0293   3.0487   3.0508   3.0728   3.0873   3.0904
  3.1040   3.1275   3.1462   3.1536   3.1708   3.1739   3.1870   3.1912
  3.2075   3.2151   3.2206   3.2349   3.2409   3.2499   3.2595   3.2711
  3.2738   3.2838   3.2969   3.3044   3.3149   3.3242   3.3283   3.3418
  3.3556   3.3600   3.3721   3.3791   3.3862   3.4052   3.4058   3.4145
  3.4269   3.4309   3.4465   3.4478   3.4668   3.4725   3.4811   3.4934
  3.4965   3.5022   3.5184   3.5228   3.5298   3.5374   3.5471   3.5595
  3.5624   3.5709   3.5805   3.5846   3.5896   3.6016   3.6059   3.6155
  3.6318   3.6330   3.6452   3.6581   3.6772   3.6831   3.6987   3.7051
  3.7126   3.7210   3.7409   3.7501   3.7525   3.7774   3.8036   3.8306
  3.8408   3.8477   3.8954   3.9275   3.9428   3.9538   3.9682   3.9749
  3.9798   3.9917   3.9985   4.0318   4.0554   4.0872   4.1390   4.1428
  4.1485   4.1811   4.1928   4.2140   4.2497   4.2742   4.2935   4.3038
  4.3190   4.3203   4.3256   4.3374   4.3415   4.3542   4.3584   4.3612
  4.3805   4.3845   4.3905   4.4000   4.4369   4.4398   4.4507   4.4828
  4.5476   4.5784   4.5864   4.6108   4.6197   4.6434   4.6963   4.7141
  4.7218   4.7396   4.7860   4.7951   4.8561   4.8620   4.8749   4.8819
  4.9125   4.9390   4.9782   5.0088   5.0268   5.0379   5.0508   5.0776
  5.0890   5.1012   5.1325   5.1495   5.1663   5.1751   5.1809   5.2352
  5.2387   5.2465   5.2902   5.3085   5.3163   5.4028   5.4086   5.4171
  5.4348   5.4382   5.4705   5.4934   5.5268   5.5333   5.5685   5.6184
  5.6274   5.6570   5.7011   5.7287   5.7483   5.7528   5.8412   5.8782
  5.9541   5.9850   6.1796   6.2206   6.2316   6.4339   6.4737   6.5179
  6.6033   6.6977   6.9174   7.0356   7.3415   7.4776  22.6658  22.6831
 22.7655  22.9482  22.9541  22.9993  23.0264  23.1917  23.4976  23.7074
 32.3934  32.5633  32.9812  44.5162
 --------------------------------------------------------------
 
          Ground-State Mulliken Net Atomic Charges

     Atom                 Charge (a.u.)
  ----------------------------------------
      1 C                    -1.171578
      2 C                     0.493925
      3 C                    -0.159610
      4 C                    -0.683813
      5 C                    -0.748103
      6 C                    -0.381295
      7 C                     0.379895
      8 O                    -0.573187
      9 H                     0.366030
     10 H                     0.385082
     11 H                     0.410499
     12 H                     0.406289
     13 H                     0.418052
     14 H                     0.300559
     15 H                     0.294047
     16 H                     0.262168
     17 C                     0.053005
     18 C                    -1.233686
     19 C                     0.413749
     20 N                    -0.086551
     21 N                    -0.241755
     22 N                    -0.298661
     23 H                     0.047463
     24 H                     0.240123
     25 H                     0.315906
     26 H                     0.295701
     27 H                     0.297774
     28 H                     0.164590
     29 H                     0.253386
     30 H                     0.246604
     31 H                     0.247068
     32 H                     0.286320
  ----------------------------------------
  Sum of atomic charges =     1.000000

 -----------------------------------------------------------------
                    Cartesian Multipole Moments
 -----------------------------------------------------------------
    Charge (ESU x 10^10)
                 4.8032
    Dipole Moment (Debye)
         X      -5.7150      Y     -15.1146      Z       1.8414
       Tot      16.2636
    Quadrupole Moments (Debye-Ang)
        XX     -70.0608     XY      14.0772     YY     -10.2920
        XZ      -1.4186     YZ      -2.3252     ZZ     -78.7579
    Octopole Moments (Debye-Ang^2)
       XXX     -38.8042    XXY     -65.4685    XYY     -61.3186
       YYY    -331.8399    XXZ      25.0777    XYZ      28.6199
       YYZ      14.1394    XZZ      -9.9104    YZZ     -21.3421
       ZZZ      -6.9952
    Hexadecapole Moments (Debye-Ang^3)
      XXXX    -880.2148   XXXY    -247.8114   XXYY    -617.6544
      XYYY     -90.5848   YYYY   -2350.2086   XXXZ     194.4041
      XXYZ      72.0025   XYYZ      35.1358   YYYZ     290.5352
      XXZZ    -262.4777   XYZZ    -129.7906   YYZZ    -802.1274
      XZZZ     202.3296   YZZZ     349.6979   ZZZZ    -640.4413
 -----------------------------------------------------------------
Archival summary:
1\1\nid00556\SP\ProcedureUnspecified\BasisUnspecified\131018(1+,1)\meili\MonSep2713:28:352021MonSep2713:28:352021\0\\#,ProcedureUnspecified,BasisUnspecified,\\1,1\O\H,1,0.964616\C,1,1.3671,2,111.872\C,3,1.3843,1,120.578,2,-174.251,0\H,4,1.08016,3,119.345,1,0.850697,0\C,3,1.3933,1,119.616,2,6.86063,0\H,6,1.08121,3,120.067,1,-0.930606,0\C,4,1.40639,3,119.698,1,-178.991,0\H,8,1.08085,4,119.285,3,179.798,0\C,8,1.40482,4,121.505,3,0.251847,0\C,10,1.39396,8,118.184,4,-0.23516,0\H,11,1.08282,10,119.852,8,-179.87,0\C,10,1.51811,8,121.078,4,-179.299,0\H,13,1.08843,10,108.219,8,-141.05,0\H,13,1.09141,10,109.351,8,-23.6935,0\H,13,1.1,10,113.514,8,98.6945,0\H,1,2.5877,2,89.9331,3,121.621,0\N,17,1.00704,1,131.128,2,18.6501,0\H,18,1.00678,17,119.576,1,69.7571,0\C,18,1.31779,17,119.74,1,-104.125,0\N,20,1.31777,18,119.033,17,178.639,0\H,21,1.00637,20,120.834,18,-0.591694,0\H,21,1.00842,20,120.008,18,-179.453,0\N,20,1.32717,18,120.156,17,-0.952058,0\H,24,1.00969,20,117.696,18,179.908,0\C,24,1.4693,20,124.087,18,-0.323893,0\H,26,1.09027,24,109.528,20,59.272,0\H,26,1.09316,24,109.316,20,-60.4635,0\C,26,1.51158,24,112.024,20,179.122,0\H,29,1.09022,26,107.56,24,55.4848,0\H,29,1.09117,26,109.416,24,-62.3767,0\H,29,1.1,26,111.858,24,176.399,0\\\@

 Total job time:  90221.79s(wall), 60214.03s(cpu) 
 Mon Sep 27 13:28:36 2021

        *************************************************************
        *                                                           *
        *  Thank you very much for using Q-Chem.  Have a nice day.  *
        *                                                           *
        *************************************************************


