
Running Job 1 of 1 SSI-030GLU-033GLN-1_PCM_TZVPD.in
qchem SSI-030GLU-033GLN-1_PCM_TZVPD.in_5359.0 /tmp/qchem5359/ 0
/global/common/cori/software/qchem/5.2/exe/qcprog.exe_s SSI-030GLU-033GLN-1_PCM_TZVPD.in_5359.0 /tmp/qchem5359/
                  Welcome to Q-Chem
     A Quantum Leap Into The Future Of Chemistry


 Q-Chem 5.2, Q-Chem, Inc., Pleasanton, CA (2019)

 License issued to: National Energy Research Scientific Computing Center

 Yihan Shao,  Zhengting Gan,  E. Epifanovsky,  A. T. B. Gilbert,  M. Wormit,  
 J. Kussmann,  A. W. Lange,  A. Behn,  Jia Deng,  Xintian Feng,  D. Ghosh,  
 M. Goldey,  P. R. Horn,  L. D. Jacobson,  I. Kaliman,  T. Kus,  A. Landau,  
 Jie Liu,  E. I. Proynov,  R. M. Richard,  R. P. Steele,  E. J. Sundstrom,  
 H. L. Woodcock III,  P. M. Zimmerman,  D. Zuev,  B. Albrecht,  E. Alguire,  
 S. A. Baeppler,  D. Barton,  Z. Benda,  Y. A. Bernard,  E. J. Berquist,  
 K. B. Bravaya,  H. Burton,  D. Casanova,  Chun-Min Chang,  Yunqing Chen,  
 A. Chien,  K. D. Closser,  M. P. Coons,  S. Coriani,  S. Dasgupta,  
 A. L. Dempwolff,  M. Diedenhofen,  Hainam Do,  R. G. Edgar,  Po-Tung Fang,  
 S. Faraji,  S. Fatehi,  Qingguo Feng,  K. D. Fenk,  J. Fosso-Tande,  
 J. Gayvert,  Qinghui Ge,  A. Ghysels,  G. Gidofalvi,  J. Gomes,  
 J. Gonthier,  A. Gunina,  D. Hait,  M. W. D. Hanson-Heine,  
 P. H. P. Harbach,  A. W. Hauser,  M. F. Herbst,  J. E. Herr,  
 E. G. Hohenstein,  Z. C. Holden,  Kerwin Hui,  B. C. Huynh,  T.-C. Jagau,  
 Hyunjun Ji,  B. Kaduk,  K. Khistyaev,  Jaehoon Kim,  P. Klunzinger,  K. Koh,  
 D. Kosenkov,  L. Koulias,  T. Kowalczyk,  C. M. Krauter,  A. Kunitsa,  
 Ka Un Lao,  A. Laurent,  K. V. Lawler,  Joonho Lee,  D. Lefrancois,  
 S. Lehtola,  D. S. Levine,  Yi-Pei Li,  You-Sheng Lin,  Fenglai Liu,  
 E. Livshits,  A. Luenser,  P. Manohar,  E. Mansoor,  S. F. Manzer,  
 Shan-Ping Mao,  Yuezhi Mao,  N. Mardirossian,  A. V. Marenich,  
 T. Markovich,  L. A. Martinez-Martinez,  S. A. Maurer,  N. J. Mayhall,  
 S. C. McKenzie,  J.-M. Mewes,  P. Morgante,  A. F. Morrison,  
 J. W. Mullinax,  K. Nanda,  T. S. Nguyen-Beck,  R. Olivares-Amaya,  
 J. A. Parkhill,  Zheng Pei,  T. M. Perrine,  F. Plasser,  P. Pokhilko,  
 S. Prager,  A. Prociuk,  E. Ramos,  D. R. Rehn,  F. Rob,  M. Scheurer,  
 M. Schneider,  N. Sergueev,  S. M. Sharada,  S. Sharma,  D. W. Small,  
 T. Stauch,  T. Stein,  Yu-Chuan Su,  A. J. W. Thom,  A. Tkatchenko,  
 T. Tsuchimochi,  N. M. Tubman,  L. Vogt,  M. L. Vidal,  O. Vydrov,  
 M. A. Watson,  J. Wenzel,  M. de Wergifosse,  T. A. Wesolowski,  A. White,  
 J. Witte,  A. Yamada,  Jun Yang,  K. Yao,  S. Yeganeh,  S. R. Yost,  
 Zhi-Qiang You,  A. Zech,  Igor Ying Zhang,  Xing Zhang,  Yan Zhao,  
 Ying Zhu,  B. R. Brooks,  G. K. L. Chan,  C. J. Cramer,  M. S. Gordon,  
 W. J. Hehre,  A. Klamt,  M. W. Schmidt,  C. D. Sherrill,  D. G. Truhlar,  
 A. Aspuru-Guzik,  R. Baer,  A. T. Bell,  N. A. Besley,  Jeng-Da Chai,  
 A. E. DePrince, III,  R. A. DiStasio Jr.,  A. Dreuw,  B. D. Dunietz,  
 T. R. Furlani,  Chao-Ping Hsu,  Yousung Jung,  Jing Kong,  D. S. Lambrecht,  
 WanZhen Liang,  C. Ochsenfeld,  V. A. Rassolov,  L. V. Slipchenko,  
 J. E. Subotnik,  T. Van Voorhis,  J. M. Herbert,  A. I. Krylov,  
 P. M. W. Gill,  M. Head-Gordon

 Contributors to earlier versions of Q-Chem not listed above: 
 R. D. Adamson,  B. Austin,  J. Baker,  G. J. O. Beran,  K. Brandhorst,  
 S. T. Brown,  E. F. C. Byrd,  A. K. Chakraborty,  C.-L. Cheng,  
 Siu Hung Chien,  D. M. Chipman,  D. L. Crittenden,  H. Dachsel,  
 R. J. Doerksen,  A. D. Dutoi,  L. Fusti-Molnar,  W. A. Goddard III,  
 A. Golubeva-Zadorozhnaya,  S. R. Gwaltney,  G. Hawkins,  A. Heyden,  
 S. Hirata,  G. Kedziora,  F. J. Keil,  C. Kelley,  Jihan Kim,  R. A. King,  
 R. Z. Khaliullin,  P. P. Korambath,  W. Kurlancheek,  A. M. Lee,  M. S. Lee,  
 S. V. Levchenko,  Ching Yeh Lin,  D. Liotard,  R. C. Lochan,  I. Lotan,  
 P. E. Maslen,  N. Nair,  D. P. O'Neill,  D. Neuhauser,  E. Neuscamman,  
 C. M. Oana,  R. Olson,  B. Peters,  R. Peverati,  P. A. Pieniazek,  
 Y. M. Rhee,  J. Ritchie,  M. A. Rohrdanz,  E. Rosta,  N. J. Russ,  
 H. F. Schaefer III,  N. E. Schultz,  N. Shenvi,  A. C. Simmonett,  A. Sodt,  
 D. Stuck,  K. S. Thanthiriwatte,  V. Vanovschi,  Tao Wang,  A. Warshel,  
 C. F. Williams,  Q. Wu,  X. Xu,  W. Zhang

 Please cite Q-Chem as follows:
 Y. Shao et al., Mol. Phys. 113, 184-215 (2015)
 DOI: 10.1080/00268976.2014.952696

 Q-Chem 5.2.0 for Intel X86 EM64T Linux

 Parts of Q-Chem use Armadillo 8.300.2 (Tropical Shenanigans).
 http://arma.sourceforge.net/

 Q-Chem begins on Sun Sep 26 04:45:57 2021  

Host: cori01
0

     Scratch files written to /tmp/qchem5359//
 May1019 |scratch|qcdevops|jenkins|workspace|build_RNUM -1
Processing $rem in /global/common/cori/software/qchem/5.2/config/preferences:
	 MEM_TOTAL  96000 
NAlpha2: 64
NElect   64
Mult     1
Symmetry turned off for PCM/SM12/SMD calculation

 Q-Chem warning in module libgen/rem_setup.C, line 2803:

 Neither GIA nor STOLL is specified by user. Use STOLL as the default


Checking the input file for inconsistencies... 	...done.

--------------------------------------------------------------
User input:
--------------------------------------------------------------
$comment
SSI-030GLU-033GLN-1.pdb
$end

$molecule
-1 1
--
-1 1
C    1.481071437421    2.741456666432    0.134135097791
C    0.314071437421    1.912456666432    0.600135097791
O    0.426071437421    1.243456666432    1.649135097791
O   -0.739928562579    1.987456666432   -0.069864902209
H    1.353071437421    3.757456666432    0.512135097791
H    1.485071437421    2.808456666432   -0.954864902209
H    2.455831437421    2.374929666432    0.488395097791
--
0 1
C    0.981071437421   -2.394543333568   -0.201864902209
C   -0.441928562579   -2.007543333568   -0.591864902209
O   -1.291928562579   -2.858543333568   -0.837864902209
N   -0.714928562579   -0.717543333568   -0.680864902209
H   -1.632928562579   -0.428543333568   -0.969864902209
H   -0.041928562579   -0.012543333568   -0.436864902209
H    1.005071437421   -2.495543333568    0.881135097791
H    1.675071437421   -1.607543333568   -0.461864902209
H    1.325251437421   -3.335110333568   -0.656694902209
$end

$rem
JOBTYPE			EDA
EDA2			1
method			wB97X-V
BASIS			def2-TZVPD
XC_GRID			000099000590
NL_GRID			1
UNRESTRICTED		FALSE
MAX_SCF_CYCLES		200
SYMMETRY		FALSE
SYM_IGNORE		TRUE
MEM_STATIC		2000
BASIS_LIN_DEP_THRESH 	6
THRESH 			14
SCF_CONVERGENCE 	8
SCF_PRINT_FRGM 		TRUE
SOLVENT_METHOD          PCM
$end

$PCM
THEORY                  CPCM
METHOD                  SWIG
SOLVER                  INVERSION
RADII                   UFF
HPOINTS                 302
HEAVYPOINTS             302
PRINTLEVEL              0
$END

$SOLVENT
DIELECTRIC              78.390000 ! water
$END
--------------------------------------------------------------
 ----------------------------------------------------------------
             Standard Nuclear Orientation (Angstroms)
    I     Atom           X                Y                Z
 ----------------------------------------------------------------
    1      C       1.4810714374     2.7414566664     0.1341350978
    2      C       0.3140714374     1.9124566664     0.6001350978
    3      O       0.4260714374     1.2434566664     1.6491350978
    4      O      -0.7399285626     1.9874566664    -0.0698649022
    5      H       1.3530714374     3.7574566664     0.5121350978
    6      H       1.4850714374     2.8084566664    -0.9548649022
    7      H       2.4558314374     2.3749296664     0.4883950978
    8      C       0.9810714374    -2.3945433336    -0.2018649022
    9      C      -0.4419285626    -2.0075433336    -0.5918649022
   10      O      -1.2919285626    -2.8585433336    -0.8378649022
   11      N      -0.7149285626    -0.7175433336    -0.6808649022
   12      H      -1.6329285626    -0.4285433336    -0.9698649022
   13      H      -0.0419285626    -0.0125433336    -0.4368649022
   14      H       1.0050714374    -2.4955433336     0.8811350978
   15      H       1.6750714374    -1.6075433336    -0.4618649022
   16      H       1.3252514374    -3.3351103336    -0.6566949022
 ----------------------------------------------------------------
 Nuclear Repulsion Energy =         359.69011438 hartrees
 There are       32 alpha and       32 beta electrons
 Requested basis set is def2-TZVPD
 There are 147 shells and 377 basis functions

 Total QAlloc Memory Limit  96000 MB
 Mega-Array Size      1956 MB
 MEM_STATIC part      2000 MB
 Discretize the solute cavity surface with Lebedev spheres
	Using 302 Lebedev grid points for each H atom
	Using 302 Lebedev grid points for other atoms
	Atomic van der Waals radii will be scaled by 1.20
 Remove points where switching function is < 1.0e-08
 Keep 1996 surface tesserae and discard 2836 interior tesserae
 Molecular Surface Area = 215.957 Angst**2
 A cutoff of  1.0D-14 yielded   9885 shell pairs
 There are     65355 function pairs (     82710 Cartesian)
 Smallest overlap matrix eigenvalue = 8.96E-06

 Scale SEOQF with 1.000000e-01/1.000000e-01/1.000000e-01

 Standard Electronic Orientation quadrupole field applied
 Nucleus-field energy     =     0.0000000185 hartrees

 -----------------------------------------------------------------------
  General SCF calculation program by
  Eric Jon Sundstrom, Paul Horn, Yuezhi Mao, Dmitri Zuev, Alec White,
  David Stuck, Shaama M.S., Shane Yost, Joonho Lee, David Small,
  Daniel Levine, Susi Lehtola, Hugh Burton, Evgeny Epifanovsky
 -----------------------------------------------------------------------
================================================================
                 ALMO-EDA with the EDA2 driver                  
================================================================
 The second-generation ALMO-EDA (for DFT):                      
 P. R. Horn, Y. Mao and M. Head-Gordon, PCCP, 18, 23067 (2016)  
 Decomposition of the frozen energy:                            
 P. R. Horn, Y. Mao and M. Head-Gordon, JCP, 144, 114107 (2016) 
 FERF model for polarization:                                   
 P. R. Horn and M. Head-Gordon, JCP, 143, 114111 (2015)         
Using eda2 option set 1
Option set summary: Frozen orbital wavefunction, initial wavefunction decomposition, and nDQ polarization.
--------------------------------
Printing EDA Options
--------------------------------
eda_child_super_basis      0
fragmo_guess_mode          0
child_mp                   1
child_mp_orders            232
cls_elec                   1
cls_disp                   0
scfmi_mode                 1
scfmi_occs                 0
scfmi_virts                0
frz_relax                  0
frz_relax_method           0
dc_pen_start               0
dc_pen_conv                0
dc_pen_increment           0
dc_pen_steps               0
dc_pen_thresh_factor       0
dc_pen_pre_newton_thresh   0
frz_ortho_decomp           1
frz_ortho_decomp_conv      6
frgm_method                2
scfmi_freeze_ss            0
separate_rehyb             0
plot_diff_den              0
eda_nocv                   0
eda_vct_relax              1
disp_free_x                0
disp_free_c                0
eda_bsse                   0
eda_pct_a                  0
eda_covp                   0
--------------------------------
Attempting to make child job directory: /tmp/qchem5359//Frg1/
Attempting to make child job directory: /tmp/qchem5359//Frg2/
Creating input file /tmp/qchem5359/Frg1.input
using default PutDataFrgm: nothing
calling putenv with: QCSCRATCH=/tmp/qchem5359/ 
calling putenv with: QCLOCALSCR=/tmp/qchem5359/ 
Spawning Job For Fragment 0
                  Welcome to Q-Chem
     A Quantum Leap Into The Future Of Chemistry


 Q-Chem 5.2, Q-Chem, Inc., Pleasanton, CA (2019)

 License issued to: National Energy Research Scientific Computing Center

 Yihan Shao,  Zhengting Gan,  E. Epifanovsky,  A. T. B. Gilbert,  M. Wormit,  
 J. Kussmann,  A. W. Lange,  A. Behn,  Jia Deng,  Xintian Feng,  D. Ghosh,  
 M. Goldey,  P. R. Horn,  L. D. Jacobson,  I. Kaliman,  T. Kus,  A. Landau,  
 Jie Liu,  E. I. Proynov,  R. M. Richard,  R. P. Steele,  E. J. Sundstrom,  
 H. L. Woodcock III,  P. M. Zimmerman,  D. Zuev,  B. Albrecht,  E. Alguire,  
 S. A. Baeppler,  D. Barton,  Z. Benda,  Y. A. Bernard,  E. J. Berquist,  
 K. B. Bravaya,  H. Burton,  D. Casanova,  Chun-Min Chang,  Yunqing Chen,  
 A. Chien,  K. D. Closser,  M. P. Coons,  S. Coriani,  S. Dasgupta,  
 A. L. Dempwolff,  M. Diedenhofen,  Hainam Do,  R. G. Edgar,  Po-Tung Fang,  
 S. Faraji,  S. Fatehi,  Qingguo Feng,  K. D. Fenk,  J. Fosso-Tande,  
 J. Gayvert,  Qinghui Ge,  A. Ghysels,  G. Gidofalvi,  J. Gomes,  
 J. Gonthier,  A. Gunina,  D. Hait,  M. W. D. Hanson-Heine,  
 P. H. P. Harbach,  A. W. Hauser,  M. F. Herbst,  J. E. Herr,  
 E. G. Hohenstein,  Z. C. Holden,  Kerwin Hui,  B. C. Huynh,  T.-C. Jagau,  
 Hyunjun Ji,  B. Kaduk,  K. Khistyaev,  Jaehoon Kim,  P. Klunzinger,  K. Koh,  
 D. Kosenkov,  L. Koulias,  T. Kowalczyk,  C. M. Krauter,  A. Kunitsa,  
 Ka Un Lao,  A. Laurent,  K. V. Lawler,  Joonho Lee,  D. Lefrancois,  
 S. Lehtola,  D. S. Levine,  Yi-Pei Li,  You-Sheng Lin,  Fenglai Liu,  
 E. Livshits,  A. Luenser,  P. Manohar,  E. Mansoor,  S. F. Manzer,  
 Shan-Ping Mao,  Yuezhi Mao,  N. Mardirossian,  A. V. Marenich,  
 T. Markovich,  L. A. Martinez-Martinez,  S. A. Maurer,  N. J. Mayhall,  
 S. C. McKenzie,  J.-M. Mewes,  P. Morgante,  A. F. Morrison,  
 J. W. Mullinax,  K. Nanda,  T. S. Nguyen-Beck,  R. Olivares-Amaya,  
 J. A. Parkhill,  Zheng Pei,  T. M. Perrine,  F. Plasser,  P. Pokhilko,  
 S. Prager,  A. Prociuk,  E. Ramos,  D. R. Rehn,  F. Rob,  M. Scheurer,  
 M. Schneider,  N. Sergueev,  S. M. Sharada,  S. Sharma,  D. W. Small,  
 T. Stauch,  T. Stein,  Yu-Chuan Su,  A. J. W. Thom,  A. Tkatchenko,  
 T. Tsuchimochi,  N. M. Tubman,  L. Vogt,  M. L. Vidal,  O. Vydrov,  
 M. A. Watson,  J. Wenzel,  M. de Wergifosse,  T. A. Wesolowski,  A. White,  
 J. Witte,  A. Yamada,  Jun Yang,  K. Yao,  S. Yeganeh,  S. R. Yost,  
 Zhi-Qiang You,  A. Zech,  Igor Ying Zhang,  Xing Zhang,  Yan Zhao,  
 Ying Zhu,  B. R. Brooks,  G. K. L. Chan,  C. J. Cramer,  M. S. Gordon,  
 W. J. Hehre,  A. Klamt,  M. W. Schmidt,  C. D. Sherrill,  D. G. Truhlar,  
 A. Aspuru-Guzik,  R. Baer,  A. T. Bell,  N. A. Besley,  Jeng-Da Chai,  
 A. E. DePrince, III,  R. A. DiStasio Jr.,  A. Dreuw,  B. D. Dunietz,  
 T. R. Furlani,  Chao-Ping Hsu,  Yousung Jung,  Jing Kong,  D. S. Lambrecht,  
 WanZhen Liang,  C. Ochsenfeld,  V. A. Rassolov,  L. V. Slipchenko,  
 J. E. Subotnik,  T. Van Voorhis,  J. M. Herbert,  A. I. Krylov,  
 P. M. W. Gill,  M. Head-Gordon

 Contributors to earlier versions of Q-Chem not listed above: 
 R. D. Adamson,  B. Austin,  J. Baker,  G. J. O. Beran,  K. Brandhorst,  
 S. T. Brown,  E. F. C. Byrd,  A. K. Chakraborty,  C.-L. Cheng,  
 Siu Hung Chien,  D. M. Chipman,  D. L. Crittenden,  H. Dachsel,  
 R. J. Doerksen,  A. D. Dutoi,  L. Fusti-Molnar,  W. A. Goddard III,  
 A. Golubeva-Zadorozhnaya,  S. R. Gwaltney,  G. Hawkins,  A. Heyden,  
 S. Hirata,  G. Kedziora,  F. J. Keil,  C. Kelley,  Jihan Kim,  R. A. King,  
 R. Z. Khaliullin,  P. P. Korambath,  W. Kurlancheek,  A. M. Lee,  M. S. Lee,  
 S. V. Levchenko,  Ching Yeh Lin,  D. Liotard,  R. C. Lochan,  I. Lotan,  
 P. E. Maslen,  N. Nair,  D. P. O'Neill,  D. Neuhauser,  E. Neuscamman,  
 C. M. Oana,  R. Olson,  B. Peters,  R. Peverati,  P. A. Pieniazek,  
 Y. M. Rhee,  J. Ritchie,  M. A. Rohrdanz,  E. Rosta,  N. J. Russ,  
 H. F. Schaefer III,  N. E. Schultz,  N. Shenvi,  A. C. Simmonett,  A. Sodt,  
 D. Stuck,  K. S. Thanthiriwatte,  V. Vanovschi,  Tao Wang,  A. Warshel,  
 C. F. Williams,  Q. Wu,  X. Xu,  W. Zhang

 Please cite Q-Chem as follows:
 Y. Shao et al., Mol. Phys. 113, 184-215 (2015)
 DOI: 10.1080/00268976.2014.952696

 Q-Chem 5.2.0 for Intel X86 EM64T Linux

 Parts of Q-Chem use Armadillo 8.300.2 (Tropical Shenanigans).
 http://arma.sourceforge.net/

 Q-Chem begins on Sun Sep 26 04:46:01 2021  

Host: cori01
0

     Scratch files written to /tmp/qchem5359//Frg1//
 May1019 |scratch|qcdevops|jenkins|workspace|build_RNUM -1
Processing $rem in /global/common/cori/software/qchem/5.2/config/preferences:
	 MEM_TOTAL  96000 
NAlpha2: 32
NElect   32
Mult     1
Symmetry turned off for PCM/SM12/SMD calculation

Checking the input file for inconsistencies... 	...done.

--------------------------------------------------------------
User input:
--------------------------------------------------------------
$molecule
-1 1
 6	1.4810714374	2.7414566664	0.1341350978
 6	0.3140714374	1.9124566664	0.6001350978
 8	0.4260714374	1.2434566664	1.6491350978
 8	-0.7399285626	1.9874566664	-0.0698649022
 1	1.3530714374	3.7574566664	0.5121350978
 1	1.4850714374	2.8084566664	-0.9548649022
 1	2.4558314374	2.3749296664	0.4883950978
$end
$rem
EDA2		1
METHOD		WB97X-V
BASIS		DEF2-TZVPD
XC_GRID		000099000590
NL_GRID		1
UNRESTRICTED		FALSE
MAX_SCF_CYCLES		200
SYMMETRY		FALSE
SYM_IGNORE		TRUE
BASIS_LIN_DEP_THRESH		6
THRESH		14
SCF_CONVERGENCE		8
SCF_PRINT_FRGM		TRUE
SOLVENT_METHOD		PCM
!required keywords
JOBTYPE		SP
SYM_IGNORE		TRUE
SUBSYSTEM		TRUE
GEN_SCFMAN		TRUE
CHILD_INSTRUCTION		2
SYM_IGNORE		TRUE
SCFMI		0
RI_K 0		
PARI_K 0		
MIN_PARI_K 0		
IARI_K 0		
OCC_RI_K 0		
PURECART		1111
MEM_STATIC		2000
MEM_TOTAL		96000
GUI		0
CHILD_MP		1
CHILD_MP_ORDERS		232
FRZ_RELAX		0
FRZ_RELAX_METHOD		0
EDA_CLS_ELEC		1
EDA_CLS_DISP		0
FRZ_ORTHO_DECOMP		1
EDA2		FALSE
FRGM_METHOD		FALSE
CIS_N_ROOTS  0
LOCAL_CIS    0
CIS_RLX_DNS  1
$end
$pcm
THEORY                  CPCM
METHOD                  SWIG
SOLVER                  INVERSION
RADII                   UFF
HPOINTS                 302
HEAVYPOINTS             302
PRINTLEVEL              0
$end
$solvent
DIELECTRIC              78.390000 ! water
$end
--------------------------------------------------------------
 ----------------------------------------------------------------
             Standard Nuclear Orientation (Angstroms)
    I     Atom           X                Y                Z
 ----------------------------------------------------------------
    1      C       1.4810714374     2.7414566664     0.1341350978
    2      C       0.3140714374     1.9124566664     0.6001350978
    3      O       0.4260714374     1.2434566664     1.6491350978
    4      O      -0.7399285626     1.9874566664    -0.0698649022
    5      H       1.3530714374     3.7574566664     0.5121350978
    6      H       1.4850714374     2.8084566664    -0.9548649022
    7      H       2.4558314374     2.3749296664     0.4883950978
 ----------------------------------------------------------------
 Nuclear Repulsion Energy =         113.01920190 hartrees
 There are       16 alpha and       16 beta electrons
 Requested basis set is def2-TZVPD
 There are 69 shells and 181 basis functions

 Total QAlloc Memory Limit  96000 MB
 Mega-Array Size      1956 MB
 MEM_STATIC part      2000 MB
 Discretize the solute cavity surface with Lebedev spheres
	Using 302 Lebedev grid points for each H atom
	Using 302 Lebedev grid points for other atoms
	Atomic van der Waals radii will be scaled by 1.20
 Remove points where switching function is < 1.0e-08
 Keep 1018 surface tesserae and discard 1096 interior tesserae
 Molecular Surface Area = 119.655 Angst**2

                       Distance Matrix (Angstroms)
             C (  1)   C (  2)   O (  3)   O (  4)   H (  5)   H (  6)
   C (  2)  1.505419
   O (  3)  2.377447  1.249202
   O (  4)  2.354352  1.251176  2.206366
   H (  5)  1.091570  2.119266  2.910721  2.802191
   H (  6)  1.091066  2.142914  3.217378  2.531381  1.752174
   H (  7)  1.100000  2.193970  2.597590  3.267212  1.768622  1.792574

 
 A cutoff of  1.0D-14 yielded   2391 shell pairs
 There are     16695 function pairs (     21491 Cartesian)
 Smallest overlap matrix eigenvalue = 1.65E-05

 Scale SEOQF with 1.000000e-01/1.000000e-01/1.000000e-01

 Standard Electronic Orientation quadrupole field applied
 Nucleus-field energy     =     0.0000000082 hartrees
 Guess from superposition of atomic densities
 Warning:  Energy on first SCF cycle will be non-variational
 SAD guess density has 30.625312 electrons

 -----------------------------------------------------------------------
  General SCF calculation program by
  Eric Jon Sundstrom, Paul Horn, Yuezhi Mao, Dmitri Zuev, Alec White,
  David Stuck, Shaama M.S., Shane Yost, Joonho Lee, David Small,
  Daniel Levine, Susi Lehtola, Hugh Burton, Evgeny Epifanovsky
 -----------------------------------------------------------------------
 Exchange:     0.1670 Hartree-Fock + 1.0000 wB97X-V + LR-HF
 Correlation:  1.0000 wB97X-V
 Using Euler-Maclaurin-Lebedev (99,590) quadrature formula
 Nonlocal Correlation:  VV10 with C = 0.0100 and b = 6.00 and scale = 1.00000
 Grid used for NLC:  SG-1 standard quadrature
Energy prior to optimization (guess energy) = -227.765466600668
Begin Timing: Total SCF Calculation
begin iterations for algorithm: DIIS         
the SCF tolerance is set to 1.00e-08
    1    -227.7654666007      1.66e-02     00000 
    2    -225.6062465437      2.54e-02     00000 
    3    -228.5776913194      4.13e-03     00000 
    4    -228.6366103608      1.35e-03     00000 
    5    -228.6425608934      1.88e-04     00000 
    6    -228.6428017833      6.55e-05     00000 
    7    -228.6428188789      3.85e-05     00000 
    8    -228.6428236389      1.52e-05     00000 
    9    -228.6428248725      2.87e-06     00000 
   10    -228.6428249736      7.71e-07     00000 
   11    -228.6428249783      2.50e-07     00000 
   12    -228.6428249790      5.93e-08     00000 
   13    -228.6428249791      1.66e-08     00000 
   14    -228.6428249791      2.95e-09     00000 Convergence criterion met
Timing for Total SCF: 310.00s (wall), 609.49s (cpu)

************** Final PCM Free Energy Summary **************
 G_electrostatic  =      -0.10166782 hartree =     -63.79751877 kcal/mol
 G_cavitation     =       0.00000000 hartree =       0.00000000 kcal/mol
 G_dispersion     =       0.00000000 hartree =       0.00000000 kcal/mol
 G_repulsion      =       0.00000000 hartree =       0.00000000 kcal/mol
 --------------------------------------------------
 Non-electrostatic Free Energy =       0.00000000 hartree =       0.00000000 kcal/mol
 Total                         =      -0.10166782 hartree =     -63.79751877 kcal/mol
 --------------------------------------------------
 SCF Energy (H0 + V/2)                       =    -228.64282498 
 Solute Internal Energy (H0)                 =    -228.54115716 
 Total Free Energy (H0 + V/2 + non-elec)     =    -228.64282498 hartree
                                             = -143475.53815058 kcal/mol
***********************************************************

E_pcm = -0.1016678181
Multipole orders to be included
        2
        3
computing dipole RHS
computing quadrupole RHS
total number of RHS in solve_reponses: 8
RHS batch sizes
        8
Beginning Block Conjugate Gradient Iterations. Batch Number: 0
computing hessian-vector products by finite difference
              1      6.59e-01     00000 Conjugate Gradient Iteration
computing hessian-vector products by finite difference
              2      2.28e-01     00000 Conjugate Gradient Iteration
computing hessian-vector products by finite difference
              3      6.00e-02     00000 Conjugate Gradient Iteration
computing hessian-vector products by finite difference
              4      1.59e-02     00000 Conjugate Gradient Iteration
computing hessian-vector products by finite difference
              5      2.80e-03     00000 Conjugate Gradient Iteration
computing hessian-vector products by finite difference
              6      6.73e-04     00000 Conjugate Gradient Iteration
computing hessian-vector products by finite difference
              7      1.11e-04     00000 Conjugate Gradient Iteration
computing hessian-vector products by finite difference
              8      1.36e-05     00000 Conjugate Gradient Iteration
computing hessian-vector products by finite difference
              9      2.14e-06     00000 Conjugate Gradient Iteration
computing hessian-vector products by finite difference
             10      2.50e-07     00000 Conjugate Gradient Iteration
computing hessian-vector products by finite difference
             11      4.02e-08     00000 Conjugate Gradient Iteration
computing hessian-vector products by finite difference
             12      8.19e-09     00000 CG Converged
batch 0 complete
Done Calculating Responses
TESTING ORTHOGONALIZATION OF MULTIPOLE BASIS
Multipole virts passed orthogonality test
Virts Per Order
        48
        80
 
 --------------------------------------------------------------
 
                    Orbital Energies (a.u.)
 --------------------------------------------------------------
 
 Alpha MOs
 -- Occupied --
-19.1223 -19.1209 -10.3235 -10.2377  -1.1326  -1.0330  -0.8301  -0.5938
 -0.5292  -0.5189  -0.5166  -0.4630  -0.4404  -0.3297  -0.3256  -0.3096
 -- Virtual --
  0.0632   0.0954   0.0957   0.1051   0.1307   0.1399   0.1418   0.1457
  0.1698   0.1917   0.2007   0.2199   0.2347   0.2365   0.2627   0.2692
  0.2993   0.3095   0.3348   0.3479   0.3567   0.3649   0.3739   0.3760
  0.3898   0.4103   0.4251   0.4289   0.4345   0.4624   0.4727   0.4775
  0.4921   0.4974   0.5038   0.5240   0.5601   0.5846   0.5950   0.6123
  0.6347   0.6427   0.6484   0.6636   0.6678   0.6901   0.6936   0.7117
  0.7220   0.7391   0.7901   0.7980   0.8116   0.8266   0.8493   0.8577
  0.8691   0.9833   0.9959   1.0018   1.0104   1.0404   1.0753   1.1050
  1.1481   1.2368   1.2574   1.2737   1.2900   1.3216   1.3642   1.3951
  1.4413   1.5618   1.6062   1.7455   1.8292   1.8724   1.8856   1.9229
  1.9307   1.9543   1.9649   1.9778   2.0270   2.1181   2.1348   2.1908
  2.2098   2.2376   2.3111   2.3492   2.4259   2.4571   2.4849   2.5096
  2.5721   2.5969   2.6450   2.6660   2.7883   2.8235   2.8592   2.9074
  2.9500   3.0445   3.0881   3.1507   3.2252   3.2465   3.2807   3.3020
  3.3472   3.3576   3.3925   3.4162   3.4229   3.5364   3.5971   3.6078
  3.6112   3.6816   3.7319   3.7477   3.7543   3.8623   3.9705   4.0693
  4.1067   4.2285   4.3616   4.6127   4.6141   4.6681   4.8039   4.8321
  4.9802   5.3326   5.3627   5.3691   5.3818   5.5147   5.7256   5.7653
  5.8250   6.0300   6.2618   6.3383   6.3610   6.6341   6.6376   6.7133
  6.7530   6.7618   6.9633   6.9796   7.0535   7.2451   7.3808   7.3858
  7.4220  22.6092  23.7629  44.2248  44.3768
 --------------------------------------------------------------
 
          Ground-State Mulliken Net Atomic Charges

     Atom                 Charge (a.u.)
  ----------------------------------------
      1 C                    -0.405110
      2 C                     0.288710
      3 O                    -0.673234
      4 O                    -0.676169
      5 H                     0.127092
      6 H                     0.165390
      7 H                     0.173320
  ----------------------------------------
  Sum of atomic charges =    -1.000000

 -----------------------------------------------------------------
                    Cartesian Multipole Moments
 -----------------------------------------------------------------
    Charge (ESU x 10^10)
                -4.8032
    Dipole Moment (Debye)
         X       2.0430      Y      -6.8591      Z      -4.2935
       Tot       8.3460
    Quadrupole Moments (Debye-Ang)
        XX     -29.4478     XY       4.8775     YY     -36.4038
        XZ      -2.5469     YZ      -3.3471     ZZ     -35.8470
    Octopole Moments (Debye-Ang^2)
       XXX     -32.9264    XXY     -59.3209    XYY      -0.7919
       YYY    -173.7075    XXZ     -15.7165    XYZ      -3.1792
       YYZ     -13.7771    XZZ     -15.7810    YZZ     -63.7633
       ZZZ     -61.1416
    Hexadecapole Moments (Debye-Ang^3)
      XXXX    -184.1031   XXXY     -90.6680   XXYY    -167.4780
      XYYY     -68.3086   YYYY    -748.0429   XXXZ     -20.9599
      XXYZ     -21.5056   XYYZ     -10.9487   YYYZ     -47.0824
      XXZZ     -60.6258   XYZZ     -35.5679   YYZZ    -159.3053
      XZZZ     -31.8658   YZZZ     -84.3842   ZZZZ    -189.8460
 -----------------------------------------------------------------
Archival summary:
1\1\nid00525\SP\ProcedureUnspecified\BasisUnspecified\223(1-,1)\meili\SunSep2606:12:582021SunSep2606:12:582021\0\\#,ProcedureUnspecified,BasisUnspecified,\\-1,1\C\O,1,1.2492\O,1,1.25118,2,123.87\C,1,1.50542,2,119.035,3,176.697,0\H,4,1.09107,1,110.22,2,148.96,0\H,4,1.09157,1,108.328,2,-94.531,0\H,4,1.1,1,113.813,2,25.1089,0\\\@

 Total job time:  5219.01s(wall), 10265.03s(cpu) 
 Sun Sep 26 06:13:00 2021

        *************************************************************
        *                                                           *
        *  Thank you very much for using Q-Chem.  Have a nice day.  *
        *                                                           *
        *************************************************************


Done Job For Fragment 0
calling putenv with: QCSCRATCH=/global/cscratch1/sd/meili 
calling putenv with: QCLOCALSCR=/tmp 
calling putenv with: QCTHREADS=32 
Creating input file /tmp/qchem5359/Frg2.input
using default PutDataFrgm: nothing
calling putenv with: QCSCRATCH=/tmp/qchem5359/ 
calling putenv with: QCLOCALSCR=/tmp/qchem5359/ 
Spawning Job For Fragment 1
                  Welcome to Q-Chem
     A Quantum Leap Into The Future Of Chemistry


 Q-Chem 5.2, Q-Chem, Inc., Pleasanton, CA (2019)

 License issued to: National Energy Research Scientific Computing Center

 Yihan Shao,  Zhengting Gan,  E. Epifanovsky,  A. T. B. Gilbert,  M. Wormit,  
 J. Kussmann,  A. W. Lange,  A. Behn,  Jia Deng,  Xintian Feng,  D. Ghosh,  
 M. Goldey,  P. R. Horn,  L. D. Jacobson,  I. Kaliman,  T. Kus,  A. Landau,  
 Jie Liu,  E. I. Proynov,  R. M. Richard,  R. P. Steele,  E. J. Sundstrom,  
 H. L. Woodcock III,  P. M. Zimmerman,  D. Zuev,  B. Albrecht,  E. Alguire,  
 S. A. Baeppler,  D. Barton,  Z. Benda,  Y. A. Bernard,  E. J. Berquist,  
 K. B. Bravaya,  H. Burton,  D. Casanova,  Chun-Min Chang,  Yunqing Chen,  
 A. Chien,  K. D. Closser,  M. P. Coons,  S. Coriani,  S. Dasgupta,  
 A. L. Dempwolff,  M. Diedenhofen,  Hainam Do,  R. G. Edgar,  Po-Tung Fang,  
 S. Faraji,  S. Fatehi,  Qingguo Feng,  K. D. Fenk,  J. Fosso-Tande,  
 J. Gayvert,  Qinghui Ge,  A. Ghysels,  G. Gidofalvi,  J. Gomes,  
 J. Gonthier,  A. Gunina,  D. Hait,  M. W. D. Hanson-Heine,  
 P. H. P. Harbach,  A. W. Hauser,  M. F. Herbst,  J. E. Herr,  
 E. G. Hohenstein,  Z. C. Holden,  Kerwin Hui,  B. C. Huynh,  T.-C. Jagau,  
 Hyunjun Ji,  B. Kaduk,  K. Khistyaev,  Jaehoon Kim,  P. Klunzinger,  K. Koh,  
 D. Kosenkov,  L. Koulias,  T. Kowalczyk,  C. M. Krauter,  A. Kunitsa,  
 Ka Un Lao,  A. Laurent,  K. V. Lawler,  Joonho Lee,  D. Lefrancois,  
 S. Lehtola,  D. S. Levine,  Yi-Pei Li,  You-Sheng Lin,  Fenglai Liu,  
 E. Livshits,  A. Luenser,  P. Manohar,  E. Mansoor,  S. F. Manzer,  
 Shan-Ping Mao,  Yuezhi Mao,  N. Mardirossian,  A. V. Marenich,  
 T. Markovich,  L. A. Martinez-Martinez,  S. A. Maurer,  N. J. Mayhall,  
 S. C. McKenzie,  J.-M. Mewes,  P. Morgante,  A. F. Morrison,  
 J. W. Mullinax,  K. Nanda,  T. S. Nguyen-Beck,  R. Olivares-Amaya,  
 J. A. Parkhill,  Zheng Pei,  T. M. Perrine,  F. Plasser,  P. Pokhilko,  
 S. Prager,  A. Prociuk,  E. Ramos,  D. R. Rehn,  F. Rob,  M. Scheurer,  
 M. Schneider,  N. Sergueev,  S. M. Sharada,  S. Sharma,  D. W. Small,  
 T. Stauch,  T. Stein,  Yu-Chuan Su,  A. J. W. Thom,  A. Tkatchenko,  
 T. Tsuchimochi,  N. M. Tubman,  L. Vogt,  M. L. Vidal,  O. Vydrov,  
 M. A. Watson,  J. Wenzel,  M. de Wergifosse,  T. A. Wesolowski,  A. White,  
 J. Witte,  A. Yamada,  Jun Yang,  K. Yao,  S. Yeganeh,  S. R. Yost,  
 Zhi-Qiang You,  A. Zech,  Igor Ying Zhang,  Xing Zhang,  Yan Zhao,  
 Ying Zhu,  B. R. Brooks,  G. K. L. Chan,  C. J. Cramer,  M. S. Gordon,  
 W. J. Hehre,  A. Klamt,  M. W. Schmidt,  C. D. Sherrill,  D. G. Truhlar,  
 A. Aspuru-Guzik,  R. Baer,  A. T. Bell,  N. A. Besley,  Jeng-Da Chai,  
 A. E. DePrince, III,  R. A. DiStasio Jr.,  A. Dreuw,  B. D. Dunietz,  
 T. R. Furlani,  Chao-Ping Hsu,  Yousung Jung,  Jing Kong,  D. S. Lambrecht,  
 WanZhen Liang,  C. Ochsenfeld,  V. A. Rassolov,  L. V. Slipchenko,  
 J. E. Subotnik,  T. Van Voorhis,  J. M. Herbert,  A. I. Krylov,  
 P. M. W. Gill,  M. Head-Gordon

 Contributors to earlier versions of Q-Chem not listed above: 
 R. D. Adamson,  B. Austin,  J. Baker,  G. J. O. Beran,  K. Brandhorst,  
 S. T. Brown,  E. F. C. Byrd,  A. K. Chakraborty,  C.-L. Cheng,  
 Siu Hung Chien,  D. M. Chipman,  D. L. Crittenden,  H. Dachsel,  
 R. J. Doerksen,  A. D. Dutoi,  L. Fusti-Molnar,  W. A. Goddard III,  
 A. Golubeva-Zadorozhnaya,  S. R. Gwaltney,  G. Hawkins,  A. Heyden,  
 S. Hirata,  G. Kedziora,  F. J. Keil,  C. Kelley,  Jihan Kim,  R. A. King,  
 R. Z. Khaliullin,  P. P. Korambath,  W. Kurlancheek,  A. M. Lee,  M. S. Lee,  
 S. V. Levchenko,  Ching Yeh Lin,  D. Liotard,  R. C. Lochan,  I. Lotan,  
 P. E. Maslen,  N. Nair,  D. P. O'Neill,  D. Neuhauser,  E. Neuscamman,  
 C. M. Oana,  R. Olson,  B. Peters,  R. Peverati,  P. A. Pieniazek,  
 Y. M. Rhee,  J. Ritchie,  M. A. Rohrdanz,  E. Rosta,  N. J. Russ,  
 H. F. Schaefer III,  N. E. Schultz,  N. Shenvi,  A. C. Simmonett,  A. Sodt,  
 D. Stuck,  K. S. Thanthiriwatte,  V. Vanovschi,  Tao Wang,  A. Warshel,  
 C. F. Williams,  Q. Wu,  X. Xu,  W. Zhang

 Please cite Q-Chem as follows:
 Y. Shao et al., Mol. Phys. 113, 184-215 (2015)
 DOI: 10.1080/00268976.2014.952696

 Q-Chem 5.2.0 for Intel X86 EM64T Linux

 Parts of Q-Chem use Armadillo 8.300.2 (Tropical Shenanigans).
 http://arma.sourceforge.net/

 Q-Chem begins on Sun Sep 26 06:13:02 2021  

Host: cori01
0

     Scratch files written to /tmp/qchem5359//Frg2//
 May1019 |scratch|qcdevops|jenkins|workspace|build_RNUM -1
Processing $rem in /global/common/cori/software/qchem/5.2/config/preferences:
	 MEM_TOTAL  96000 
NAlpha2: 32
NElect   32
Mult     1
Symmetry turned off for PCM/SM12/SMD calculation

Checking the input file for inconsistencies... 	...done.

--------------------------------------------------------------
User input:
--------------------------------------------------------------
$molecule
0 1
 6	0.9810714374	-2.3945433336	-0.2018649022
 6	-0.4419285626	-2.0075433336	-0.5918649022
 8	-1.2919285626	-2.8585433336	-0.8378649022
 7	-0.7149285626	-0.7175433336	-0.6808649022
 1	-1.6329285626	-0.4285433336	-0.9698649022
 1	-0.0419285626	-0.0125433336	-0.4368649022
 1	1.0050714374	-2.4955433336	0.8811350978
 1	1.6750714374	-1.6075433336	-0.4618649022
 1	1.3252514374	-3.3351103336	-0.6566949022
$end
$rem
EDA2		1
METHOD		WB97X-V
BASIS		DEF2-TZVPD
XC_GRID		000099000590
NL_GRID		1
UNRESTRICTED		FALSE
MAX_SCF_CYCLES		200
SYMMETRY		FALSE
SYM_IGNORE		TRUE
BASIS_LIN_DEP_THRESH		6
THRESH		14
SCF_CONVERGENCE		8
SCF_PRINT_FRGM		TRUE
SOLVENT_METHOD		PCM
!required keywords
JOBTYPE		SP
SYM_IGNORE		TRUE
SUBSYSTEM		TRUE
GEN_SCFMAN		TRUE
CHILD_INSTRUCTION		2
SYM_IGNORE		TRUE
SCFMI		0
RI_K 0		
PARI_K 0		
MIN_PARI_K 0		
IARI_K 0		
OCC_RI_K 0		
PURECART		1111
MEM_STATIC		2000
MEM_TOTAL		96000
GUI		0
CHILD_MP		1
CHILD_MP_ORDERS		232
FRZ_RELAX		0
FRZ_RELAX_METHOD		0
EDA_CLS_ELEC		1
EDA_CLS_DISP		0
FRZ_ORTHO_DECOMP		1
EDA2		FALSE
FRGM_METHOD		FALSE
CIS_N_ROOTS  0
LOCAL_CIS    0
CIS_RLX_DNS  1
$end
$pcm
THEORY                  CPCM
METHOD                  SWIG
SOLVER                  INVERSION
RADII                   UFF
HPOINTS                 302
HEAVYPOINTS             302
PRINTLEVEL              0
$end
$solvent
DIELECTRIC              78.390000 ! water
$end
--------------------------------------------------------------
 ----------------------------------------------------------------
             Standard Nuclear Orientation (Angstroms)
    I     Atom           X                Y                Z
 ----------------------------------------------------------------
    1      C       0.9810714374    -2.3945433336    -0.2018649022
    2      C      -0.4419285626    -2.0075433336    -0.5918649022
    3      O      -1.2919285626    -2.8585433336    -0.8378649022
    4      N      -0.7149285626    -0.7175433336    -0.6808649022
    5      H      -1.6329285626    -0.4285433336    -0.9698649022
    6      H      -0.0419285626    -0.0125433336    -0.4368649022
    7      H       1.0050714374    -2.4955433336     0.8811350978
    8      H       1.6750714374    -1.6075433336    -0.4618649022
    9      H       1.3252514374    -3.3351103336    -0.6566949022
 ----------------------------------------------------------------
 Nuclear Repulsion Energy =         122.26754361 hartrees
 There are       16 alpha and       16 beta electrons
 Requested basis set is def2-TZVPD
 There are 78 shells and 196 basis functions

 Total QAlloc Memory Limit  96000 MB
 Mega-Array Size      1956 MB
 MEM_STATIC part      2000 MB
 Discretize the solute cavity surface with Lebedev spheres
	Using 302 Lebedev grid points for each H atom
	Using 302 Lebedev grid points for other atoms
	Atomic van der Waals radii will be scaled by 1.20
 Remove points where switching function is < 1.0e-08
 Keep 1211 surface tesserae and discard 1507 interior tesserae
 Molecular Surface Area = 128.573 Angst**2

                       Distance Matrix (Angstroms)
             C (  1)   C (  2)   O (  3)   N (  4)   H (  5)   H (  6)
   C (  2)  1.525385
   O (  3)  2.405477  1.227688
   N (  4)  2.432732  1.321571  2.222939
   H (  5)  3.359758  2.013605  2.457357  1.004871
   H (  6)  2.603013  2.040600  3.134169  1.004734  1.728706
   H (  7)  1.087964  2.121717  2.891875  2.925667  3.828542  2.999770
   H (  8)  1.081020  2.158376  3.241831  2.559719  3.548376  2.343659
   H (  9)  1.099998  2.211235  2.666378  3.318821  4.158971  3.599577
             H (  7)   H (  8)
   H (  8)  1.743873
   H (  9)  1.781098  1.773364
 
 A cutoff of  1.0D-14 yielded   3054 shell pairs
 There are     19544 function pairs (     24702 Cartesian)
 Smallest overlap matrix eigenvalue = 1.17E-05

 Scale SEOQF with 1.000000e-01/1.000000e-01/1.000000e-01

 Standard Electronic Orientation quadrupole field applied
 Nucleus-field energy     =     0.0000000102 hartrees
 Guess from superposition of atomic densities
 Warning:  Energy on first SCF cycle will be non-variational
 SAD guess density has 31.604610 electrons

 -----------------------------------------------------------------------
  General SCF calculation program by
  Eric Jon Sundstrom, Paul Horn, Yuezhi Mao, Dmitri Zuev, Alec White,
  David Stuck, Shaama M.S., Shane Yost, Joonho Lee, David Small,
  Daniel Levine, Susi Lehtola, Hugh Burton, Evgeny Epifanovsky
 -----------------------------------------------------------------------
 Exchange:     0.1670 Hartree-Fock + 1.0000 wB97X-V + LR-HF
 Correlation:  1.0000 wB97X-V
 Using Euler-Maclaurin-Lebedev (99,590) quadrature formula
 Nonlocal Correlation:  VV10 with C = 0.0100 and b = 6.00 and scale = 1.00000
 Grid used for NLC:  SG-1 standard quadrature
Energy prior to optimization (guess energy) = -208.703801005998
Begin Timing: Total SCF Calculation
begin iterations for algorithm: DIIS         
the SCF tolerance is set to 1.00e-08
    1    -208.7038010060      1.26e-02     00000 
    2    -208.3179649994      1.55e-02     00000 
    3    -209.2228328490      2.49e-03     00000 
    4    -209.2426952731      8.23e-04     00000 
    5    -209.2453784514      1.23e-04     00000 
    6    -209.2454763232      4.90e-05     00000 
    7    -209.2454934851      1.11e-05     00000 
    8    -209.2454946443      2.11e-06     00000 
    9    -209.2454947351      7.52e-07     00000 
   10    -209.2454947406      3.16e-07     00000 
   11    -209.2454947415      7.33e-08     00000 
   12    -209.2454947416      1.74e-08     00000 
   13    -209.2454947416      4.40e-09     00000 Convergence criterion met
Timing for Total SCF: 400.00s (wall), 792.78s (cpu)

************** Final PCM Free Energy Summary **************
 G_electrostatic  =      -0.01227789 hartree =      -7.70449309 kcal/mol
 G_cavitation     =       0.00000000 hartree =       0.00000000 kcal/mol
 G_dispersion     =       0.00000000 hartree =       0.00000000 kcal/mol
 G_repulsion      =       0.00000000 hartree =       0.00000000 kcal/mol
 --------------------------------------------------
 Non-electrostatic Free Energy =       0.00000000 hartree =       0.00000000 kcal/mol
 Total                         =      -0.01227789 hartree =      -7.70449309 kcal/mol
 --------------------------------------------------
 SCF Energy (H0 + V/2)                       =    -209.24549474 
 Solute Internal Energy (H0)                 =    -209.23321685 
 Total Free Energy (H0 + V/2 + non-elec)     =    -209.24549474 hartree
                                             = -131303.52971445 kcal/mol
***********************************************************

E_pcm = -0.0122778913
Multipole orders to be included
        2
        3
computing dipole RHS
computing quadrupole RHS
total number of RHS in solve_reponses: 8
RHS batch sizes
        8
Beginning Block Conjugate Gradient Iterations. Batch Number: 0
computing hessian-vector products by finite difference
              1      6.03e-01     00000 Conjugate Gradient Iteration
computing hessian-vector products by finite difference
              2      2.12e-01     00000 Conjugate Gradient Iteration
computing hessian-vector products by finite difference
              3      5.72e-02     00000 Conjugate Gradient Iteration
computing hessian-vector products by finite difference
              4      1.44e-02     00000 Conjugate Gradient Iteration
computing hessian-vector products by finite difference
              5      2.15e-03     00000 Conjugate Gradient Iteration
computing hessian-vector products by finite difference
              6      4.65e-04     00000 Conjugate Gradient Iteration
computing hessian-vector products by finite difference
              7      6.93e-05     00000 Conjugate Gradient Iteration
computing hessian-vector products by finite difference
              8      8.29e-06     00000 Conjugate Gradient Iteration
computing hessian-vector products by finite difference
              9      1.16e-06     00000 Conjugate Gradient Iteration
computing hessian-vector products by finite difference
             10      1.24e-07     00000 Conjugate Gradient Iteration
computing hessian-vector products by finite difference
             11      1.76e-08     00000 Conjugate Gradient Iteration
computing hessian-vector products by finite difference
             12      3.90e-09     00000 CG Converged
batch 0 complete
Done Calculating Responses
TESTING ORTHOGONALIZATION OF MULTIPOLE BASIS
Multipole virts passed orthogonality test
Virts Per Order
        48
        80
 
 --------------------------------------------------------------
 
                    Orbital Energies (a.u.)
 --------------------------------------------------------------
 
 Alpha MOs
 -- Occupied --
-19.1773 -14.4335 -10.3781 -10.2726  -1.1728  -1.0474  -0.8707  -0.7191
 -0.6613  -0.5902  -0.5681  -0.5183  -0.5094  -0.4827  -0.3829  -0.3675
 -- Virtual --
  0.0594   0.0908   0.0943   0.0972   0.1272   0.1279   0.1350   0.1419
  0.1724   0.1799   0.1919   0.2114   0.2226   0.2413   0.2470   0.2573
  0.2625   0.2691   0.2910   0.3079   0.3302   0.3312   0.3410   0.3445
  0.3550   0.3614   0.3670   0.3742   0.3898   0.3968   0.4161   0.4174
  0.4337   0.4505   0.4539   0.4718   0.4792   0.4900   0.4914   0.5022
  0.5241   0.5291   0.5438   0.5730   0.5824   0.5948   0.6216   0.6323
  0.6402   0.6554   0.6752   0.6861   0.7066   0.7151   0.7306   0.7673
  0.7707   0.7811   0.7926   0.8111   0.8146   0.8372   0.8451   0.8684
  0.9089   0.9501   0.9815   0.9867   1.0084   1.0318   1.0581   1.0793
  1.1078   1.1815   1.2242   1.2388   1.2819   1.3146   1.3425   1.3728
  1.4767   1.4897   1.5002   1.6196   1.6759   1.7236   1.7364   1.8101
  1.8456   1.8561   1.8972   1.9128   1.9235   1.9527   1.9872   2.0315
  2.0539   2.0914   2.1342   2.1606   2.1917   2.2302   2.3132   2.3674
  2.3803   2.4095   2.4414   2.4695   2.5481   2.5785   2.5904   2.6375
  2.6916   2.6983   2.7547   2.8012   2.8263   2.8872   2.9591   2.9905
  3.0495   3.1017   3.1416   3.1567   3.1975   3.2297   3.2651   3.2701
  3.3130   3.3344   3.3746   3.3985   3.4488   3.5059   3.5437   3.5796
  3.6196   3.6472   3.6643   3.7866   3.8777   3.9444   3.9986   4.0414
  4.0733   4.2070   4.2871   4.4055   4.4992   4.5978   4.6098   4.6704
  4.7783   4.8881   4.8907   4.9311   5.1421   5.1799   5.2716   5.3428
  5.3859   5.4074   5.4166   5.4912   5.5384   5.7725   5.9182   6.1634
  6.2593   6.5312   6.6454   6.7420   6.8278   6.9814   7.2293   7.3260
 22.5791  23.5770  32.4112  44.3200
 --------------------------------------------------------------
 
          Ground-State Mulliken Net Atomic Charges

     Atom                 Charge (a.u.)
  ----------------------------------------
      1 C                    -0.626845
      2 C                     0.428653
      3 O                    -0.580988
      4 N                    -0.254629
      5 H                     0.206059
      6 H                     0.185861
      7 H                     0.195610
      8 H                     0.234804
      9 H                     0.211475
  ----------------------------------------
  Sum of atomic charges =     0.000000

 -----------------------------------------------------------------
                    Cartesian Multipole Moments
 -----------------------------------------------------------------
    Charge (ESU x 10^10)
                 0.0000
    Dipole Moment (Debye)
         X       2.7759      Y       4.3190      Z       0.8755
       Tot       5.2083
    Quadrupole Moments (Debye-Ang)
        XX     -26.2742     XY     -10.9461     YY     -39.1682
        XZ      -1.4985     YZ      -5.1374     ZZ     -26.0306
    Octopole Moments (Debye-Ang^2)
       XXX      23.2392    XXY      61.0919    XYY      40.7634
       YYY     195.2497    XXZ      14.0340    XYZ       8.7806
       YYZ      29.1545    XZZ       8.4456    YZZ      53.0263
       ZZZ      43.8523
    Hexadecapole Moments (Debye-Ang^3)
      XXXX    -173.3683   XXXY     -53.3544   XXYY    -185.4865
      XYYY    -136.6859   YYYY    -878.6613   XXXZ     -30.9112
      XXYZ     -36.4236   XYYZ     -38.0055   YYYZ    -124.5108
      XXZZ     -43.7936   XYZZ     -19.5166   YYZZ    -147.0568
      XZZZ     -30.3526   YZZZ     -85.3463   ZZZZ     -90.0394
 -----------------------------------------------------------------
Archival summary:
1\1\nid00525\SP\ProcedureUnspecified\BasisUnspecified\1125\meili\SunSep2608:08:482021SunSep2608:08:482021\0\\#,ProcedureUnspecified,BasisUnspecified,\\0,1\C\O,1,1.22769\N,1,1.32157,2,121.339\H,3,1.00473,1,122.019,2,176.811,0\H,3,1.00487,1,119.262,2,-0.977717,0\C,1,1.52538,2,121.417,3,-178.59,0\H,6,1.08102,1,110.653,2,153.893,0\H,6,1.08796,1,107.376,2,-89.6285,0\H,6,1.1,1,113.773,2,31.0559,0\\\@

 Total job time:  6948.09s(wall), 13669.50s(cpu) 
 Sun Sep 26 08:08:50 2021

        *************************************************************
        *                                                           *
        *  Thank you very much for using Q-Chem.  Have a nice day.  *
        *                                                           *
        *************************************************************


Done Job For Fragment 1
calling putenv with: QCSCRATCH=/global/cscratch1/sd/meili 
calling putenv with: QCLOCALSCR=/tmp 
calling putenv with: QCTHREADS=32 
Doing General SCFMI
 Exchange:     0.1670 Hartree-Fock + 1.0000 wB97X-V + LR-HF
 Correlation:  1.0000 wB97X-V
 Using Euler-Maclaurin-Lebedev (99,590) quadrature formula
 Nonlocal Correlation:  VV10 with C = 0.0100 and b = 6.00 and scale = 1.00000
 Grid used for NLC:  SG-1 standard quadrature
performing fock build before subrot guess so that all methods have access
Printing subrot_rss_gen Method Specification:
Occupied Subspace Method is 0
Virtual Subspace Method is 0
Energy of the unrelaxed supersystem initial determinant -437.794790463861
performing fock build before subrot guess so that all methods have access
Printing subrot_rss_gen Method Specification:
Occupied Subspace Method is 0
Virtual Subspace Method is 0
Energy of the unrelaxed supersystem initial determinant w/ solvent -437.887249871820
write pseudocanon occs and virts to disk
write pseudocanon orbital energies to disk
Tolerance of ortho_decomp_scf: 1.00e-06
GDM subspace size: 20
Beginning the Orthogonal Decomposition of the Initial Supersystem Wavefunction
    1    -437.7235760341      7.54e-02     ortho_decomp Preconditoned Steepest Descent
    2    -437.7315437694      2.11e-03     ortho_decomp BFGS Step
    3    -437.7315756011      1.66e-04     ortho_decomp BFGS Step
    4    -437.7315756558      7.23e-06     ortho_decomp BFGS Step
    5    -437.7315756560      2.83e-07     ortho_decomp 00000 Convergence criterion met
 Hartree-Fock
 Hartree-Fock
 Hartree-Fock
Doing General SCFMI
 Exchange:     0.1670 Hartree-Fock + 1.0000 wB97X-V + LR-HF
 Correlation:  1.0000 wB97X-V
 Using Euler-Maclaurin-Lebedev (99,590) quadrature formula
 Nonlocal Correlation:  VV10 with C = 0.0100 and b = 6.00 and scale = 1.00000
 Grid used for NLC:  SG-1 standard quadrature
performing fock build at end of subrot_r(subrot) constructor so that all methods have access
<S^2> of initial wavefunction before polarization iterations 0.0000000000
Beginning iterations for the determination of the polarized wavefunction
Energy prior to optimization (guess energy) = -437.887249871820
Begin Timing: Total SCF Calculation
begin iterations for algorithm: DIIS         
the SCF tolerance is set to 1.00e-08
    1    -437.8872498718      2.11e-04     00000 
    2    -437.8888696737      1.28e-04     00000 
    3    -437.8891357919      6.11e-05     00000 
    4    -437.8892268986      1.91e-05     00000 
    5    -437.8892391597      9.98e-06     00000 
    6    -437.8892428407      4.02e-06     00000 
    7    -437.8892438595      2.13e-06     00000 
    8    -437.8892440273      1.04e-06     00000 
    9    -437.8892440710      3.89e-07     00000 
   10    -437.8892440744      2.38e-07     00000 
   11    -437.8892440756      1.01e-07     00000 
   12    -437.8892440759      4.81e-08     00000 
   13    -437.8892440760      2.06e-08     00000 
   14    -437.8892440760      8.62e-09     00000 Convergence criterion met
write pseudocanon occs and virts to disk
write pseudocanon orbital energies to disk
Timing for Total SCF: 2189.00s (wall), 4345.41s (cpu)
<S^2> of polarized wavefunction after polarization iterations 0.0000000000
relaxing scfmi constraint to allow all rotations in the entire AO span
Doing General SCFMI
 Exchange:     0.1670 Hartree-Fock + 1.0000 wB97X-V + LR-HF
 Correlation:  1.0000 wB97X-V
 Using Euler-Maclaurin-Lebedev (99,590) quadrature formula
 Nonlocal Correlation:  VV10 with C = 0.0100 and b = 6.00 and scale = 1.00000
 Grid used for NLC:  SG-1 standard quadrature
performing fock build at end of subrot_r(subrot) constructor so that all methods have access
<S^2> of polarized wavefunction before ct-allowed iterations 0.0000000000
Beginning iterations for the determination of the CT-Allowed wavefunction
Energy prior to optimization (guess energy) = -437.889244075985
Begin Timing: Total SCF Calculation
begin iterations for algorithm: DIIS         
the SCF tolerance is set to 1.00e-08
    1    -437.8892440760      1.72e-04     00000 
    2    -437.8914760471      2.23e-05     00000 
    3    -437.8915511372      7.71e-06     00000 
    4    -437.8915539866      5.72e-06     00000 
    5    -437.8915557216      1.06e-06     00000 
    6    -437.8915557944      3.94e-07     00000 
    7    -437.8915558090      1.61e-07     00000 
    8    -437.8915558110      3.78e-08     00000 
    9    -437.8915558112      1.88e-08     00000 
   10    -437.8915558113      6.42e-09     00000 Convergence criterion met
write pseudocanon occs and virts to disk
write pseudocanon orbital energies to disk
Timing for Total SCF: 1532.00s (wall), 3042.02s (cpu)
<S^2> of ct_allowed wavefunction after ct-allowed iterations 0.0000000000

================================
        Results of EDA2         
================================
Basic EDA Quantities
--------------------
Fragment Energies (Ha):
1 -228.6428249791
2 -209.2454947416
--------------------
  E_prp (kJ/mol) = 0.0000
  E_sol (kJ/mol) = 56.4130
  E_frz (kJ/mol) = -53.6040
  E_pol (kJ/mol) = -5.2358
  E_vct (kJ/mol) = -6.0695
  E_int (kJ/mol) = -8.4965
--------------------


Initial Wavefunction Decomposition
--------------------
  --------------------
  Orthogonal Fragment Subspace Decomposition:
  --------------------
     E_elec   (ELEC)   (kJ/mol) = -126.9335
     E_pauli  (PAULI)  (kJ/mol) = 91.9497
     E_disp   (DISP)   (kJ/mol) = -18.6203
     --------------------
     Terms summing to E_pauli:
     --------------------
        E_kep_pauli       (kJ/mol) = 112.3684
        E_disp_free_pauli (kJ/mol) = -20.4187
  --------------------
  Classical Frozen Decomposition:
  --------------------
     E_cls_elec  (CLS ELEC)  (kJ/mol) = -88.6913
     E_cls_pauli (CLS PAULI) (kJ/mol) = 35.0873
    [E_mod_pauli (MOD PAULI) (kJ/mol) = 53.7076 (CLS PAULI - DISP from orthogonal decomposition) ]
  --------------------
--------------------

Simplified EDA Summary (kJ/mol)
--------------------
 PREPARATION     0.0000
 SOLVATION       56.4130
 FROZEN          -34.9838      (does not include dispersion)
[PAULI           91.9497]     (if this is negligible, then frozen describes electrostatics)
 DISPERSION      -18.6203
 POLARIZATION    -5.2358
 CHARGE TRANSFER -6.0695
 TOTAL           -8.4965     (PRP + SOL + FRZ + DISP + POL + CT)
--------------------
 
 --------------------------------------------------------------
 
                    Orbital Energies (a.u.)
 --------------------------------------------------------------
 
 Alpha MOs
 -- Occupied --
-19.1668 -19.1290 -19.1269 -14.4127 -10.3654 -10.3290 -10.2664 -10.2404
 -1.1617  -1.1412  -1.0411  -1.0292  -0.8627  -0.8337  -0.7029  -0.6455
 -0.5990  -0.5809  -0.5592  -0.5350  -0.5246  -0.5221  -0.5066  -0.5022
 -0.4737  -0.4675  -0.4446  -0.3692  -0.3588  -0.3370  -0.3290  -0.3161
 -- Virtual --
  0.0562   0.0759   0.0836   0.0868   0.1018   0.1072   0.1098   0.1227
  0.1285   0.1316   0.1351   0.1464   0.1502   0.1538   0.1621   0.1748
  0.1852   0.1982   0.2012   0.2033   0.2139   0.2247   0.2274   0.2348
  0.2408   0.2537   0.2627   0.2719   0.2724   0.2757   0.2886   0.2981
  0.3072   0.3142   0.3204   0.3267   0.3341   0.3397   0.3435   0.3508
  0.3565   0.3594   0.3666   0.3668   0.3715   0.3792   0.3827   0.3831
  0.3916   0.3936   0.4027   0.4086   0.4199   0.4276   0.4387   0.4439
  0.4457   0.4498   0.4593   0.4678   0.4693   0.4786   0.4855   0.4922
  0.4937   0.5032   0.5066   0.5109   0.5216   0.5258   0.5306   0.5452
  0.5597   0.5634   0.5691   0.5805   0.5849   0.6012   0.6047   0.6072
  0.6181   0.6267   0.6355   0.6428   0.6519   0.6544   0.6714   0.6745
  0.6794   0.6841   0.6961   0.6988   0.7055   0.7077   0.7232   0.7275
  0.7372   0.7533   0.7604   0.7677   0.7737   0.7787   0.7900   0.7961
  0.8105   0.8134   0.8246   0.8287   0.8396   0.8457   0.8498   0.8575
  0.8697   0.8750   0.8901   0.8977   0.9155   0.9323   0.9444   0.9673
  0.9811   0.9831   0.9981   1.0131   1.0307   1.0418   1.0508   1.0691
  1.0736   1.0960   1.1060   1.1215   1.1340   1.1650   1.1675   1.1951
  1.2071   1.2166   1.2354   1.2789   1.2850   1.3010   1.3147   1.3231
  1.3360   1.3470   1.3708   1.3737   1.3924   1.4053   1.4261   1.4471
  1.4731   1.5161   1.5408   1.5607   1.6051   1.6409   1.6710   1.7301
  1.7561   1.7721   1.7889   1.8561   1.8820   1.8968   1.9057   1.9093
  1.9358   1.9514   1.9554   1.9627   1.9736   1.9884   1.9895   2.0058
  2.0135   2.0152   2.0268   2.0768   2.0842   2.0984   2.1180   2.1389
  2.1743   2.1892   2.2105   2.2228   2.2528   2.2646   2.2833   2.3312
  2.3408   2.3665   2.3894   2.4094   2.4149   2.4527   2.4757   2.4808
  2.5027   2.5115   2.5405   2.5563   2.6012   2.6060   2.6308   2.6381
  2.6504   2.6744   2.6867   2.7072   2.7397   2.7828   2.7947   2.8051
  2.8432   2.8618   2.8761   2.8855   2.9202   2.9290   2.9789   3.0095
  3.0310   3.1197   3.1223   3.1643   3.1718   3.1761   3.2020   3.2169
  3.2295   3.2446   3.2638   3.2815   3.3077   3.3121   3.3271   3.3384
  3.3566   3.3643   3.3813   3.3954   3.4075   3.4210   3.4381   3.4445
  3.4483   3.4887   3.5528   3.5651   3.5806   3.6235   3.6366   3.6530
  3.6600   3.6764   3.6821   3.7116   3.7333   3.7633   3.7852   3.8201
  3.8300   3.8748   3.9105   3.9729   4.0136   4.0382   4.0648   4.0816
  4.1151   4.1284   4.2306   4.2338   4.3105   4.3743   4.4545   4.5298
  4.6107   4.6193   4.6338   4.6575   4.6814   4.6962   4.8050   4.8314
  4.8573   4.9247   4.9430   4.9833   5.0363   5.2095   5.2151   5.2928
  5.3287   5.3687   5.3699   5.3912   5.3927   5.4276   5.4545   5.4783
  5.5223   5.5835   5.6126   5.7264   5.7700   5.7874   5.8224   5.9484
  6.0291   6.2282   6.2710   6.2779   6.3412   6.3617   6.5471   6.6459
  6.6643   6.6786   6.7554   6.7640   6.7880   6.8103   6.8424   6.9734
  7.0000   7.0509   7.0780   7.2466   7.2672   7.3465   7.3803   7.4122
  7.4364  22.6074  22.6442  23.6258  23.7939  32.5969  44.3870  44.4119
 44.4512
 --------------------------------------------------------------
 
          Ground-State Mulliken Net Atomic Charges

     Atom                 Charge (a.u.)
  ----------------------------------------
      1 C                    -0.612644
      2 C                     0.431122
      3 O                    -0.651887
      4 O                    -0.686655
      5 H                     0.186861
      6 H                     0.167481
      7 H                     0.193542
      8 C                    -0.589947
      9 C                     0.422166
     10 O                    -0.603088
     11 N                    -0.047500
     12 H                     0.157664
     13 H                     0.011392
     14 H                     0.175379
     15 H                     0.231733
     16 H                     0.214382
  ----------------------------------------
  Sum of atomic charges =    -1.000000

 -----------------------------------------------------------------
                    Cartesian Multipole Moments
 -----------------------------------------------------------------
    Charge (ESU x 10^10)
                -4.8032
    Dipole Moment (Debye)
         X       4.7671      Y      -1.7699      Z      -3.1089
       Tot       5.9601
    Quadrupole Moments (Debye-Ang)
        XX     -55.8346     XY      -6.3942     YY     -76.5251
        XZ      -4.1621     YZ      -8.6804     ZZ     -61.7499
    Octopole Moments (Debye-Ang^2)
       XXX      -9.3679    XXY       4.0374    XYY      41.0479
       YYY      30.1656    XXZ      -1.1008    XYZ       6.1228
       YYZ      17.0155    XZZ      -7.0142    YZZ      -9.0848
       ZZZ     -15.6939
    Hexadecapole Moments (Debye-Ang^3)
      XXXX    -358.1022   XXXY    -144.5102   XXYY    -354.8256
      XYYY    -206.6604   YYYY   -1637.1560   XXXZ     -52.3377
      XXYZ     -58.5581   XYYZ     -49.8442   YYYZ    -174.1359
      XXZZ    -104.5684   XYZZ     -55.3854   YYZZ    -307.0330
      XZZZ     -62.4224   YZZZ    -169.5370   ZZZZ    -278.3641
 -----------------------------------------------------------------
Archival summary:
1\1\nid00525\SP\ProcedureUnspecified\BasisUnspecified\3148(1-,1)\meili\SunSep2609:51:442021SunSep2609:51:442021\0\\#,ProcedureUnspecified,BasisUnspecified,\\-1,1\O\C,1,1.25118\O,2,1.2492,1,123.87\C,2,1.50542,1,117.017,3,-176.758,0\H,4,1.09107,2,110.22,1,-34.1189,0\H,4,1.09157,2,108.328,1,82.3904,0\H,4,1.1,2,113.813,1,-157.97,0\H,1,2.14986,2,76.2399,3,-71.8359,0\N,8,1.00473,1,118.473,2,153.734,0\H,9,1.00487,8,118.683,1,15.2877,0\C,9,1.32157,8,122.019,1,-162.513,0\O,11,1.22769,9,121.339,8,176.811,0\C,11,1.52538,9,117.23,8,-4.54276,0\H,13,1.08102,11,110.653,9,-24.7522,0\H,13,1.08796,11,107.376,9,91.7262,0\H,13,1.1,11,113.773,9,-147.589,0\\\@

 Total job time:  18349.37s(wall), 12227.68s(cpu) 
 Sun Sep 26 09:51:47 2021

        *************************************************************
        *                                                           *
        *  Thank you very much for using Q-Chem.  Have a nice day.  *
        *                                                           *
        *************************************************************


