                  Welcome to Q-Chem
     A Quantum Leap Into The Future Of Chemistry


 Q-Chem 5.2 (devel), Q-Chem, Inc., Pleasanton, CA (2019)

 Yihan Shao,  Zhengting Gan,  E. Epifanovsky,  A. T. B. Gilbert,  M. Wormit,  
 J. Kussmann,  A. W. Lange,  A. Behn,  Jia Deng,  Xintian Feng,  D. Ghosh,  
 M. Goldey,  P. R. Horn,  L. D. Jacobson,  I. Kaliman,  T. Kus,  A. Landau,  
 Jie Liu,  E. I. Proynov,  R. M. Richard,  R. P. Steele,  E. J. Sundstrom,  
 H. L. Woodcock III,  P. M. Zimmerman,  D. Zuev,  B. Albrecht,  E. Alguire,  
 S. A. Baeppler,  D. Barton,  Z. Benda,  Y. A. Bernard,  E. J. Berquist,  
 K. B. Bravaya,  H. Burton,  D. Casanova,  Chun-Min Chang,  Yunqing Chen,  
 A. Chien,  K. D. Closser,  M. P. Coons,  S. Coriani,  S. Dasgupta,  
 A. L. Dempwolff,  M. Diedenhofen,  Hainam Do,  R. G. Edgar,  Po-Tung Fang,  
 S. Faraji,  S. Fatehi,  Qingguo Feng,  K. D. Fenk,  J. Fosso-Tande,  
 J. Gayvert,  Qinghui Ge,  A. Ghysels,  G. Gidofalvi,  J. Gomes,  
 J. Gonthier,  A. Gunina,  D. Hait,  M. W. D. Hanson-Heine,  
 P. H. P. Harbach,  A. W. Hauser,  M. F. Herbst,  J. E. Herr,  
 E. G. Hohenstein,  Z. C. Holden,  Kerwin Hui,  B. C. Huynh,  T.-C. Jagau,  
 Hyunjun Ji,  B. Kaduk,  K. Khistyaev,  Jaehoon Kim,  P. Klunzinger,  K. Koh,  
 D. Kosenkov,  L. Koulias,  T. Kowalczyk,  C. M. Krauter,  A. Kunitsa,  
 Ka Un Lao,  A. Laurent,  K. V. Lawler,  Joonho Lee,  D. Lefrancois,  
 S. Lehtola,  D. S. Levine,  Yi-Pei Li,  You-Sheng Lin,  Fenglai Liu,  
 E. Livshits,  A. Luenser,  P. Manohar,  E. Mansoor,  S. F. Manzer,  
 Shan-Ping Mao,  Yuezhi Mao,  N. Mardirossian,  A. V. Marenich,  
 T. Markovich,  L. A. Martinez-Martinez,  S. A. Maurer,  N. J. Mayhall,  
 S. C. McKenzie,  J.-M. Mewes,  P. Morgante,  A. F. Morrison,  
 J. W. Mullinax,  K. Nanda,  T. S. Nguyen-Beck,  R. Olivares-Amaya,  
 J. A. Parkhill,  Zheng Pei,  T. M. Perrine,  F. Plasser,  P. Pokhilko,  
 S. Prager,  A. Prociuk,  E. Ramos,  D. R. Rehn,  F. Rob,  M. Scheurer,  
 M. Schneider,  N. Sergueev,  S. M. Sharada,  S. Sharma,  D. W. Small,  
 T. Stauch,  T. Stein,  Yu-Chuan Su,  A. J. W. Thom,  A. Tkatchenko,  
 T. Tsuchimochi,  N. M. Tubman,  L. Vogt,  M. L. Vidal,  O. Vydrov,  
 M. A. Watson,  J. Wenzel,  M. de Wergifosse,  T. A. Wesolowski,  A. White,  
 J. Witte,  A. Yamada,  Jun Yang,  K. Yao,  S. Yeganeh,  S. R. Yost,  
 Zhi-Qiang You,  A. Zech,  Igor Ying Zhang,  Xing Zhang,  Yan Zhao,  
 Ying Zhu,  B. R. Brooks,  G. K. L. Chan,  C. J. Cramer,  M. S. Gordon,  
 W. J. Hehre,  A. Klamt,  M. W. Schmidt,  C. D. Sherrill,  D. G. Truhlar,  
 A. Aspuru-Guzik,  R. Baer,  A. T. Bell,  N. A. Besley,  Jeng-Da Chai,  
 A. E. DePrince, III,  R. A. DiStasio Jr.,  A. Dreuw,  B. D. Dunietz,  
 T. R. Furlani,  Chao-Ping Hsu,  Yousung Jung,  Jing Kong,  D. S. Lambrecht,  
 WanZhen Liang,  C. Ochsenfeld,  V. A. Rassolov,  L. V. Slipchenko,  
 J. E. Subotnik,  T. Van Voorhis,  J. M. Herbert,  A. I. Krylov,  
 P. M. W. Gill,  M. Head-Gordon

 Contributors to earlier versions of Q-Chem not listed above: 
 R. D. Adamson,  B. Austin,  J. Baker,  G. J. O. Beran,  K. Brandhorst,  
 S. T. Brown,  E. F. C. Byrd,  A. K. Chakraborty,  C.-L. Cheng,  
 Siu Hung Chien,  D. M. Chipman,  D. L. Crittenden,  H. Dachsel,  
 R. J. Doerksen,  A. D. Dutoi,  L. Fusti-Molnar,  W. A. Goddard III,  
 A. Golubeva-Zadorozhnaya,  S. R. Gwaltney,  G. Hawkins,  A. Heyden,  
 S. Hirata,  G. Kedziora,  F. J. Keil,  C. Kelley,  Jihan Kim,  R. A. King,  
 R. Z. Khaliullin,  P. P. Korambath,  W. Kurlancheek,  A. M. Lee,  M. S. Lee,  
 S. V. Levchenko,  Ching Yeh Lin,  D. Liotard,  R. C. Lochan,  I. Lotan,  
 P. E. Maslen,  N. Nair,  D. P. O'Neill,  D. Neuhauser,  E. Neuscamman,  
 C. M. Oana,  R. Olson,  B. Peters,  R. Peverati,  P. A. Pieniazek,  
 Y. M. Rhee,  J. Ritchie,  M. A. Rohrdanz,  E. Rosta,  N. J. Russ,  
 H. F. Schaefer III,  N. E. Schultz,  N. Shenvi,  A. C. Simmonett,  A. Sodt,  
 D. Stuck,  K. S. Thanthiriwatte,  V. Vanovschi,  Tao Wang,  A. Warshel,  
 C. F. Williams,  Q. Wu,  X. Xu,  W. Zhang

 Please cite Q-Chem as follows:
 Y. Shao et al., Mol. Phys. 113, 184-215 (2015)
 DOI: 10.1080/00268976.2014.952696

 Q-Chem 5.2.1 for Intel X86 EM64T Linux

 Parts of Q-Chem use Armadillo 8.300.2 (Tropical Shenanigans).
 http://arma.sourceforge.net/

 Q-Chem begins on Wed Sep 29 05:43:30 2021  

compute-0-14.local
Host: 0

     Scratch files written to /home/meili/scratch/qchem42317//
NAlpha2: 110
NElect   110
Mult     1
Symmetry turned off for PCM/SM12/SMD calculation

 Q-Chem warning in module libgen/rem_setup.C, line 2813:

 Neither GIA nor STOLL is specified by user. Use STOLL as the default


Checking the input file for inconsistencies... 	...done.

--------------------------------------------------------------
User input:
--------------------------------------------------------------
$comment
SSI-045TRP-272GLN-1.pdb
$end

$molecule
0 1
--
0 1
C   -2.958613382820   -2.242715680072   -1.515464375444
C   -1.499613382820   -0.056715680072   -1.186464375444
C   -1.991613382820   -1.171715680072   -1.957464375444
C   -0.642613382820    0.715284319928   -2.029464375444
C   -1.448613382820   -1.059715680072   -3.182464375444
C   -1.061613382820    1.536284319928    0.596535624556
C   -0.220613382820    2.284284319928   -0.262464375444
C   -1.702613382820    0.372284319928    0.145535624556
C   -0.000613382820    1.878284319928   -1.585464375444
N   -0.627613382820    0.071284319928   -3.254464375444
H   -1.228613382820    1.849284319928    1.622535624556
H    0.257386617180    3.183284319928    0.106535624556
H   -2.345613382820   -0.169715680072    0.832535624556
H    0.639386617180    2.424284319928   -2.266464375444
H   -3.292613382820   -2.772715680072   -2.412464375444
H   -3.817613382820   -1.730715680072   -1.077464375444
H   -1.703613382820   -1.811715680072   -3.920464375444
H   -0.102613382820    0.382284319928   -4.066464375444
H   -2.550843382820   -2.932675680072   -0.762014375444
--
0 1
C    1.204386617180   -0.443715680072    2.971535624556
C    1.294386617180   -1.849715680072    3.598535624556
C    2.510386617180    0.009284319928    2.351535624556
O    3.591386617180   -0.289715680072    2.862535624556
N    2.406386617180    0.741284319928    1.250535624556
H    0.441386617180   -0.459715680072    2.192535624556
H    0.918386617180    0.277284319928    3.737535624556
H    2.092386617180   -2.412715680072    3.115535624556
H    0.350386617180   -2.372715680072    3.439535624556
H    3.245386617180    1.070284319928    0.789535624556
H    1.493386617180    0.963284319928    0.876535624556
H    1.491716617180   -1.839025680072    4.680635624556
$end

$rem
JOBTYPE			EDA
EDA2			1
method			wB97X-V
BASIS			def2-TZVPD
XC_GRID			000099000590
NL_GRID			1
UNRESTRICTED		FALSE
MAX_SCF_CYCLES		200
SYMMETRY		FALSE
SYM_IGNORE		TRUE
MEM_STATIC		2000
BASIS_LIN_DEP_THRESH 	6
THRESH 			14
SCF_CONVERGENCE 	8
SCF_PRINT_FRGM 		TRUE
SOLVENT_METHOD          PCM
$end

$PCM
THEORY                  CPCM
METHOD                  SWIG
SOLVER                  INVERSION
RADII                   UFF
HPOINTS                 302
HEAVYPOINTS             302
PRINTLEVEL              0
$END

$SOLVENT
DIELECTRIC              78.390000 ! water
$END
--------------------------------------------------------------
 ----------------------------------------------------------------
             Standard Nuclear Orientation (Angstroms)
    I     Atom           X                Y                Z
 ----------------------------------------------------------------
    1      C      -2.9586133828    -2.2427156801    -1.5154643754
    2      C      -1.4996133828    -0.0567156801    -1.1864643754
    3      C      -1.9916133828    -1.1717156801    -1.9574643754
    4      C      -0.6426133828     0.7152843199    -2.0294643754
    5      C      -1.4486133828    -1.0597156801    -3.1824643754
    6      C      -1.0616133828     1.5362843199     0.5965356246
    7      C      -0.2206133828     2.2842843199    -0.2624643754
    8      C      -1.7026133828     0.3722843199     0.1455356246
    9      C      -0.0006133828     1.8782843199    -1.5854643754
   10      N      -0.6276133828     0.0712843199    -3.2544643754
   11      H      -1.2286133828     1.8492843199     1.6225356246
   12      H       0.2573866172     3.1832843199     0.1065356246
   13      H      -2.3456133828    -0.1697156801     0.8325356246
   14      H       0.6393866172     2.4242843199    -2.2664643754
   15      H      -3.2926133828    -2.7727156801    -2.4124643754
   16      H      -3.8176133828    -1.7307156801    -1.0774643754
   17      H      -1.7036133828    -1.8117156801    -3.9204643754
   18      H      -0.1026133828     0.3822843199    -4.0664643754
   19      H      -2.5508433828    -2.9326756801    -0.7620143754
   20      C       1.2043866172    -0.4437156801     2.9715356246
   21      C       1.2943866172    -1.8497156801     3.5985356246
   22      C       2.5103866172     0.0092843199     2.3515356246
   23      O       3.5913866172    -0.2897156801     2.8625356246
   24      N       2.4063866172     0.7412843199     1.2505356246
   25      H       0.4413866172    -0.4597156801     2.1925356246
   26      H       0.9183866172     0.2772843199     3.7375356246
   27      H       2.0923866172    -2.4127156801     3.1155356246
   28      H       0.3503866172    -2.3727156801     3.4395356246
   29      H       3.2453866172     1.0702843199     0.7895356246
   30      H       1.4933866172     0.9632843199     0.8765356246
   31      H       1.4917166172    -1.8390256801     4.6806356246
 ----------------------------------------------------------------
 Nuclear Repulsion Energy =         928.59378197 hartrees
 There are       55 alpha and       55 beta electrons
 Requested basis set is def2-TZVPD
 There are 276 shells and 702 basis functions

 Total QAlloc Memory Limit   2000 MB
 Mega-Array Size      1956 MB
 MEM_STATIC part      2000 MB
 Discretize the solute cavity surface with Lebedev spheres
	Using 302 Lebedev grid points for each H atom
	Using 302 Lebedev grid points for other atoms
	Atomic van der Waals radii will be scaled by 1.20
 Remove points where switching function is < 1.0e-08
 Keep 3454 surface tesserae and discard 5908 interior tesserae
 Molecular Surface Area = 333.947 Angst**2
 A cutoff of  1.0D-14 yielded  32331 shell pairs
 There are    209409 function pairs (    264463 Cartesian)
 Smallest overlap matrix eigenvalue = 4.82E-07
 Linear dependence detected in AO basis
 Tighter screening thresholds may be required for diffuse basis sets
 Use S2THRESH > 14 and THRESH = 14 in case of SCF convergence issues
 Number of orthogonalized atomic orbitals = 698
 Maximum deviation from orthogonality = 1.499E-10

 Scale SEOQF with 1.000000e-01/1.000000e-01/1.000000e-01

 Standard Electronic Orientation quadrupole field applied
 Nucleus-field energy     =    -0.0000000331 hartrees

 -----------------------------------------------------------------------
  General SCF calculation program by
  Eric Jon Sundstrom, Paul Horn, Yuezhi Mao, Dmitri Zuev, Alec White,
  David Stuck, Shaama M.S., Shane Yost, Joonho Lee, David Small,
  Daniel Levine, Susi Lehtola, Hugh Burton, Evgeny Epifanovsky,
  Bang C. Huynh
 -----------------------------------------------------------------------
================================================================
                 ALMO-EDA with the EDA2 driver                  
================================================================
 The second-generation ALMO-EDA (for DFT):                      
 P. R. Horn, Y. Mao and M. Head-Gordon, PCCP, 18, 23067 (2016)  
 Decomposition of the frozen energy:                            
 P. R. Horn, Y. Mao and M. Head-Gordon, JCP, 144, 114107 (2016) 
 FERF model for polarization:                                   
 P. R. Horn and M. Head-Gordon, JCP, 143, 114111 (2015)         
Using eda2 option set 1
Option set summary: Frozen orbital wavefunction, initial wavefunction decomposition, and nDQ polarization.
--------------------------------
Printing EDA Options
--------------------------------
eda_child_super_basis      0
fragmo_guess_mode          0
child_mp                   1
child_mp_orders            232
cls_elec                   1
cls_disp                   0
scfmi_mode                 1
scfmi_occs                 0
scfmi_virts                0
frz_relax                  0
frz_relax_method           0
dc_pen_start               0
dc_pen_conv                0
dc_pen_increment           0
dc_pen_steps               0
dc_pen_thresh_factor       0
dc_pen_pre_newton_thresh   0
frz_ortho_decomp           1
frz_ortho_decomp_conv      6
frgm_method                2
scfmi_freeze_ss            0
separate_rehyb             0
plot_diff_den              0
eda_nocv                   0
eda_vct_relax              1
disp_free_x                0
disp_free_c                0
eda_bsse                   0
eda_pct_a                  0
eda_covp                   0
--------------------------------
Attempting to make child job directory: /home/meili/scratch/qchem42317//Frg1/
Attempting to make child job directory: /home/meili/scratch/qchem42317//Frg2/
Creating input file /home/meili/scratch/qchem42317/Frg1.input
using default PutDataFrgm: nothing
calling putenv with: QCSCRATCH=/home/meili/scratch/qchem42317/ 
Spawning Job For Fragment 0
                  Welcome to Q-Chem
     A Quantum Leap Into The Future Of Chemistry


 Q-Chem 5.2 (devel), Q-Chem, Inc., Pleasanton, CA (2019)

 Yihan Shao,  Zhengting Gan,  E. Epifanovsky,  A. T. B. Gilbert,  M. Wormit,  
 J. Kussmann,  A. W. Lange,  A. Behn,  Jia Deng,  Xintian Feng,  D. Ghosh,  
 M. Goldey,  P. R. Horn,  L. D. Jacobson,  I. Kaliman,  T. Kus,  A. Landau,  
 Jie Liu,  E. I. Proynov,  R. M. Richard,  R. P. Steele,  E. J. Sundstrom,  
 H. L. Woodcock III,  P. M. Zimmerman,  D. Zuev,  B. Albrecht,  E. Alguire,  
 S. A. Baeppler,  D. Barton,  Z. Benda,  Y. A. Bernard,  E. J. Berquist,  
 K. B. Bravaya,  H. Burton,  D. Casanova,  Chun-Min Chang,  Yunqing Chen,  
 A. Chien,  K. D. Closser,  M. P. Coons,  S. Coriani,  S. Dasgupta,  
 A. L. Dempwolff,  M. Diedenhofen,  Hainam Do,  R. G. Edgar,  Po-Tung Fang,  
 S. Faraji,  S. Fatehi,  Qingguo Feng,  K. D. Fenk,  J. Fosso-Tande,  
 J. Gayvert,  Qinghui Ge,  A. Ghysels,  G. Gidofalvi,  J. Gomes,  
 J. Gonthier,  A. Gunina,  D. Hait,  M. W. D. Hanson-Heine,  
 P. H. P. Harbach,  A. W. Hauser,  M. F. Herbst,  J. E. Herr,  
 E. G. Hohenstein,  Z. C. Holden,  Kerwin Hui,  B. C. Huynh,  T.-C. Jagau,  
 Hyunjun Ji,  B. Kaduk,  K. Khistyaev,  Jaehoon Kim,  P. Klunzinger,  K. Koh,  
 D. Kosenkov,  L. Koulias,  T. Kowalczyk,  C. M. Krauter,  A. Kunitsa,  
 Ka Un Lao,  A. Laurent,  K. V. Lawler,  Joonho Lee,  D. Lefrancois,  
 S. Lehtola,  D. S. Levine,  Yi-Pei Li,  You-Sheng Lin,  Fenglai Liu,  
 E. Livshits,  A. Luenser,  P. Manohar,  E. Mansoor,  S. F. Manzer,  
 Shan-Ping Mao,  Yuezhi Mao,  N. Mardirossian,  A. V. Marenich,  
 T. Markovich,  L. A. Martinez-Martinez,  S. A. Maurer,  N. J. Mayhall,  
 S. C. McKenzie,  J.-M. Mewes,  P. Morgante,  A. F. Morrison,  
 J. W. Mullinax,  K. Nanda,  T. S. Nguyen-Beck,  R. Olivares-Amaya,  
 J. A. Parkhill,  Zheng Pei,  T. M. Perrine,  F. Plasser,  P. Pokhilko,  
 S. Prager,  A. Prociuk,  E. Ramos,  D. R. Rehn,  F. Rob,  M. Scheurer,  
 M. Schneider,  N. Sergueev,  S. M. Sharada,  S. Sharma,  D. W. Small,  
 T. Stauch,  T. Stein,  Yu-Chuan Su,  A. J. W. Thom,  A. Tkatchenko,  
 T. Tsuchimochi,  N. M. Tubman,  L. Vogt,  M. L. Vidal,  O. Vydrov,  
 M. A. Watson,  J. Wenzel,  M. de Wergifosse,  T. A. Wesolowski,  A. White,  
 J. Witte,  A. Yamada,  Jun Yang,  K. Yao,  S. Yeganeh,  S. R. Yost,  
 Zhi-Qiang You,  A. Zech,  Igor Ying Zhang,  Xing Zhang,  Yan Zhao,  
 Ying Zhu,  B. R. Brooks,  G. K. L. Chan,  C. J. Cramer,  M. S. Gordon,  
 W. J. Hehre,  A. Klamt,  M. W. Schmidt,  C. D. Sherrill,  D. G. Truhlar,  
 A. Aspuru-Guzik,  R. Baer,  A. T. Bell,  N. A. Besley,  Jeng-Da Chai,  
 A. E. DePrince, III,  R. A. DiStasio Jr.,  A. Dreuw,  B. D. Dunietz,  
 T. R. Furlani,  Chao-Ping Hsu,  Yousung Jung,  Jing Kong,  D. S. Lambrecht,  
 WanZhen Liang,  C. Ochsenfeld,  V. A. Rassolov,  L. V. Slipchenko,  
 J. E. Subotnik,  T. Van Voorhis,  J. M. Herbert,  A. I. Krylov,  
 P. M. W. Gill,  M. Head-Gordon

 Contributors to earlier versions of Q-Chem not listed above: 
 R. D. Adamson,  B. Austin,  J. Baker,  G. J. O. Beran,  K. Brandhorst,  
 S. T. Brown,  E. F. C. Byrd,  A. K. Chakraborty,  C.-L. Cheng,  
 Siu Hung Chien,  D. M. Chipman,  D. L. Crittenden,  H. Dachsel,  
 R. J. Doerksen,  A. D. Dutoi,  L. Fusti-Molnar,  W. A. Goddard III,  
 A. Golubeva-Zadorozhnaya,  S. R. Gwaltney,  G. Hawkins,  A. Heyden,  
 S. Hirata,  G. Kedziora,  F. J. Keil,  C. Kelley,  Jihan Kim,  R. A. King,  
 R. Z. Khaliullin,  P. P. Korambath,  W. Kurlancheek,  A. M. Lee,  M. S. Lee,  
 S. V. Levchenko,  Ching Yeh Lin,  D. Liotard,  R. C. Lochan,  I. Lotan,  
 P. E. Maslen,  N. Nair,  D. P. O'Neill,  D. Neuhauser,  E. Neuscamman,  
 C. M. Oana,  R. Olson,  B. Peters,  R. Peverati,  P. A. Pieniazek,  
 Y. M. Rhee,  J. Ritchie,  M. A. Rohrdanz,  E. Rosta,  N. J. Russ,  
 H. F. Schaefer III,  N. E. Schultz,  N. Shenvi,  A. C. Simmonett,  A. Sodt,  
 D. Stuck,  K. S. Thanthiriwatte,  V. Vanovschi,  Tao Wang,  A. Warshel,  
 C. F. Williams,  Q. Wu,  X. Xu,  W. Zhang

 Please cite Q-Chem as follows:
 Y. Shao et al., Mol. Phys. 113, 184-215 (2015)
 DOI: 10.1080/00268976.2014.952696

 Q-Chem 5.2.1 for Intel X86 EM64T Linux

 Parts of Q-Chem use Armadillo 8.300.2 (Tropical Shenanigans).
 http://arma.sourceforge.net/

 Q-Chem begins on Wed Sep 29 05:43:36 2021  

compute-0-14.local
Host: 0

     Scratch files written to /home/meili/scratch/qchem42317//Frg1//
NAlpha2: 70
NElect   70
Mult     1
Symmetry turned off for PCM/SM12/SMD calculation

Checking the input file for inconsistencies... 	...done.

--------------------------------------------------------------
User input:
--------------------------------------------------------------
$molecule
0 1
 6	-2.9586133828	-2.2427156801	-1.5154643754
 6	-1.4996133828	-0.0567156801	-1.1864643754
 6	-1.9916133828	-1.1717156801	-1.9574643754
 6	-0.6426133828	0.7152843199	-2.0294643754
 6	-1.4486133828	-1.0597156801	-3.1824643754
 6	-1.0616133828	1.5362843199	0.5965356246
 6	-0.2206133828	2.2842843199	-0.2624643754
 6	-1.7026133828	0.3722843199	0.1455356246
 6	-0.0006133828	1.8782843199	-1.5854643754
 7	-0.6276133828	0.0712843199	-3.2544643754
 1	-1.2286133828	1.8492843199	1.6225356246
 1	0.2573866172	3.1832843199	0.1065356246
 1	-2.3456133828	-0.1697156801	0.8325356246
 1	0.6393866172	2.4242843199	-2.2664643754
 1	-3.2926133828	-2.7727156801	-2.4124643754
 1	-3.8176133828	-1.7307156801	-1.0774643754
 1	-1.7036133828	-1.8117156801	-3.9204643754
 1	-0.1026133828	0.3822843199	-4.0664643754
 1	-2.5508433828	-2.9326756801	-0.7620143754
$end
$rem
EDA2		1
METHOD		WB97X-V
BASIS		DEF2-TZVPD
XC_GRID		000099000590
NL_GRID		1
UNRESTRICTED		FALSE
MAX_SCF_CYCLES		200
SYMMETRY		FALSE
SYM_IGNORE		TRUE
BASIS_LIN_DEP_THRESH		6
THRESH		14
SCF_CONVERGENCE		8
SCF_PRINT_FRGM		TRUE
SOLVENT_METHOD		PCM
!required keywords
JOBTYPE		SP
SYM_IGNORE		TRUE
SUBSYSTEM		TRUE
GEN_SCFMAN		TRUE
CHILD_INSTRUCTION		2
SYM_IGNORE		TRUE
SCFMI		0
RI_K 0		
PARI_K 0		
MIN_PARI_K 0		
IARI_K 0		
OCC_RI_K 0		
PURECART		1111
MEM_STATIC		2000
MEM_TOTAL		2000
GUI		0
CHILD_MP		1
CHILD_MP_ORDERS		232
FRZ_RELAX		0
FRZ_RELAX_METHOD		0
EDA_CLS_ELEC		1
EDA_CLS_DISP		0
FRZ_ORTHO_DECOMP		1
EDA2		FALSE
FRGM_METHOD		FALSE
CIS_N_ROOTS  0
LOCAL_CIS    0
CIS_RLX_DNS  1
$end
$pcm
THEORY                  CPCM
METHOD                  SWIG
SOLVER                  INVERSION
RADII                   UFF
HPOINTS                 302
HEAVYPOINTS             302
PRINTLEVEL              0
$end
$solvent
DIELECTRIC              78.390000 ! water
$end
--------------------------------------------------------------
 ----------------------------------------------------------------
             Standard Nuclear Orientation (Angstroms)
    I     Atom           X                Y                Z
 ----------------------------------------------------------------
    1      C      -2.9586133828    -2.2427156801    -1.5154643754
    2      C      -1.4996133828    -0.0567156801    -1.1864643754
    3      C      -1.9916133828    -1.1717156801    -1.9574643754
    4      C      -0.6426133828     0.7152843199    -2.0294643754
    5      C      -1.4486133828    -1.0597156801    -3.1824643754
    6      C      -1.0616133828     1.5362843199     0.5965356246
    7      C      -0.2206133828     2.2842843199    -0.2624643754
    8      C      -1.7026133828     0.3722843199     0.1455356246
    9      C      -0.0006133828     1.8782843199    -1.5854643754
   10      N      -0.6276133828     0.0712843199    -3.2544643754
   11      H      -1.2286133828     1.8492843199     1.6225356246
   12      H       0.2573866172     3.1832843199     0.1065356246
   13      H      -2.3456133828    -0.1697156801     0.8325356246
   14      H       0.6393866172     2.4242843199    -2.2664643754
   15      H      -3.2926133828    -2.7727156801    -2.4124643754
   16      H      -3.8176133828    -1.7307156801    -1.0774643754
   17      H      -1.7036133828    -1.8117156801    -3.9204643754
   18      H      -0.1026133828     0.3822843199    -4.0664643754
   19      H      -2.5508433828    -2.9326756801    -0.7620143754
 ----------------------------------------------------------------
 Nuclear Repulsion Energy =         481.77175591 hartrees
 There are       35 alpha and       35 beta electrons
 Requested basis set is def2-TZVPD
 There are 175 shells and 451 basis functions

 Total QAlloc Memory Limit   2000 MB
 Mega-Array Size      1956 MB
 MEM_STATIC part      2000 MB
 Discretize the solute cavity surface with Lebedev spheres
	Using 302 Lebedev grid points for each H atom
	Using 302 Lebedev grid points for other atoms
	Atomic van der Waals radii will be scaled by 1.20
 Remove points where switching function is < 1.0e-08
 Keep 2174 surface tesserae and discard 3564 interior tesserae
 Molecular Surface Area = 216.642 Angst**2
 A cutoff of  1.0D-14 yielded  14453 shell pairs
 There are     98149 function pairs (    126287 Cartesian)
 Smallest overlap matrix eigenvalue = 5.75E-07
 Linear dependence detected in AO basis
 Tighter screening thresholds may be required for diffuse basis sets
 Use S2THRESH > 14 and THRESH = 14 in case of SCF convergence issues
 Number of orthogonalized atomic orbitals = 448
 Maximum deviation from orthogonality = 1.987E-10

 Scale SEOQF with 1.000000e-01/1.000000e-01/1.000000e-01

 Standard Electronic Orientation quadrupole field applied
 Nucleus-field energy     =    -0.0000000115 hartrees
 Guess from superposition of atomic densities
 Warning:  Energy on first SCF cycle will be non-variational
 SAD guess density has 70.000000 electrons

 -----------------------------------------------------------------------
  General SCF calculation program by
  Eric Jon Sundstrom, Paul Horn, Yuezhi Mao, Dmitri Zuev, Alec White,
  David Stuck, Shaama M.S., Shane Yost, Joonho Lee, David Small,
  Daniel Levine, Susi Lehtola, Hugh Burton, Evgeny Epifanovsky,
  Bang C. Huynh
 -----------------------------------------------------------------------
 Exchange:     0.1670 Hartree-Fock + 1.0000 wB97X-V + LR-HF
 Correlation:  1.0000 wB97X-V
 Using Euler-Maclaurin-Lebedev (99,590) quadrature formula
 Nonlocal Correlation:  VV10 with C = 0.0100 and b = 6.00 and scale = 1.00000
 Grid used for NLC:  SG-1 standard quadrature
Energy prior to optimization (guess energy) = -403.079387292458
Begin Timing: Total SCF Calculation
begin iterations for algorithm: DIIS         
the SCF tolerance is set to 1.00e-08
    1    -403.0793872925      1.63e-03     00000 
    2    -403.1269167539      1.17e-03     00000 
    3    -403.1621514820      2.55e-04     00000 
    4    -403.1636584902      1.19e-04     00000 
    5    -403.1640201586      2.40e-05     00000 
    6    -403.1640389136      9.49e-06     00000 
    7    -403.1640414518      2.85e-06     00000 
    8    -403.1640418855      7.02e-07     00000 
    9    -403.1640419357      3.51e-07     00000 
   10    -403.1640419478      1.68e-07     00000 
   11    -403.1640419515      6.09e-08     00000 
   12    -403.1640419521      2.95e-08     00000 
   13    -403.1640419522      8.95e-09     00000 Convergence criterion met
Timing for Total SCF: 1260.00s (wall), 8637.13s (cpu)

************** Final PCM Free Energy Summary **************
 G_electrostatic  =      -0.00636713 hartree =      -3.99543676 kcal/mol
 G_cavitation     =       0.00000000 hartree =       0.00000000 kcal/mol
 G_dispersion     =       0.00000000 hartree =       0.00000000 kcal/mol
 G_repulsion      =       0.00000000 hartree =       0.00000000 kcal/mol
 --------------------------------------------------
 Non-electrostatic Free Energy =       0.00000000 hartree =       0.00000000 kcal/mol
 Total                         =      -0.00636713 hartree =      -3.99543676 kcal/mol
 --------------------------------------------------
 SCF Energy (H0 + V/2)                       =    -403.16404195 
 Solute Internal Energy (H0)                 =    -403.15767482 
 Total Free Energy (H0 + V/2 + non-elec)     =    -403.16404195 hartree
                                             = -252989.25469163 kcal/mol
***********************************************************

E_pcm = -0.0063671338
Multipole orders to be included
        2
        3
computing dipole RHS
computing quadrupole RHS
total number of RHS in solve_reponses: 8
RHS batch sizes
        8
Beginning Block Conjugate Gradient Iterations. Batch Number: 0
computing hessian-vector products by finite difference
              1      6.26e-01     00000 Conjugate Gradient Iteration
computing hessian-vector products by finite difference
              2      2.11e-01     00000 Conjugate Gradient Iteration
computing hessian-vector products by finite difference
              3      6.07e-02     00000 Conjugate Gradient Iteration
computing hessian-vector products by finite difference
              4      2.44e-02     00000 Conjugate Gradient Iteration
computing hessian-vector products by finite difference
              5      9.20e-03     00000 Conjugate Gradient Iteration
computing hessian-vector products by finite difference
              6      2.39e-03     00000 Conjugate Gradient Iteration
computing hessian-vector products by finite difference
              7      6.36e-04     00000 Conjugate Gradient Iteration
computing hessian-vector products by finite difference
              8      1.44e-04     00000 Conjugate Gradient Iteration
computing hessian-vector products by finite difference
              9      2.69e-05     00000 Conjugate Gradient Iteration
computing hessian-vector products by finite difference
             10      4.82e-06     00000 Conjugate Gradient Iteration
computing hessian-vector products by finite difference
             11      8.50e-07     00000 Conjugate Gradient Iteration
computing hessian-vector products by finite difference
             12      1.77e-07     00000 Conjugate Gradient Iteration
computing hessian-vector products by finite difference
             13      5.24e-08     00000 Conjugate Gradient Iteration
computing hessian-vector products by finite difference
             14      9.02e-09     00000 CG Converged
batch 0 complete
Done Calculating Responses
TESTING ORTHOGONALIZATION OF MULTIPOLE BASIS
Multipole virts passed orthogonality test
Virts Per Order
          105
          175

 --------------------------------------------------------------

                    Orbital Energies (a.u.)
 --------------------------------------------------------------

 Alpha MOs
 -- Occupied --
-14.4526 -10.3083 -10.2972 -10.2776 -10.2757 -10.2755 -10.2712 -10.2692
-10.2656 -10.2624  -1.1087  -0.9738  -0.9330  -0.8674  -0.8601  -0.8183
 -0.7432  -0.7165  -0.6744  -0.6507  -0.6048  -0.5799  -0.5521  -0.5484
 -0.5397  -0.5150  -0.5122  -0.4937  -0.4846  -0.4536  -0.4496  -0.4337
 -0.3783  -0.3155  -0.2960
 -- Virtual --
  0.0508   0.0596   0.0745   0.0764   0.0863   0.0965   0.0984   0.1052
  0.1264   0.1318   0.1357   0.1458   0.1550   0.1630   0.1676   0.1761
  0.1865   0.1911   0.2001   0.2052   0.2095   0.2149   0.2231   0.2424
  0.2454   0.2535   0.2566   0.2622   0.2634   0.2675   0.2731   0.2750
  0.2791   0.2826   0.2847   0.2880   0.2995   0.3044   0.3119   0.3160
  0.3265   0.3302   0.3315   0.3342   0.3401   0.3414   0.3439   0.3498
  0.3518   0.3548   0.3664   0.3710   0.3739   0.3833   0.3878   0.3912
  0.4012   0.4047   0.4094   0.4106   0.4117   0.4180   0.4218   0.4321
  0.4341   0.4422   0.4459   0.4516   0.4550   0.4616   0.4653   0.4728
  0.4837   0.4869   0.4932   0.4952   0.4995   0.5066   0.5173   0.5196
  0.5261   0.5353   0.5386   0.5414   0.5460   0.5499   0.5537   0.5604
  0.5659   0.5755   0.5774   0.5894   0.6014   0.6070   0.6136   0.6193
  0.6327   0.6368   0.6416   0.6445   0.6512   0.6597   0.6757   0.6803
  0.6872   0.6924   0.6934   0.6993   0.7049   0.7143   0.7225   0.7283
  0.7346   0.7417   0.7482   0.7554   0.7577   0.7662   0.7696   0.7725
  0.7737   0.7774   0.7822   0.7836   0.7935   0.7995   0.8038   0.8091
  0.8128   0.8193   0.8271   0.8296   0.8348   0.8428   0.8493   0.8531
  0.8570   0.8632   0.8722   0.8924   0.9007   0.9036   0.9126   0.9290
  0.9458   0.9522   0.9709   0.9813   0.9912   1.0055   1.0100   1.0109
  1.0308   1.0407   1.0511   1.0604   1.0666   1.0703   1.0908   1.0980
  1.1138   1.1270   1.1336   1.1459   1.1682   1.1801   1.1948   1.2042
  1.2456   1.2492   1.2604   1.2700   1.2892   1.3035   1.3212   1.3400
  1.3685   1.3775   1.3856   1.4029   1.4208   1.4353   1.4482   1.4754
  1.5066   1.5217   1.5453   1.5628   1.5836   1.5973   1.6044   1.6220
  1.6412   1.6505   1.6866   1.7014   1.7072   1.7150   1.7473   1.7543
  1.7823   1.8064   1.8387   1.8447   1.8510   1.8559   1.8749   1.8811
  1.8910   1.9198   1.9249   1.9337   1.9464   1.9614   1.9699   1.9872
  1.9917   1.9941   2.0033   2.0206   2.0265   2.0559   2.0654   2.0753
  2.0885   2.1097   2.1130   2.1665   2.1772   2.1859   2.1977   2.2123
  2.2556   2.2930   2.2998   2.3032   2.3274   2.3366   2.3552   2.3925
  2.3979   2.4199   2.4442   2.4648   2.4735   2.4899   2.5008   2.5213
  2.5497   2.5725   2.5897   2.5934   2.6043   2.6281   2.6619   2.6707
  2.6904   2.7113   2.7243   2.7428   2.7597   2.7617   2.7808   2.7999
  2.8076   2.8279   2.8345   2.8507   2.8648   2.8735   2.8990   2.9063
  2.9164   2.9314   2.9477   2.9564   2.9878   2.9960   3.0141   3.0264
  3.0326   3.0523   3.0731   3.0846   3.1076   3.1155   3.1210   3.1327
  3.1715   3.1815   3.1986   3.2106   3.2274   3.2457   3.2538   3.2666
  3.2926   3.3092   3.3117   3.3275   3.3379   3.3630   3.3638   3.3775
  3.3954   3.4103   3.4213   3.4337   3.4414   3.4528   3.4661   3.4682
  3.4752   3.4947   3.5037   3.5041   3.5203   3.5238   3.5425   3.5673
  3.5775   3.5840   3.6021   3.6200   3.6322   3.6458   3.6543   3.6604
  3.6867   3.6944   3.7056   3.7175   3.7374   3.7448   3.7548   3.7693
  3.8104   3.8550   3.8890   3.8949   3.9050   3.9436   3.9605   4.0121
  4.0247   4.0351   4.0950   4.1328   4.1548   4.1756   4.1985   4.2145
  4.2386   4.2524   4.2566   4.2844   4.2877   4.3270   4.3402   4.3571
  4.3669   4.4070   4.4228   4.4593   4.4628   4.4941   4.5145   4.5704
  4.5981   4.6255   4.6459   4.7236   4.7561   4.7987   4.8229   4.8952
  4.9259   4.9316   4.9555   4.9708   4.9830   5.0389   5.0462   5.0928
  5.1159   5.1472   5.1754   5.1885   5.2307   5.3673   5.3825   5.4306
  5.4624   5.5158   5.5673   5.6115   5.7025   5.7976   5.8230   5.9370
  5.9502   6.2399   6.3230  22.6253  22.7354  22.8817  22.8987  22.9220
 23.1265  23.2222  23.4507  23.7239  32.8352
 --------------------------------------------------------------

          Ground-State Mulliken Net Atomic Charges

     Atom                 Charge (a.u.)
  ----------------------------------------
      1 C                    -0.981798
      2 C                     0.478475
      3 C                     0.620603
      4 C                    -0.010503
      5 C                    -0.592796
      6 C                    -0.623364
      7 C                    -0.414625
      8 C                    -0.433024
      9 C                    -0.721142
     10 N                     0.134320
     11 H                     0.335827
     12 H                     0.351580
     13 H                     0.355617
     14 H                     0.343321
     15 H                     0.264393
     16 H                     0.245129
     17 H                     0.241715
     18 H                     0.181338
     19 H                     0.224933
  ----------------------------------------
  Sum of atomic charges =     0.000000

 -----------------------------------------------------------------
                    Cartesian Multipole Moments
 -----------------------------------------------------------------
    Charge (ESU x 10^10)
                -0.0000
    Dipole Moment (Debye)
         X       0.4462      Y      -0.5419      Z      -2.4050
       Tot       2.5054
    Quadrupole Moments (Debye-Ang)
        XX     -60.5056     XY       6.0321     YY     -57.1250
        XZ      -2.4750     YZ       1.4702     ZZ     -42.8801
    Octopole Moments (Debye-Ang^2)
       XXX     225.6100    XXY     -23.5407    XYY      78.0016
       YYY     -34.1706    XXZ      87.2268    XYZ     -13.0868
       YYZ      78.4348    XZZ      74.4424    YZZ     -12.9090
       ZZZ     175.9365
    Hexadecapole Moments (Debye-Ang^3)
      XXXX    -958.8490   XXXY    -150.1774   XXYY    -302.7467
      XYYY    -138.1869   YYYY    -846.9345   XXXZ    -318.6357
      XXYZ     -15.4937   XYYZ     -95.4544   YYYZ     -90.6784
      XXZZ    -386.8644   XYZZ     -17.8646   YYZZ    -336.2773
      XZZZ    -308.4475   YZZZ     -87.6374   ZZZZ   -1035.1867
 -----------------------------------------------------------------
Archival summary:
1\1\compute-0-14.local\SP\ProcedureUnspecified\BasisUnspecified\199\meili\WedSep2912:52:402021WedSep2912:52:402021\0\\#,ProcedureUnspecified,BasisUnspecified,\\0,1\C\C,1,1.41403\H,2,1.0859,1,121.974\C,2,1.40327,1,119.264,3,-179.68,0\H,4,1.0856,2,118.205,1,-179.929,0\C,4,1.41586,2,120.968,1,0.139385,0\H,6,1.08298,4,119.604,2,179.554,0\C,6,1.40127,4,120.864,2,-0.306234,0\H,8,1.08235,6,122.732,4,-179.718,0\C,8,1.40067,6,117.898,4,0.262876,0\N,10,1.38405,8,131.448,6,179.922,0\H,11,1.01572,10,124.799,8,0.061252,0\C,11,1.39942,10,108.915,8,-179.795,0\H,13,1.08405,11,131.576,10,179.524,0\C,13,1.34463,11,110.555,10,-0.0868922,0\C,15,1.50914,13,125.782,11,178.25,0\H,16,1.09173,15,106.789,13,-127.732,0\H,16,1.0941,15,107.414,13,-11.5993,0\H,16,1.1,15,114.093,13,112.875,0\\\@

 Total job time:  25744.24s(wall), 177165.78s(cpu) 
 Wed Sep 29 12:52:40 2021

        *************************************************************
        *                                                           *
        *  Thank you very much for using Q-Chem.  Have a nice day.  *
        *                                                           *
        *************************************************************


Done Job For Fragment 0
calling putenv with: QCSCRATCH=/home/meili/scratch 
calling putenv with: QCTHREADS=8 
Creating input file /home/meili/scratch/qchem42317/Frg2.input
using default PutDataFrgm: nothing
calling putenv with: QCSCRATCH=/home/meili/scratch/qchem42317/ 
Spawning Job For Fragment 1
                  Welcome to Q-Chem
     A Quantum Leap Into The Future Of Chemistry


 Q-Chem 5.2 (devel), Q-Chem, Inc., Pleasanton, CA (2019)

 Yihan Shao,  Zhengting Gan,  E. Epifanovsky,  A. T. B. Gilbert,  M. Wormit,  
 J. Kussmann,  A. W. Lange,  A. Behn,  Jia Deng,  Xintian Feng,  D. Ghosh,  
 M. Goldey,  P. R. Horn,  L. D. Jacobson,  I. Kaliman,  T. Kus,  A. Landau,  
 Jie Liu,  E. I. Proynov,  R. M. Richard,  R. P. Steele,  E. J. Sundstrom,  
 H. L. Woodcock III,  P. M. Zimmerman,  D. Zuev,  B. Albrecht,  E. Alguire,  
 S. A. Baeppler,  D. Barton,  Z. Benda,  Y. A. Bernard,  E. J. Berquist,  
 K. B. Bravaya,  H. Burton,  D. Casanova,  Chun-Min Chang,  Yunqing Chen,  
 A. Chien,  K. D. Closser,  M. P. Coons,  S. Coriani,  S. Dasgupta,  
 A. L. Dempwolff,  M. Diedenhofen,  Hainam Do,  R. G. Edgar,  Po-Tung Fang,  
 S. Faraji,  S. Fatehi,  Qingguo Feng,  K. D. Fenk,  J. Fosso-Tande,  
 J. Gayvert,  Qinghui Ge,  A. Ghysels,  G. Gidofalvi,  J. Gomes,  
 J. Gonthier,  A. Gunina,  D. Hait,  M. W. D. Hanson-Heine,  
 P. H. P. Harbach,  A. W. Hauser,  M. F. Herbst,  J. E. Herr,  
 E. G. Hohenstein,  Z. C. Holden,  Kerwin Hui,  B. C. Huynh,  T.-C. Jagau,  
 Hyunjun Ji,  B. Kaduk,  K. Khistyaev,  Jaehoon Kim,  P. Klunzinger,  K. Koh,  
 D. Kosenkov,  L. Koulias,  T. Kowalczyk,  C. M. Krauter,  A. Kunitsa,  
 Ka Un Lao,  A. Laurent,  K. V. Lawler,  Joonho Lee,  D. Lefrancois,  
 S. Lehtola,  D. S. Levine,  Yi-Pei Li,  You-Sheng Lin,  Fenglai Liu,  
 E. Livshits,  A. Luenser,  P. Manohar,  E. Mansoor,  S. F. Manzer,  
 Shan-Ping Mao,  Yuezhi Mao,  N. Mardirossian,  A. V. Marenich,  
 T. Markovich,  L. A. Martinez-Martinez,  S. A. Maurer,  N. J. Mayhall,  
 S. C. McKenzie,  J.-M. Mewes,  P. Morgante,  A. F. Morrison,  
 J. W. Mullinax,  K. Nanda,  T. S. Nguyen-Beck,  R. Olivares-Amaya,  
 J. A. Parkhill,  Zheng Pei,  T. M. Perrine,  F. Plasser,  P. Pokhilko,  
 S. Prager,  A. Prociuk,  E. Ramos,  D. R. Rehn,  F. Rob,  M. Scheurer,  
 M. Schneider,  N. Sergueev,  S. M. Sharada,  S. Sharma,  D. W. Small,  
 T. Stauch,  T. Stein,  Yu-Chuan Su,  A. J. W. Thom,  A. Tkatchenko,  
 T. Tsuchimochi,  N. M. Tubman,  L. Vogt,  M. L. Vidal,  O. Vydrov,  
 M. A. Watson,  J. Wenzel,  M. de Wergifosse,  T. A. Wesolowski,  A. White,  
 J. Witte,  A. Yamada,  Jun Yang,  K. Yao,  S. Yeganeh,  S. R. Yost,  
 Zhi-Qiang You,  A. Zech,  Igor Ying Zhang,  Xing Zhang,  Yan Zhao,  
 Ying Zhu,  B. R. Brooks,  G. K. L. Chan,  C. J. Cramer,  M. S. Gordon,  
 W. J. Hehre,  A. Klamt,  M. W. Schmidt,  C. D. Sherrill,  D. G. Truhlar,  
 A. Aspuru-Guzik,  R. Baer,  A. T. Bell,  N. A. Besley,  Jeng-Da Chai,  
 A. E. DePrince, III,  R. A. DiStasio Jr.,  A. Dreuw,  B. D. Dunietz,  
 T. R. Furlani,  Chao-Ping Hsu,  Yousung Jung,  Jing Kong,  D. S. Lambrecht,  
 WanZhen Liang,  C. Ochsenfeld,  V. A. Rassolov,  L. V. Slipchenko,  
 J. E. Subotnik,  T. Van Voorhis,  J. M. Herbert,  A. I. Krylov,  
 P. M. W. Gill,  M. Head-Gordon

 Contributors to earlier versions of Q-Chem not listed above: 
 R. D. Adamson,  B. Austin,  J. Baker,  G. J. O. Beran,  K. Brandhorst,  
 S. T. Brown,  E. F. C. Byrd,  A. K. Chakraborty,  C.-L. Cheng,  
 Siu Hung Chien,  D. M. Chipman,  D. L. Crittenden,  H. Dachsel,  
 R. J. Doerksen,  A. D. Dutoi,  L. Fusti-Molnar,  W. A. Goddard III,  
 A. Golubeva-Zadorozhnaya,  S. R. Gwaltney,  G. Hawkins,  A. Heyden,  
 S. Hirata,  G. Kedziora,  F. J. Keil,  C. Kelley,  Jihan Kim,  R. A. King,  
 R. Z. Khaliullin,  P. P. Korambath,  W. Kurlancheek,  A. M. Lee,  M. S. Lee,  
 S. V. Levchenko,  Ching Yeh Lin,  D. Liotard,  R. C. Lochan,  I. Lotan,  
 P. E. Maslen,  N. Nair,  D. P. O'Neill,  D. Neuhauser,  E. Neuscamman,  
 C. M. Oana,  R. Olson,  B. Peters,  R. Peverati,  P. A. Pieniazek,  
 Y. M. Rhee,  J. Ritchie,  M. A. Rohrdanz,  E. Rosta,  N. J. Russ,  
 H. F. Schaefer III,  N. E. Schultz,  N. Shenvi,  A. C. Simmonett,  A. Sodt,  
 D. Stuck,  K. S. Thanthiriwatte,  V. Vanovschi,  Tao Wang,  A. Warshel,  
 C. F. Williams,  Q. Wu,  X. Xu,  W. Zhang

 Please cite Q-Chem as follows:
 Y. Shao et al., Mol. Phys. 113, 184-215 (2015)
 DOI: 10.1080/00268976.2014.952696

 Q-Chem 5.2.1 for Intel X86 EM64T Linux

 Parts of Q-Chem use Armadillo 8.300.2 (Tropical Shenanigans).
 http://arma.sourceforge.net/

 Q-Chem begins on Wed Sep 29 12:52:42 2021  

compute-0-14.local
Host: 0

     Scratch files written to /home/meili/scratch/qchem42317//Frg2//
NAlpha2: 40
NElect   40
Mult     1
Symmetry turned off for PCM/SM12/SMD calculation

Checking the input file for inconsistencies... 	...done.

--------------------------------------------------------------
User input:
--------------------------------------------------------------
$molecule
0 1
 6	1.2043866172	-0.4437156801	2.9715356246
 6	1.2943866172	-1.8497156801	3.5985356246
 6	2.5103866172	0.0092843199	2.3515356246
 8	3.5913866172	-0.2897156801	2.8625356246
 7	2.4063866172	0.7412843199	1.2505356246
 1	0.4413866172	-0.4597156801	2.1925356246
 1	0.9183866172	0.2772843199	3.7375356246
 1	2.0923866172	-2.4127156801	3.1155356246
 1	0.3503866172	-2.3727156801	3.4395356246
 1	3.2453866172	1.0702843199	0.7895356246
 1	1.4933866172	0.9632843199	0.8765356246
 1	1.4917166172	-1.8390256801	4.6806356246
$end
$rem
EDA2		1
METHOD		WB97X-V
BASIS		DEF2-TZVPD
XC_GRID		000099000590
NL_GRID		1
UNRESTRICTED		FALSE
MAX_SCF_CYCLES		200
SYMMETRY		FALSE
SYM_IGNORE		TRUE
BASIS_LIN_DEP_THRESH		6
THRESH		14
SCF_CONVERGENCE		8
SCF_PRINT_FRGM		TRUE
SOLVENT_METHOD		PCM
!required keywords
JOBTYPE		SP
SYM_IGNORE		TRUE
SUBSYSTEM		TRUE
GEN_SCFMAN		TRUE
CHILD_INSTRUCTION		2
SYM_IGNORE		TRUE
SCFMI		0
RI_K 0		
PARI_K 0		
MIN_PARI_K 0		
IARI_K 0		
OCC_RI_K 0		
PURECART		1111
MEM_STATIC		2000
MEM_TOTAL		2000
GUI		0
CHILD_MP		1
CHILD_MP_ORDERS		232
FRZ_RELAX		0
FRZ_RELAX_METHOD		0
EDA_CLS_ELEC		1
EDA_CLS_DISP		0
FRZ_ORTHO_DECOMP		1
EDA2		FALSE
FRGM_METHOD		FALSE
CIS_N_ROOTS  0
LOCAL_CIS    0
CIS_RLX_DNS  1
$end
$pcm
THEORY                  CPCM
METHOD                  SWIG
SOLVER                  INVERSION
RADII                   UFF
HPOINTS                 302
HEAVYPOINTS             302
PRINTLEVEL              0
$end
$solvent
DIELECTRIC              78.390000 ! water
$end
--------------------------------------------------------------
 ----------------------------------------------------------------
             Standard Nuclear Orientation (Angstroms)
    I     Atom           X                Y                Z
 ----------------------------------------------------------------
    1      C       1.2043866172    -0.4437156801     2.9715356246
    2      C       1.2943866172    -1.8497156801     3.5985356246
    3      C       2.5103866172     0.0092843199     2.3515356246
    4      O       3.5913866172    -0.2897156801     2.8625356246
    5      N       2.4063866172     0.7412843199     1.2505356246
    6      H       0.4413866172    -0.4597156801     2.1925356246
    7      H       0.9183866172     0.2772843199     3.7375356246
    8      H       2.0923866172    -2.4127156801     3.1155356246
    9      H       0.3503866172    -2.3727156801     3.4395356246
   10      H       3.2453866172     1.0702843199     0.7895356246
   11      H       1.4933866172     0.9632843199     0.8765356246
   12      H       1.4917166172    -1.8390256801     4.6806356246
 ----------------------------------------------------------------
 Nuclear Repulsion Energy =         179.24245001 hartrees
 There are       20 alpha and       20 beta electrons
 Requested basis set is def2-TZVPD
 There are 101 shells and 251 basis functions

 Total QAlloc Memory Limit   2000 MB
 Mega-Array Size      1956 MB
 MEM_STATIC part      2000 MB
 Discretize the solute cavity surface with Lebedev spheres
	Using 302 Lebedev grid points for each H atom
	Using 302 Lebedev grid points for other atoms
	Atomic van der Waals radii will be scaled by 1.20
 Remove points where switching function is < 1.0e-08
 Keep 1504 surface tesserae and discard 2120 interior tesserae
 Molecular Surface Area = 152.135 Angst**2

                       Distance Matrix (Angstroms)
             C (  1)   C (  2)   C (  3)   O (  4)   N (  5)   H (  6)
   C (  2)  1.542098
   C (  3)  1.515007  2.547459
   O (  4)  2.394445  2.872543  1.232511
   N (  5)  2.410575  3.669186  1.326213  2.250718
   H (  6)  1.090535  2.153264  2.127440  3.224950  2.488170
   H (  7)  1.090134  2.164446  2.127742  2.869154  2.935065  1.776998
   H (  8)  2.164773  1.089524  2.573811  2.611157  3.677572  2.718812
   H (  9)  2.160875  1.090846  3.394594  3.895626  4.326182  2.285358
   H ( 10)  3.349478  4.497030  2.026275  2.503327  1.012266  3.488800
   H ( 11)  2.540117  3.919420  2.029786  3.148938  1.011301  2.205332
   H ( 12)  2.224965  1.099997  3.143031  3.180324  4.388645  3.032545
             H (  7)   H (  8)   H (  9)   H ( 10)   H ( 11)
   H (  8)  3.000210
   H (  9)  2.726523  1.772326
   H ( 10)  3.838552  4.344073  5.220898
   H ( 11)  2.997756  4.095033  4.359394  1.757419
   H ( 12)  2.386821  1.771853  1.768555  5.165279  4.724841

 A cutoff of  1.0D-14 yielded   5034 shell pairs
 There are     31632 function pairs (     39777 Cartesian)
 Smallest overlap matrix eigenvalue = 5.66E-06

 Scale SEOQF with 1.000000e-01/1.000000e-01/1.000000e-01

 Standard Electronic Orientation quadrupole field applied
 Nucleus-field energy     =    -0.0000000216 hartrees
 Guess from superposition of atomic densities
 Warning:  Energy on first SCF cycle will be non-variational
 SAD guess density has 40.000000 electrons

 -----------------------------------------------------------------------
  General SCF calculation program by
  Eric Jon Sundstrom, Paul Horn, Yuezhi Mao, Dmitri Zuev, Alec White,
  David Stuck, Shaama M.S., Shane Yost, Joonho Lee, David Small,
  Daniel Levine, Susi Lehtola, Hugh Burton, Evgeny Epifanovsky,
  Bang C. Huynh
 -----------------------------------------------------------------------
 Exchange:     0.1670 Hartree-Fock + 1.0000 wB97X-V + LR-HF
 Correlation:  1.0000 wB97X-V
 Using Euler-Maclaurin-Lebedev (99,590) quadrature formula
 Nonlocal Correlation:  VV10 with C = 0.0100 and b = 6.00 and scale = 1.00000
 Grid used for NLC:  SG-1 standard quadrature
Energy prior to optimization (guess energy) = -248.423032700759
Begin Timing: Total SCF Calculation
begin iterations for algorithm: DIIS         
the SCF tolerance is set to 1.00e-08
    1    -248.4230327008      4.33e-03     00000 
    2    -248.3722606988      5.77e-03     00000 
    3    -248.5565775334      6.08e-04     00000 
    4    -248.5592889929      2.03e-04     00000 
    5    -248.5597482517      6.83e-05     00000 
    6    -248.5597934620      2.50e-05     00000 
    7    -248.5597990555      7.97e-06     00000 
    8    -248.5597997628      1.42e-06     00000 
    9    -248.5597998111      5.52e-07     00000 
   10    -248.5597998161      2.22e-07     00000 
   11    -248.5597998171      5.02e-08     00000 
   12    -248.5597998172      1.04e-08     00000 
   13    -248.5597998172      2.91e-09     00000 Convergence criterion met
Timing for Total SCF: 247.00s (wall), 1528.52s (cpu)

************** Final PCM Free Energy Summary **************
 G_electrostatic  =      -0.01174889 hartree =      -7.37254128 kcal/mol
 G_cavitation     =       0.00000000 hartree =       0.00000000 kcal/mol
 G_dispersion     =       0.00000000 hartree =       0.00000000 kcal/mol
 G_repulsion      =       0.00000000 hartree =       0.00000000 kcal/mol
 --------------------------------------------------
 Non-electrostatic Free Energy =       0.00000000 hartree =       0.00000000 kcal/mol
 Total                         =      -0.01174889 hartree =      -7.37254128 kcal/mol
 --------------------------------------------------
 SCF Energy (H0 + V/2)                       =    -248.55979982 
 Solute Internal Energy (H0)                 =    -248.54805092 
 Total Free Energy (H0 + V/2 + non-elec)     =    -248.55979982 hartree
                                             = -155973.62849516 kcal/mol
***********************************************************

E_pcm = -0.0117488924
Multipole orders to be included
        2
        3
computing dipole RHS
computing quadrupole RHS
total number of RHS in solve_reponses: 8
RHS batch sizes
        8
Beginning Block Conjugate Gradient Iterations. Batch Number: 0
computing hessian-vector products by finite difference
              1      5.53e-01     00000 Conjugate Gradient Iteration
computing hessian-vector products by finite difference
              2      1.97e-01     00000 Conjugate Gradient Iteration
computing hessian-vector products by finite difference
              3      4.91e-02     00000 Conjugate Gradient Iteration
computing hessian-vector products by finite difference
              4      1.14e-02     00000 Conjugate Gradient Iteration
computing hessian-vector products by finite difference
              5      1.95e-03     00000 Conjugate Gradient Iteration
computing hessian-vector products by finite difference
              6      4.08e-04     00000 Conjugate Gradient Iteration
computing hessian-vector products by finite difference
              7      6.32e-05     00000 Conjugate Gradient Iteration
computing hessian-vector products by finite difference
              8      7.29e-06     00000 Conjugate Gradient Iteration
computing hessian-vector products by finite difference
              9      1.18e-06     00000 Conjugate Gradient Iteration
computing hessian-vector products by finite difference
             10      1.83e-07     00000 Conjugate Gradient Iteration
computing hessian-vector products by finite difference
             11      2.20e-08     00000 Conjugate Gradient Iteration
computing hessian-vector products by finite difference
             12      5.13e-09     00000 CG Converged
batch 0 complete
Done Calculating Responses
TESTING ORTHOGONALIZATION OF MULTIPOLE BASIS
Multipole virts passed orthogonality test
Virts Per Order
           60
          100

 --------------------------------------------------------------

                    Orbital Energies (a.u.)
 --------------------------------------------------------------

 Alpha MOs
 -- Occupied --
-19.1777 -14.4352 -10.3739 -10.2767 -10.2604  -1.1690  -1.0469  -0.9081
 -0.7840  -0.7019  -0.6559  -0.6013  -0.5812  -0.5321  -0.5156  -0.4763
 -0.4678  -0.4508  -0.3824  -0.3665
 -- Virtual --
  0.0598   0.0836   0.0869   0.0946   0.1118   0.1267   0.1292   0.1344
  0.1445   0.1673   0.1786   0.1948   0.1961   0.2053   0.2165   0.2241
  0.2374   0.2419   0.2575   0.2717   0.2824   0.2855   0.2964   0.3036
  0.3100   0.3156   0.3265   0.3314   0.3368   0.3475   0.3558   0.3606
  0.3743   0.3830   0.3876   0.4012   0.4079   0.4104   0.4184   0.4209
  0.4327   0.4441   0.4485   0.4596   0.4612   0.4809   0.4849   0.5012
  0.5046   0.5136   0.5177   0.5237   0.5307   0.5444   0.5585   0.5759
  0.5810   0.5883   0.5992   0.6101   0.6259   0.6293   0.6499   0.6628
  0.6866   0.7050   0.7172   0.7188   0.7323   0.7520   0.7596   0.7711
  0.7725   0.7856   0.7994   0.8088   0.8137   0.8210   0.8304   0.8352
  0.8482   0.8722   0.8894   0.9094   0.9376   0.9666   0.9695   1.0039
  1.0164   1.0481   1.0561   1.0718   1.1034   1.1158   1.1632   1.1767
  1.2379   1.2445   1.2743   1.3175   1.3414   1.3599   1.3894   1.4090
  1.4611   1.4765   1.4973   1.5490   1.5652   1.6342   1.6877   1.7461
  1.7850   1.8593   1.8673   1.8806   1.9022   1.9145   1.9332   1.9617
  1.9638   1.9690   1.9981   2.0170   2.0226   2.0303   2.0870   2.1235
  2.1597   2.1918   2.2172   2.2336   2.2529   2.3164   2.3275   2.3572
  2.4096   2.4404   2.4766   2.5026   2.5234   2.5791   2.5971   2.6094
  2.6412   2.6555   2.6904   2.6965   2.7795   2.8036   2.8369   2.8530
  2.8719   2.9318   2.9380   2.9984   3.0567   3.0728   3.1036   3.1218
  3.1774   3.1907   3.2145   3.2464   3.2577   3.2688   3.2986   3.3187
  3.3526   3.3564   3.4139   3.4438   3.4642   3.4970   3.5015   3.5568
  3.5902   3.6027   3.6128   3.6646   3.6965   3.7347   3.7698   3.8354
  3.9249   3.9577   3.9877   4.0369   4.0701   4.1230   4.1347   4.2093
  4.3108   4.3485   4.4354   4.5318   4.5517   4.6249   4.6756   4.7147
  4.8034   4.8082   4.8939   4.9155   4.9588   5.0749   5.1728   5.1915
  5.2717   5.3566   5.3909   5.4073   5.4188   5.5042   5.5528   5.7859
  5.9192   6.1473   6.2637   6.5306   6.6708   6.7582   6.8409   6.9934
  7.2443   7.3314  22.5919  22.7295  23.6097  32.4324  44.3553
 --------------------------------------------------------------

          Ground-State Mulliken Net Atomic Charges

     Atom                 Charge (a.u.)
  ----------------------------------------
      1 C                     0.041141
      2 C                    -0.803736
      3 C                     0.150011
      4 O                    -0.589077
      5 N                    -0.247054
      6 H                     0.208678
      7 H                     0.185655
      8 H                     0.207983
      9 H                     0.226916
     10 H                     0.216021
     11 H                     0.202680
     12 H                     0.200781
  ----------------------------------------
  Sum of atomic charges =     0.000000

 -----------------------------------------------------------------
                    Cartesian Multipole Moments
 -----------------------------------------------------------------
    Charge (ESU x 10^10)
                 0.0000
    Dipole Moment (Debye)
         X      -3.9519      Y       1.6900      Z      -2.7977
       Tot       5.1284
    Quadrupole Moments (Debye-Ang)
        XX     -51.7729     XY       5.6035     YY     -30.4323
        XZ     -18.4333     YZ       1.7587     ZZ     -41.3820
    Octopole Moments (Debye-Ang^2)
       XXX    -286.0736    XXY      33.2071    XYY     -64.4472
       YYY      41.6759    XXZ    -164.6281    XYZ       8.1346
       YYZ     -83.9100    XZZ    -125.6071    YZZ      18.4133
       ZZZ    -277.0709
    Hexadecapole Moments (Debye-Ang^3)
      XXXX   -1399.8981   XXXY     119.2626   XXYY    -207.1056
      XYYY      48.7284   YYYY    -248.7979   XXXZ    -827.1309
      XXYZ      90.4439   XYYZ    -170.4700   YYYZ     178.2967
      XXZZ    -682.0438   XYZZ      37.2520   YYZZ    -295.0037
      XZZZ    -675.0014   YZZZ     193.4415   ZZZZ   -1562.8161
 -----------------------------------------------------------------
Archival summary:
1\1\compute-0-14.local\SP\ProcedureUnspecified\BasisUnspecified\1137\meili\WedSep2914:05:372021WedSep2914:05:372021\0\\#,ProcedureUnspecified,BasisUnspecified,\\0,1\C\O,1,1.23251\N,1,1.32621,2,123.153\H,3,1.0113,1,119.932,2,-179.567,0\H,3,1.01227,1,119.503,2,0.665186,0\C,1,1.51501,2,120.922,3,-179.523,0\H,6,1.09013,1,108.419,2,85.5512,0\H,6,1.09053,1,108.372,2,-156.092,0\C,6,1.5421,1,112.874,2,-35.8484,0\H,9,1.08952,6,109.49,1,-24.8767,0\H,9,1.09085,6,109.109,1,-143.791,0\H,9,1.1,6,113.677,1,96.0501,0\\\@

 Total job time:  4375.31s(wall), 27403.13s(cpu) 
 Wed Sep 29 14:05:37 2021

        *************************************************************
        *                                                           *
        *  Thank you very much for using Q-Chem.  Have a nice day.  *
        *                                                           *
        *************************************************************


Done Job For Fragment 1
calling putenv with: QCSCRATCH=/home/meili/scratch 
calling putenv with: QCTHREADS=8 
Doing General SCFMI
 Exchange:     0.1670 Hartree-Fock + 1.0000 wB97X-V + LR-HF
 Correlation:  1.0000 wB97X-V
 Using Euler-Maclaurin-Lebedev (99,590) quadrature formula
 Nonlocal Correlation:  VV10 with C = 0.0100 and b = 6.00 and scale = 1.00000
 Grid used for NLC:  SG-1 standard quadrature
performing fock build before subrot guess so that all methods have access
Printing subrot_rss_gen Method Specification:
Occupied Subspace Method is 0
Virtual Subspace Method is 0
Energy of the unrelaxed supersystem initial determinant -651.711480864867
performing fock build before subrot guess so that all methods have access
Printing subrot_rss_gen Method Specification:
Occupied Subspace Method is 0
Virtual Subspace Method is 0
Energy of the unrelaxed supersystem initial determinant w/ solvent -651.726517131489
write pseudocanon occs and virts to disk
write pseudocanon orbital energies to disk
Tolerance of ortho_decomp_scf: 1.00e-06
GDM subspace size: 20
Beginning the Orthogonal Decomposition of the Initial Supersystem Wavefunction
    1    -651.6849288366      2.15e-02     ortho_decomp Preconditoned Steepest Descent
    2    -651.6869180282      4.87e-04     ortho_decomp BFGS Step
    3    -651.6869233479      3.53e-05     ortho_decomp BFGS Step
    4    -651.6869233579      1.45e-06     ortho_decomp BFGS Step
    5    -651.6869233580      4.85e-08     ortho_decomp 00000 Convergence criterion met
 Hartree-Fock
 Hartree-Fock
 Hartree-Fock
Doing General SCFMI
 Exchange:     0.1670 Hartree-Fock + 1.0000 wB97X-V + LR-HF
 Correlation:  1.0000 wB97X-V
 Using Euler-Maclaurin-Lebedev (99,590) quadrature formula
 Nonlocal Correlation:  VV10 with C = 0.0100 and b = 6.00 and scale = 1.00000
 Grid used for NLC:  SG-1 standard quadrature
performing fock build at end of subrot_r(subrot) constructor so that all methods have access
<S^2> of initial wavefunction before polarization iterations 0.0000000000
Beginning iterations for the determination of the polarized wavefunction
Energy prior to optimization (guess energy) = -651.726517131488
Begin Timing: Total SCF Calculation
begin iterations for algorithm: DIIS         
the SCF tolerance is set to 1.00e-08
    1    -651.7265171315      8.13e-05     00000 
    2    -651.7274584622      3.84e-05     00000 
    3    -651.7275631268      1.83e-05     00000 
    4    -651.7275965853      7.21e-06     00000 
    5    -651.7276020558      2.77e-06     00000 
    6    -651.7276029060      1.79e-06     00000 
    7    -651.7276031550      8.20e-07     00000 
    8    -651.7276031832      5.42e-07     00000 
    9    -651.7276031933      2.80e-07     00000 
   10    -651.7276031971      1.27e-07     00000 
   11    -651.7276031984      5.29e-08     00000 
   12    -651.7276031987      2.43e-08     00000 
   13    -651.7276031988      1.28e-08     00000 
   14    -651.7276031988      4.66e-09     00000 Convergence criterion met
write pseudocanon occs and virts to disk
write pseudocanon orbital energies to disk
Timing for Total SCF: 4857.00s (wall), 33427.91s (cpu)
<S^2> of polarized wavefunction after polarization iterations 0.0000000000
relaxing scfmi constraint to allow all rotations in the entire AO span
Doing General SCFMI
 Exchange:     0.1670 Hartree-Fock + 1.0000 wB97X-V + LR-HF
 Correlation:  1.0000 wB97X-V
 Using Euler-Maclaurin-Lebedev (99,590) quadrature formula
 Nonlocal Correlation:  VV10 with C = 0.0100 and b = 6.00 and scale = 1.00000
 Grid used for NLC:  SG-1 standard quadrature
performing fock build at end of subrot_r(subrot) constructor so that all methods have access
<S^2> of polarized wavefunction before ct-allowed iterations 0.0000000000
Beginning iterations for the determination of the CT-Allowed wavefunction
Energy prior to optimization (guess energy) = -651.727603198776
Begin Timing: Total SCF Calculation
begin iterations for algorithm: DIIS         
the SCF tolerance is set to 1.00e-08
    1    -651.7276031988      7.95e-05     00000 
    2    -651.7294005347      1.00e-05     00000 
    3    -651.7294668495      2.31e-06     00000 
    4    -651.7294692650      1.86e-06     00000 
    5    -651.7294700608      4.07e-07     00000 
    6    -651.7294701170      2.07e-07     00000 
    7    -651.7294701339      5.30e-08     00000 
    8    -651.7294701356      2.40e-08     00000 
    9    -651.7294701361      8.79e-09     00000 Convergence criterion met
write pseudocanon occs and virts to disk
write pseudocanon orbital energies to disk
Timing for Total SCF: 3063.00s (wall), 20835.31s (cpu)
<S^2> of ct_allowed wavefunction after ct-allowed iterations 0.0000000000

================================
        Results of EDA2         
================================
Basic EDA Quantities
--------------------
Fragment Energies (Ha):
1 -403.1640419522
2 -248.5597998172
--------------------
  E_prp (kJ/mol) = 0.0000
  E_sol (kJ/mol) = 8.0860
  E_frz (kJ/mol) = -15.1103
  E_pol (kJ/mol) = -2.8515
  E_vct (kJ/mol) = -4.9017
  E_int (kJ/mol) = -14.7775
--------------------


Initial Wavefunction Decomposition
--------------------
  --------------------
  Orthogonal Fragment Subspace Decomposition:
  --------------------
     E_elec   (ELEC)   (kJ/mol) = -36.9841
     E_pauli  (PAULI)  (kJ/mol) = 38.7570
     E_disp   (DISP)   (kJ/mol) = -16.8832
     --------------------
     Terms summing to E_pauli:
     --------------------
        E_kep_pauli       (kJ/mol) = 49.3662
        E_disp_free_pauli (kJ/mol) = -10.6093
  --------------------
  Classical Frozen Decomposition:
  --------------------
     E_cls_elec  (CLS ELEC)  (kJ/mol) = -22.5283
     E_cls_pauli (CLS PAULI) (kJ/mol) = 7.4180
    [E_mod_pauli (MOD PAULI) (kJ/mol) = 24.3012 (CLS PAULI - DISP from orthogonal decomposition) ]
  --------------------
--------------------

Simplified EDA Summary (kJ/mol)
--------------------
 PREPARATION     0.0000
 SOLVATION       8.0860
 FROZEN          1.7729      (does not include dispersion)
[PAULI           38.7570]     (if this is negligible, then frozen describes electrostatics)
 DISPERSION      -16.8832
 POLARIZATION    -2.8515
 CHARGE TRANSFER -4.9017
 TOTAL           -14.7775     (PRP + SOL + FRZ + DISP + POL + CT)
--------------------

 --------------------------------------------------------------

                    Orbital Energies (a.u.)
 --------------------------------------------------------------

 Alpha MOs
 -- Occupied --
-19.1756 -14.4556 -14.4301 -10.3712 -10.3128 -10.3002 -10.2830 -10.2807
-10.2807 -10.2759 -10.2747 -10.2740 -10.2668 -10.2650 -10.2594  -1.1666
 -1.1119  -1.0432  -0.9794  -0.9361  -0.9061  -0.8722  -0.8648  -0.8206
 -0.7820  -0.7478  -0.7210  -0.6987  -0.6780  -0.6543  -0.6525  -0.6086
 -0.5992  -0.5846  -0.5791  -0.5550  -0.5523  -0.5443  -0.5308  -0.5176
 -0.5143  -0.5133  -0.4962  -0.4885  -0.4745  -0.4688  -0.4577  -0.4535
 -0.4475  -0.4376  -0.3827  -0.3795  -0.3641  -0.3207  -0.2998
 -- Virtual --
  0.0439   0.0527   0.0668   0.0703   0.0757   0.0788   0.0858   0.0890
  0.0955   0.1018   0.1029   0.1096   0.1174   0.1233   0.1261   0.1305
  0.1346   0.1368   0.1435   0.1465   0.1535   0.1591   0.1677   0.1721
  0.1745   0.1814   0.1832   0.1946   0.1953   0.1995   0.2046   0.2077
  0.2094   0.2157   0.2188   0.2271   0.2316   0.2346   0.2417   0.2440
  0.2497   0.2541   0.2556   0.2612   0.2634   0.2665   0.2676   0.2708
  0.2776   0.2802   0.2823   0.2851   0.2882   0.2954   0.3017   0.3043
  0.3054   0.3082   0.3133   0.3160   0.3179   0.3195   0.3229   0.3251
  0.3310   0.3325   0.3339   0.3388   0.3413   0.3458   0.3462   0.3481
  0.3525   0.3550   0.3601   0.3630   0.3663   0.3683   0.3720   0.3758
  0.3795   0.3834   0.3856   0.3931   0.3945   0.4001   0.4012   0.4038
  0.4113   0.4119   0.4141   0.4168   0.4180   0.4242   0.4262   0.4309
  0.4338   0.4384   0.4406   0.4457   0.4483   0.4502   0.4545   0.4572
  0.4658   0.4661   0.4679   0.4706   0.4756   0.4800   0.4835   0.4875
  0.4910   0.4917   0.4964   0.4983   0.5041   0.5062   0.5103   0.5147
  0.5187   0.5229   0.5275   0.5281   0.5349   0.5387   0.5428   0.5433
  0.5462   0.5563   0.5583   0.5637   0.5643   0.5712   0.5716   0.5770
  0.5825   0.5883   0.5926   0.5957   0.5984   0.6003   0.6078   0.6122
  0.6165   0.6208   0.6215   0.6258   0.6301   0.6353   0.6420   0.6457
  0.6483   0.6544   0.6600   0.6617   0.6695   0.6709   0.6759   0.6801
  0.6878   0.6894   0.6928   0.6942   0.7016   0.7061   0.7105   0.7130
  0.7229   0.7249   0.7299   0.7368   0.7407   0.7427   0.7432   0.7472
  0.7496   0.7530   0.7607   0.7657   0.7672   0.7685   0.7732   0.7747
  0.7790   0.7843   0.7854   0.7895   0.7917   0.7960   0.7992   0.8026
  0.8037   0.8104   0.8111   0.8180   0.8183   0.8212   0.8276   0.8338
  0.8360   0.8416   0.8476   0.8516   0.8544   0.8608   0.8647   0.8663
  0.8715   0.8733   0.8768   0.8795   0.8896   0.8932   0.9004   0.9038
  0.9160   0.9223   0.9272   0.9309   0.9401   0.9434   0.9484   0.9617
  0.9622   0.9696   0.9717   0.9864   0.9954   1.0020   1.0080   1.0160
  1.0177   1.0384   1.0406   1.0427   1.0583   1.0670   1.0746   1.0792
  1.0829   1.0951   1.0981   1.1047   1.1092   1.1127   1.1281   1.1371
  1.1418   1.1461   1.1555   1.1576   1.1710   1.1728   1.1783   1.1835
  1.2036   1.2094   1.2200   1.2290   1.2442   1.2562   1.2606   1.2624
  1.2725   1.2929   1.2952   1.3128   1.3226   1.3250   1.3323   1.3463
  1.3551   1.3606   1.3827   1.3868   1.4003   1.4064   1.4083   1.4188
  1.4293   1.4453   1.4479   1.4633   1.4672   1.4805   1.4910   1.5044
  1.5179   1.5294   1.5458   1.5558   1.5574   1.5816   1.5942   1.6007
  1.6062   1.6200   1.6293   1.6334   1.6454   1.6685   1.6821   1.6913
  1.6990   1.7137   1.7478   1.7585   1.7620   1.8020   1.8050   1.8136
  1.8252   1.8509   1.8551   1.8662   1.8698   1.8851   1.8957   1.8982
  1.9086   1.9189   1.9237   1.9292   1.9346   1.9452   1.9506   1.9526
  1.9591   1.9716   1.9742   1.9839   1.9864   1.9942   1.9976   2.0045
  2.0154   2.0263   2.0309   2.0392   2.0538   2.0552   2.0662   2.0707
  2.0800   2.0889   2.0934   2.1015   2.1073   2.1168   2.1489   2.1653
  2.1860   2.1928   2.1997   2.2054   2.2158   2.2260   2.2369   2.2405
  2.2476   2.2705   2.2716   2.2984   2.3089   2.3161   2.3307   2.3384
  2.3444   2.3639   2.3713   2.3739   2.3858   2.4082   2.4141   2.4322
  2.4496   2.4714   2.4733   2.4823   2.4874   2.4963   2.5050   2.5335
  2.5359   2.5493   2.5613   2.5756   2.5912   2.5950   2.6050   2.6168
  2.6283   2.6351   2.6449   2.6487   2.6566   2.6647   2.6758   2.6859
  2.6981   2.7073   2.7137   2.7301   2.7359   2.7447   2.7579   2.7799
  2.7916   2.7952   2.8012   2.8153   2.8233   2.8304   2.8389   2.8415
  2.8562   2.8733   2.8790   2.8865   2.8970   2.9083   2.9119   2.9230
  2.9369   2.9480   2.9612   2.9699   2.9794   2.9895   2.9990   3.0156
  3.0179   3.0297   3.0418   3.0498   3.0577   3.0865   3.0961   3.1070
  3.1129   3.1191   3.1250   3.1329   3.1507   3.1534   3.1740   3.1824
  3.1987   3.2061   3.2115   3.2286   3.2379   3.2422   3.2555   3.2651
  3.2748   3.2806   3.2887   3.2958   3.3059   3.3239   3.3298   3.3314
  3.3382   3.3470   3.3582   3.3710   3.3767   3.3832   3.3835   3.3901
  3.4020   3.4192   3.4295   3.4389   3.4489   3.4555   3.4655   3.4709
  3.4795   3.4802   3.4878   3.4899   3.4992   3.5122   3.5223   3.5277
  3.5308   3.5438   3.5516   3.5565   3.5602   3.5737   3.5822   3.5911
  3.6027   3.6122   3.6227   3.6299   3.6337   3.6424   3.6587   3.6627
  3.6656   3.6761   3.6946   3.7013   3.7055   3.7121   3.7202   3.7271
  3.7457   3.7516   3.7604   3.7641   3.7797   3.8033   3.8199   3.8561
  3.8568   3.8929   3.8963   3.9020   3.9402   3.9489   3.9637   3.9887
  4.0144   4.0216   4.0313   4.0516   4.0628   4.0916   4.1037   4.1358
  4.1461   4.1589   4.1790   4.1802   4.2112   4.2171   4.2446   4.2517
  4.2566   4.2692   4.2858   4.2987   4.3267   4.3359   4.3426   4.3561
  4.3688   4.3834   4.4135   4.4305   4.4517   4.4621   4.4722   4.5006
  4.5178   4.5506   4.5634   4.5765   4.6005   4.6278   4.6425   4.6486
  4.6925   4.7230   4.7460   4.7629   4.8001   4.8203   4.8331   4.8418
  4.8974   4.9265   4.9314   4.9440   4.9563   4.9586   4.9828   4.9942
  5.0016   5.0432   5.0539   5.0943   5.1046   5.1209   5.1644   5.1751
  5.1948   5.2061   5.2385   5.2390   5.2858   5.3637   5.3812   5.3858
  5.4211   5.4319   5.4394   5.4623   5.5027   5.5163   5.5526   5.5774
  5.5852   5.6132   5.7024   5.7916   5.7969   5.8163   5.9320   5.9456
  5.9538   6.1979   6.2420   6.2691   6.3162   6.5436   6.6774   6.7775
  6.8530   7.0056   7.2596   7.3548  22.6225  22.6384  22.8166  22.8230
 22.9112  22.9226  22.9628  23.1325  23.2376  23.4509  23.6484  23.7214
 32.5677  32.8491  44.4304
 --------------------------------------------------------------

          Ground-State Mulliken Net Atomic Charges

     Atom                 Charge (a.u.)
  ----------------------------------------
      1 C                    -0.995088
      2 C                     0.289318
      3 C                     0.520585
      4 C                    -0.152799
      5 C                    -0.454284
      6 C                    -0.520514
      7 C                    -0.352977
      8 C                    -0.533403
      9 C                    -0.383470
     10 N                     0.123745
     11 H                     0.289476
     12 H                     0.329703
     13 H                     0.386812
     14 H                     0.336928
     15 H                     0.268345
     16 H                     0.244849
     17 H                     0.248363
     18 H                     0.180604
     19 H                     0.229018
     20 C                     0.626718
     21 C                    -1.005538
     22 C                     0.077178
     23 O                    -0.603663
     24 N                    -0.139862
     25 H                    -0.211106
     26 H                     0.214978
     27 H                     0.222178
     28 H                     0.268658
     29 H                     0.201029
     30 H                     0.083463
     31 H                     0.210756
  ----------------------------------------
  Sum of atomic charges =     0.000000

 -----------------------------------------------------------------
                    Cartesian Multipole Moments
 -----------------------------------------------------------------
    Charge (ESU x 10^10)
                -0.0000
    Dipole Moment (Debye)
         X      -4.0173      Y       1.1090      Z      -5.7234
       Tot       7.0800
    Quadrupole Moments (Debye-Ang)
        XX    -112.1973     XY      11.5900     YY     -87.1396
        XZ     -21.0455     YZ       3.3162     ZZ     -83.7427
    Octopole Moments (Debye-Ang^2)
       XXX     -65.1020    XXY       9.4716    XYY      12.1378
       YYY       8.6372    XXZ     -79.6856    XYZ      -5.2714
       YYZ      -7.1637    XZZ     -53.9066    YZZ       5.9758
       ZZZ    -107.4612
    Hexadecapole Moments (Debye-Ang^3)
      XXXX   -2362.1542   XXXY     -29.8847   XXYY    -508.2525
      XYYY     -88.9832   YYYY   -1089.1123   XXXZ   -1149.3385
      XXYZ      76.4435   XYYZ    -265.8552   YYYZ      88.2234
      XXZZ   -1070.2533   XYZZ      21.2614   YYZZ    -629.5065
      XZZZ    -984.9093   YZZZ     109.3965   ZZZZ   -2593.8577
 -----------------------------------------------------------------
Archival summary:
1\1\compute-0-14.local\SP\ProcedureUnspecified\BasisUnspecified\121216\meili\WedSep2917:45:192021WedSep2917:45:192021\0\\#,ProcedureUnspecified,BasisUnspecified,\\0,1\C\C,1,1.41403\H,2,1.0859,1,121.974\C,2,1.40327,1,119.264,3,-179.68,0\H,4,1.0856,2,118.205,1,-179.929,0\C,4,1.41586,2,120.968,1,0.139385,0\H,6,1.08298,4,119.604,2,179.554,0\C,6,1.40127,4,120.864,2,-0.306234,0\H,8,1.08235,6,122.732,4,-179.718,0\C,8,1.40067,6,117.898,4,0.262876,0\N,10,1.38405,8,131.448,6,179.922,0\H,11,1.01572,10,124.799,8,0.061252,0\C,11,1.39942,10,108.915,8,-179.795,0\H,13,1.08405,11,131.576,10,179.524,0\C,13,1.34463,11,110.555,10,-0.0868922,0\C,15,1.50914,13,125.782,11,178.25,0\H,16,1.09173,15,106.789,13,-127.732,0\H,16,1.0941,15,107.414,13,-11.5993,0\H,16,1.1,15,114.093,13,112.875,0\H,6,2.44544,4,81.2781,2,-96.7625,0\N,20,1.0113,6,157.458,4,-152.451,0\H,21,1.01227,20,120.564,6,-33.1368,0\C,21,1.32621,20,119.932,6,147.098,0\O,23,1.23251,21,123.153,20,-179.567,0\C,23,1.51501,21,115.924,20,-0.0226344,0\H,25,1.09013,23,108.419,21,-94.0043,0\H,25,1.09053,23,108.372,21,24.353,0\C,25,1.5421,23,112.874,21,144.596,0\H,28,1.08952,25,109.49,23,-24.8767,0\H,28,1.09085,25,109.109,23,-143.791,0\H,28,1.1,25,113.677,23,96.0501,0\\\@

 Total job time:  43309.06s(wall), 94227.21s(cpu) 
 Wed Sep 29 17:45:19 2021

        *************************************************************
        *                                                           *
        *  Thank you very much for using Q-Chem.  Have a nice day.  *
        *                                                           *
        *************************************************************


