                  Welcome to Q-Chem
     A Quantum Leap Into The Future Of Chemistry


 Q-Chem 5.2 (devel), Q-Chem, Inc., Pleasanton, CA (2019)

 Yihan Shao,  Zhengting Gan,  E. Epifanovsky,  A. T. B. Gilbert,  M. Wormit,  
 J. Kussmann,  A. W. Lange,  A. Behn,  Jia Deng,  Xintian Feng,  D. Ghosh,  
 M. Goldey,  P. R. Horn,  L. D. Jacobson,  I. Kaliman,  T. Kus,  A. Landau,  
 Jie Liu,  E. I. Proynov,  R. M. Richard,  R. P. Steele,  E. J. Sundstrom,  
 H. L. Woodcock III,  P. M. Zimmerman,  D. Zuev,  B. Albrecht,  E. Alguire,  
 S. A. Baeppler,  D. Barton,  Z. Benda,  Y. A. Bernard,  E. J. Berquist,  
 K. B. Bravaya,  H. Burton,  D. Casanova,  Chun-Min Chang,  Yunqing Chen,  
 A. Chien,  K. D. Closser,  M. P. Coons,  S. Coriani,  S. Dasgupta,  
 A. L. Dempwolff,  M. Diedenhofen,  Hainam Do,  R. G. Edgar,  Po-Tung Fang,  
 S. Faraji,  S. Fatehi,  Qingguo Feng,  K. D. Fenk,  J. Fosso-Tande,  
 J. Gayvert,  Qinghui Ge,  A. Ghysels,  G. Gidofalvi,  J. Gomes,  
 J. Gonthier,  A. Gunina,  D. Hait,  M. W. D. Hanson-Heine,  
 P. H. P. Harbach,  A. W. Hauser,  M. F. Herbst,  J. E. Herr,  
 E. G. Hohenstein,  Z. C. Holden,  Kerwin Hui,  B. C. Huynh,  T.-C. Jagau,  
 Hyunjun Ji,  B. Kaduk,  K. Khistyaev,  Jaehoon Kim,  P. Klunzinger,  K. Koh,  
 D. Kosenkov,  L. Koulias,  T. Kowalczyk,  C. M. Krauter,  A. Kunitsa,  
 Ka Un Lao,  A. Laurent,  K. V. Lawler,  Joonho Lee,  D. Lefrancois,  
 S. Lehtola,  D. S. Levine,  Yi-Pei Li,  You-Sheng Lin,  Fenglai Liu,  
 E. Livshits,  A. Luenser,  P. Manohar,  E. Mansoor,  S. F. Manzer,  
 Shan-Ping Mao,  Yuezhi Mao,  N. Mardirossian,  A. V. Marenich,  
 T. Markovich,  L. A. Martinez-Martinez,  S. A. Maurer,  N. J. Mayhall,  
 S. C. McKenzie,  J.-M. Mewes,  P. Morgante,  A. F. Morrison,  
 J. W. Mullinax,  K. Nanda,  T. S. Nguyen-Beck,  R. Olivares-Amaya,  
 J. A. Parkhill,  Zheng Pei,  T. M. Perrine,  F. Plasser,  P. Pokhilko,  
 S. Prager,  A. Prociuk,  E. Ramos,  D. R. Rehn,  F. Rob,  M. Scheurer,  
 M. Schneider,  N. Sergueev,  S. M. Sharada,  S. Sharma,  D. W. Small,  
 T. Stauch,  T. Stein,  Yu-Chuan Su,  A. J. W. Thom,  A. Tkatchenko,  
 T. Tsuchimochi,  N. M. Tubman,  L. Vogt,  M. L. Vidal,  O. Vydrov,  
 M. A. Watson,  J. Wenzel,  M. de Wergifosse,  T. A. Wesolowski,  A. White,  
 J. Witte,  A. Yamada,  Jun Yang,  K. Yao,  S. Yeganeh,  S. R. Yost,  
 Zhi-Qiang You,  A. Zech,  Igor Ying Zhang,  Xing Zhang,  Yan Zhao,  
 Ying Zhu,  B. R. Brooks,  G. K. L. Chan,  C. J. Cramer,  M. S. Gordon,  
 W. J. Hehre,  A. Klamt,  M. W. Schmidt,  C. D. Sherrill,  D. G. Truhlar,  
 A. Aspuru-Guzik,  R. Baer,  A. T. Bell,  N. A. Besley,  Jeng-Da Chai,  
 A. E. DePrince, III,  R. A. DiStasio Jr.,  A. Dreuw,  B. D. Dunietz,  
 T. R. Furlani,  Chao-Ping Hsu,  Yousung Jung,  Jing Kong,  D. S. Lambrecht,  
 WanZhen Liang,  C. Ochsenfeld,  V. A. Rassolov,  L. V. Slipchenko,  
 J. E. Subotnik,  T. Van Voorhis,  J. M. Herbert,  A. I. Krylov,  
 P. M. W. Gill,  M. Head-Gordon

 Contributors to earlier versions of Q-Chem not listed above: 
 R. D. Adamson,  B. Austin,  J. Baker,  G. J. O. Beran,  K. Brandhorst,  
 S. T. Brown,  E. F. C. Byrd,  A. K. Chakraborty,  C.-L. Cheng,  
 Siu Hung Chien,  D. M. Chipman,  D. L. Crittenden,  H. Dachsel,  
 R. J. Doerksen,  A. D. Dutoi,  L. Fusti-Molnar,  W. A. Goddard III,  
 A. Golubeva-Zadorozhnaya,  S. R. Gwaltney,  G. Hawkins,  A. Heyden,  
 S. Hirata,  G. Kedziora,  F. J. Keil,  C. Kelley,  Jihan Kim,  R. A. King,  
 R. Z. Khaliullin,  P. P. Korambath,  W. Kurlancheek,  A. M. Lee,  M. S. Lee,  
 S. V. Levchenko,  Ching Yeh Lin,  D. Liotard,  R. C. Lochan,  I. Lotan,  
 P. E. Maslen,  N. Nair,  D. P. O'Neill,  D. Neuhauser,  E. Neuscamman,  
 C. M. Oana,  R. Olson,  B. Peters,  R. Peverati,  P. A. Pieniazek,  
 Y. M. Rhee,  J. Ritchie,  M. A. Rohrdanz,  E. Rosta,  N. J. Russ,  
 H. F. Schaefer III,  N. E. Schultz,  N. Shenvi,  A. C. Simmonett,  A. Sodt,  
 D. Stuck,  K. S. Thanthiriwatte,  V. Vanovschi,  Tao Wang,  A. Warshel,  
 C. F. Williams,  Q. Wu,  X. Xu,  W. Zhang

 Please cite Q-Chem as follows:
 Y. Shao et al., Mol. Phys. 113, 184-215 (2015)
 DOI: 10.1080/00268976.2014.952696

 Q-Chem 5.2.1 for Intel X86 EM64T Linux

 Parts of Q-Chem use Armadillo 8.300.2 (Tropical Shenanigans).
 http://arma.sourceforge.net/

 Q-Chem begins on Wed Sep 29 20:46:00 2021  

compute-0-1.local
Host: 0

     Scratch files written to /home/meili/scratch/qchem41253//
NAlpha2: 110
NElect   110
Mult     1
Symmetry turned off for PCM/SM12/SMD calculation

 Q-Chem warning in module libgen/rem_setup.C, line 2813:

 Neither GIA nor STOLL is specified by user. Use STOLL as the default


Checking the input file for inconsistencies... 	...done.

--------------------------------------------------------------
User input:
--------------------------------------------------------------
$comment
SSI-085HIE-094TYR-1.pdb
$end

$molecule
0 1
--
0 1
C    1.077647148906   -1.522901301985    1.634894983982
C    0.836647148906   -2.930901301985    2.183894983982
C    0.054647148906   -0.480901301985    2.006894983982
C    0.219647148906    0.649098698015    2.747894983982
C   -1.822352851094    0.653098698015    1.999894983982
N   -1.241352851094   -0.459901301985    1.554894983982
N   -0.967352851094    1.334098698015    2.745894983982
H    2.034647148906   -1.165901301985    2.015894983982
H    1.148647148906   -1.568901301985    0.547894983982
H    0.568647148906   -2.851901301985    3.238894983982
H    1.140647148906    0.953098698015    3.226894983982
H   -2.839352851094    0.954098698015    1.782894983982
H   -1.146352851094    2.216098698015    3.188894983982
H    1.760423148906   -3.520129301985    2.086694983982
H    0.017621148906   -3.421882301985    1.637874983982
--
0 1
C    2.676647148906    1.307098698015   -0.590105016018
C    1.418647148906    0.798098698015   -1.258105016018
C    1.441647148906   -0.211901301985   -2.227105016018
C    0.190647148906    1.335098698015   -0.890105016018
C    0.285647148906   -0.633901301985   -2.857105016018
C   -0.974352851094    0.917098698015   -1.524105016018
C   -0.925352851094   -0.044901301985   -2.520105016018
O   -2.098352851094   -0.403901301985   -3.125105016018
H    3.145647148906    0.481098698015   -0.055105016018
H    2.393647148906    2.052098698015    0.154894983982
H    2.375647148906   -0.687901301985   -2.481105016018
H    0.132647148906    2.070098698015   -0.101105016018
H    0.326647148906   -1.416901301985   -3.598105016018
H   -1.929352851094    1.308098698015   -1.216105016018
H   -1.889352851094   -0.927901301985   -3.920105016018
H    3.410652148906    1.764868698015   -1.269575016018
$end

$rem
JOBTYPE			EDA
EDA2			1
method			wB97X-V
BASIS			def2-TZVPD
XC_GRID			000099000590
NL_GRID			1
UNRESTRICTED		FALSE
MAX_SCF_CYCLES		200
SYMMETRY		FALSE
SYM_IGNORE		TRUE
MEM_STATIC		2000
BASIS_LIN_DEP_THRESH 	6
THRESH 			14
SCF_CONVERGENCE 	8
SCF_PRINT_FRGM 		TRUE
SOLVENT_METHOD          PCM
$end

$PCM
THEORY                  CPCM
METHOD                  SWIG
SOLVER                  INVERSION
RADII                   UFF
HPOINTS                 302
HEAVYPOINTS             302
PRINTLEVEL              0
$END

$SOLVENT
DIELECTRIC              78.390000 ! water
$END
--------------------------------------------------------------
 ----------------------------------------------------------------
             Standard Nuclear Orientation (Angstroms)
    I     Atom           X                Y                Z
 ----------------------------------------------------------------
    1      C       1.0776471489    -1.5229013020     1.6348949840
    2      C       0.8366471489    -2.9309013020     2.1838949840
    3      C       0.0546471489    -0.4809013020     2.0068949840
    4      C       0.2196471489     0.6490986980     2.7478949840
    5      C      -1.8223528511     0.6530986980     1.9998949840
    6      N      -1.2413528511    -0.4599013020     1.5548949840
    7      N      -0.9673528511     1.3340986980     2.7458949840
    8      H       2.0346471489    -1.1659013020     2.0158949840
    9      H       1.1486471489    -1.5689013020     0.5478949840
   10      H       0.5686471489    -2.8519013020     3.2388949840
   11      H       1.1406471489     0.9530986980     3.2268949840
   12      H      -2.8393528511     0.9540986980     1.7828949840
   13      H      -1.1463528511     2.2160986980     3.1888949840
   14      H       1.7604231489    -3.5201293020     2.0866949840
   15      H       0.0176211489    -3.4218823020     1.6378749840
   16      C       2.6766471489     1.3070986980    -0.5901050160
   17      C       1.4186471489     0.7980986980    -1.2581050160
   18      C       1.4416471489    -0.2119013020    -2.2271050160
   19      C       0.1906471489     1.3350986980    -0.8901050160
   20      C       0.2856471489    -0.6339013020    -2.8571050160
   21      C      -0.9743528511     0.9170986980    -1.5241050160
   22      C      -0.9253528511    -0.0449013020    -2.5201050160
   23      O      -2.0983528511    -0.4039013020    -3.1251050160
   24      H       3.1456471489     0.4810986980    -0.0551050160
   25      H       2.3936471489     2.0520986980     0.1548949840
   26      H       2.3756471489    -0.6879013020    -2.4811050160
   27      H       0.1326471489     2.0700986980    -0.1011050160
   28      H       0.3266471489    -1.4169013020    -3.5981050160
   29      H      -1.9293528511     1.3080986980    -1.2161050160
   30      H      -1.8893528511    -0.9279013020    -3.9201050160
   31      H       3.4106521489     1.7648686980    -1.2695750160
 ----------------------------------------------------------------
 Nuclear Repulsion Energy =         970.08459283 hartrees
 There are       55 alpha and       55 beta electrons
 Requested basis set is def2-TZVPD
 There are 276 shells and 702 basis functions

 Total QAlloc Memory Limit   2000 MB
 Mega-Array Size      1956 MB
 MEM_STATIC part      2000 MB
 Discretize the solute cavity surface with Lebedev spheres
	Using 302 Lebedev grid points for each H atom
	Using 302 Lebedev grid points for other atoms
	Atomic van der Waals radii will be scaled by 1.20
 Remove points where switching function is < 1.0e-08
 Keep 3266 surface tesserae and discard 6096 interior tesserae
 Molecular Surface Area = 316.491 Angst**2
 A cutoff of  1.0D-14 yielded  33668 shell pairs
 There are    220216 function pairs (    279079 Cartesian)
 Smallest overlap matrix eigenvalue = 4.03E-07
 Linear dependence detected in AO basis
 Tighter screening thresholds may be required for diffuse basis sets
 Use S2THRESH > 14 and THRESH = 14 in case of SCF convergence issues
 Number of orthogonalized atomic orbitals = 701
 Maximum deviation from orthogonality = 3.724E-10

 Scale SEOQF with 1.000000e-01/1.000000e-01/1.000000e-01

 Standard Electronic Orientation quadrupole field applied
 Nucleus-field energy     =    -0.0000000345 hartrees

 -----------------------------------------------------------------------
  General SCF calculation program by
  Eric Jon Sundstrom, Paul Horn, Yuezhi Mao, Dmitri Zuev, Alec White,
  David Stuck, Shaama M.S., Shane Yost, Joonho Lee, David Small,
  Daniel Levine, Susi Lehtola, Hugh Burton, Evgeny Epifanovsky,
  Bang C. Huynh
 -----------------------------------------------------------------------
================================================================
                 ALMO-EDA with the EDA2 driver                  
================================================================
 The second-generation ALMO-EDA (for DFT):                      
 P. R. Horn, Y. Mao and M. Head-Gordon, PCCP, 18, 23067 (2016)  
 Decomposition of the frozen energy:                            
 P. R. Horn, Y. Mao and M. Head-Gordon, JCP, 144, 114107 (2016) 
 FERF model for polarization:                                   
 P. R. Horn and M. Head-Gordon, JCP, 143, 114111 (2015)         
Using eda2 option set 1
Option set summary: Frozen orbital wavefunction, initial wavefunction decomposition, and nDQ polarization.
--------------------------------
Printing EDA Options
--------------------------------
eda_child_super_basis      0
fragmo_guess_mode          0
child_mp                   1
child_mp_orders            232
cls_elec                   1
cls_disp                   0
scfmi_mode                 1
scfmi_occs                 0
scfmi_virts                0
frz_relax                  0
frz_relax_method           0
dc_pen_start               0
dc_pen_conv                0
dc_pen_increment           0
dc_pen_steps               0
dc_pen_thresh_factor       0
dc_pen_pre_newton_thresh   0
frz_ortho_decomp           1
frz_ortho_decomp_conv      6
frgm_method                2
scfmi_freeze_ss            0
separate_rehyb             0
plot_diff_den              0
eda_nocv                   0
eda_vct_relax              1
disp_free_x                0
disp_free_c                0
eda_bsse                   0
eda_pct_a                  0
eda_covp                   0
--------------------------------
Attempting to make child job directory: /home/meili/scratch/qchem41253//Frg1/
Attempting to make child job directory: /home/meili/scratch/qchem41253//Frg2/
Creating input file /home/meili/scratch/qchem41253/Frg1.input
using default PutDataFrgm: nothing
calling putenv with: QCSCRATCH=/home/meili/scratch/qchem41253/ 
Spawning Job For Fragment 0
                  Welcome to Q-Chem
     A Quantum Leap Into The Future Of Chemistry


 Q-Chem 5.2 (devel), Q-Chem, Inc., Pleasanton, CA (2019)

 Yihan Shao,  Zhengting Gan,  E. Epifanovsky,  A. T. B. Gilbert,  M. Wormit,  
 J. Kussmann,  A. W. Lange,  A. Behn,  Jia Deng,  Xintian Feng,  D. Ghosh,  
 M. Goldey,  P. R. Horn,  L. D. Jacobson,  I. Kaliman,  T. Kus,  A. Landau,  
 Jie Liu,  E. I. Proynov,  R. M. Richard,  R. P. Steele,  E. J. Sundstrom,  
 H. L. Woodcock III,  P. M. Zimmerman,  D. Zuev,  B. Albrecht,  E. Alguire,  
 S. A. Baeppler,  D. Barton,  Z. Benda,  Y. A. Bernard,  E. J. Berquist,  
 K. B. Bravaya,  H. Burton,  D. Casanova,  Chun-Min Chang,  Yunqing Chen,  
 A. Chien,  K. D. Closser,  M. P. Coons,  S. Coriani,  S. Dasgupta,  
 A. L. Dempwolff,  M. Diedenhofen,  Hainam Do,  R. G. Edgar,  Po-Tung Fang,  
 S. Faraji,  S. Fatehi,  Qingguo Feng,  K. D. Fenk,  J. Fosso-Tande,  
 J. Gayvert,  Qinghui Ge,  A. Ghysels,  G. Gidofalvi,  J. Gomes,  
 J. Gonthier,  A. Gunina,  D. Hait,  M. W. D. Hanson-Heine,  
 P. H. P. Harbach,  A. W. Hauser,  M. F. Herbst,  J. E. Herr,  
 E. G. Hohenstein,  Z. C. Holden,  Kerwin Hui,  B. C. Huynh,  T.-C. Jagau,  
 Hyunjun Ji,  B. Kaduk,  K. Khistyaev,  Jaehoon Kim,  P. Klunzinger,  K. Koh,  
 D. Kosenkov,  L. Koulias,  T. Kowalczyk,  C. M. Krauter,  A. Kunitsa,  
 Ka Un Lao,  A. Laurent,  K. V. Lawler,  Joonho Lee,  D. Lefrancois,  
 S. Lehtola,  D. S. Levine,  Yi-Pei Li,  You-Sheng Lin,  Fenglai Liu,  
 E. Livshits,  A. Luenser,  P. Manohar,  E. Mansoor,  S. F. Manzer,  
 Shan-Ping Mao,  Yuezhi Mao,  N. Mardirossian,  A. V. Marenich,  
 T. Markovich,  L. A. Martinez-Martinez,  S. A. Maurer,  N. J. Mayhall,  
 S. C. McKenzie,  J.-M. Mewes,  P. Morgante,  A. F. Morrison,  
 J. W. Mullinax,  K. Nanda,  T. S. Nguyen-Beck,  R. Olivares-Amaya,  
 J. A. Parkhill,  Zheng Pei,  T. M. Perrine,  F. Plasser,  P. Pokhilko,  
 S. Prager,  A. Prociuk,  E. Ramos,  D. R. Rehn,  F. Rob,  M. Scheurer,  
 M. Schneider,  N. Sergueev,  S. M. Sharada,  S. Sharma,  D. W. Small,  
 T. Stauch,  T. Stein,  Yu-Chuan Su,  A. J. W. Thom,  A. Tkatchenko,  
 T. Tsuchimochi,  N. M. Tubman,  L. Vogt,  M. L. Vidal,  O. Vydrov,  
 M. A. Watson,  J. Wenzel,  M. de Wergifosse,  T. A. Wesolowski,  A. White,  
 J. Witte,  A. Yamada,  Jun Yang,  K. Yao,  S. Yeganeh,  S. R. Yost,  
 Zhi-Qiang You,  A. Zech,  Igor Ying Zhang,  Xing Zhang,  Yan Zhao,  
 Ying Zhu,  B. R. Brooks,  G. K. L. Chan,  C. J. Cramer,  M. S. Gordon,  
 W. J. Hehre,  A. Klamt,  M. W. Schmidt,  C. D. Sherrill,  D. G. Truhlar,  
 A. Aspuru-Guzik,  R. Baer,  A. T. Bell,  N. A. Besley,  Jeng-Da Chai,  
 A. E. DePrince, III,  R. A. DiStasio Jr.,  A. Dreuw,  B. D. Dunietz,  
 T. R. Furlani,  Chao-Ping Hsu,  Yousung Jung,  Jing Kong,  D. S. Lambrecht,  
 WanZhen Liang,  C. Ochsenfeld,  V. A. Rassolov,  L. V. Slipchenko,  
 J. E. Subotnik,  T. Van Voorhis,  J. M. Herbert,  A. I. Krylov,  
 P. M. W. Gill,  M. Head-Gordon

 Contributors to earlier versions of Q-Chem not listed above: 
 R. D. Adamson,  B. Austin,  J. Baker,  G. J. O. Beran,  K. Brandhorst,  
 S. T. Brown,  E. F. C. Byrd,  A. K. Chakraborty,  C.-L. Cheng,  
 Siu Hung Chien,  D. M. Chipman,  D. L. Crittenden,  H. Dachsel,  
 R. J. Doerksen,  A. D. Dutoi,  L. Fusti-Molnar,  W. A. Goddard III,  
 A. Golubeva-Zadorozhnaya,  S. R. Gwaltney,  G. Hawkins,  A. Heyden,  
 S. Hirata,  G. Kedziora,  F. J. Keil,  C. Kelley,  Jihan Kim,  R. A. King,  
 R. Z. Khaliullin,  P. P. Korambath,  W. Kurlancheek,  A. M. Lee,  M. S. Lee,  
 S. V. Levchenko,  Ching Yeh Lin,  D. Liotard,  R. C. Lochan,  I. Lotan,  
 P. E. Maslen,  N. Nair,  D. P. O'Neill,  D. Neuhauser,  E. Neuscamman,  
 C. M. Oana,  R. Olson,  B. Peters,  R. Peverati,  P. A. Pieniazek,  
 Y. M. Rhee,  J. Ritchie,  M. A. Rohrdanz,  E. Rosta,  N. J. Russ,  
 H. F. Schaefer III,  N. E. Schultz,  N. Shenvi,  A. C. Simmonett,  A. Sodt,  
 D. Stuck,  K. S. Thanthiriwatte,  V. Vanovschi,  Tao Wang,  A. Warshel,  
 C. F. Williams,  Q. Wu,  X. Xu,  W. Zhang

 Please cite Q-Chem as follows:
 Y. Shao et al., Mol. Phys. 113, 184-215 (2015)
 DOI: 10.1080/00268976.2014.952696

 Q-Chem 5.2.1 for Intel X86 EM64T Linux

 Parts of Q-Chem use Armadillo 8.300.2 (Tropical Shenanigans).
 http://arma.sourceforge.net/

 Q-Chem begins on Wed Sep 29 20:46:07 2021  

compute-0-1.local
Host: 0

     Scratch files written to /home/meili/scratch/qchem41253//Frg1//
NAlpha2: 52
NElect   52
Mult     1
Symmetry turned off for PCM/SM12/SMD calculation

Checking the input file for inconsistencies... 	...done.

--------------------------------------------------------------
User input:
--------------------------------------------------------------
$molecule
0 1
 6	1.0776471489	-1.5229013020	1.6348949840
 6	0.8366471489	-2.9309013020	2.1838949840
 6	0.0546471489	-0.4809013020	2.0068949840
 6	0.2196471489	0.6490986980	2.7478949840
 6	-1.8223528511	0.6530986980	1.9998949840
 7	-1.2413528511	-0.4599013020	1.5548949840
 7	-0.9673528511	1.3340986980	2.7458949840
 1	2.0346471489	-1.1659013020	2.0158949840
 1	1.1486471489	-1.5689013020	0.5478949840
 1	0.5686471489	-2.8519013020	3.2388949840
 1	1.1406471489	0.9530986980	3.2268949840
 1	-2.8393528511	0.9540986980	1.7828949840
 1	-1.1463528511	2.2160986980	3.1888949840
 1	1.7604231489	-3.5201293020	2.0866949840
 1	0.0176211489	-3.4218823020	1.6378749840
$end
$rem
EDA2		1
METHOD		WB97X-V
BASIS		DEF2-TZVPD
XC_GRID		000099000590
NL_GRID		1
UNRESTRICTED		FALSE
MAX_SCF_CYCLES		200
SYMMETRY		FALSE
SYM_IGNORE		TRUE
BASIS_LIN_DEP_THRESH		6
THRESH		14
SCF_CONVERGENCE		8
SCF_PRINT_FRGM		TRUE
SOLVENT_METHOD		PCM
!required keywords
JOBTYPE		SP
SYM_IGNORE		TRUE
SUBSYSTEM		TRUE
GEN_SCFMAN		TRUE
CHILD_INSTRUCTION		2
SYM_IGNORE		TRUE
SCFMI		0
RI_K 0		
PARI_K 0		
MIN_PARI_K 0		
IARI_K 0		
OCC_RI_K 0		
PURECART		1111
MEM_STATIC		2000
MEM_TOTAL		2000
GUI		0
CHILD_MP		1
CHILD_MP_ORDERS		232
FRZ_RELAX		0
FRZ_RELAX_METHOD		0
EDA_CLS_ELEC		1
EDA_CLS_DISP		0
FRZ_ORTHO_DECOMP		1
EDA2		FALSE
FRGM_METHOD		FALSE
CIS_N_ROOTS  0
LOCAL_CIS    0
CIS_RLX_DNS  1
$end
$pcm
THEORY                  CPCM
METHOD                  SWIG
SOLVER                  INVERSION
RADII                   UFF
HPOINTS                 302
HEAVYPOINTS             302
PRINTLEVEL              0
$end
$solvent
DIELECTRIC              78.390000 ! water
$end
--------------------------------------------------------------
 ----------------------------------------------------------------
             Standard Nuclear Orientation (Angstroms)
    I     Atom           X                Y                Z
 ----------------------------------------------------------------
    1      C       1.0776471489    -1.5229013020     1.6348949840
    2      C       0.8366471489    -2.9309013020     2.1838949840
    3      C       0.0546471489    -0.4809013020     2.0068949840
    4      C       0.2196471489     0.6490986980     2.7478949840
    5      C      -1.8223528511     0.6530986980     1.9998949840
    6      N      -1.2413528511    -0.4599013020     1.5548949840
    7      N      -0.9673528511     1.3340986980     2.7458949840
    8      H       2.0346471489    -1.1659013020     2.0158949840
    9      H       1.1486471489    -1.5689013020     0.5478949840
   10      H       0.5686471489    -2.8519013020     3.2388949840
   11      H       1.1406471489     0.9530986980     3.2268949840
   12      H      -2.8393528511     0.9540986980     1.7828949840
   13      H      -1.1463528511     2.2160986980     3.1888949840
   14      H       1.7604231489    -3.5201293020     2.0866949840
   15      H       0.0176211489    -3.4218823020     1.6378749840
 ----------------------------------------------------------------
 Nuclear Repulsion Energy =         290.37017685 hartrees
 There are       26 alpha and       26 beta electrons
 Requested basis set is def2-TZVPD
 There are 131 shells and 331 basis functions

 Total QAlloc Memory Limit   2000 MB
 Mega-Array Size      1956 MB
 MEM_STATIC part      2000 MB
 Discretize the solute cavity surface with Lebedev spheres
	Using 302 Lebedev grid points for each H atom
	Using 302 Lebedev grid points for other atoms
	Atomic van der Waals radii will be scaled by 1.20
 Remove points where switching function is < 1.0e-08
 Keep 1797 surface tesserae and discard 2733 interior tesserae
 Molecular Surface Area = 181.931 Angst**2

                       Distance Matrix (Angstroms)
             C (  1)   C (  2)   C (  3)   C (  4)   C (  5)   N (  6)
   C (  2)  1.530342
   C (  3)  1.506877  2.577858
   C (  4)  2.586990  3.676300  1.361325
   C (  5)  3.643927  4.466452  2.192974  2.174692
   N (  6)  2.552279  3.289311  1.372720  2.188070  1.332049
   N (  7)  3.684942  4.664814  2.210165  1.370474  1.323368  2.170713
   H (  8)  1.090165  2.139779  2.095163  2.669134  4.264442  3.382770
   H (  9)  1.090287  2.151484  2.123502  3.259228  3.984022  2.820644
   H ( 10)  2.144327  1.091371  2.720967  3.552447  4.420071  3.440003
   H ( 11)  2.944318  4.033078  2.173511  1.081711  3.221009  3.235132
   H ( 12)  4.636844  5.363488  3.237999  3.222069  1.082580  2.145923
   H ( 13)  4.619655  5.606596  3.180147  2.125071  2.076937  3.136871
   H ( 14)  2.158524  1.100000  3.486108  4.493733  5.500877  4.319545
   H ( 15)  2.174809  1.100002  2.964273  4.224434  4.485759  3.219508
             N (  7)   H (  8)   H (  9)   H ( 10)   H ( 11)   H ( 12)
   H (  8)  3.974280
   H (  9)  4.211421  1.761371
   H ( 10)  4.486083  2.547053  3.037099
   H ( 11)  2.195492  2.599215  3.679346  3.847772
   H ( 12)  2.139194  5.320203  4.878001  5.312253  4.233856
   H ( 13)  1.003102  4.788801  5.154428  5.350547  2.612849  2.536874
   H ( 14)  5.607035  2.371202  2.559192  1.787295  4.657676  6.424091
   H ( 15)  4.981690  3.049712  2.429159  1.786553  4.788176  5.228053
             H ( 13)   H ( 14)
   H ( 14)  6.524454
   H ( 15)  5.962158  1.802346

 A cutoff of  1.0D-14 yielded   8266 shell pairs
 There are     53764 function pairs (     68463 Cartesian)
 Smallest overlap matrix eigenvalue = 1.52E-06

 Scale SEOQF with 1.000000e-01/1.000000e-01/1.000000e-01

 Standard Electronic Orientation quadrupole field applied
 Nucleus-field energy     =    -0.0000000155 hartrees
 Guess from superposition of atomic densities
 Warning:  Energy on first SCF cycle will be non-variational
 SAD guess density has 52.000000 electrons

 -----------------------------------------------------------------------
  General SCF calculation program by
  Eric Jon Sundstrom, Paul Horn, Yuezhi Mao, Dmitri Zuev, Alec White,
  David Stuck, Shaama M.S., Shane Yost, Joonho Lee, David Small,
  Daniel Levine, Susi Lehtola, Hugh Burton, Evgeny Epifanovsky,
  Bang C. Huynh
 -----------------------------------------------------------------------
 Exchange:     0.1670 Hartree-Fock + 1.0000 wB97X-V + LR-HF
 Correlation:  1.0000 wB97X-V
 Using Euler-Maclaurin-Lebedev (99,590) quadrature formula
 Nonlocal Correlation:  VV10 with C = 0.0100 and b = 6.00 and scale = 1.00000
 Grid used for NLC:  SG-1 standard quadrature
Energy prior to optimization (guess energy) = -304.787422498970
Begin Timing: Total SCF Calculation
begin iterations for algorithm: DIIS         
the SCF tolerance is set to 1.00e-08
    1    -304.7874224990      2.37e-03     00000 
    2    -304.8031792765      2.46e-03     00000 
    3    -304.8773614720      3.71e-04     00000 
    4    -304.8793594895      1.39e-04     00000 
    5    -304.8797435004      4.82e-05     00000 
    6    -304.8797888133      1.77e-05     00000 
    7    -304.8797942598      7.16e-06     00000 
    8    -304.8797952883      1.32e-06     00000 
    9    -304.8797953714      5.52e-07     00000 
   10    -304.8797953791      2.04e-07     00000 
   11    -304.8797953802      5.03e-08     00000 
   12    -304.8797953803      2.22e-08     00000 
   13    -304.8797953803      5.65e-09     00000 Convergence criterion met
Timing for Total SCF: 600.00s (wall), 3451.57s (cpu)

************** Final PCM Free Energy Summary **************
 G_electrostatic  =      -0.01067708 hartree =      -6.69996893 kcal/mol
 G_cavitation     =       0.00000000 hartree =       0.00000000 kcal/mol
 G_dispersion     =       0.00000000 hartree =       0.00000000 kcal/mol
 G_repulsion      =       0.00000000 hartree =       0.00000000 kcal/mol
 --------------------------------------------------
 Non-electrostatic Free Energy =       0.00000000 hartree =       0.00000000 kcal/mol
 Total                         =      -0.01067708 hartree =      -6.69996893 kcal/mol
 --------------------------------------------------
 SCF Energy (H0 + V/2)                       =    -304.87979538 
 Solute Internal Energy (H0)                 =    -304.86911830 
 Total Free Energy (H0 + V/2 + non-elec)     =    -304.87979538 hartree
                                             = -191314.95911769 kcal/mol
***********************************************************

E_pcm = -0.0106770802
Multipole orders to be included
        2
        3
computing dipole RHS
computing quadrupole RHS
total number of RHS in solve_reponses: 8
RHS batch sizes
        8
Beginning Block Conjugate Gradient Iterations. Batch Number: 0
computing hessian-vector products by finite difference
              1      5.71e-01     00000 Conjugate Gradient Iteration
computing hessian-vector products by finite difference
              2      1.77e-01     00000 Conjugate Gradient Iteration
computing hessian-vector products by finite difference
              3      4.53e-02     00000 Conjugate Gradient Iteration
computing hessian-vector products by finite difference
              4      1.32e-02     00000 Conjugate Gradient Iteration
computing hessian-vector products by finite difference
              5      2.71e-03     00000 Conjugate Gradient Iteration
computing hessian-vector products by finite difference
              6      5.62e-04     00000 Conjugate Gradient Iteration
computing hessian-vector products by finite difference
              7      1.20e-04     00000 Conjugate Gradient Iteration
computing hessian-vector products by finite difference
              8      1.79e-05     00000 Conjugate Gradient Iteration
computing hessian-vector products by finite difference
              9      2.82e-06     00000 Conjugate Gradient Iteration
computing hessian-vector products by finite difference
             10      5.69e-07     00000 Conjugate Gradient Iteration
computing hessian-vector products by finite difference
             11      1.17e-07     00000 Conjugate Gradient Iteration
computing hessian-vector products by finite difference
             12      2.98e-08     00000 Conjugate Gradient Iteration
computing hessian-vector products by finite difference
             13      5.64e-09     00000 CG Converged
batch 0 complete
Done Calculating Responses
TESTING ORTHOGONALIZATION OF MULTIPOLE BASIS
Multipole virts passed orthogonality test
Virts Per Order
           78
          130

 --------------------------------------------------------------

                    Orbital Energies (a.u.)
 --------------------------------------------------------------

 Alpha MOs
 -- Occupied --
-14.4677 -14.3880 -10.3225 -10.2889 -10.2843 -10.2694 -10.2575  -1.1603
 -1.0024  -0.9156  -0.8629  -0.7626  -0.7345  -0.6881  -0.6646  -0.5740
 -0.5665  -0.5462  -0.5391  -0.5217  -0.4813  -0.4558  -0.4469  -0.3809
 -0.3739  -0.3244
 -- Virtual --
  0.0631   0.0796   0.0881   0.0932   0.1043   0.1133   0.1228   0.1326
  0.1436   0.1595   0.1639   0.1679   0.1830   0.1837   0.1928   0.2070
  0.2113   0.2228   0.2363   0.2432   0.2490   0.2556   0.2631   0.2748
  0.2793   0.2849   0.2947   0.2983   0.3036   0.3074   0.3121   0.3168
  0.3291   0.3321   0.3357   0.3429   0.3515   0.3553   0.3606   0.3637
  0.3730   0.3767   0.3880   0.3936   0.4026   0.4050   0.4106   0.4145
  0.4231   0.4292   0.4320   0.4395   0.4500   0.4535   0.4675   0.4709
  0.4831   0.4847   0.4877   0.4983   0.5027   0.5115   0.5246   0.5306
  0.5415   0.5488   0.5599   0.5657   0.5678   0.5783   0.5859   0.5918
  0.6045   0.6091   0.6150   0.6191   0.6303   0.6409   0.6491   0.6608
  0.6738   0.6825   0.7005   0.7025   0.7099   0.7279   0.7310   0.7427
  0.7519   0.7614   0.7660   0.7795   0.7851   0.7894   0.7936   0.8001
  0.8051   0.8109   0.8218   0.8294   0.8337   0.8375   0.8476   0.8617
  0.8832   0.8883   0.8964   0.9088   0.9373   0.9610   0.9837   0.9977
  1.0026   1.0248   1.0357   1.0497   1.0760   1.0919   1.0954   1.1164
  1.1289   1.1484   1.1667   1.1785   1.1964   1.2098   1.2265   1.2395
  1.2509   1.2867   1.3279   1.3533   1.3759   1.3970   1.4191   1.4309
  1.4526   1.4634   1.4951   1.5330   1.5615   1.5871   1.6170   1.6736
  1.6773   1.7107   1.7187   1.7560   1.8188   1.8505   1.8604   1.8690
  1.8746   1.8885   1.9111   1.9167   1.9401   1.9447   1.9708   1.9825
  1.9920   1.9936   2.0029   2.0123   2.0207   2.0294   2.0439   2.0992
  2.1181   2.1751   2.1978   2.2197   2.2606   2.2769   2.3051   2.3230
  2.3553   2.3766   2.3920   2.4313   2.4623   2.4881   2.5037   2.5223
  2.5404   2.5852   2.5927   2.6090   2.6178   2.6439   2.6711   2.6949
  2.7078   2.7378   2.7573   2.7767   2.7928   2.8133   2.8249   2.8570
  2.9048   2.9111   2.9439   2.9664   2.9980   3.0185   3.0380   3.0524
  3.0769   3.0852   3.0962   3.1205   3.1369   3.1507   3.1980   3.2203
  3.2557   3.2708   3.2801   3.2968   3.3065   3.3206   3.3305   3.3432
  3.3745   3.3960   3.4007   3.4115   3.4396   3.4652   3.4907   3.5024
  3.5141   3.5427   3.5804   3.5958   3.6161   3.6349   3.6463   3.6589
  3.6667   3.6907   3.7621   3.7668   3.7833   3.8030   3.8237   3.8641
  3.8978   3.9348   3.9899   4.0107   4.0475   4.1046   4.1163   4.1419
  4.1800   4.2498   4.3059   4.3312   4.4531   4.4960   4.5177   4.5318
  4.5798   4.6262   4.6508   4.6729   4.7841   4.8119   4.8601   4.8706
  4.8850   4.9459   4.9783   5.0036   5.0506   5.0603   5.0724   5.1316
  5.1649   5.2236   5.2416   5.3057   5.3825   5.4506   5.5115   5.5522
  5.5921   5.6141   5.6678   5.7207   5.7531   5.8118   5.8858   6.0582
  6.2590   6.3088  22.6247  22.7618  22.9188  23.1476  23.4102  32.6578
 32.8202
 --------------------------------------------------------------

          Ground-State Mulliken Net Atomic Charges

     Atom                 Charge (a.u.)
  ----------------------------------------
      1 C                    -0.101881
      2 C                    -0.837342
      3 C                     0.390818
      4 C                    -0.526016
      5 C                    -0.281527
      6 N                    -0.487716
      7 N                     0.114076
      8 H                     0.178072
      9 H                     0.180876
     10 H                     0.257809
     11 H                     0.255867
     12 H                     0.287947
     13 H                     0.155426
     14 H                     0.203626
     15 H                     0.209965
  ----------------------------------------
  Sum of atomic charges =     0.000000

 -----------------------------------------------------------------
                    Cartesian Multipole Moments
 -----------------------------------------------------------------
    Charge (ESU x 10^10)
                -0.0000
    Dipole Moment (Debye)
         X       0.8310      Y       3.7731      Z       2.3417
       Tot       4.5178
    Quadrupole Moments (Debye-Ang)
        XX     -39.5301     XY      -7.5598     YY     -37.7689
        XZ      -0.4154     YZ      10.8652     ZZ     -34.0829
    Octopole Moments (Debye-Ang^2)
       XXX      17.3951    XXY      33.8099    XYY       3.9433
       YYY      82.4010    XXZ     -80.0487    XYZ     -15.6309
       YYZ     -72.8065    XZZ       5.4404    YZZ      55.4296
       ZZZ    -246.4375
    Hexadecapole Moments (Debye-Ang^3)
      XXXX    -334.8532   XXXY      92.3805   XXYY    -161.1205
      XYYY     100.4186   YYYY    -658.3879   XXXZ      38.5078
      XXYZ      58.8313   XYYZ      -2.1410   YYYZ     158.8656
      XXZZ    -248.1677   XYZZ       4.7597   YYZZ    -263.9985
      XZZZ      41.3258   YZZZ     205.0327   ZZZZ   -1204.3701
 -----------------------------------------------------------------
Archival summary:
1\1\compute-0-1.local\SP\ProcedureUnspecified\BasisUnspecified\258\meili\WedSep2923:53:452021WedSep2923:53:452021\0\\#,ProcedureUnspecified,BasisUnspecified,\\0,1\N\C,1,1.33205\H,2,1.08258,1,125.107\N,2,1.32337,1,109.663,3,-179.956,0\H,4,1.0031,2,125.883,1,178.869,0\C,4,1.37047,2,107.65,1,1.73489,0\H,6,1.08171,4,126.7,2,177.215,0\C,6,1.36133,4,108.006,2,-1.28701,0\C,8,1.50688,6,128.762,4,175.973,0\H,9,1.09016,8,106.453,6,-4.22582,0\H,9,1.09029,8,108.633,6,-120.029,0\C,9,1.53034,8,116.151,6,116.434,0\H,12,1.09137,9,108.594,8,-45.5358,0\H,12,1.1,9,109.201,8,-164.634,0\H,12,1.1,9,110.478,8,74.2341,0\\\@

 Total job time:  11257.94s(wall), 66190.38s(cpu) 
 Wed Sep 29 23:53:45 2021

        *************************************************************
        *                                                           *
        *  Thank you very much for using Q-Chem.  Have a nice day.  *
        *                                                           *
        *************************************************************


Done Job For Fragment 0
calling putenv with: QCSCRATCH=/home/meili/scratch 
calling putenv with: QCTHREADS=8 
Creating input file /home/meili/scratch/qchem41253/Frg2.input
using default PutDataFrgm: nothing
calling putenv with: QCSCRATCH=/home/meili/scratch/qchem41253/ 
Spawning Job For Fragment 1
                  Welcome to Q-Chem
     A Quantum Leap Into The Future Of Chemistry


 Q-Chem 5.2 (devel), Q-Chem, Inc., Pleasanton, CA (2019)

 Yihan Shao,  Zhengting Gan,  E. Epifanovsky,  A. T. B. Gilbert,  M. Wormit,  
 J. Kussmann,  A. W. Lange,  A. Behn,  Jia Deng,  Xintian Feng,  D. Ghosh,  
 M. Goldey,  P. R. Horn,  L. D. Jacobson,  I. Kaliman,  T. Kus,  A. Landau,  
 Jie Liu,  E. I. Proynov,  R. M. Richard,  R. P. Steele,  E. J. Sundstrom,  
 H. L. Woodcock III,  P. M. Zimmerman,  D. Zuev,  B. Albrecht,  E. Alguire,  
 S. A. Baeppler,  D. Barton,  Z. Benda,  Y. A. Bernard,  E. J. Berquist,  
 K. B. Bravaya,  H. Burton,  D. Casanova,  Chun-Min Chang,  Yunqing Chen,  
 A. Chien,  K. D. Closser,  M. P. Coons,  S. Coriani,  S. Dasgupta,  
 A. L. Dempwolff,  M. Diedenhofen,  Hainam Do,  R. G. Edgar,  Po-Tung Fang,  
 S. Faraji,  S. Fatehi,  Qingguo Feng,  K. D. Fenk,  J. Fosso-Tande,  
 J. Gayvert,  Qinghui Ge,  A. Ghysels,  G. Gidofalvi,  J. Gomes,  
 J. Gonthier,  A. Gunina,  D. Hait,  M. W. D. Hanson-Heine,  
 P. H. P. Harbach,  A. W. Hauser,  M. F. Herbst,  J. E. Herr,  
 E. G. Hohenstein,  Z. C. Holden,  Kerwin Hui,  B. C. Huynh,  T.-C. Jagau,  
 Hyunjun Ji,  B. Kaduk,  K. Khistyaev,  Jaehoon Kim,  P. Klunzinger,  K. Koh,  
 D. Kosenkov,  L. Koulias,  T. Kowalczyk,  C. M. Krauter,  A. Kunitsa,  
 Ka Un Lao,  A. Laurent,  K. V. Lawler,  Joonho Lee,  D. Lefrancois,  
 S. Lehtola,  D. S. Levine,  Yi-Pei Li,  You-Sheng Lin,  Fenglai Liu,  
 E. Livshits,  A. Luenser,  P. Manohar,  E. Mansoor,  S. F. Manzer,  
 Shan-Ping Mao,  Yuezhi Mao,  N. Mardirossian,  A. V. Marenich,  
 T. Markovich,  L. A. Martinez-Martinez,  S. A. Maurer,  N. J. Mayhall,  
 S. C. McKenzie,  J.-M. Mewes,  P. Morgante,  A. F. Morrison,  
 J. W. Mullinax,  K. Nanda,  T. S. Nguyen-Beck,  R. Olivares-Amaya,  
 J. A. Parkhill,  Zheng Pei,  T. M. Perrine,  F. Plasser,  P. Pokhilko,  
 S. Prager,  A. Prociuk,  E. Ramos,  D. R. Rehn,  F. Rob,  M. Scheurer,  
 M. Schneider,  N. Sergueev,  S. M. Sharada,  S. Sharma,  D. W. Small,  
 T. Stauch,  T. Stein,  Yu-Chuan Su,  A. J. W. Thom,  A. Tkatchenko,  
 T. Tsuchimochi,  N. M. Tubman,  L. Vogt,  M. L. Vidal,  O. Vydrov,  
 M. A. Watson,  J. Wenzel,  M. de Wergifosse,  T. A. Wesolowski,  A. White,  
 J. Witte,  A. Yamada,  Jun Yang,  K. Yao,  S. Yeganeh,  S. R. Yost,  
 Zhi-Qiang You,  A. Zech,  Igor Ying Zhang,  Xing Zhang,  Yan Zhao,  
 Ying Zhu,  B. R. Brooks,  G. K. L. Chan,  C. J. Cramer,  M. S. Gordon,  
 W. J. Hehre,  A. Klamt,  M. W. Schmidt,  C. D. Sherrill,  D. G. Truhlar,  
 A. Aspuru-Guzik,  R. Baer,  A. T. Bell,  N. A. Besley,  Jeng-Da Chai,  
 A. E. DePrince, III,  R. A. DiStasio Jr.,  A. Dreuw,  B. D. Dunietz,  
 T. R. Furlani,  Chao-Ping Hsu,  Yousung Jung,  Jing Kong,  D. S. Lambrecht,  
 WanZhen Liang,  C. Ochsenfeld,  V. A. Rassolov,  L. V. Slipchenko,  
 J. E. Subotnik,  T. Van Voorhis,  J. M. Herbert,  A. I. Krylov,  
 P. M. W. Gill,  M. Head-Gordon

 Contributors to earlier versions of Q-Chem not listed above: 
 R. D. Adamson,  B. Austin,  J. Baker,  G. J. O. Beran,  K. Brandhorst,  
 S. T. Brown,  E. F. C. Byrd,  A. K. Chakraborty,  C.-L. Cheng,  
 Siu Hung Chien,  D. M. Chipman,  D. L. Crittenden,  H. Dachsel,  
 R. J. Doerksen,  A. D. Dutoi,  L. Fusti-Molnar,  W. A. Goddard III,  
 A. Golubeva-Zadorozhnaya,  S. R. Gwaltney,  G. Hawkins,  A. Heyden,  
 S. Hirata,  G. Kedziora,  F. J. Keil,  C. Kelley,  Jihan Kim,  R. A. King,  
 R. Z. Khaliullin,  P. P. Korambath,  W. Kurlancheek,  A. M. Lee,  M. S. Lee,  
 S. V. Levchenko,  Ching Yeh Lin,  D. Liotard,  R. C. Lochan,  I. Lotan,  
 P. E. Maslen,  N. Nair,  D. P. O'Neill,  D. Neuhauser,  E. Neuscamman,  
 C. M. Oana,  R. Olson,  B. Peters,  R. Peverati,  P. A. Pieniazek,  
 Y. M. Rhee,  J. Ritchie,  M. A. Rohrdanz,  E. Rosta,  N. J. Russ,  
 H. F. Schaefer III,  N. E. Schultz,  N. Shenvi,  A. C. Simmonett,  A. Sodt,  
 D. Stuck,  K. S. Thanthiriwatte,  V. Vanovschi,  Tao Wang,  A. Warshel,  
 C. F. Williams,  Q. Wu,  X. Xu,  W. Zhang

 Please cite Q-Chem as follows:
 Y. Shao et al., Mol. Phys. 113, 184-215 (2015)
 DOI: 10.1080/00268976.2014.952696

 Q-Chem 5.2.1 for Intel X86 EM64T Linux

 Parts of Q-Chem use Armadillo 8.300.2 (Tropical Shenanigans).
 http://arma.sourceforge.net/

 Q-Chem begins on Wed Sep 29 23:53:46 2021  

compute-0-1.local
Host: 0

     Scratch files written to /home/meili/scratch/qchem41253//Frg2//
NAlpha2: 58
NElect   58
Mult     1
Symmetry turned off for PCM/SM12/SMD calculation

Checking the input file for inconsistencies... 	...done.

--------------------------------------------------------------
User input:
--------------------------------------------------------------
$molecule
0 1
 6	2.6766471489	1.3070986980	-0.5901050160
 6	1.4186471489	0.7980986980	-1.2581050160
 6	1.4416471489	-0.2119013020	-2.2271050160
 6	0.1906471489	1.3350986980	-0.8901050160
 6	0.2856471489	-0.6339013020	-2.8571050160
 6	-0.9743528511	0.9170986980	-1.5241050160
 6	-0.9253528511	-0.0449013020	-2.5201050160
 8	-2.0983528511	-0.4039013020	-3.1251050160
 1	3.1456471489	0.4810986980	-0.0551050160
 1	2.3936471489	2.0520986980	0.1548949840
 1	2.3756471489	-0.6879013020	-2.4811050160
 1	0.1326471489	2.0700986980	-0.1011050160
 1	0.3266471489	-1.4169013020	-3.5981050160
 1	-1.9293528511	1.3080986980	-1.2161050160
 1	-1.8893528511	-0.9279013020	-3.9201050160
 1	3.4106521489	1.7648686980	-1.2695750160
$end
$rem
EDA2		1
METHOD		WB97X-V
BASIS		DEF2-TZVPD
XC_GRID		000099000590
NL_GRID		1
UNRESTRICTED		FALSE
MAX_SCF_CYCLES		200
SYMMETRY		FALSE
SYM_IGNORE		TRUE
BASIS_LIN_DEP_THRESH		6
THRESH		14
SCF_CONVERGENCE		8
SCF_PRINT_FRGM		TRUE
SOLVENT_METHOD		PCM
!required keywords
JOBTYPE		SP
SYM_IGNORE		TRUE
SUBSYSTEM		TRUE
GEN_SCFMAN		TRUE
CHILD_INSTRUCTION		2
SYM_IGNORE		TRUE
SCFMI		0
RI_K 0		
PARI_K 0		
MIN_PARI_K 0		
IARI_K 0		
OCC_RI_K 0		
PURECART		1111
MEM_STATIC		2000
MEM_TOTAL		2000
GUI		0
CHILD_MP		1
CHILD_MP_ORDERS		232
FRZ_RELAX		0
FRZ_RELAX_METHOD		0
EDA_CLS_ELEC		1
EDA_CLS_DISP		0
FRZ_ORTHO_DECOMP		1
EDA2		FALSE
FRGM_METHOD		FALSE
CIS_N_ROOTS  0
LOCAL_CIS    0
CIS_RLX_DNS  1
$end
$pcm
THEORY                  CPCM
METHOD                  SWIG
SOLVER                  INVERSION
RADII                   UFF
HPOINTS                 302
HEAVYPOINTS             302
PRINTLEVEL              0
$end
$solvent
DIELECTRIC              78.390000 ! water
$end
--------------------------------------------------------------
 ----------------------------------------------------------------
             Standard Nuclear Orientation (Angstroms)
    I     Atom           X                Y                Z
 ----------------------------------------------------------------
    1      C       2.6766471489     1.3070986980    -0.5901050160
    2      C       1.4186471489     0.7980986980    -1.2581050160
    3      C       1.4416471489    -0.2119013020    -2.2271050160
    4      C       0.1906471489     1.3350986980    -0.8901050160
    5      C       0.2856471489    -0.6339013020    -2.8571050160
    6      C      -0.9743528511     0.9170986980    -1.5241050160
    7      C      -0.9253528511    -0.0449013020    -2.5201050160
    8      O      -2.0983528511    -0.4039013020    -3.1251050160
    9      H       3.1456471489     0.4810986980    -0.0551050160
   10      H       2.3936471489     2.0520986980     0.1548949840
   11      H       2.3756471489    -0.6879013020    -2.4811050160
   12      H       0.1326471489     2.0700986980    -0.1011050160
   13      H       0.3266471489    -1.4169013020    -3.5981050160
   14      H      -1.9293528511     1.3080986980    -1.2161050160
   15      H      -1.8893528511    -0.9279013020    -3.9201050160
   16      H       3.4106521489     1.7648686980    -1.2695750160
 ----------------------------------------------------------------
 Nuclear Repulsion Energy =         343.43127143 hartrees
 There are       29 alpha and       29 beta electrons
 Requested basis set is def2-TZVPD
 There are 145 shells and 371 basis functions

 Total QAlloc Memory Limit   2000 MB
 Mega-Array Size      1956 MB
 MEM_STATIC part      2000 MB
 Discretize the solute cavity surface with Lebedev spheres
	Using 302 Lebedev grid points for each H atom
	Using 302 Lebedev grid points for other atoms
	Atomic van der Waals radii will be scaled by 1.20
 Remove points where switching function is < 1.0e-08
 Keep 1877 surface tesserae and discard 2955 interior tesserae
 Molecular Surface Area = 189.845 Angst**2
 A cutoff of  1.0D-14 yielded  10047 shell pairs
 There are     67091 function pairs (     85790 Cartesian)
 Smallest overlap matrix eigenvalue = 5.41E-07
 Linear dependence detected in AO basis
 Tighter screening thresholds may be required for diffuse basis sets
 Use S2THRESH > 14 and THRESH = 14 in case of SCF convergence issues
 Number of orthogonalized atomic orbitals = 370
 Maximum deviation from orthogonality = 2.828E-10

 Scale SEOQF with 1.000000e-01/1.000000e-01/1.000000e-01

 Standard Electronic Orientation quadrupole field applied
 Nucleus-field energy     =    -0.0000000190 hartrees
 Guess from superposition of atomic densities
 Warning:  Energy on first SCF cycle will be non-variational
 SAD guess density has 58.000000 electrons

 -----------------------------------------------------------------------
  General SCF calculation program by
  Eric Jon Sundstrom, Paul Horn, Yuezhi Mao, Dmitri Zuev, Alec White,
  David Stuck, Shaama M.S., Shane Yost, Joonho Lee, David Small,
  Daniel Levine, Susi Lehtola, Hugh Burton, Evgeny Epifanovsky,
  Bang C. Huynh
 -----------------------------------------------------------------------
 Exchange:     0.1670 Hartree-Fock + 1.0000 wB97X-V + LR-HF
 Correlation:  1.0000 wB97X-V
 Using Euler-Maclaurin-Lebedev (99,590) quadrature formula
 Nonlocal Correlation:  VV10 with C = 0.0100 and b = 6.00 and scale = 1.00000
 Grid used for NLC:  SG-1 standard quadrature
Energy prior to optimization (guess energy) = -346.731239481602
Begin Timing: Total SCF Calculation
begin iterations for algorithm: DIIS         
the SCF tolerance is set to 1.00e-08
    1    -346.7312394816      2.20e-03     00000 
    2    -346.7775385049      1.72e-03     00000 
    3    -346.8148852907      2.87e-04     00000 
    4    -346.8160245218      1.29e-04     00000 
    5    -346.8163033935      2.47e-05     00000 
    6    -346.8163159113      8.62e-06     00000 
    7    -346.8163175972      3.81e-06     00000 
    8    -346.8163179345      9.03e-07     00000 
    9    -346.8163179683      4.31e-07     00000 
   10    -346.8163179752      1.52e-07     00000 
   11    -346.8163179767      5.39e-08     00000 
   12    -346.8163179769      2.15e-08     00000 
   13    -346.8163179769      6.29e-09     00000 Convergence criterion met
Timing for Total SCF: 862.00s (wall), 4947.64s (cpu)

************** Final PCM Free Energy Summary **************
 G_electrostatic  =      -0.00554885 hartree =      -3.48195619 kcal/mol
 G_cavitation     =       0.00000000 hartree =       0.00000000 kcal/mol
 G_dispersion     =       0.00000000 hartree =       0.00000000 kcal/mol
 G_repulsion      =       0.00000000 hartree =       0.00000000 kcal/mol
 --------------------------------------------------
 Non-electrostatic Free Energy =       0.00000000 hartree =       0.00000000 kcal/mol
 Total                         =      -0.00554885 hartree =      -3.48195619 kcal/mol
 --------------------------------------------------
 SCF Energy (H0 + V/2)                       =    -346.81631798 
 Solute Internal Energy (H0)                 =    -346.81076913 
 Total Free Energy (H0 + V/2 + non-elec)     =    -346.81631798 hartree
                                             = -217630.52422787 kcal/mol
***********************************************************

E_pcm = -0.0055488504
Multipole orders to be included
        2
        3
computing dipole RHS
computing quadrupole RHS
total number of RHS in solve_reponses: 8
RHS batch sizes
        8
Beginning Block Conjugate Gradient Iterations. Batch Number: 0
computing hessian-vector products by finite difference
              1      6.29e-01     00000 Conjugate Gradient Iteration
computing hessian-vector products by finite difference
              2      1.98e-01     00000 Conjugate Gradient Iteration
computing hessian-vector products by finite difference
              3      4.82e-02     00000 Conjugate Gradient Iteration
computing hessian-vector products by finite difference
              4      1.34e-02     00000 Conjugate Gradient Iteration
computing hessian-vector products by finite difference
              5      3.55e-03     00000 Conjugate Gradient Iteration
computing hessian-vector products by finite difference
              6      1.23e-03     00000 Conjugate Gradient Iteration
computing hessian-vector products by finite difference
              7      3.03e-04     00000 Conjugate Gradient Iteration
computing hessian-vector products by finite difference
              8      5.86e-05     00000 Conjugate Gradient Iteration
computing hessian-vector products by finite difference
              9      1.02e-05     00000 Conjugate Gradient Iteration
computing hessian-vector products by finite difference
             10      1.37e-06     00000 Conjugate Gradient Iteration
computing hessian-vector products by finite difference
             11      2.56e-07     00000 Conjugate Gradient Iteration
computing hessian-vector products by finite difference
             12      6.06e-08     00000 Conjugate Gradient Iteration
computing hessian-vector products by finite difference
             13      1.14e-08     00000 Conjugate Gradient Iteration
computing hessian-vector products by finite difference
             14      3.39e-09     00000 CG Converged
batch 0 complete
Done Calculating Responses
TESTING ORTHOGONALIZATION OF MULTIPOLE BASIS
Multipole virts passed orthogonality test
Virts Per Order
           87
          145

 --------------------------------------------------------------

                    Orbital Energies (a.u.)
 --------------------------------------------------------------

 Alpha MOs
 -- Occupied --
-19.2466 -10.3334 -10.2770 -10.2743 -10.2730 -10.2724 -10.2682 -10.2620
 -1.1934  -0.9971  -0.9015  -0.8862  -0.8099  -0.7493  -0.7129  -0.6642
 -0.6037  -0.5799  -0.5527  -0.5420  -0.5350  -0.5215  -0.5100  -0.4781
 -0.4590  -0.4431  -0.4402  -0.3542  -0.3141
 -- Virtual --
  0.0575   0.0603   0.0682   0.0778   0.0830   0.0944   0.1086   0.1098
  0.1134   0.1311   0.1444   0.1515   0.1549   0.1692   0.1792   0.1918
  0.1990   0.2009   0.2135   0.2281   0.2291   0.2394   0.2471   0.2538
  0.2622   0.2682   0.2692   0.2743   0.2823   0.2927   0.2952   0.3021
  0.3052   0.3097   0.3122   0.3252   0.3323   0.3390   0.3447   0.3508
  0.3524   0.3578   0.3635   0.3696   0.3764   0.3787   0.3815   0.3920
  0.3929   0.3950   0.3993   0.4060   0.4107   0.4173   0.4281   0.4334
  0.4372   0.4520   0.4593   0.4636   0.4732   0.4756   0.4777   0.4826
  0.4907   0.4949   0.4983   0.5072   0.5091   0.5155   0.5230   0.5339
  0.5405   0.5466   0.5529   0.5554   0.5583   0.5649   0.5777   0.5904
  0.5989   0.6072   0.6144   0.6190   0.6458   0.6503   0.6607   0.6715
  0.6820   0.6884   0.6904   0.6986   0.7052   0.7107   0.7171   0.7269
  0.7300   0.7408   0.7438   0.7541   0.7588   0.7637   0.7810   0.7838
  0.7872   0.7937   0.7972   0.7992   0.8049   0.8203   0.8260   0.8274
  0.8397   0.8514   0.8581   0.8590   0.8668   0.8741   0.8796   0.8885
  0.9053   0.9084   0.9390   0.9415   0.9612   0.9758   0.9988   1.0133
  1.0205   1.0397   1.0451   1.0474   1.0549   1.0615   1.0736   1.0754
  1.0984   1.1221   1.1352   1.1578   1.2000   1.2281   1.2608   1.3031
  1.3069   1.3173   1.3269   1.3544   1.3740   1.3786   1.4045   1.4390
  1.4487   1.4619   1.4752   1.4891   1.5325   1.5645   1.6070   1.6252
  1.6386   1.6527   1.6681   1.6808   1.7105   1.7348   1.7406   1.7933
  1.8186   1.8295   1.8386   1.8503   1.8597   1.8860   1.9152   1.9164
  1.9399   1.9560   1.9778   1.9813   1.9858   2.0226   2.0426   2.0467
  2.0616   2.0726   2.0883   2.1071   2.1202   2.1622   2.2006   2.2052
  2.2133   2.2475   2.2690   2.2793   2.2961   2.3124   2.3426   2.3637
  2.4029   2.4061   2.4344   2.4629   2.4807   2.5030   2.5269   2.5523
  2.5803   2.6137   2.6345   2.6367   2.6458   2.6652   2.6886   2.7296
  2.7608   2.7665   2.7836   2.7954   2.8128   2.8355   2.8605   2.8776
  2.8826   2.9132   2.9296   2.9488   2.9645   2.9773   2.9821   3.0075
  3.0214   3.0295   3.0563   3.0734   3.0987   3.1290   3.1476   3.1661
  3.1757   3.1959   3.2105   3.2246   3.2398   3.2634   3.2903   3.2949
  3.3063   3.3649   3.3766   3.3889   3.3943   3.4091   3.4365   3.4436
  3.4564   3.4770   3.4865   3.5056   3.5207   3.5313   3.5419   3.5490
  3.5568   3.5746   3.5838   3.5943   3.6127   3.6347   3.6450   3.6890
  3.6971   3.7065   3.7492   3.7521   3.7963   3.8152   3.8602   3.9130
  3.9388   3.9540   3.9766   3.9830   4.0487   4.0773   4.1235   4.1564
  4.2531   4.2684   4.2986   4.3077   4.3213   4.3492   4.3547   4.3739
  4.3952   4.3986   4.4292   4.4804   4.4928   4.5463   4.5790   4.6162
  4.7432   4.7710   4.7840   4.8194   4.8342   4.9268   5.0230   5.0717
  5.0853   5.1384   5.1533   5.3057   5.3287   5.4302   5.4467   5.5360
  5.5907   5.6758   5.7116   5.7762   5.9466   6.1815   6.4510   6.5465
  6.6708   6.8739   6.9977   7.2926   7.4408  22.6698  22.6785  22.9457
 23.0068  23.0558  23.1861  23.5187  44.4089
 --------------------------------------------------------------

          Ground-State Mulliken Net Atomic Charges

     Atom                 Charge (a.u.)
  ----------------------------------------
      1 C                    -0.993198
      2 C                     0.544601
      3 C                    -0.566254
      4 C                    -0.435574
      5 C                    -0.423833
      6 C                    -0.672009
      7 C                     0.771187
      8 O                    -0.492684
      9 H                     0.231886
     10 H                     0.260467
     11 H                     0.345706
     12 H                     0.277708
     13 H                     0.280693
     14 H                     0.331723
     15 H                     0.305713
     16 H                     0.233870
  ----------------------------------------
  Sum of atomic charges =     0.000000

 -----------------------------------------------------------------
                    Cartesian Multipole Moments
 -----------------------------------------------------------------
    Charge (ESU x 10^10)
                -0.0000
    Dipole Moment (Debye)
         X       1.4379      Y      -0.7061      Z      -0.8251
       Tot       1.8019
    Quadrupole Moments (Debye-Ang)
        XX     -48.2179     XY       0.3611     YY     -46.1570
        XZ      -1.5246     YZ       7.8495     ZZ     -39.9155
    Octopole Moments (Debye-Ang^2)
       XXX     -29.7159    XXY     -18.9582    XYY     -16.9892
       YYY     -59.7344    XXZ      90.3770    XYZ      -4.4214
       YYZ      84.9033    XZZ     -21.6595    YZZ     -52.2787
       ZZZ     216.5198
    Hexadecapole Moments (Debye-Ang^3)
      XXXX    -798.7435   XXXY     -93.0323   XXYY    -172.4904
      XYYY     -88.2344   YYYY    -302.7251   XXXZ     -89.5206
      XXYZ       9.3678   XYYZ      -8.7103   YYYZ      16.3495
      XXZZ    -345.1054   XYZZ      -3.7328   YYZZ    -241.5594
      XZZZ      18.0045   YZZZ     130.5599   ZZZZ   -1058.6034
 -----------------------------------------------------------------
Archival summary:
1\1\compute-0-1.local\SP\ProcedureUnspecified\BasisUnspecified\178\meili\ThuSep3004:37:272021ThuSep3004:37:272021\0\\#,ProcedureUnspecified,BasisUnspecified,\\0,1\C\O,1,1.36778\H,2,0.974824,1,108.539\C,1,1.38559,2,118.025,3,167.667,0\H,4,1.07693,1,119.276,2,3.60883,0\C,1,1.38817,2,121.964,3,-13.717,0\H,6,1.07882,1,120.521,2,-1.50953,0\C,6,1.3825,1,119.295,2,178.852,0\H,8,1.07863,6,118.818,1,178.838,0\C,4,1.39065,1,120.449,2,-178.982,0\H,10,1.07987,4,119.518,1,-178.68,0\C,10,1.38988,4,120.22,1,0.514013,0\C,12,1.51257,10,119.201,4,177.7,0\H,13,1.09017,12,108.637,10,117.896,0\H,13,1.09093,12,108.4,10,1.85322,0\H,13,1.1,12,114.975,10,-119.224,0\\\@

 Total job time:  17020.88s(wall), 97447.64s(cpu) 
 Thu Sep 30 04:37:27 2021

        *************************************************************
        *                                                           *
        *  Thank you very much for using Q-Chem.  Have a nice day.  *
        *                                                           *
        *************************************************************


Done Job For Fragment 1
calling putenv with: QCSCRATCH=/home/meili/scratch 
calling putenv with: QCTHREADS=8 
Doing General SCFMI
 Exchange:     0.1670 Hartree-Fock + 1.0000 wB97X-V + LR-HF
 Correlation:  1.0000 wB97X-V
 Using Euler-Maclaurin-Lebedev (99,590) quadrature formula
 Nonlocal Correlation:  VV10 with C = 0.0100 and b = 6.00 and scale = 1.00000
 Grid used for NLC:  SG-1 standard quadrature
performing fock build before subrot guess so that all methods have access
Printing subrot_rss_gen Method Specification:
Occupied Subspace Method is 0
Virtual Subspace Method is 0
Energy of the unrelaxed supersystem initial determinant -651.681791391804
performing fock build before subrot guess so that all methods have access
Printing subrot_rss_gen Method Specification:
Occupied Subspace Method is 0
Virtual Subspace Method is 0
Energy of the unrelaxed supersystem initial determinant w/ solvent -651.699166180501
write pseudocanon occs and virts to disk
write pseudocanon orbital energies to disk
Tolerance of ortho_decomp_scf: 1.00e-06
GDM subspace size: 20
Beginning the Orthogonal Decomposition of the Initial Supersystem Wavefunction
    1    -651.6527356580      2.55e-02     ortho_decomp Preconditoned Steepest Descent
    2    -651.6558741029      6.37e-04     ortho_decomp BFGS Step
    3    -651.6558846137      5.16e-05     ortho_decomp BFGS Step
    4    -651.6558846344      2.07e-06     ortho_decomp BFGS Step
    5    -651.6558846345      6.41e-08     ortho_decomp 00000 Convergence criterion met
 Hartree-Fock
 Hartree-Fock
 Hartree-Fock
Doing General SCFMI
 Exchange:     0.1670 Hartree-Fock + 1.0000 wB97X-V + LR-HF
 Correlation:  1.0000 wB97X-V
 Using Euler-Maclaurin-Lebedev (99,590) quadrature formula
 Nonlocal Correlation:  VV10 with C = 0.0100 and b = 6.00 and scale = 1.00000
 Grid used for NLC:  SG-1 standard quadrature
performing fock build at end of subrot_r(subrot) constructor so that all methods have access
<S^2> of initial wavefunction before polarization iterations 0.0000000000
Beginning iterations for the determination of the polarized wavefunction
Energy prior to optimization (guess energy) = -651.699166180502
Begin Timing: Total SCF Calculation
begin iterations for algorithm: DIIS         
the SCF tolerance is set to 1.00e-08
    1    -651.6991661805      7.32e-05     00000 
    2    -651.6995860004      5.53e-05     00000 
    3    -651.6997667168      1.48e-05     00000 
    4    -651.6997853752      7.42e-06     00000 
    5    -651.6997899924      2.97e-06     00000 
    6    -651.6997908887      1.59e-06     00000 
    7    -651.6997910991      7.35e-07     00000 
    8    -651.6997911328      3.74e-07     00000 
    9    -651.6997911393      1.91e-07     00000 
   10    -651.6997911410      1.08e-07     00000 
   11    -651.6997911417      5.18e-08     00000 
   12    -651.6997911419      2.31e-08     00000 
   13    -651.6997911419      1.03e-08     00000 
   14    -651.6997911419      4.29e-09     00000 Convergence criterion met
write pseudocanon occs and virts to disk
write pseudocanon orbital energies to disk
Timing for Total SCF: 6249.00s (wall), 39052.25s (cpu)
<S^2> of polarized wavefunction after polarization iterations 0.0000000000
relaxing scfmi constraint to allow all rotations in the entire AO span
Doing General SCFMI
 Exchange:     0.1670 Hartree-Fock + 1.0000 wB97X-V + LR-HF
 Correlation:  1.0000 wB97X-V
 Using Euler-Maclaurin-Lebedev (99,590) quadrature formula
 Nonlocal Correlation:  VV10 with C = 0.0100 and b = 6.00 and scale = 1.00000
 Grid used for NLC:  SG-1 standard quadrature
performing fock build at end of subrot_r(subrot) constructor so that all methods have access
<S^2> of polarized wavefunction before ct-allowed iterations 0.0000000000
Beginning iterations for the determination of the CT-Allowed wavefunction
Energy prior to optimization (guess energy) = -651.699791141941
Begin Timing: Total SCF Calculation
begin iterations for algorithm: DIIS         
the SCF tolerance is set to 1.00e-08
    1    -651.6997911419      6.67e-05     00000 
    2    -651.7008033905      6.43e-06     00000 
    3    -651.7008389904      1.30e-06     00000 
    4    -651.7008407358      7.28e-07     00000 
    5    -651.7008408698      1.81e-07     00000 
    6    -651.7008408841      8.39e-08     00000 
    7    -651.7008408860      1.76e-08     00000 
    8    -651.7008408861      7.77e-09     00000 Convergence criterion met
write pseudocanon occs and virts to disk
write pseudocanon orbital energies to disk
Timing for Total SCF: 3306.00s (wall), 20934.05s (cpu)
<S^2> of ct_allowed wavefunction after ct-allowed iterations 0.0000000000

================================
        Results of EDA2         
================================
Basic EDA Quantities
--------------------
Fragment Energies (Ha):
1 -304.8797953803
2 -346.8163179769
--------------------
  E_prp (kJ/mol) = 0.0000
  E_sol (kJ/mol) = -3.0164
  E_frz (kJ/mol) = -4.9989
  E_pol (kJ/mol) = -1.6409
  E_vct (kJ/mol) = -2.7561
  E_int (kJ/mol) = -12.4123
--------------------


Initial Wavefunction Decomposition
--------------------
  --------------------
  Orthogonal Fragment Subspace Decomposition:
  --------------------
     E_elec   (ELEC)   (kJ/mol) = -23.1886
     E_pauli  (PAULI)  (kJ/mol) = 48.3370
     E_disp   (DISP)   (kJ/mol) = -30.1473
     --------------------
     Terms summing to E_pauli:
     --------------------
        E_kep_pauli       (kJ/mol) = 63.0201
        E_disp_free_pauli (kJ/mol) = -14.6831
  --------------------
  Classical Frozen Decomposition:
  --------------------
     E_cls_elec  (CLS ELEC)  (kJ/mol) = -1.2042
     E_cls_pauli (CLS PAULI) (kJ/mol) = -3.7947
    [E_mod_pauli (MOD PAULI) (kJ/mol) = 26.3526 (CLS PAULI - DISP from orthogonal decomposition) ]
  --------------------
--------------------

Simplified EDA Summary (kJ/mol)
--------------------
 PREPARATION     0.0000
 SOLVATION       -3.0164
 FROZEN          25.1484      (does not include dispersion)
[PAULI           48.3370]     (if this is negligible, then frozen describes electrostatics)
 DISPERSION      -30.1473
 POLARIZATION    -1.6409
 CHARGE TRANSFER -2.7561
 TOTAL           -12.4123     (PRP + SOL + FRZ + DISP + POL + CT)
--------------------

 --------------------------------------------------------------

                    Orbital Energies (a.u.)
 --------------------------------------------------------------

 Alpha MOs
 -- Occupied --
-19.2443 -14.4661 -14.3845 -10.3294 -10.3200 -10.2869 -10.2817 -10.2731
-10.2709 -10.2692 -10.2682 -10.2666 -10.2636 -10.2600 -10.2564  -1.1910
 -1.1581  -0.9999  -0.9929  -0.9134  -0.8980  -0.8822  -0.8609  -0.8070
 -0.7607  -0.7458  -0.7323  -0.7095  -0.6859  -0.6626  -0.6611  -0.6007
 -0.5769  -0.5726  -0.5657  -0.5494  -0.5449  -0.5379  -0.5372  -0.5303
 -0.5197  -0.5192  -0.5073  -0.4789  -0.4752  -0.4562  -0.4534  -0.4465
 -0.4383  -0.4364  -0.3802  -0.3711  -0.3453  -0.3226  -0.3096
 -- Virtual --
  0.0553   0.0622   0.0641   0.0706   0.0723   0.0838   0.0874   0.0916
  0.0979   0.1020   0.1037   0.1096   0.1143   0.1191   0.1207   0.1274
  0.1343   0.1401   0.1479   0.1542   0.1563   0.1602   0.1666   0.1714
  0.1776   0.1791   0.1884   0.1943   0.1995   0.2019   0.2104   0.2173
  0.2184   0.2215   0.2250   0.2318   0.2352   0.2423   0.2473   0.2494
  0.2513   0.2572   0.2590   0.2642   0.2728   0.2754   0.2781   0.2803
  0.2833   0.2912   0.2940   0.2961   0.2988   0.3010   0.3062   0.3105
  0.3135   0.3160   0.3196   0.3227   0.3241   0.3273   0.3294   0.3334
  0.3348   0.3376   0.3413   0.3460   0.3517   0.3535   0.3569   0.3623
  0.3647   0.3661   0.3695   0.3716   0.3737   0.3744   0.3758   0.3817
  0.3832   0.3885   0.3931   0.3983   0.4020   0.4065   0.4086   0.4100
  0.4124   0.4151   0.4186   0.4231   0.4253   0.4281   0.4334   0.4350
  0.4390   0.4437   0.4468   0.4482   0.4533   0.4563   0.4604   0.4648
  0.4681   0.4720   0.4780   0.4801   0.4854   0.4894   0.4930   0.4958
  0.5010   0.5026   0.5050   0.5094   0.5131   0.5169   0.5195   0.5230
  0.5281   0.5325   0.5348   0.5362   0.5385   0.5449   0.5481   0.5529
  0.5582   0.5611   0.5653   0.5705   0.5739   0.5784   0.5816   0.5853
  0.5891   0.6005   0.6011   0.6025   0.6075   0.6112   0.6114   0.6200
  0.6223   0.6257   0.6296   0.6335   0.6439   0.6467   0.6490   0.6567
  0.6578   0.6626   0.6702   0.6724   0.6795   0.6806   0.6861   0.6883
  0.6943   0.7022   0.7056   0.7061   0.7094   0.7166   0.7194   0.7239
  0.7259   0.7302   0.7341   0.7405   0.7408   0.7503   0.7553   0.7569
  0.7600   0.7625   0.7660   0.7703   0.7724   0.7795   0.7817   0.7840
  0.7873   0.7919   0.7939   0.7986   0.8028   0.8061   0.8076   0.8115
  0.8182   0.8195   0.8210   0.8259   0.8328   0.8363   0.8410   0.8462
  0.8511   0.8549   0.8584   0.8656   0.8669   0.8727   0.8763   0.8783
  0.8800   0.8852   0.8933   0.8965   0.9025   0.9089   0.9106   0.9151
  0.9255   0.9304   0.9373   0.9424   0.9443   0.9509   0.9583   0.9585
  0.9695   0.9762   0.9868   0.9906   1.0034   1.0074   1.0101   1.0224
  1.0259   1.0322   1.0390   1.0536   1.0557   1.0613   1.0691   1.0756
  1.0795   1.0879   1.0965   1.1023   1.1090   1.1122   1.1297   1.1319
  1.1371   1.1426   1.1544   1.1611   1.1671   1.1765   1.1810   1.1949
  1.1974   1.2105   1.2245   1.2290   1.2381   1.2465   1.2570   1.2614
  1.2799   1.2890   1.3006   1.3027   1.3126   1.3196   1.3325   1.3369
  1.3499   1.3630   1.3768   1.3893   1.3956   1.4085   1.4176   1.4227
  1.4323   1.4367   1.4429   1.4626   1.4733   1.4778   1.4909   1.4983
  1.5072   1.5138   1.5245   1.5461   1.5494   1.5554   1.5660   1.5909
  1.5919   1.5984   1.6362   1.6419   1.6450   1.6552   1.6726   1.6864
  1.6888   1.7230   1.7281   1.7434   1.7459   1.7676   1.7731   1.7802
  1.8055   1.8138   1.8332   1.8440   1.8605   1.8746   1.8791   1.8876
  1.8949   1.9017   1.9175   1.9254   1.9352   1.9363   1.9531   1.9584
  1.9678   1.9731   1.9785   1.9874   1.9910   1.9946   1.9992   2.0073
  2.0192   2.0242   2.0373   2.0423   2.0504   2.0586   2.0678   2.0731
  2.0775   2.0912   2.0977   2.1060   2.1088   2.1266   2.1385   2.1411
  2.1510   2.1579   2.1800   2.1868   2.2097   2.2160   2.2232   2.2350
  2.2501   2.2531   2.2734   2.2808   2.2918   2.3057   2.3170   2.3222
  2.3320   2.3382   2.3554   2.3664   2.3715   2.3882   2.3954   2.4052
  2.4153   2.4283   2.4386   2.4475   2.4650   2.4676   2.4966   2.5058
  2.5278   2.5322   2.5485   2.5601   2.5675   2.5810   2.5894   2.5899
  2.6000   2.6140   2.6293   2.6523   2.6596   2.6660   2.6701   2.6790
  2.6877   2.7028   2.7141   2.7255   2.7373   2.7464   2.7595   2.7680
  2.7805   2.7865   2.7918   2.7973   2.8090   2.8201   2.8318   2.8416
  2.8479   2.8600   2.8704   2.8823   2.8902   2.8959   2.9056   2.9092
  2.9284   2.9512   2.9658   2.9728   2.9821   2.9885   2.9908   2.9961
  3.0020   3.0025   3.0261   3.0420   3.0440   3.0569   3.0683   3.0734
  3.0839   3.1075   3.1100   3.1160   3.1258   3.1287   3.1372   3.1476
  3.1598   3.1740   3.1842   3.1882   3.1988   3.2061   3.2207   3.2358
  3.2521   3.2678   3.2729   3.2880   3.2946   3.3039   3.3165   3.3211
  3.3263   3.3331   3.3419   3.3504   3.3538   3.3730   3.3777   3.3897
  3.3993   3.4098   3.4183   3.4216   3.4290   3.4403   3.4477   3.4506
  3.4608   3.4665   3.4801   3.4864   3.4979   3.5043   3.5130   3.5144
  3.5288   3.5382   3.5435   3.5503   3.5545   3.5652   3.5747   3.5773
  3.5918   3.5950   3.6061   3.6089   3.6172   3.6331   3.6434   3.6483
  3.6584   3.6672   3.6704   3.6828   3.6932   3.6966   3.7067   3.7201
  3.7218   3.7311   3.7417   3.7638   3.7745   3.7904   3.8053   3.8131
  3.8270   3.8359   3.8383   3.8474   3.8595   3.8962   3.8964   3.9356
  3.9406   3.9709   3.9718   3.9885   4.0086   4.0181   4.0242   4.0525
  4.0681   4.0861   4.1092   4.1376   4.1485   4.1546   4.1706   4.1805
  4.2122   4.2702   4.2765   4.2946   4.3193   4.3345   4.3426   4.3538
  4.3632   4.3737   4.3817   4.3991   4.4076   4.4292   4.4640   4.4787
  4.4937   4.5126   4.5313   4.5444   4.5636   4.5663   4.6076   4.6364
  4.6518   4.6582   4.6707   4.6999   4.7687   4.7865   4.8005   4.8099
  4.8349   4.8404   4.8566   4.8929   4.9043   4.9098   4.9609   4.9693
  5.0128   5.0411   5.0416   5.0771   5.0895   5.0986   5.1019   5.1053
  5.1594   5.1731   5.1775   5.1888   5.2627   5.2947   5.3213   5.3404
  5.3614   5.4125   5.4408   5.4570   5.4869   5.5359   5.5541   5.5725
  5.6000   5.6110   5.6403   5.6837   5.6962   5.7320   5.7555   5.7896
  5.8030   5.8704   5.9286   5.9534   6.0971   6.1881   6.2709   6.3232
  6.4576   6.5599   6.6877   6.8838   7.0086   7.3041   7.4517  22.6728
 22.7203  22.7933  22.8731  22.9899  23.0201  23.0636  23.1055  23.1901
 23.2255  23.4631  23.5398  32.7368  32.9406  44.4564
 --------------------------------------------------------------

          Ground-State Mulliken Net Atomic Charges

     Atom                 Charge (a.u.)
  ----------------------------------------
      1 C                     0.150517
      2 C                    -1.076864
      3 C                     0.697843
      4 C                    -0.805781
      5 C                    -0.368144
      6 N                    -0.375492
      7 N                     0.170275
      8 H                     0.270847
      9 H                    -0.096298
     10 H                     0.272173
     11 H                     0.264695
     12 H                     0.249290
     13 H                     0.174193
     14 H                     0.233085
     15 H                     0.244590
     16 C                    -1.074271
     17 C                     0.652457
     18 C                    -0.480163
     19 C                    -0.203977
     20 C                    -0.586220
     21 C                    -0.610626
     22 C                     0.697710
     23 O                    -0.503788
     24 H                     0.186011
     25 H                     0.278827
     26 H                     0.345208
     27 H                     0.125057
     28 H                     0.277941
     29 H                     0.308723
     30 H                     0.316309
     31 H                     0.265872
  ----------------------------------------
  Sum of atomic charges =     0.000000

 -----------------------------------------------------------------
                    Cartesian Multipole Moments
 -----------------------------------------------------------------
    Charge (ESU x 10^10)
                 0.0000
    Dipole Moment (Debye)
         X       2.1232      Y       3.0568      Z       1.6635
       Tot       4.0767
    Quadrupole Moments (Debye-Ang)
        XX     -88.5403     XY      -7.2023     YY     -84.7831
        XZ      -1.7900     YZ      18.8259     ZZ     -75.8341
    Octopole Moments (Debye-Ang^2)
       XXX     -13.2819    XXY      14.6081    XYY     -13.3269
       YYY      22.6069    XXZ      10.7209    XYZ     -19.8219
       YYZ      11.9662    XZZ     -16.0898    YZZ       3.3286
       ZZZ     -28.6403
    Hexadecapole Moments (Debye-Ang^3)
      XXXX   -1142.9822   XXXY      -1.3977   XXYY    -336.4015
      XYYY      12.5672   YYYY    -969.0796   XXXZ     -49.9974
      XXYZ      68.6080   XYYZ     -10.8855   YYYZ     177.1870
      XXZZ    -599.2192   XYZZ       1.3713   YYZZ    -510.8754
      XZZZ      59.6078   YZZZ     335.5225   ZZZZ   -2287.0166
 -----------------------------------------------------------------
Archival summary:
1\1\compute-0-1.local\SP\ProcedureUnspecified\BasisUnspecified\121216\meili\ThuSep3009:13:162021ThuSep3009:13:162021\0\\#,ProcedureUnspecified,BasisUnspecified,\\0,1\N\C,1,1.33205\H,2,1.08258,1,125.107\N,2,1.32337,1,109.663,3,-179.956,0\H,4,1.0031,2,125.883,1,178.869,0\C,4,1.37047,2,107.65,1,1.73489,0\H,6,1.08171,4,126.7,2,177.215,0\C,6,1.36133,4,108.006,2,-1.28701,0\C,8,1.50688,6,128.762,4,175.973,0\H,9,1.09016,8,106.453,6,-4.22582,0\H,9,1.09029,8,108.633,6,-120.029,0\C,9,1.53034,8,116.151,6,116.434,0\H,12,1.09137,9,108.594,8,-45.5358,0\H,12,1.1,9,109.201,8,-164.634,0\H,12,1.1,9,110.478,8,74.2341,0\H,10,2.86984,9,105.996,8,-87.8906,0\C,16,1.09017,10,128.494,9,51.0886,0\H,17,1.09093,16,107.091,10,59.0945,0\H,17,1.1,16,109.353,10,176.002,0\C,17,1.51257,16,108.637,10,-57.7901,0\C,20,1.38988,17,119.201,16,117.896,0\H,21,1.07987,20,120.257,17,-3.112,0\C,21,1.39065,20,120.22,17,177.7,0\H,23,1.07693,21,120.223,20,177.899,0\C,23,1.38559,21,120.449,20,0.514013,0\O,25,1.36778,23,118.025,21,-178.982,0\H,26,0.974824,25,108.539,23,167.667,0\C,25,1.38817,23,119.996,21,2.37407,0\H,28,1.07882,25,120.521,23,177.08,0\C,28,1.3825,25,119.295,23,-2.55875,0\H,30,1.07863,28,118.818,25,178.838,0\\\@

 Total job time:  44835.63s(wall), 107458.11s(cpu) 
 Thu Sep 30 09:13:16 2021

        *************************************************************
        *                                                           *
        *  Thank you very much for using Q-Chem.  Have a nice day.  *
        *                                                           *
        *************************************************************


