
Running Job 1 of 1 SSI-091HIE-122ASP-1_SMD_TZVPD.in
qchem SSI-091HIE-122ASP-1_SMD_TZVPD.in_23114.0 /tmp/qchem23114/ 0
/global/common/cori/software/qchem/5.2/exe/qcprog.exe_s SSI-091HIE-122ASP-1_SMD_TZVPD.in_23114.0 /tmp/qchem23114/
                  Welcome to Q-Chem
     A Quantum Leap Into The Future Of Chemistry


 Q-Chem 5.2, Q-Chem, Inc., Pleasanton, CA (2019)

 License issued to: National Energy Research Scientific Computing Center

 Yihan Shao,  Zhengting Gan,  E. Epifanovsky,  A. T. B. Gilbert,  M. Wormit,  
 J. Kussmann,  A. W. Lange,  A. Behn,  Jia Deng,  Xintian Feng,  D. Ghosh,  
 M. Goldey,  P. R. Horn,  L. D. Jacobson,  I. Kaliman,  T. Kus,  A. Landau,  
 Jie Liu,  E. I. Proynov,  R. M. Richard,  R. P. Steele,  E. J. Sundstrom,  
 H. L. Woodcock III,  P. M. Zimmerman,  D. Zuev,  B. Albrecht,  E. Alguire,  
 S. A. Baeppler,  D. Barton,  Z. Benda,  Y. A. Bernard,  E. J. Berquist,  
 K. B. Bravaya,  H. Burton,  D. Casanova,  Chun-Min Chang,  Yunqing Chen,  
 A. Chien,  K. D. Closser,  M. P. Coons,  S. Coriani,  S. Dasgupta,  
 A. L. Dempwolff,  M. Diedenhofen,  Hainam Do,  R. G. Edgar,  Po-Tung Fang,  
 S. Faraji,  S. Fatehi,  Qingguo Feng,  K. D. Fenk,  J. Fosso-Tande,  
 J. Gayvert,  Qinghui Ge,  A. Ghysels,  G. Gidofalvi,  J. Gomes,  
 J. Gonthier,  A. Gunina,  D. Hait,  M. W. D. Hanson-Heine,  
 P. H. P. Harbach,  A. W. Hauser,  M. F. Herbst,  J. E. Herr,  
 E. G. Hohenstein,  Z. C. Holden,  Kerwin Hui,  B. C. Huynh,  T.-C. Jagau,  
 Hyunjun Ji,  B. Kaduk,  K. Khistyaev,  Jaehoon Kim,  P. Klunzinger,  K. Koh,  
 D. Kosenkov,  L. Koulias,  T. Kowalczyk,  C. M. Krauter,  A. Kunitsa,  
 Ka Un Lao,  A. Laurent,  K. V. Lawler,  Joonho Lee,  D. Lefrancois,  
 S. Lehtola,  D. S. Levine,  Yi-Pei Li,  You-Sheng Lin,  Fenglai Liu,  
 E. Livshits,  A. Luenser,  P. Manohar,  E. Mansoor,  S. F. Manzer,  
 Shan-Ping Mao,  Yuezhi Mao,  N. Mardirossian,  A. V. Marenich,  
 T. Markovich,  L. A. Martinez-Martinez,  S. A. Maurer,  N. J. Mayhall,  
 S. C. McKenzie,  J.-M. Mewes,  P. Morgante,  A. F. Morrison,  
 J. W. Mullinax,  K. Nanda,  T. S. Nguyen-Beck,  R. Olivares-Amaya,  
 J. A. Parkhill,  Zheng Pei,  T. M. Perrine,  F. Plasser,  P. Pokhilko,  
 S. Prager,  A. Prociuk,  E. Ramos,  D. R. Rehn,  F. Rob,  M. Scheurer,  
 M. Schneider,  N. Sergueev,  S. M. Sharada,  S. Sharma,  D. W. Small,  
 T. Stauch,  T. Stein,  Yu-Chuan Su,  A. J. W. Thom,  A. Tkatchenko,  
 T. Tsuchimochi,  N. M. Tubman,  L. Vogt,  M. L. Vidal,  O. Vydrov,  
 M. A. Watson,  J. Wenzel,  M. de Wergifosse,  T. A. Wesolowski,  A. White,  
 J. Witte,  A. Yamada,  Jun Yang,  K. Yao,  S. Yeganeh,  S. R. Yost,  
 Zhi-Qiang You,  A. Zech,  Igor Ying Zhang,  Xing Zhang,  Yan Zhao,  
 Ying Zhu,  B. R. Brooks,  G. K. L. Chan,  C. J. Cramer,  M. S. Gordon,  
 W. J. Hehre,  A. Klamt,  M. W. Schmidt,  C. D. Sherrill,  D. G. Truhlar,  
 A. Aspuru-Guzik,  R. Baer,  A. T. Bell,  N. A. Besley,  Jeng-Da Chai,  
 A. E. DePrince, III,  R. A. DiStasio Jr.,  A. Dreuw,  B. D. Dunietz,  
 T. R. Furlani,  Chao-Ping Hsu,  Yousung Jung,  Jing Kong,  D. S. Lambrecht,  
 WanZhen Liang,  C. Ochsenfeld,  V. A. Rassolov,  L. V. Slipchenko,  
 J. E. Subotnik,  T. Van Voorhis,  J. M. Herbert,  A. I. Krylov,  
 P. M. W. Gill,  M. Head-Gordon

 Contributors to earlier versions of Q-Chem not listed above: 
 R. D. Adamson,  B. Austin,  J. Baker,  G. J. O. Beran,  K. Brandhorst,  
 S. T. Brown,  E. F. C. Byrd,  A. K. Chakraborty,  C.-L. Cheng,  
 Siu Hung Chien,  D. M. Chipman,  D. L. Crittenden,  H. Dachsel,  
 R. J. Doerksen,  A. D. Dutoi,  L. Fusti-Molnar,  W. A. Goddard III,  
 A. Golubeva-Zadorozhnaya,  S. R. Gwaltney,  G. Hawkins,  A. Heyden,  
 S. Hirata,  G. Kedziora,  F. J. Keil,  C. Kelley,  Jihan Kim,  R. A. King,  
 R. Z. Khaliullin,  P. P. Korambath,  W. Kurlancheek,  A. M. Lee,  M. S. Lee,  
 S. V. Levchenko,  Ching Yeh Lin,  D. Liotard,  R. C. Lochan,  I. Lotan,  
 P. E. Maslen,  N. Nair,  D. P. O'Neill,  D. Neuhauser,  E. Neuscamman,  
 C. M. Oana,  R. Olson,  B. Peters,  R. Peverati,  P. A. Pieniazek,  
 Y. M. Rhee,  J. Ritchie,  M. A. Rohrdanz,  E. Rosta,  N. J. Russ,  
 H. F. Schaefer III,  N. E. Schultz,  N. Shenvi,  A. C. Simmonett,  A. Sodt,  
 D. Stuck,  K. S. Thanthiriwatte,  V. Vanovschi,  Tao Wang,  A. Warshel,  
 C. F. Williams,  Q. Wu,  X. Xu,  W. Zhang

 Please cite Q-Chem as follows:
 Y. Shao et al., Mol. Phys. 113, 184-215 (2015)
 DOI: 10.1080/00268976.2014.952696

 Q-Chem 5.2.0 for Intel X86 EM64T Linux

 Parts of Q-Chem use Armadillo 8.300.2 (Tropical Shenanigans).
 http://arma.sourceforge.net/

 Q-Chem begins on Sun Sep 26 12:24:55 2021  

Host: cori01
0

     Scratch files written to /tmp/qchem23114//
 May1019 |scratch|qcdevops|jenkins|workspace|build_RNUM -1
Processing $rem in /global/common/cori/software/qchem/5.2/config/preferences:
	 MEM_TOTAL  96000 
NAlpha2: 76
NElect   76
Mult     1
Symmetry turned off for PCM/SM12/SMD calculation

 Q-Chem warning in module libgen/rem_setup.C, line 2803:

 Neither GIA nor STOLL is specified by user. Use STOLL as the default


Checking the input file for inconsistencies... 	...done.

--------------------------------------------------------------
User input:
--------------------------------------------------------------
$comment
SSI-091HIE-122ASP-1.pdb
$end

$molecule
-1 1
--
0 1
C   -1.514469994477   -1.146130568484    1.443164835429
C   -0.866469994477    0.172869431516    1.733164835429
C    0.435530005523    1.918869431516    1.430164835429
C   -1.082469994477    1.039869431516    2.759164835429
N    0.076530005523    0.753869431516    0.907164835429
N   -0.254469994477    2.119869431516    2.552164835429
H    1.143530005523    2.607869431516    0.989164835429
H   -1.724469994477   -1.198130568484    0.375164835429
H   -2.460469994477   -1.190130568484    1.978164835429
H   -0.220469994477    2.952869431516    3.130164835429
H   -1.785469994477    0.900869431516    3.569164835429
H   -0.912681994477   -2.016741568484    1.742977835429
--
-1 1
C    1.249530005523   -0.037130568484   -3.329835164571
C    0.717530005523   -1.175130568484   -2.470835164571
O    0.552530005523   -0.979130568484   -1.259835164571
O    0.509530005523   -2.290130568484   -3.012835164571
H    0.705530005523    0.006869431516   -4.275835164571
H    2.293530005523   -0.258130568484   -3.561835164571
H    1.208671005523    0.944910431516   -2.835947164571
$end

$rem
JOBTYPE			EDA
EDA2			1
method			wB97X-V
BASIS			def2-TZVPD
XC_GRID			000099000590
NL_GRID			1
UNRESTRICTED		FALSE
MAX_SCF_CYCLES		200
SYMMETRY		FALSE
SYM_IGNORE		TRUE
MEM_STATIC		2000
BASIS_LIN_DEP_THRESH 	6
THRESH 			14
SCF_CONVERGENCE 	8
SCF_PRINT_FRGM 		TRUE
SOLVENT_METHOD          SMD
$end

$SMX
SOLVENT			WATER
$END
--------------------------------------------------------------
 ----------------------------------------------------------------
             Standard Nuclear Orientation (Angstroms)
    I     Atom           X                Y                Z
 ----------------------------------------------------------------
    1      C      -1.5144699945    -1.1461305685     1.4431648354
    2      C      -0.8664699945     0.1728694315     1.7331648354
    3      C       0.4355300055     1.9188694315     1.4301648354
    4      C      -1.0824699945     1.0398694315     2.7591648354
    5      N       0.0765300055     0.7538694315     0.9071648354
    6      N      -0.2544699945     2.1198694315     2.5521648354
    7      H       1.1435300055     2.6078694315     0.9891648354
    8      H      -1.7244699945    -1.1981305685     0.3751648354
    9      H      -2.4604699945    -1.1901305685     1.9781648354
   10      H      -0.2204699945     2.9528694315     3.1301648354
   11      H      -1.7854699945     0.9008694315     3.5691648354
   12      H      -0.9126819945    -2.0167415685     1.7429778354
   13      C       1.2495300055    -0.0371305685    -3.3298351646
   14      C       0.7175300055    -1.1751305685    -2.4708351646
   15      O       0.5525300055    -0.9791305685    -1.2598351646
   16      O       0.5095300055    -2.2901305685    -3.0128351646
   17      H       0.7055300055     0.0068694315    -4.2758351646
   18      H       2.2935300055    -0.2581305685    -3.5618351646
   19      H       1.2086710055     0.9449104315    -2.8359471646
 ----------------------------------------------------------------
 Nuclear Repulsion Energy =         483.58891014 hartrees
 There are       38 alpha and       38 beta electrons
 Requested basis set is def2-TZVPD
 There are 177 shells and 457 basis functions

 Total QAlloc Memory Limit  96000 MB
 Mega-Array Size      1956 MB
 MEM_STATIC part      2000 MB
 
 Citation of the SMD model:
 Marenich, A.V.; Cramer, C.J.; Truhlar, D.G.
 J. Phys. Chem. B 2009, 113, 6378-6396.
 iSolventCode=           1
 Solvent: water                                                           
 
 vradii
            1           2           3           4           5           6
    1   1.8500000   1.8500000   1.8500000   1.8500000   1.8900000   1.8900000
            7           8           9          10          11          12
    1   1.2000000   1.2000000   1.2000000   1.2000000   1.2000000   1.2000000
           13          14          15          16          17          18
    1   1.8500000   1.8500000   1.5200000   1.5200000   1.2000000   1.2000000
           19
    1   1.2000000
 Changing PCM_VDW_RADII to SMD_RADIUS
 Discretize the solute cavity surface with Lebedev spheres
	Using 110 Lebedev grid points for each H atom
	Using 194 Lebedev grid points for other atoms
	Atomic van der Waals radii will be scaled by 1.20
 Remove points where switching function is < 1.0e-08
 Keep 1519 surface tesserae and discard 1411 interior tesserae
 Molecular Surface Area = 189.815 Angst**2
 A cutoff of  1.0D-14 yielded  13738 shell pairs
 There are     91984 function pairs (    117028 Cartesian)
 Smallest overlap matrix eigenvalue = 1.48E-06

 Scale SEOQF with 1.000000e-01/1.000000e-01/1.000000e-01

 Standard Electronic Orientation quadrupole field applied
 Nucleus-field energy     =    -0.0000000293 hartrees

 -----------------------------------------------------------------------
  General SCF calculation program by
  Eric Jon Sundstrom, Paul Horn, Yuezhi Mao, Dmitri Zuev, Alec White,
  David Stuck, Shaama M.S., Shane Yost, Joonho Lee, David Small,
  Daniel Levine, Susi Lehtola, Hugh Burton, Evgeny Epifanovsky
 -----------------------------------------------------------------------
================================================================
                 ALMO-EDA with the EDA2 driver                  
================================================================
 The second-generation ALMO-EDA (for DFT):                      
 P. R. Horn, Y. Mao and M. Head-Gordon, PCCP, 18, 23067 (2016)  
 Decomposition of the frozen energy:                            
 P. R. Horn, Y. Mao and M. Head-Gordon, JCP, 144, 114107 (2016) 
 FERF model for polarization:                                   
 P. R. Horn and M. Head-Gordon, JCP, 143, 114111 (2015)         
Using eda2 option set 1
Option set summary: Frozen orbital wavefunction, initial wavefunction decomposition, and nDQ polarization.
--------------------------------
Printing EDA Options
--------------------------------
eda_child_super_basis      0
fragmo_guess_mode          0
child_mp                   1
child_mp_orders            232
cls_elec                   1
cls_disp                   0
scfmi_mode                 1
scfmi_occs                 0
scfmi_virts                0
frz_relax                  0
frz_relax_method           0
dc_pen_start               0
dc_pen_conv                0
dc_pen_increment           0
dc_pen_steps               0
dc_pen_thresh_factor       0
dc_pen_pre_newton_thresh   0
frz_ortho_decomp           1
frz_ortho_decomp_conv      6
frgm_method                2
scfmi_freeze_ss            0
separate_rehyb             0
plot_diff_den              0
eda_nocv                   0
eda_vct_relax              1
disp_free_x                0
disp_free_c                0
eda_bsse                   0
eda_pct_a                  0
eda_covp                   0
--------------------------------
Attempting to make child job directory: /tmp/qchem23114//Frg1/
Attempting to make child job directory: /tmp/qchem23114//Frg2/
Creating input file /tmp/qchem23114/Frg1.input
using default PutDataFrgm: nothing
calling putenv with: QCSCRATCH=/tmp/qchem23114/ 
calling putenv with: QCLOCALSCR=/tmp/qchem23114/ 
Spawning Job For Fragment 0
                  Welcome to Q-Chem
     A Quantum Leap Into The Future Of Chemistry


 Q-Chem 5.2, Q-Chem, Inc., Pleasanton, CA (2019)

 License issued to: National Energy Research Scientific Computing Center

 Yihan Shao,  Zhengting Gan,  E. Epifanovsky,  A. T. B. Gilbert,  M. Wormit,  
 J. Kussmann,  A. W. Lange,  A. Behn,  Jia Deng,  Xintian Feng,  D. Ghosh,  
 M. Goldey,  P. R. Horn,  L. D. Jacobson,  I. Kaliman,  T. Kus,  A. Landau,  
 Jie Liu,  E. I. Proynov,  R. M. Richard,  R. P. Steele,  E. J. Sundstrom,  
 H. L. Woodcock III,  P. M. Zimmerman,  D. Zuev,  B. Albrecht,  E. Alguire,  
 S. A. Baeppler,  D. Barton,  Z. Benda,  Y. A. Bernard,  E. J. Berquist,  
 K. B. Bravaya,  H. Burton,  D. Casanova,  Chun-Min Chang,  Yunqing Chen,  
 A. Chien,  K. D. Closser,  M. P. Coons,  S. Coriani,  S. Dasgupta,  
 A. L. Dempwolff,  M. Diedenhofen,  Hainam Do,  R. G. Edgar,  Po-Tung Fang,  
 S. Faraji,  S. Fatehi,  Qingguo Feng,  K. D. Fenk,  J. Fosso-Tande,  
 J. Gayvert,  Qinghui Ge,  A. Ghysels,  G. Gidofalvi,  J. Gomes,  
 J. Gonthier,  A. Gunina,  D. Hait,  M. W. D. Hanson-Heine,  
 P. H. P. Harbach,  A. W. Hauser,  M. F. Herbst,  J. E. Herr,  
 E. G. Hohenstein,  Z. C. Holden,  Kerwin Hui,  B. C. Huynh,  T.-C. Jagau,  
 Hyunjun Ji,  B. Kaduk,  K. Khistyaev,  Jaehoon Kim,  P. Klunzinger,  K. Koh,  
 D. Kosenkov,  L. Koulias,  T. Kowalczyk,  C. M. Krauter,  A. Kunitsa,  
 Ka Un Lao,  A. Laurent,  K. V. Lawler,  Joonho Lee,  D. Lefrancois,  
 S. Lehtola,  D. S. Levine,  Yi-Pei Li,  You-Sheng Lin,  Fenglai Liu,  
 E. Livshits,  A. Luenser,  P. Manohar,  E. Mansoor,  S. F. Manzer,  
 Shan-Ping Mao,  Yuezhi Mao,  N. Mardirossian,  A. V. Marenich,  
 T. Markovich,  L. A. Martinez-Martinez,  S. A. Maurer,  N. J. Mayhall,  
 S. C. McKenzie,  J.-M. Mewes,  P. Morgante,  A. F. Morrison,  
 J. W. Mullinax,  K. Nanda,  T. S. Nguyen-Beck,  R. Olivares-Amaya,  
 J. A. Parkhill,  Zheng Pei,  T. M. Perrine,  F. Plasser,  P. Pokhilko,  
 S. Prager,  A. Prociuk,  E. Ramos,  D. R. Rehn,  F. Rob,  M. Scheurer,  
 M. Schneider,  N. Sergueev,  S. M. Sharada,  S. Sharma,  D. W. Small,  
 T. Stauch,  T. Stein,  Yu-Chuan Su,  A. J. W. Thom,  A. Tkatchenko,  
 T. Tsuchimochi,  N. M. Tubman,  L. Vogt,  M. L. Vidal,  O. Vydrov,  
 M. A. Watson,  J. Wenzel,  M. de Wergifosse,  T. A. Wesolowski,  A. White,  
 J. Witte,  A. Yamada,  Jun Yang,  K. Yao,  S. Yeganeh,  S. R. Yost,  
 Zhi-Qiang You,  A. Zech,  Igor Ying Zhang,  Xing Zhang,  Yan Zhao,  
 Ying Zhu,  B. R. Brooks,  G. K. L. Chan,  C. J. Cramer,  M. S. Gordon,  
 W. J. Hehre,  A. Klamt,  M. W. Schmidt,  C. D. Sherrill,  D. G. Truhlar,  
 A. Aspuru-Guzik,  R. Baer,  A. T. Bell,  N. A. Besley,  Jeng-Da Chai,  
 A. E. DePrince, III,  R. A. DiStasio Jr.,  A. Dreuw,  B. D. Dunietz,  
 T. R. Furlani,  Chao-Ping Hsu,  Yousung Jung,  Jing Kong,  D. S. Lambrecht,  
 WanZhen Liang,  C. Ochsenfeld,  V. A. Rassolov,  L. V. Slipchenko,  
 J. E. Subotnik,  T. Van Voorhis,  J. M. Herbert,  A. I. Krylov,  
 P. M. W. Gill,  M. Head-Gordon

 Contributors to earlier versions of Q-Chem not listed above: 
 R. D. Adamson,  B. Austin,  J. Baker,  G. J. O. Beran,  K. Brandhorst,  
 S. T. Brown,  E. F. C. Byrd,  A. K. Chakraborty,  C.-L. Cheng,  
 Siu Hung Chien,  D. M. Chipman,  D. L. Crittenden,  H. Dachsel,  
 R. J. Doerksen,  A. D. Dutoi,  L. Fusti-Molnar,  W. A. Goddard III,  
 A. Golubeva-Zadorozhnaya,  S. R. Gwaltney,  G. Hawkins,  A. Heyden,  
 S. Hirata,  G. Kedziora,  F. J. Keil,  C. Kelley,  Jihan Kim,  R. A. King,  
 R. Z. Khaliullin,  P. P. Korambath,  W. Kurlancheek,  A. M. Lee,  M. S. Lee,  
 S. V. Levchenko,  Ching Yeh Lin,  D. Liotard,  R. C. Lochan,  I. Lotan,  
 P. E. Maslen,  N. Nair,  D. P. O'Neill,  D. Neuhauser,  E. Neuscamman,  
 C. M. Oana,  R. Olson,  B. Peters,  R. Peverati,  P. A. Pieniazek,  
 Y. M. Rhee,  J. Ritchie,  M. A. Rohrdanz,  E. Rosta,  N. J. Russ,  
 H. F. Schaefer III,  N. E. Schultz,  N. Shenvi,  A. C. Simmonett,  A. Sodt,  
 D. Stuck,  K. S. Thanthiriwatte,  V. Vanovschi,  Tao Wang,  A. Warshel,  
 C. F. Williams,  Q. Wu,  X. Xu,  W. Zhang

 Please cite Q-Chem as follows:
 Y. Shao et al., Mol. Phys. 113, 184-215 (2015)
 DOI: 10.1080/00268976.2014.952696

 Q-Chem 5.2.0 for Intel X86 EM64T Linux

 Parts of Q-Chem use Armadillo 8.300.2 (Tropical Shenanigans).
 http://arma.sourceforge.net/

 Q-Chem begins on Sun Sep 26 12:25:00 2021  

Host: cori01
0

     Scratch files written to /tmp/qchem23114//Frg1//
 May1019 |scratch|qcdevops|jenkins|workspace|build_RNUM -1
Processing $rem in /global/common/cori/software/qchem/5.2/config/preferences:
	 MEM_TOTAL  96000 
NAlpha2: 44
NElect   44
Mult     1
Symmetry turned off for PCM/SM12/SMD calculation

Checking the input file for inconsistencies... 	...done.

--------------------------------------------------------------
User input:
--------------------------------------------------------------
$molecule
0 1
 6	-1.5144699945	-1.1461305685	1.4431648354
 6	-0.8664699945	0.1728694315	1.7331648354
 6	0.4355300055	1.9188694315	1.4301648354
 6	-1.0824699945	1.0398694315	2.7591648354
 7	0.0765300055	0.7538694315	0.9071648354
 7	-0.2544699945	2.1198694315	2.5521648354
 1	1.1435300055	2.6078694315	0.9891648354
 1	-1.7244699945	-1.1981305685	0.3751648354
 1	-2.4604699945	-1.1901305685	1.9781648354
 1	-0.2204699945	2.9528694315	3.1301648354
 1	-1.7854699945	0.9008694315	3.5691648354
 1	-0.9126819945	-2.0167415685	1.7429778354
$end
$rem
EDA2		1
METHOD		WB97X-V
BASIS		DEF2-TZVPD
XC_GRID		000099000590
NL_GRID		1
UNRESTRICTED		FALSE
MAX_SCF_CYCLES		200
SYMMETRY		FALSE
SYM_IGNORE		TRUE
BASIS_LIN_DEP_THRESH		6
THRESH		14
SCF_CONVERGENCE		8
SCF_PRINT_FRGM		TRUE
SOLVENT_METHOD		SMD
!required keywords
JOBTYPE		SP
SYM_IGNORE		TRUE
SUBSYSTEM		TRUE
GEN_SCFMAN		TRUE
CHILD_INSTRUCTION		2
SYM_IGNORE		TRUE
SCFMI		0
RI_K 0		
PARI_K 0		
MIN_PARI_K 0		
IARI_K 0		
OCC_RI_K 0		
PURECART		1111
MEM_STATIC		2000
MEM_TOTAL		96000
GUI		0
CHILD_MP		1
CHILD_MP_ORDERS		232
FRZ_RELAX		0
FRZ_RELAX_METHOD		0
EDA_CLS_ELEC		1
EDA_CLS_DISP		0
FRZ_ORTHO_DECOMP		1
EDA2		FALSE
FRGM_METHOD		FALSE
CIS_N_ROOTS  0
LOCAL_CIS    0
CIS_RLX_DNS  1
$end
$smx
SOLVENT			WATER
$end
--------------------------------------------------------------
 ----------------------------------------------------------------
             Standard Nuclear Orientation (Angstroms)
    I     Atom           X                Y                Z
 ----------------------------------------------------------------
    1      C      -1.5144699945    -1.1461305685     1.4431648354
    2      C      -0.8664699945     0.1728694315     1.7331648354
    3      C       0.4355300055     1.9188694315     1.4301648354
    4      C      -1.0824699945     1.0398694315     2.7591648354
    5      N       0.0765300055     0.7538694315     0.9071648354
    6      N      -0.2544699945     2.1198694315     2.5521648354
    7      H       1.1435300055     2.6078694315     0.9891648354
    8      H      -1.7244699945    -1.1981305685     0.3751648354
    9      H      -2.4604699945    -1.1901305685     1.9781648354
   10      H      -0.2204699945     2.9528694315     3.1301648354
   11      H      -1.7854699945     0.9008694315     3.5691648354
   12      H      -0.9126819945    -2.0167415685     1.7429778354
 ----------------------------------------------------------------
 Nuclear Repulsion Energy =         224.58229160 hartrees
 There are       22 alpha and       22 beta electrons
 Requested basis set is def2-TZVPD
 There are 108 shells and 276 basis functions

 Total QAlloc Memory Limit  96000 MB
 Mega-Array Size      1956 MB
 MEM_STATIC part      2000 MB
 
 Citation of the SMD model:
 Marenich, A.V.; Cramer, C.J.; Truhlar, D.G.
 J. Phys. Chem. B 2009, 113, 6378-6396.
 iSolventCode=           1
 Solvent: water                                                           
 
 vradii
            1           2           3           4           5           6
    1   1.8500000   1.8500000   1.8500000   1.8500000   1.8900000   1.8900000
            7           8           9          10          11          12
    1   1.2000000   1.2000000   1.2000000   1.2000000   1.2000000   1.2000000
 Changing PCM_VDW_RADII to SMD_RADIUS
 Discretize the solute cavity surface with Lebedev spheres
	Using 110 Lebedev grid points for each H atom
	Using 194 Lebedev grid points for other atoms
	Atomic van der Waals radii will be scaled by 1.20
 Remove points where switching function is < 1.0e-08
 Keep 894 surface tesserae and discard 930 interior tesserae
 Molecular Surface Area = 116.350 Angst**2

                       Distance Matrix (Angstroms)
             C (  1)   C (  2)   C (  3)   C (  4)   N (  5)   N (  6)
   C (  2)  1.497920
   C (  3)  3.632753  2.198984
   C (  4)  2.587871  1.360522  2.200729
   N (  5)  2.535464  1.381697  1.326512  2.203402
   N (  6)  3.672089  2.199117  1.332436  1.376529  2.163687
   H (  7)  4.622077  3.243896  1.081881  3.247553  2.140684  2.153025
   H (  8)  1.089692  2.111864  3.936282  3.332306  2.708677  4.231944
   H (  9)  1.087693  2.111547  4.284040  2.735278  3.370838  4.018957
   H ( 10)  4.617597  3.177629  2.095111  2.130787  3.140946  1.014460
   H ( 11)  2.963701  2.178403  3.247227  1.081494  3.251907  2.205496
   H ( 12)  1.100000  2.190121  4.171877  3.225575  3.058334  4.266096
             H (  7)   H (  8)   H (  9)   H ( 10)   H ( 11)
   H (  8)  4.805003
   H (  9)  5.328390  1.763907
   H ( 10)  2.561914  5.204118  4.848624
   H ( 11)  4.260198  3.822454  2.712782  2.617757
   H ( 12)  5.116959  1.788864  1.770380  5.205812  3.550940
 
 A cutoff of  1.0D-14 yielded   5737 shell pairs
 There are     38171 function pairs (     48950 Cartesian)
 Smallest overlap matrix eigenvalue = 1.81E-06

 Scale SEOQF with 1.000000e-01/1.000000e-01/1.000000e-01

 Standard Electronic Orientation quadrupole field applied
 Nucleus-field energy     =    -0.0000000100 hartrees
 Guess from superposition of atomic densities
 Warning:  Energy on first SCF cycle will be non-variational
 SAD guess density has 43.559167 electrons

 -----------------------------------------------------------------------
  General SCF calculation program by
  Eric Jon Sundstrom, Paul Horn, Yuezhi Mao, Dmitri Zuev, Alec White,
  David Stuck, Shaama M.S., Shane Yost, Joonho Lee, David Small,
  Daniel Levine, Susi Lehtola, Hugh Burton, Evgeny Epifanovsky
 -----------------------------------------------------------------------
 Exchange:     0.1670 Hartree-Fock + 1.0000 wB97X-V + LR-HF
 Correlation:  1.0000 wB97X-V
 Using Euler-Maclaurin-Lebedev (99,590) quadrature formula
 Nonlocal Correlation:  VV10 with C = 0.0100 and b = 6.00 and scale = 1.00000
 Grid used for NLC:  SG-1 standard quadrature
Energy prior to optimization (guess energy) = -265.144686300629
Begin Timing: Total SCF Calculation
begin iterations for algorithm: DIIS         
the SCF tolerance is set to 1.00e-08
    1    -265.1446863006      7.21e-03     00000 
    2    -265.1052385135      7.36e-03     00000 
    3    -265.5675466310      7.26e-04     00000 
    4    -265.5722485023      3.79e-04     00000 
    5    -265.5736496330      1.13e-04     00000 
    6    -265.5738105788      4.22e-05     00000 
    7    -265.5738356514      1.18e-05     00000 
    8    -265.5738383405      3.42e-06     00000 
    9    -265.5738386412      1.69e-06     00000 
   10    -265.5738386937      4.12e-07     00000 
   11    -265.5738386991      8.12e-08     00000 
   12    -265.5738386993      4.20e-08     00000 
   13    -265.5738386994      1.13e-08     00000 
   14    -265.5738386994      4.47e-09     00000 Convergence criterion met
Timing for Total SCF: 889.00s (wall), 1757.15s (cpu)
(3)  G-ENP(liq) elect-nuc-pol free energy of system     -265.573838699 a.u.
(4)  G-CDS(liq) cavity-dispersion-solvent structure 
     free energy                                                2.0997 kcal/mol
(6)  G-S(liq) free energy of system                     -265.570492657 a.u.
E_pcm = -0.0227367954
E_cds = 0.0033460424
Multipole orders to be included
        2
        3
computing dipole RHS
computing quadrupole RHS
total number of RHS in solve_reponses: 8
RHS batch sizes
        8
Beginning Block Conjugate Gradient Iterations. Batch Number: 0
computing hessian-vector products by finite difference
              1      6.17e-01     00000 Conjugate Gradient Iteration
computing hessian-vector products by finite difference
              2      1.94e-01     00000 Conjugate Gradient Iteration
computing hessian-vector products by finite difference
              3      4.56e-02     00000 Conjugate Gradient Iteration
computing hessian-vector products by finite difference
              4      1.27e-02     00000 Conjugate Gradient Iteration
computing hessian-vector products by finite difference
              5      2.50e-03     00000 Conjugate Gradient Iteration
computing hessian-vector products by finite difference
              6      5.09e-04     00000 Conjugate Gradient Iteration
computing hessian-vector products by finite difference
              7      9.32e-05     00000 Conjugate Gradient Iteration
computing hessian-vector products by finite difference
              8      1.61e-05     00000 Conjugate Gradient Iteration
computing hessian-vector products by finite difference
              9      3.36e-06     00000 Conjugate Gradient Iteration
computing hessian-vector products by finite difference
             10      8.17e-07     00000 Conjugate Gradient Iteration
computing hessian-vector products by finite difference
             11      1.18e-07     00000 Conjugate Gradient Iteration
computing hessian-vector products by finite difference
             12      2.80e-08     00000 Conjugate Gradient Iteration
computing hessian-vector products by finite difference
             13      4.31e-09     00000 CG Converged
batch 0 complete
Done Calculating Responses
TESTING ORTHOGONALIZATION OF MULTIPOLE BASIS
Multipole virts passed orthogonality test
Virts Per Order
           66
          110
 
 --------------------------------------------------------------
 
                    Orbital Energies (a.u.)
 --------------------------------------------------------------
 
 Alpha MOs
 -- Occupied --
-14.4591 -14.3862 -10.3174 -10.2834 -10.2825 -10.2567  -1.1509  -0.9933
 -0.8955  -0.8214  -0.7228  -0.6827  -0.6619  -0.5616  -0.5528  -0.5361
 -0.5080  -0.4948  -0.4765  -0.3780  -0.3755  -0.3210
 -- Virtual --
  0.0689   0.0878   0.0975   0.1071   0.1187   0.1302   0.1357   0.1476
  0.1726   0.1736   0.1795   0.1871   0.2026   0.2057   0.2276   0.2399
  0.2486   0.2535   0.2627   0.2642   0.2746   0.2915   0.2989   0.3091
  0.3142   0.3179   0.3213   0.3256   0.3316   0.3402   0.3511   0.3585
  0.3615   0.3711   0.3800   0.3830   0.3973   0.4002   0.4119   0.4184
  0.4194   0.4300   0.4358   0.4499   0.4615   0.4695   0.4740   0.4837
  0.4876   0.4977   0.5004   0.5209   0.5337   0.5465   0.5530   0.5644
  0.5721   0.5740   0.5899   0.5984   0.6073   0.6128   0.6196   0.6314
  0.6510   0.6600   0.6696   0.6856   0.6997   0.7023   0.7073   0.7230
  0.7372   0.7464   0.7635   0.7760   0.7781   0.7865   0.7920   0.7972
  0.8100   0.8198   0.8276   0.8357   0.8692   0.8727   0.8821   0.8893
  0.9193   0.9407   0.9660   0.9906   1.0024   1.0086   1.0206   1.0348
  1.0719   1.0738   1.1072   1.1135   1.1331   1.1663   1.1804   1.2133
  1.2295   1.2441   1.2800   1.3225   1.3449   1.3633   1.3827   1.4342
  1.4496   1.4615   1.5344   1.5597   1.6133   1.6396   1.6559   1.6811
  1.6992   1.7469   1.7968   1.8350   1.8375   1.8605   1.8654   1.8902
  1.9143   1.9453   1.9549   1.9574   1.9722   1.9926   2.0008   2.0141
  2.0284   2.0680   2.0851   2.1404   2.1870   2.2342   2.2667   2.2722
  2.3090   2.3363   2.3795   2.3932   2.4290   2.4613   2.4708   2.5061
  2.5498   2.5924   2.5987   2.6266   2.6434   2.6514   2.6904   2.7244
  2.7480   2.7703   2.7897   2.8336   2.8695   2.8951   2.9050   2.9928
  3.0149   3.0484   3.0624   3.0741   3.0866   3.1218   3.1476   3.1758
  3.1840   3.2075   3.2161   3.2321   3.2752   3.2917   3.3182   3.3458
  3.3519   3.3715   3.3906   3.3983   3.4191   3.4393   3.4759   3.4922
  3.5211   3.5404   3.5656   3.6056   3.6320   3.6655   3.6929   3.7188
  3.7547   3.7893   3.8194   3.8637   3.8811   3.9511   3.9592   4.0374
  4.0797   4.1185   4.1414   4.2359   4.2973   4.3845   4.4446   4.4921
  4.5173   4.5691   4.6123   4.7242   4.7676   4.8097   4.8523   4.8766
  4.9446   4.9682   5.0094   5.0420   5.0497   5.0725   5.1618   5.1994
  5.2357   5.3027   5.3778   5.4474   5.4900   5.5348   5.5824   5.6005
  5.6715   5.6996   5.7502   5.7897   5.8723   6.0317   6.2471   6.2771
 22.6278  22.8709  23.1238  23.3783  32.6522  32.7730
 --------------------------------------------------------------
 
          Ground-State Mulliken Net Atomic Charges

     Atom                 Charge (a.u.)
  ----------------------------------------
      1 C                    -0.823361
      2 C                     0.530412
      3 C                    -0.264252
      4 C                    -0.556709
      5 N                    -0.541478
      6 N                     0.071347
      7 H                     0.341445
      8 H                     0.247232
      9 H                     0.244181
     10 H                     0.202896
     11 H                     0.321599
     12 H                     0.226687
  ----------------------------------------
  Sum of atomic charges =     0.000000

 -----------------------------------------------------------------
                    Cartesian Multipole Moments
 -----------------------------------------------------------------
    Charge (ESU x 10^10)
                 0.0000
    Dipole Moment (Debye)
         X      -1.0448      Y       3.1302      Z       3.8015
       Tot       5.0340
    Quadrupole Moments (Debye-Ang)
        XX     -34.3056     XY       2.5129     YY     -22.0693
        XZ      -3.8763     YZ      11.0538     ZZ     -23.0969
    Octopole Moments (Debye-Ang^2)
       XXX      60.3389    XXY     -26.0064    XYY      26.6948
       YYY     -37.1542    XXZ     -58.3496    XYZ      -0.6025
       YYZ     -26.2435    XZZ       5.1602    YZZ       9.9795
       ZZZ    -150.0222
    Hexadecapole Moments (Debye-Ang^3)
      XXXX    -235.5972   XXXY     -22.1117   XXYY    -115.7169
      XYYY     -15.1127   YYYY    -342.8238   XXXZ     117.4634
      XXYZ     -58.2229   XYYZ      42.9747   YYYZ     -59.7518
      XXZZ    -156.5681   XYZZ     -22.6093   YYZZ    -103.6016
      XZZZ      72.5176   YZZZ     -50.3530   ZZZZ    -700.6170
 -----------------------------------------------------------------
Archival summary:
1\1\nid00556\SP\ProcedureUnspecified\BasisUnspecified\246\meili\SunSep2616:56:552021SunSep2616:56:552021\0\\#,ProcedureUnspecified,BasisUnspecified,\\0,1\N\C,1,1.32651\H,2,1.08188,1,125.149\N,2,1.33244,1,108.925,3,177.618,0\H,4,1.01446,2,125.894,1,-176.289,0\C,4,1.37653,2,108.649,1,0.284648,0\H,6,1.08149,4,127.19,2,-178.721,0\C,6,1.36052,4,106.922,2,0.431123,0\C,8,1.49792,6,129.677,4,-178.651,0\H,9,1.08769,8,108.46,6,20.1459,0\H,9,1.08969,8,108.369,6,137.406,0\H,9,1.1,8,114.047,6,-100.287,0\\\@

 Total job time:  16318.10s(wall), 32407.03s(cpu) 
 Sun Sep 26 16:56:58 2021

        *************************************************************
        *                                                           *
        *  Thank you very much for using Q-Chem.  Have a nice day.  *
        *                                                           *
        *************************************************************


Done Job For Fragment 0
calling putenv with: QCSCRATCH=/global/cscratch1/sd/meili 
calling putenv with: QCLOCALSCR=/tmp 
calling putenv with: QCTHREADS=32 
Creating input file /tmp/qchem23114/Frg2.input
using default PutDataFrgm: nothing
calling putenv with: QCSCRATCH=/tmp/qchem23114/ 
calling putenv with: QCLOCALSCR=/tmp/qchem23114/ 
Spawning Job For Fragment 1
                  Welcome to Q-Chem
     A Quantum Leap Into The Future Of Chemistry


 Q-Chem 5.2, Q-Chem, Inc., Pleasanton, CA (2019)

 License issued to: National Energy Research Scientific Computing Center

 Yihan Shao,  Zhengting Gan,  E. Epifanovsky,  A. T. B. Gilbert,  M. Wormit,  
 J. Kussmann,  A. W. Lange,  A. Behn,  Jia Deng,  Xintian Feng,  D. Ghosh,  
 M. Goldey,  P. R. Horn,  L. D. Jacobson,  I. Kaliman,  T. Kus,  A. Landau,  
 Jie Liu,  E. I. Proynov,  R. M. Richard,  R. P. Steele,  E. J. Sundstrom,  
 H. L. Woodcock III,  P. M. Zimmerman,  D. Zuev,  B. Albrecht,  E. Alguire,  
 S. A. Baeppler,  D. Barton,  Z. Benda,  Y. A. Bernard,  E. J. Berquist,  
 K. B. Bravaya,  H. Burton,  D. Casanova,  Chun-Min Chang,  Yunqing Chen,  
 A. Chien,  K. D. Closser,  M. P. Coons,  S. Coriani,  S. Dasgupta,  
 A. L. Dempwolff,  M. Diedenhofen,  Hainam Do,  R. G. Edgar,  Po-Tung Fang,  
 S. Faraji,  S. Fatehi,  Qingguo Feng,  K. D. Fenk,  J. Fosso-Tande,  
 J. Gayvert,  Qinghui Ge,  A. Ghysels,  G. Gidofalvi,  J. Gomes,  
 J. Gonthier,  A. Gunina,  D. Hait,  M. W. D. Hanson-Heine,  
 P. H. P. Harbach,  A. W. Hauser,  M. F. Herbst,  J. E. Herr,  
 E. G. Hohenstein,  Z. C. Holden,  Kerwin Hui,  B. C. Huynh,  T.-C. Jagau,  
 Hyunjun Ji,  B. Kaduk,  K. Khistyaev,  Jaehoon Kim,  P. Klunzinger,  K. Koh,  
 D. Kosenkov,  L. Koulias,  T. Kowalczyk,  C. M. Krauter,  A. Kunitsa,  
 Ka Un Lao,  A. Laurent,  K. V. Lawler,  Joonho Lee,  D. Lefrancois,  
 S. Lehtola,  D. S. Levine,  Yi-Pei Li,  You-Sheng Lin,  Fenglai Liu,  
 E. Livshits,  A. Luenser,  P. Manohar,  E. Mansoor,  S. F. Manzer,  
 Shan-Ping Mao,  Yuezhi Mao,  N. Mardirossian,  A. V. Marenich,  
 T. Markovich,  L. A. Martinez-Martinez,  S. A. Maurer,  N. J. Mayhall,  
 S. C. McKenzie,  J.-M. Mewes,  P. Morgante,  A. F. Morrison,  
 J. W. Mullinax,  K. Nanda,  T. S. Nguyen-Beck,  R. Olivares-Amaya,  
 J. A. Parkhill,  Zheng Pei,  T. M. Perrine,  F. Plasser,  P. Pokhilko,  
 S. Prager,  A. Prociuk,  E. Ramos,  D. R. Rehn,  F. Rob,  M. Scheurer,  
 M. Schneider,  N. Sergueev,  S. M. Sharada,  S. Sharma,  D. W. Small,  
 T. Stauch,  T. Stein,  Yu-Chuan Su,  A. J. W. Thom,  A. Tkatchenko,  
 T. Tsuchimochi,  N. M. Tubman,  L. Vogt,  M. L. Vidal,  O. Vydrov,  
 M. A. Watson,  J. Wenzel,  M. de Wergifosse,  T. A. Wesolowski,  A. White,  
 J. Witte,  A. Yamada,  Jun Yang,  K. Yao,  S. Yeganeh,  S. R. Yost,  
 Zhi-Qiang You,  A. Zech,  Igor Ying Zhang,  Xing Zhang,  Yan Zhao,  
 Ying Zhu,  B. R. Brooks,  G. K. L. Chan,  C. J. Cramer,  M. S. Gordon,  
 W. J. Hehre,  A. Klamt,  M. W. Schmidt,  C. D. Sherrill,  D. G. Truhlar,  
 A. Aspuru-Guzik,  R. Baer,  A. T. Bell,  N. A. Besley,  Jeng-Da Chai,  
 A. E. DePrince, III,  R. A. DiStasio Jr.,  A. Dreuw,  B. D. Dunietz,  
 T. R. Furlani,  Chao-Ping Hsu,  Yousung Jung,  Jing Kong,  D. S. Lambrecht,  
 WanZhen Liang,  C. Ochsenfeld,  V. A. Rassolov,  L. V. Slipchenko,  
 J. E. Subotnik,  T. Van Voorhis,  J. M. Herbert,  A. I. Krylov,  
 P. M. W. Gill,  M. Head-Gordon

 Contributors to earlier versions of Q-Chem not listed above: 
 R. D. Adamson,  B. Austin,  J. Baker,  G. J. O. Beran,  K. Brandhorst,  
 S. T. Brown,  E. F. C. Byrd,  A. K. Chakraborty,  C.-L. Cheng,  
 Siu Hung Chien,  D. M. Chipman,  D. L. Crittenden,  H. Dachsel,  
 R. J. Doerksen,  A. D. Dutoi,  L. Fusti-Molnar,  W. A. Goddard III,  
 A. Golubeva-Zadorozhnaya,  S. R. Gwaltney,  G. Hawkins,  A. Heyden,  
 S. Hirata,  G. Kedziora,  F. J. Keil,  C. Kelley,  Jihan Kim,  R. A. King,  
 R. Z. Khaliullin,  P. P. Korambath,  W. Kurlancheek,  A. M. Lee,  M. S. Lee,  
 S. V. Levchenko,  Ching Yeh Lin,  D. Liotard,  R. C. Lochan,  I. Lotan,  
 P. E. Maslen,  N. Nair,  D. P. O'Neill,  D. Neuhauser,  E. Neuscamman,  
 C. M. Oana,  R. Olson,  B. Peters,  R. Peverati,  P. A. Pieniazek,  
 Y. M. Rhee,  J. Ritchie,  M. A. Rohrdanz,  E. Rosta,  N. J. Russ,  
 H. F. Schaefer III,  N. E. Schultz,  N. Shenvi,  A. C. Simmonett,  A. Sodt,  
 D. Stuck,  K. S. Thanthiriwatte,  V. Vanovschi,  Tao Wang,  A. Warshel,  
 C. F. Williams,  Q. Wu,  X. Xu,  W. Zhang

 Please cite Q-Chem as follows:
 Y. Shao et al., Mol. Phys. 113, 184-215 (2015)
 DOI: 10.1080/00268976.2014.952696

 Q-Chem 5.2.0 for Intel X86 EM64T Linux

 Parts of Q-Chem use Armadillo 8.300.2 (Tropical Shenanigans).
 http://arma.sourceforge.net/

 Q-Chem begins on Sun Sep 26 16:57:02 2021  

Host: cori01
0

     Scratch files written to /tmp/qchem23114//Frg2//
 May1019 |scratch|qcdevops|jenkins|workspace|build_RNUM -1
Processing $rem in /global/common/cori/software/qchem/5.2/config/preferences:
	 MEM_TOTAL  96000 
NAlpha2: 32
NElect   32
Mult     1
Symmetry turned off for PCM/SM12/SMD calculation

Checking the input file for inconsistencies... 	...done.

--------------------------------------------------------------
User input:
--------------------------------------------------------------
$molecule
-1 1
 6	1.2495300055	-0.0371305685	-3.3298351646
 6	0.7175300055	-1.1751305685	-2.4708351646
 8	0.5525300055	-0.9791305685	-1.2598351646
 8	0.5095300055	-2.2901305685	-3.0128351646
 1	0.7055300055	0.0068694315	-4.2758351646
 1	2.2935300055	-0.2581305685	-3.5618351646
 1	1.2086710055	0.9449104315	-2.8359471646
$end
$rem
EDA2		1
METHOD		WB97X-V
BASIS		DEF2-TZVPD
XC_GRID		000099000590
NL_GRID		1
UNRESTRICTED		FALSE
MAX_SCF_CYCLES		200
SYMMETRY		FALSE
SYM_IGNORE		TRUE
BASIS_LIN_DEP_THRESH		6
THRESH		14
SCF_CONVERGENCE		8
SCF_PRINT_FRGM		TRUE
SOLVENT_METHOD		SMD
!required keywords
JOBTYPE		SP
SYM_IGNORE		TRUE
SUBSYSTEM		TRUE
GEN_SCFMAN		TRUE
CHILD_INSTRUCTION		2
SYM_IGNORE		TRUE
SCFMI		0
RI_K 0		
PARI_K 0		
MIN_PARI_K 0		
IARI_K 0		
OCC_RI_K 0		
PURECART		1111
MEM_STATIC		2000
MEM_TOTAL		96000
GUI		0
CHILD_MP		1
CHILD_MP_ORDERS		232
FRZ_RELAX		0
FRZ_RELAX_METHOD		0
EDA_CLS_ELEC		1
EDA_CLS_DISP		0
FRZ_ORTHO_DECOMP		1
EDA2		FALSE
FRGM_METHOD		FALSE
CIS_N_ROOTS  0
LOCAL_CIS    0
CIS_RLX_DNS  1
$end
$smx
SOLVENT			WATER
$end
--------------------------------------------------------------
 ----------------------------------------------------------------
             Standard Nuclear Orientation (Angstroms)
    I     Atom           X                Y                Z
 ----------------------------------------------------------------
    1      C       1.2495300055    -0.0371305685    -3.3298351646
    2      C       0.7175300055    -1.1751305685    -2.4708351646
    3      O       0.5525300055    -0.9791305685    -1.2598351646
    4      O       0.5095300055    -2.2901305685    -3.0128351646
    5      H       0.7055300055     0.0068694315    -4.2758351646
    6      H       2.2935300055    -0.2581305685    -3.5618351646
    7      H       1.2086710055     0.9449104315    -2.8359471646
 ----------------------------------------------------------------
 Nuclear Repulsion Energy =         112.83169919 hartrees
 There are       16 alpha and       16 beta electrons
 Requested basis set is def2-TZVPD
 There are 69 shells and 181 basis functions

 Total QAlloc Memory Limit  96000 MB
 Mega-Array Size      1956 MB
 MEM_STATIC part      2000 MB
 
 Citation of the SMD model:
 Marenich, A.V.; Cramer, C.J.; Truhlar, D.G.
 J. Phys. Chem. B 2009, 113, 6378-6396.
 iSolventCode=           1
 Solvent: water                                                           
 
 vradii
            1           2           3           4           5           6
    1   1.8500000   1.8500000   1.5200000   1.5200000   1.2000000   1.2000000
            7
    1   1.2000000
 Changing PCM_VDW_RADII to SMD_RADIUS
 Discretize the solute cavity surface with Lebedev spheres
	Using 110 Lebedev grid points for each H atom
	Using 194 Lebedev grid points for other atoms
	Atomic van der Waals radii will be scaled by 1.20
 Remove points where switching function is < 1.0e-08
 Keep 644 surface tesserae and discard 462 interior tesserae
 Molecular Surface Area = 79.904 Angst**2

                       Distance Matrix (Angstroms)
             C (  1)   C (  2)   O (  3)   O (  4)   H (  5)   H (  6)
   C (  2)  1.521824
   O (  3)  2.378670  1.237805
   O (  4)  2.392509  1.257081  2.189424
   H (  5)  1.092148  2.157613  3.176769  2.628649
   H (  6)  1.092063  2.124840  2.974916  2.759181  1.761183
   H (  7)  1.100000  2.206604  2.572272  3.314450  1.790628  1.775145

 
 A cutoff of  1.0D-14 yielded   2391 shell pairs
 There are     16695 function pairs (     21491 Cartesian)
 Smallest overlap matrix eigenvalue = 1.69E-05

 Scale SEOQF with 1.000000e-01/1.000000e-01/1.000000e-01

 Standard Electronic Orientation quadrupole field applied
 Nucleus-field energy     =    -0.0000000193 hartrees
 Guess from superposition of atomic densities
 Warning:  Energy on first SCF cycle will be non-variational
 SAD guess density has 30.625312 electrons

 -----------------------------------------------------------------------
  General SCF calculation program by
  Eric Jon Sundstrom, Paul Horn, Yuezhi Mao, Dmitri Zuev, Alec White,
  David Stuck, Shaama M.S., Shane Yost, Joonho Lee, David Small,
  Daniel Levine, Susi Lehtola, Hugh Burton, Evgeny Epifanovsky
 -----------------------------------------------------------------------
 Exchange:     0.1670 Hartree-Fock + 1.0000 wB97X-V + LR-HF
 Correlation:  1.0000 wB97X-V
 Using Euler-Maclaurin-Lebedev (99,590) quadrature formula
 Nonlocal Correlation:  VV10 with C = 0.0100 and b = 6.00 and scale = 1.00000
 Grid used for NLC:  SG-1 standard quadrature
Energy prior to optimization (guess energy) = -227.764331067858
Begin Timing: Total SCF Calculation
begin iterations for algorithm: DIIS         
the SCF tolerance is set to 1.00e-08
    1    -227.7643310679      1.66e-02     00000 
    2    -225.6375713828      2.49e-02     00000 
    3    -228.6063226402      4.07e-03     00000 
    4    -228.6590784241      1.38e-03     00000 
    5    -228.6650061749      2.66e-04     00000 
    6    -228.6652601765      1.86e-04     00000 
    7    -228.6653504341      5.12e-05     00000 
    8    -228.6653605044      1.35e-05     00000 
    9    -228.6653616436      3.85e-06     00000 
   10    -228.6653617545      1.12e-06     00000 
   11    -228.6653617648      2.14e-07     00000 
   12    -228.6653617652      4.67e-08     00000 
   13    -228.6653617652      1.13e-08     00000 
   14    -228.6653617652      2.83e-09     00000 Convergence criterion met
Timing for Total SCF: 276.00s (wall), 540.94s (cpu)
(3)  G-ENP(liq) elect-nuc-pol free energy of system     -228.665361765 a.u.
(4)  G-CDS(liq) cavity-dispersion-solvent structure 
     free energy                                                3.9191 kcal/mol
(6)  G-S(liq) free energy of system                     -228.659116273 a.u.
E_pcm = -0.1310028577
E_cds = 0.0062454920
Multipole orders to be included
        2
        3
computing dipole RHS
computing quadrupole RHS
total number of RHS in solve_reponses: 8
RHS batch sizes
        8
Beginning Block Conjugate Gradient Iterations. Batch Number: 0
computing hessian-vector products by finite difference
              1      7.01e-01     00000 Conjugate Gradient Iteration
computing hessian-vector products by finite difference
              2      2.25e-01     00000 Conjugate Gradient Iteration
computing hessian-vector products by finite difference
              3      6.09e-02     00000 Conjugate Gradient Iteration
computing hessian-vector products by finite difference
              4      1.60e-02     00000 Conjugate Gradient Iteration
computing hessian-vector products by finite difference
              5      2.32e-03     00000 Conjugate Gradient Iteration
computing hessian-vector products by finite difference
              6      5.87e-04     00000 Conjugate Gradient Iteration
computing hessian-vector products by finite difference
              7      8.18e-05     00000 Conjugate Gradient Iteration
computing hessian-vector products by finite difference
              8      1.16e-05     00000 Conjugate Gradient Iteration
computing hessian-vector products by finite difference
              9      2.22e-06     00000 Conjugate Gradient Iteration
computing hessian-vector products by finite difference
             10      3.97e-07     00000 Conjugate Gradient Iteration
computing hessian-vector products by finite difference
             11      5.33e-08     00000 Conjugate Gradient Iteration
computing hessian-vector products by finite difference
             12      2.04e-08     00000 Conjugate Gradient Iteration
computing hessian-vector products by finite difference
             13      2.34e-09     00000 CG Converged
batch 0 complete
Done Calculating Responses
TESTING ORTHOGONALIZATION OF MULTIPOLE BASIS
Multipole virts passed orthogonality test
Virts Per Order
        48
        80
 
 --------------------------------------------------------------
 
                    Orbital Energies (a.u.)
 --------------------------------------------------------------
 
 Alpha MOs
 -- Occupied --
-19.1535 -19.1508 -10.3531 -10.2467  -1.1679  -1.0661  -0.8400  -0.6175
 -0.5476  -0.5475  -0.5418  -0.4825  -0.4624  -0.3655  -0.3577  -0.3445
 -- Virtual --
  0.0671   0.1000   0.1006   0.1077   0.1352   0.1439   0.1458   0.1506
  0.1581   0.1908   0.2035   0.2234   0.2345   0.2393   0.2598   0.2655
  0.2989   0.3137   0.3335   0.3465   0.3539   0.3623   0.3708   0.3824
  0.3849   0.3988   0.4166   0.4247   0.4298   0.4552   0.4667   0.4738
  0.4816   0.4899   0.5041   0.5115   0.5468   0.5608   0.5837   0.5990
  0.6137   0.6254   0.6327   0.6435   0.6552   0.6684   0.6847   0.6949
  0.7070   0.7237   0.7737   0.7934   0.8073   0.8118   0.8331   0.8494
  0.8614   0.9555   0.9719   0.9818   0.9898   1.0277   1.0399   1.0998
  1.1399   1.1992   1.2398   1.2643   1.2727   1.3017   1.3336   1.3583
  1.4342   1.5456   1.5810   1.7359   1.8055   1.8485   1.8572   1.8984
  1.9088   1.9405   1.9501   1.9555   2.0104   2.0954   2.1100   2.1522
  2.1922   2.2082   2.2974   2.3201   2.4035   2.4286   2.4682   2.4753
  2.5659   2.5730   2.6161   2.6556   2.7724   2.8079   2.8589   2.9049
  2.9340   3.0051   3.0227   3.1574   3.1916   3.2356   3.2622   3.2940
  3.3230   3.3371   3.3737   3.3967   3.4146   3.5111   3.5484   3.5690
  3.5901   3.6605   3.6841   3.7211   3.7480   3.8498   3.9408   4.0350
  4.0732   4.1994   4.3360   4.5603   4.6046   4.6493   4.7728   4.7988
  4.9701   5.2962   5.3241   5.3335   5.3422   5.4701   5.6862   5.7486
  5.7996   6.0046   6.2135   6.3172   6.3359   6.5982   6.6019   6.6914
  6.7153   6.7293   6.9303   6.9477   7.0131   7.2192   7.3261   7.3636
  7.3876  22.5851  23.7364  44.1918  44.3298
 --------------------------------------------------------------
 
          Ground-State Mulliken Net Atomic Charges

     Atom                 Charge (a.u.)
  ----------------------------------------
      1 C                    -0.593513
      2 C                     0.501081
      3 O                    -0.752409
      4 O                    -0.789295
      5 H                     0.219224
      6 H                     0.191874
      7 H                     0.223040
  ----------------------------------------
  Sum of atomic charges =    -1.000000

 -----------------------------------------------------------------
                    Cartesian Multipole Moments
 -----------------------------------------------------------------
    Charge (ESU x 10^10)
                -4.8032
    Dipole Moment (Debye)
         X      -1.7408      Y       9.6720      Z       9.0696
       Tot      13.3729
    Quadrupole Moments (Debye-Ang)
        XX     -25.2916     XY       3.9683     YY     -47.2348
        XZ       2.7060     YZ     -24.3717     ZZ     -48.6184
    Octopole Moments (Debye-Ang^2)
       XXX     -57.5625    XXY      27.9133    XYY     -29.6913
       YYY     133.0989    XXZ      63.4189    XYZ     -10.1117
       YYZ     126.5111    XZZ     -27.3393    YZZ      98.4090
       ZZZ     266.9643
    Hexadecapole Moments (Debye-Ang^3)
      XXXX    -136.4241   XXXY      42.5788   XXYY     -82.7477
      XYYY      69.2680   YYYY    -445.4296   XXXZ     157.6264
      XXYZ     -69.2673   XYYZ      84.6186   YYYZ    -350.8716
      XXZZ    -210.0552   XYZZ      45.6797   YYZZ    -431.4126
      XZZZ     195.5464   YZZZ    -425.7186   ZZZZ   -1379.3722
 -----------------------------------------------------------------
Archival summary:
1\1\nid00556\SP\ProcedureUnspecified\BasisUnspecified\223(1-,1)\meili\SunSep2618:18:572021SunSep2618:18:572021\0\\#,ProcedureUnspecified,BasisUnspecified,\\-1,1\C\O,1,1.23781\O,1,1.25708,2,122.698\C,1,1.52182,2,118.713,3,-177.365,0\H,4,1.09206,1,107.625,2,105.392,0\H,4,1.09215,1,110.177,2,-137.707,0\H,4,1.1,1,113.652,2,-14.3454,0\\\@

 Total job time:  4917.80s(wall), 9620.33s(cpu) 
 Sun Sep 26 18:19:00 2021

        *************************************************************
        *                                                           *
        *  Thank you very much for using Q-Chem.  Have a nice day.  *
        *                                                           *
        *************************************************************


Done Job For Fragment 1
calling putenv with: QCSCRATCH=/global/cscratch1/sd/meili 
calling putenv with: QCLOCALSCR=/tmp 
calling putenv with: QCTHREADS=32 
Doing General SCFMI
 Exchange:     0.1670 Hartree-Fock + 1.0000 wB97X-V + LR-HF
 Correlation:  1.0000 wB97X-V
 Using Euler-Maclaurin-Lebedev (99,590) quadrature formula
 Nonlocal Correlation:  VV10 with C = 0.0100 and b = 6.00 and scale = 1.00000
 Grid used for NLC:  SG-1 standard quadrature
performing fock build before subrot guess so that all methods have access
Printing subrot_rss_gen Method Specification:
Occupied Subspace Method is 0
Virtual Subspace Method is 0
Energy of the unrelaxed supersystem initial determinant -494.046913394956
performing fock build before subrot guess so that all methods have access
Printing subrot_rss_gen Method Specification:
Occupied Subspace Method is 0
Virtual Subspace Method is 0
Energy of the unrelaxed supersystem initial determinant w/ solvent -494.227458928927
write pseudocanon occs and virts to disk
write pseudocanon orbital energies to disk
Tolerance of ortho_decomp_scf: 1.00e-06
GDM subspace size: 20
Beginning the Orthogonal Decomposition of the Initial Supersystem Wavefunction
    1    -494.0352846307      8.70e-02     ortho_decomp Preconditoned Steepest Descent
    2    -494.0455308863      1.59e-03     ortho_decomp BFGS Step
    3    -494.0455519827      1.28e-04     ortho_decomp BFGS Step
    4    -494.0455520364      5.00e-06     ortho_decomp BFGS Step
    5    -494.0455520365      1.72e-07     ortho_decomp 00000 Convergence criterion met
 Hartree-Fock
 Hartree-Fock
 Hartree-Fock
Doing General SCFMI
 Exchange:     0.1670 Hartree-Fock + 1.0000 wB97X-V + LR-HF
 Correlation:  1.0000 wB97X-V
 Using Euler-Maclaurin-Lebedev (99,590) quadrature formula
 Nonlocal Correlation:  VV10 with C = 0.0100 and b = 6.00 and scale = 1.00000
 Grid used for NLC:  SG-1 standard quadrature
performing fock build at end of subrot_r(subrot) constructor so that all methods have access
<S^2> of initial wavefunction before polarization iterations 0.0000000000
Beginning iterations for the determination of the polarized wavefunction
Energy prior to optimization (guess energy) = -494.227458928927
Begin Timing: Total SCF Calculation
begin iterations for algorithm: DIIS         
the SCF tolerance is set to 1.00e-08
    1    -494.2274589289      1.45e-04     00000 
    2    -494.2281527940      1.44e-04     00000 
    3    -494.2286127148      2.90e-05     00000 
    4    -494.2286855898      1.49e-05     00000 
    5    -494.2287021014      8.94e-06     00000 
    6    -494.2287070279      2.61e-06     00000 
    7    -494.2287075983      1.07e-06     00000 
    8    -494.2287076825      4.08e-07     00000 
    9    -494.2287076971      1.83e-07     00000 
   10    -494.2287076996      5.45e-08     00000 
   11    -494.2287076999      3.10e-08     00000 
   12    -494.2287076999      7.76e-09     00000 Convergence criterion met
write pseudocanon occs and virts to disk
write pseudocanon orbital energies to disk
Timing for Total SCF: 2906.00s (wall), 5753.66s (cpu)
<S^2> of polarized wavefunction after polarization iterations 0.0000000000
relaxing scfmi constraint to allow all rotations in the entire AO span
Doing General SCFMI
 Exchange:     0.1670 Hartree-Fock + 1.0000 wB97X-V + LR-HF
 Correlation:  1.0000 wB97X-V
 Using Euler-Maclaurin-Lebedev (99,590) quadrature formula
 Nonlocal Correlation:  VV10 with C = 0.0100 and b = 6.00 and scale = 1.00000
 Grid used for NLC:  SG-1 standard quadrature
performing fock build at end of subrot_r(subrot) constructor so that all methods have access
<S^2> of polarized wavefunction before ct-allowed iterations 0.0000000000
Beginning iterations for the determination of the CT-Allowed wavefunction
Energy prior to optimization (guess energy) = -494.228707699943
Begin Timing: Total SCF Calculation
begin iterations for algorithm: DIIS         
the SCF tolerance is set to 1.00e-08
    1    -494.2287076999      8.11e-05     00000 
    2    -494.2292942741      7.88e-06     00000 
    3    -494.2293102722      2.14e-06     00000 
    4    -494.2293107092      2.09e-06     00000 
    5    -494.2293110371      2.18e-07     00000 
    6    -494.2293110454      1.50e-07     00000 
    7    -494.2293110480      3.56e-08     00000 
    8    -494.2293110483      1.26e-08     00000 
    9    -494.2293110483      5.91e-09     00000 Convergence criterion met
write pseudocanon occs and virts to disk
write pseudocanon orbital energies to disk
Timing for Total SCF: 2106.00s (wall), 4187.92s (cpu)
<S^2> of ct_allowed wavefunction after ct-allowed iterations 0.0000000000

================================
        Results of EDA2         
================================
Basic EDA Quantities
--------------------
Fragment Energies (Ha):
1 -265.5704926570
2 -228.6591162732
--------------------
  E_prp (kJ/mol) = 0.0000
  E_sol (kJ/mol) = -69.0327
  E_frz (kJ/mol) = 101.2074
  E_pol (kJ/mol) = -3.2787
  E_vct (kJ/mol) = -1.5841
  E_int (kJ/mol) = 27.3119
--------------------


Initial Wavefunction Decomposition
--------------------
  --------------------
  Orthogonal Fragment Subspace Decomposition:
  --------------------
     E_elec   (ELEC)   (kJ/mol) = 32.0358
     E_pauli  (PAULI)  (kJ/mol) = 85.5276
     E_disp   (DISP)   (kJ/mol) = -16.3560
     --------------------
     Terms summing to E_pauli:
     --------------------
        E_kep_pauli       (kJ/mol) = 104.7817
        E_disp_free_pauli (kJ/mol) = -19.2541
  --------------------
  Classical Frozen Decomposition:
  --------------------
     E_cls_elec  (CLS ELEC)  (kJ/mol) = 84.9671
     E_cls_pauli (CLS PAULI) (kJ/mol) = 16.2403
    [E_mod_pauli (MOD PAULI) (kJ/mol) = 32.5963 (CLS PAULI - DISP from orthogonal decomposition) ]
  --------------------
--------------------

Simplified EDA Summary (kJ/mol)
--------------------
 PREPARATION     0.0000
 SOLVATION       -69.0327
 FROZEN          117.5634      (does not include dispersion)
[PAULI           85.5276]     (if this is negligible, then frozen describes electrostatics)
 DISPERSION      -16.3560
 POLARIZATION    -3.2787
 CHARGE TRANSFER -1.5841
 TOTAL           27.3119     (PRP + SOL + FRZ + DISP + POL + CT)
--------------------
 
 --------------------------------------------------------------
 
                    Orbital Energies (a.u.)
 --------------------------------------------------------------
 
 Alpha MOs
 -- Occupied --
-19.1477 -19.1444 -14.4547 -14.3747 -10.3477 -10.3113 -10.2795 -10.2778
-10.2530 -10.2455  -1.1629  -1.1456  -1.0612  -0.9872  -0.8910  -0.8384
 -0.8177  -0.7179  -0.6777  -0.6580  -0.6136  -0.5572  -0.5509  -0.5447
 -0.5429  -0.5369  -0.5306  -0.5046  -0.4908  -0.4803  -0.4725  -0.4596
 -0.3721  -0.3666  -0.3594  -0.3539  -0.3319  -0.3170
 -- Virtual --
  0.0636   0.0776   0.0856   0.1003   0.1023   0.1073   0.1105   0.1176
  0.1296   0.1304   0.1368   0.1415   0.1496   0.1592   0.1658   0.1717
  0.1803   0.1840   0.1889   0.1937   0.2021   0.2105   0.2148   0.2208
  0.2348   0.2407   0.2484   0.2516   0.2572   0.2600   0.2648   0.2676
  0.2740   0.2845   0.2957   0.2978   0.3022   0.3049   0.3073   0.3171
  0.3194   0.3214   0.3268   0.3306   0.3389   0.3423   0.3504   0.3526
  0.3576   0.3667   0.3674   0.3696   0.3739   0.3826   0.3830   0.3891
  0.3953   0.3971   0.4021   0.4088   0.4124   0.4188   0.4204   0.4271
  0.4304   0.4380   0.4389   0.4422   0.4503   0.4562   0.4597   0.4704
  0.4709   0.4798   0.4853   0.4944   0.4961   0.5034   0.5100   0.5146
  0.5171   0.5215   0.5315   0.5418   0.5450   0.5468   0.5534   0.5592
  0.5680   0.5704   0.5783   0.5850   0.5929   0.6033   0.6073   0.6160
  0.6230   0.6320   0.6362   0.6403   0.6480   0.6519   0.6553   0.6592
  0.6659   0.6696   0.6817   0.6870   0.6924   0.6982   0.7040   0.7046
  0.7146   0.7200   0.7280   0.7364   0.7418   0.7474   0.7558   0.7602
  0.7697   0.7781   0.7874   0.7923   0.7960   0.8029   0.8051   0.8084
  0.8163   0.8265   0.8305   0.8416   0.8473   0.8553   0.8681   0.8697
  0.8733   0.8891   0.8950   0.9151   0.9283   0.9357   0.9416   0.9619
  0.9722   0.9832   0.9910   0.9949   1.0048   1.0205   1.0392   1.0459
  1.0524   1.0582   1.0652   1.0708   1.0774   1.0892   1.1106   1.1272
  1.1364   1.1505   1.1734   1.1859   1.1931   1.2054   1.2311   1.2404
  1.2553   1.2596   1.2693   1.2870   1.3056   1.3155   1.3315   1.3495
  1.3623   1.3679   1.3865   1.4043   1.4072   1.4133   1.4514   1.4565
  1.4823   1.4970   1.5343   1.5524   1.5843   1.6146   1.6231   1.6539
  1.6645   1.6863   1.7134   1.7368   1.7522   1.7967   1.8380   1.8540
  1.8582   1.8800   1.8900   1.9038   1.9072   1.9202   1.9312   1.9336
  1.9542   1.9669   1.9693   1.9749   1.9811   1.9906   2.0004   2.0093
  2.0121   2.0311   2.0347   2.0462   2.0465   2.0718   2.0927   2.1075
  2.1304   2.1366   2.1642   2.1991   2.2015   2.2142   2.2565   2.2613
  2.2886   2.3047   2.3160   2.3494   2.3719   2.3876   2.4111   2.4187
  2.4396   2.4674   2.4895   2.5008   2.5045   2.5304   2.5479   2.5759
  2.5944   2.6046   2.6071   2.6291   2.6464   2.6524   2.6601   2.6646
  2.6819   2.6880   2.7117   2.7423   2.7832   2.7892   2.8125   2.8269
  2.8411   2.8709   2.8885   2.9030   2.9175   2.9257   2.9477   2.9565
  3.0042   3.0319   3.0437   3.0595   3.0742   3.0830   3.0883   3.1058
  3.1396   3.1628   3.1860   3.1959   3.2132   3.2206   3.2268   3.2399
  3.2518   3.2668   3.2911   3.2957   3.3123   3.3266   3.3430   3.3630
  3.3696   3.3749   3.3857   3.3977   3.4091   3.4186   3.4235   3.4355
  3.4398   3.4508   3.4708   3.4952   3.5098   3.5381   3.5466   3.5555
  3.5833   3.5953   3.6160   3.6388   3.6419   3.6619   3.6835   3.6983
  3.7029   3.7172   3.7488   3.7589   3.7705   3.7768   3.8335   3.8514
  3.8752   3.8965   3.8984   3.9564   3.9752   3.9762   4.0593   4.0762
  4.0851   4.1074   4.1387   4.1615   4.2349   4.2610   4.3084   4.3650
  4.4013   4.4594   4.5098   4.5445   4.5858   4.5935   4.6252   4.6264
  4.6727   4.7432   4.7863   4.8090   4.8204   4.8681   4.8830   4.8981
  4.9626   4.9839   4.9948   5.0375   5.0605   5.0736   5.0960   5.1696
  5.2461   5.2737   5.3053   5.3153   5.3333   5.3426   5.3542   5.3927
  5.4582   5.4803   5.5142   5.5488   5.6033   5.6268   5.6942   5.7100
  5.7376   5.7633   5.7989   5.8079   5.8169   5.9076   6.0364   6.0682
  6.2425   6.2599   6.2906   6.3532   6.3895   6.6366   6.6632   6.7331
  6.7421   6.7653   6.9572   6.9706   7.0280   7.2486   7.3437   7.3882
  7.4639  22.6002  22.6636  22.9135  23.1640  23.4038  23.7768  32.6882
 32.8303  44.2868  44.3885
 --------------------------------------------------------------
 
          Ground-State Mulliken Net Atomic Charges

     Atom                 Charge (a.u.)
  ----------------------------------------
      1 C                    -0.821174
      2 C                     0.472585
      3 C                    -0.414928
      4 C                    -0.662858
      5 N                    -0.140642
      6 N                     0.060451
      7 H                     0.325129
      8 H                     0.204538
      9 H                     0.262044
     10 H                     0.184596
     11 H                     0.319085
     12 H                     0.211339
     13 C                    -0.651799
     14 C                     0.470502
     15 O                    -0.661367
     16 O                    -0.819333
     17 H                     0.236976
     18 H                     0.224683
     19 H                     0.200173
  ----------------------------------------
  Sum of atomic charges =    -1.000000

 -----------------------------------------------------------------
                    Cartesian Multipole Moments
 -----------------------------------------------------------------
    Charge (ESU x 10^10)
                -4.8032
    Dipole Moment (Debye)
         X      -2.6969      Y      12.7433      Z      12.7421
       Tot      18.2216
    Quadrupole Moments (Debye-Ang)
        XX     -60.0515     XY       6.5141     YY     -70.4945
        XZ      -0.6768     YZ     -14.3072     ZZ     -73.7727
    Octopole Moments (Debye-Ang^2)
       XXX       3.1605    XXY       1.9849    XYY      -3.1701
       YYY      95.8022    XXZ       4.7129    XYZ     -10.9919
       YYZ     100.2394    XZZ     -22.1290    YZZ     108.6984
       ZZZ     117.5053
    Hexadecapole Moments (Debye-Ang^3)
      XXXX    -375.0474   XXXY      20.3515   XXYY    -200.2762
      XYYY      54.5006   YYYY    -798.1750   XXXZ     277.6168
      XXYZ    -128.4443   XYYZ     129.0161   YYYZ    -417.6821
      XXZZ    -370.7939   XYZZ      24.1468   YYZZ    -543.8224
      XZZZ     274.1561   YZZZ    -486.0259   ZZZZ   -2107.3718
 -----------------------------------------------------------------
Archival summary:
1\1\nid00556\SP\ProcedureUnspecified\BasisUnspecified\2269(1-,1)\meili\SunSep2620:49:012021SunSep2620:49:012021\0\\#,ProcedureUnspecified,BasisUnspecified,\\-1,1\N\C,1,1.32651\H,2,1.08188,1,125.149\N,2,1.33244,1,108.925,3,177.618,0\H,4,1.01446,2,125.894,1,-176.289,0\C,4,1.37653,2,108.649,1,0.284648,0\H,6,1.08149,4,127.19,2,-178.721,0\C,6,1.36052,4,106.922,2,0.431123,0\C,8,1.49792,6,129.677,4,-178.651,0\H,9,1.08769,8,108.46,6,20.1459,0\H,9,1.08969,8,108.369,6,137.406,0\H,9,1.1,8,114.047,6,-100.287,0\O,11,2.81175,9,114.213,8,59.7854,0\C,13,1.23781,11,131.645,9,168.646,0\O,14,1.25708,13,122.698,11,-60.324,0\C,14,1.52182,13,118.713,11,122.311,0\H,16,1.09206,14,107.625,13,105.392,0\H,16,1.09215,14,110.177,13,-137.707,0\H,16,1.1,14,113.652,13,-14.3454,0\\\@

 Total job time:  30249.73s(wall), 17899.81s(cpu) 
 Sun Sep 26 20:49:04 2021

        *************************************************************
        *                                                           *
        *  Thank you very much for using Q-Chem.  Have a nice day.  *
        *                                                           *
        *************************************************************


