
Running Job 1 of 1 SSI-026PHE-036PHE-1_PCM_TZVPD.in
qchem SSI-026PHE-036PHE-1_PCM_TZVPD.in_48107.0 /tmp/qchem48107/ 0
/global/common/cori/software/qchem/5.2/exe/qcprog.exe_s SSI-026PHE-036PHE-1_PCM_TZVPD.in_48107.0 /tmp/qchem48107/
                  Welcome to Q-Chem
     A Quantum Leap Into The Future Of Chemistry


 Q-Chem 5.2, Q-Chem, Inc., Pleasanton, CA (2019)

 License issued to: National Energy Research Scientific Computing Center

 Yihan Shao,  Zhengting Gan,  E. Epifanovsky,  A. T. B. Gilbert,  M. Wormit,  
 J. Kussmann,  A. W. Lange,  A. Behn,  Jia Deng,  Xintian Feng,  D. Ghosh,  
 M. Goldey,  P. R. Horn,  L. D. Jacobson,  I. Kaliman,  T. Kus,  A. Landau,  
 Jie Liu,  E. I. Proynov,  R. M. Richard,  R. P. Steele,  E. J. Sundstrom,  
 H. L. Woodcock III,  P. M. Zimmerman,  D. Zuev,  B. Albrecht,  E. Alguire,  
 S. A. Baeppler,  D. Barton,  Z. Benda,  Y. A. Bernard,  E. J. Berquist,  
 K. B. Bravaya,  H. Burton,  D. Casanova,  Chun-Min Chang,  Yunqing Chen,  
 A. Chien,  K. D. Closser,  M. P. Coons,  S. Coriani,  S. Dasgupta,  
 A. L. Dempwolff,  M. Diedenhofen,  Hainam Do,  R. G. Edgar,  Po-Tung Fang,  
 S. Faraji,  S. Fatehi,  Qingguo Feng,  K. D. Fenk,  J. Fosso-Tande,  
 J. Gayvert,  Qinghui Ge,  A. Ghysels,  G. Gidofalvi,  J. Gomes,  
 J. Gonthier,  A. Gunina,  D. Hait,  M. W. D. Hanson-Heine,  
 P. H. P. Harbach,  A. W. Hauser,  M. F. Herbst,  J. E. Herr,  
 E. G. Hohenstein,  Z. C. Holden,  Kerwin Hui,  B. C. Huynh,  T.-C. Jagau,  
 Hyunjun Ji,  B. Kaduk,  K. Khistyaev,  Jaehoon Kim,  P. Klunzinger,  K. Koh,  
 D. Kosenkov,  L. Koulias,  T. Kowalczyk,  C. M. Krauter,  A. Kunitsa,  
 Ka Un Lao,  A. Laurent,  K. V. Lawler,  Joonho Lee,  D. Lefrancois,  
 S. Lehtola,  D. S. Levine,  Yi-Pei Li,  You-Sheng Lin,  Fenglai Liu,  
 E. Livshits,  A. Luenser,  P. Manohar,  E. Mansoor,  S. F. Manzer,  
 Shan-Ping Mao,  Yuezhi Mao,  N. Mardirossian,  A. V. Marenich,  
 T. Markovich,  L. A. Martinez-Martinez,  S. A. Maurer,  N. J. Mayhall,  
 S. C. McKenzie,  J.-M. Mewes,  P. Morgante,  A. F. Morrison,  
 J. W. Mullinax,  K. Nanda,  T. S. Nguyen-Beck,  R. Olivares-Amaya,  
 J. A. Parkhill,  Zheng Pei,  T. M. Perrine,  F. Plasser,  P. Pokhilko,  
 S. Prager,  A. Prociuk,  E. Ramos,  D. R. Rehn,  F. Rob,  M. Scheurer,  
 M. Schneider,  N. Sergueev,  S. M. Sharada,  S. Sharma,  D. W. Small,  
 T. Stauch,  T. Stein,  Yu-Chuan Su,  A. J. W. Thom,  A. Tkatchenko,  
 T. Tsuchimochi,  N. M. Tubman,  L. Vogt,  M. L. Vidal,  O. Vydrov,  
 M. A. Watson,  J. Wenzel,  M. de Wergifosse,  T. A. Wesolowski,  A. White,  
 J. Witte,  A. Yamada,  Jun Yang,  K. Yao,  S. Yeganeh,  S. R. Yost,  
 Zhi-Qiang You,  A. Zech,  Igor Ying Zhang,  Xing Zhang,  Yan Zhao,  
 Ying Zhu,  B. R. Brooks,  G. K. L. Chan,  C. J. Cramer,  M. S. Gordon,  
 W. J. Hehre,  A. Klamt,  M. W. Schmidt,  C. D. Sherrill,  D. G. Truhlar,  
 A. Aspuru-Guzik,  R. Baer,  A. T. Bell,  N. A. Besley,  Jeng-Da Chai,  
 A. E. DePrince, III,  R. A. DiStasio Jr.,  A. Dreuw,  B. D. Dunietz,  
 T. R. Furlani,  Chao-Ping Hsu,  Yousung Jung,  Jing Kong,  D. S. Lambrecht,  
 WanZhen Liang,  C. Ochsenfeld,  V. A. Rassolov,  L. V. Slipchenko,  
 J. E. Subotnik,  T. Van Voorhis,  J. M. Herbert,  A. I. Krylov,  
 P. M. W. Gill,  M. Head-Gordon

 Contributors to earlier versions of Q-Chem not listed above: 
 R. D. Adamson,  B. Austin,  J. Baker,  G. J. O. Beran,  K. Brandhorst,  
 S. T. Brown,  E. F. C. Byrd,  A. K. Chakraborty,  C.-L. Cheng,  
 Siu Hung Chien,  D. M. Chipman,  D. L. Crittenden,  H. Dachsel,  
 R. J. Doerksen,  A. D. Dutoi,  L. Fusti-Molnar,  W. A. Goddard III,  
 A. Golubeva-Zadorozhnaya,  S. R. Gwaltney,  G. Hawkins,  A. Heyden,  
 S. Hirata,  G. Kedziora,  F. J. Keil,  C. Kelley,  Jihan Kim,  R. A. King,  
 R. Z. Khaliullin,  P. P. Korambath,  W. Kurlancheek,  A. M. Lee,  M. S. Lee,  
 S. V. Levchenko,  Ching Yeh Lin,  D. Liotard,  R. C. Lochan,  I. Lotan,  
 P. E. Maslen,  N. Nair,  D. P. O'Neill,  D. Neuhauser,  E. Neuscamman,  
 C. M. Oana,  R. Olson,  B. Peters,  R. Peverati,  P. A. Pieniazek,  
 Y. M. Rhee,  J. Ritchie,  M. A. Rohrdanz,  E. Rosta,  N. J. Russ,  
 H. F. Schaefer III,  N. E. Schultz,  N. Shenvi,  A. C. Simmonett,  A. Sodt,  
 D. Stuck,  K. S. Thanthiriwatte,  V. Vanovschi,  Tao Wang,  A. Warshel,  
 C. F. Williams,  Q. Wu,  X. Xu,  W. Zhang

 Please cite Q-Chem as follows:
 Y. Shao et al., Mol. Phys. 113, 184-215 (2015)
 DOI: 10.1080/00268976.2014.952696

 Q-Chem 5.2.0 for Intel X86 EM64T Linux

 Parts of Q-Chem use Armadillo 8.300.2 (Tropical Shenanigans).
 http://arma.sourceforge.net/

 Q-Chem begins on Sun Sep 26 04:32:25 2021  

Host: cori01
0

     Scratch files written to /tmp/qchem48107//
 May1019 |scratch|qcdevops|jenkins|workspace|build_RNUM -1
Processing $rem in /global/common/cori/software/qchem/5.2/config/preferences:
	 MEM_TOTAL  96000 
NAlpha2: 100
NElect   100
Mult     1
Symmetry turned off for PCM/SM12/SMD calculation

 Q-Chem warning in module libgen/rem_setup.C, line 2803:

 Neither GIA nor STOLL is specified by user. Use STOLL as the default


Checking the input file for inconsistencies... 	...done.

--------------------------------------------------------------
User input:
--------------------------------------------------------------
$comment
SSI-026PHE-036PHE-1.pdb
$end

$molecule
0 1
--
0 1
C   -4.169455298034    0.193476034335   -0.041236967349
C   -1.881455298034    1.234476034335    0.310763032651
C   -3.115455298034    1.226476034335   -0.343236967349
C   -0.941455298034    2.201476034335    0.036763032651
C   -3.414455298034    2.269476034335   -1.211236967349
C   -1.213455298034    3.203476034335   -0.896236967349
C   -2.457455298034    3.250476034335   -1.499236967349
H   -1.558455298034    0.452476034335    0.960763032651
H    0.026544701966    2.170476034335    0.518763032651
H   -4.556455298034   -0.143523965665   -1.003236967349
H   -4.986455298034    0.676476034335    0.493763032651
H   -4.381455298034    2.310476034335   -1.695236967349
H   -0.467455298034    3.953476034335   -1.123236967349
H   -2.686455298034    4.041476034335   -2.201236967349
H   -3.810405298034   -0.687304965665    0.511313032651
--
0 1
C    3.933544701966   -3.654523965665   -0.403236967349
C    1.113544701966   -1.083523965665   -0.039236967349
C    1.954544701966   -2.100523965665   -0.601236967349
C    1.386544701966   -0.576523965665    1.253763032651
C    3.069544701966   -2.561523965665    0.116763032651
C    2.490544701966   -1.078523965665    1.953763032651
C    3.285544701966   -2.077523965665    1.418763032651
H    0.252544701966   -0.724523965665   -0.584236967349
H    1.731544701966   -2.497523965665   -1.582236967349
H    0.755544701966    0.180476034335    1.697763032651
H    2.704544701966   -0.707523965665    2.947763032651
H    3.438544701966   -4.111523965665   -1.261236967349
H    4.020544701966   -4.427523965665    0.360763032651
H    4.094544701966   -2.473523965665    2.006763032651
H    4.939054701966   -3.330716965665   -0.709996967349
$end

$rem
JOBTYPE			EDA
EDA2			1
method			wB97X-V
BASIS			def2-TZVPD
XC_GRID			000099000590
NL_GRID			1
UNRESTRICTED		FALSE
MAX_SCF_CYCLES		200
SYMMETRY		FALSE
SYM_IGNORE		TRUE
MEM_STATIC		2000
BASIS_LIN_DEP_THRESH 	6
THRESH 			14
SCF_CONVERGENCE 	8
SCF_PRINT_FRGM 		TRUE
SOLVENT_METHOD          PCM
$end

$PCM
THEORY                  CPCM
METHOD                  SWIG
SOLVER                  INVERSION
RADII                   UFF
HPOINTS                 302
HEAVYPOINTS             302
PRINTLEVEL              0
$END

$SOLVENT
DIELECTRIC              78.390000 ! water
$END
--------------------------------------------------------------
 ----------------------------------------------------------------
             Standard Nuclear Orientation (Angstroms)
    I     Atom           X                Y                Z
 ----------------------------------------------------------------
    1      C      -4.1694552980     0.1934760343    -0.0412369673
    2      C      -1.8814552980     1.2344760343     0.3107630327
    3      C      -3.1154552980     1.2264760343    -0.3432369673
    4      C      -0.9414552980     2.2014760343     0.0367630327
    5      C      -3.4144552980     2.2694760343    -1.2112369673
    6      C      -1.2134552980     3.2034760343    -0.8962369673
    7      C      -2.4574552980     3.2504760343    -1.4992369673
    8      H      -1.5584552980     0.4524760343     0.9607630327
    9      H       0.0265447020     2.1704760343     0.5187630327
   10      H      -4.5564552980    -0.1435239657    -1.0032369673
   11      H      -4.9864552980     0.6764760343     0.4937630327
   12      H      -4.3814552980     2.3104760343    -1.6952369673
   13      H      -0.4674552980     3.9534760343    -1.1232369673
   14      H      -2.6864552980     4.0414760343    -2.2012369673
   15      H      -3.8104052980    -0.6873049657     0.5113130327
   16      C       3.9335447020    -3.6545239657    -0.4032369673
   17      C       1.1135447020    -1.0835239657    -0.0392369673
   18      C       1.9545447020    -2.1005239657    -0.6012369673
   19      C       1.3865447020    -0.5765239657     1.2537630327
   20      C       3.0695447020    -2.5615239657     0.1167630327
   21      C       2.4905447020    -1.0785239657     1.9537630327
   22      C       3.2855447020    -2.0775239657     1.4187630327
   23      H       0.2525447020    -0.7245239657    -0.5842369673
   24      H       1.7315447020    -2.4975239657    -1.5822369673
   25      H       0.7555447020     0.1804760343     1.6977630327
   26      H       2.7045447020    -0.7075239657     2.9477630327
   27      H       3.4385447020    -4.1115239657    -1.2612369673
   28      H       4.0205447020    -4.4275239657     0.3607630327
   29      H       4.0945447020    -2.4735239657     2.0067630327
   30      H       4.9390547020    -3.3307169657    -0.7099969673
 ----------------------------------------------------------------
 Nuclear Repulsion Energy =         749.62032847 hartrees
 There are       50 alpha and       50 beta electrons
 Requested basis set is def2-TZVPD
 There are 262 shells and 662 basis functions

 Total QAlloc Memory Limit  96000 MB
 Mega-Array Size      1956 MB
 MEM_STATIC part      2000 MB
 Discretize the solute cavity surface with Lebedev spheres
	Using 302 Lebedev grid points for each H atom
	Using 302 Lebedev grid points for other atoms
	Atomic van der Waals radii will be scaled by 1.20
 Remove points where switching function is < 1.0e-08
 Keep 3332 surface tesserae and discard 5728 interior tesserae
 Molecular Surface Area = 326.625 Angst**2
 A cutoff of  1.0D-14 yielded  28102 shell pairs
 There are    179218 function pairs (    225478 Cartesian)
 Smallest overlap matrix eigenvalue = 4.85E-07
 Linear dependence detected in AO basis
 Tighter screening thresholds may be required for diffuse basis sets
 Use S2THRESH > 14 and THRESH = 14 in case of SCF convergence issues
 Number of orthogonalized atomic orbitals = 659
 Maximum deviation from orthogonality = 2.128E-10

 Scale SEOQF with 1.000000e-01/1.000000e-01/1.000000e-01

 Standard Electronic Orientation quadrupole field applied
 Nucleus-field energy     =     0.0000000511 hartrees

 -----------------------------------------------------------------------
  General SCF calculation program by
  Eric Jon Sundstrom, Paul Horn, Yuezhi Mao, Dmitri Zuev, Alec White,
  David Stuck, Shaama M.S., Shane Yost, Joonho Lee, David Small,
  Daniel Levine, Susi Lehtola, Hugh Burton, Evgeny Epifanovsky
 -----------------------------------------------------------------------
================================================================
                 ALMO-EDA with the EDA2 driver                  
================================================================
 The second-generation ALMO-EDA (for DFT):                      
 P. R. Horn, Y. Mao and M. Head-Gordon, PCCP, 18, 23067 (2016)  
 Decomposition of the frozen energy:                            
 P. R. Horn, Y. Mao and M. Head-Gordon, JCP, 144, 114107 (2016) 
 FERF model for polarization:                                   
 P. R. Horn and M. Head-Gordon, JCP, 143, 114111 (2015)         
Using eda2 option set 1
Option set summary: Frozen orbital wavefunction, initial wavefunction decomposition, and nDQ polarization.
--------------------------------
Printing EDA Options
--------------------------------
eda_child_super_basis      0
fragmo_guess_mode          0
child_mp                   1
child_mp_orders            232
cls_elec                   1
cls_disp                   0
scfmi_mode                 1
scfmi_occs                 0
scfmi_virts                0
frz_relax                  0
frz_relax_method           0
dc_pen_start               0
dc_pen_conv                0
dc_pen_increment           0
dc_pen_steps               0
dc_pen_thresh_factor       0
dc_pen_pre_newton_thresh   0
frz_ortho_decomp           1
frz_ortho_decomp_conv      6
frgm_method                2
scfmi_freeze_ss            0
separate_rehyb             0
plot_diff_den              0
eda_nocv                   0
eda_vct_relax              1
disp_free_x                0
disp_free_c                0
eda_bsse                   0
eda_pct_a                  0
eda_covp                   0
--------------------------------
Attempting to make child job directory: /tmp/qchem48107//Frg1/
Attempting to make child job directory: /tmp/qchem48107//Frg2/
Creating input file /tmp/qchem48107/Frg1.input
using default PutDataFrgm: nothing
calling putenv with: QCSCRATCH=/tmp/qchem48107/ 
calling putenv with: QCLOCALSCR=/tmp/qchem48107/ 
Spawning Job For Fragment 0
                  Welcome to Q-Chem
     A Quantum Leap Into The Future Of Chemistry


 Q-Chem 5.2, Q-Chem, Inc., Pleasanton, CA (2019)

 License issued to: National Energy Research Scientific Computing Center

 Yihan Shao,  Zhengting Gan,  E. Epifanovsky,  A. T. B. Gilbert,  M. Wormit,  
 J. Kussmann,  A. W. Lange,  A. Behn,  Jia Deng,  Xintian Feng,  D. Ghosh,  
 M. Goldey,  P. R. Horn,  L. D. Jacobson,  I. Kaliman,  T. Kus,  A. Landau,  
 Jie Liu,  E. I. Proynov,  R. M. Richard,  R. P. Steele,  E. J. Sundstrom,  
 H. L. Woodcock III,  P. M. Zimmerman,  D. Zuev,  B. Albrecht,  E. Alguire,  
 S. A. Baeppler,  D. Barton,  Z. Benda,  Y. A. Bernard,  E. J. Berquist,  
 K. B. Bravaya,  H. Burton,  D. Casanova,  Chun-Min Chang,  Yunqing Chen,  
 A. Chien,  K. D. Closser,  M. P. Coons,  S. Coriani,  S. Dasgupta,  
 A. L. Dempwolff,  M. Diedenhofen,  Hainam Do,  R. G. Edgar,  Po-Tung Fang,  
 S. Faraji,  S. Fatehi,  Qingguo Feng,  K. D. Fenk,  J. Fosso-Tande,  
 J. Gayvert,  Qinghui Ge,  A. Ghysels,  G. Gidofalvi,  J. Gomes,  
 J. Gonthier,  A. Gunina,  D. Hait,  M. W. D. Hanson-Heine,  
 P. H. P. Harbach,  A. W. Hauser,  M. F. Herbst,  J. E. Herr,  
 E. G. Hohenstein,  Z. C. Holden,  Kerwin Hui,  B. C. Huynh,  T.-C. Jagau,  
 Hyunjun Ji,  B. Kaduk,  K. Khistyaev,  Jaehoon Kim,  P. Klunzinger,  K. Koh,  
 D. Kosenkov,  L. Koulias,  T. Kowalczyk,  C. M. Krauter,  A. Kunitsa,  
 Ka Un Lao,  A. Laurent,  K. V. Lawler,  Joonho Lee,  D. Lefrancois,  
 S. Lehtola,  D. S. Levine,  Yi-Pei Li,  You-Sheng Lin,  Fenglai Liu,  
 E. Livshits,  A. Luenser,  P. Manohar,  E. Mansoor,  S. F. Manzer,  
 Shan-Ping Mao,  Yuezhi Mao,  N. Mardirossian,  A. V. Marenich,  
 T. Markovich,  L. A. Martinez-Martinez,  S. A. Maurer,  N. J. Mayhall,  
 S. C. McKenzie,  J.-M. Mewes,  P. Morgante,  A. F. Morrison,  
 J. W. Mullinax,  K. Nanda,  T. S. Nguyen-Beck,  R. Olivares-Amaya,  
 J. A. Parkhill,  Zheng Pei,  T. M. Perrine,  F. Plasser,  P. Pokhilko,  
 S. Prager,  A. Prociuk,  E. Ramos,  D. R. Rehn,  F. Rob,  M. Scheurer,  
 M. Schneider,  N. Sergueev,  S. M. Sharada,  S. Sharma,  D. W. Small,  
 T. Stauch,  T. Stein,  Yu-Chuan Su,  A. J. W. Thom,  A. Tkatchenko,  
 T. Tsuchimochi,  N. M. Tubman,  L. Vogt,  M. L. Vidal,  O. Vydrov,  
 M. A. Watson,  J. Wenzel,  M. de Wergifosse,  T. A. Wesolowski,  A. White,  
 J. Witte,  A. Yamada,  Jun Yang,  K. Yao,  S. Yeganeh,  S. R. Yost,  
 Zhi-Qiang You,  A. Zech,  Igor Ying Zhang,  Xing Zhang,  Yan Zhao,  
 Ying Zhu,  B. R. Brooks,  G. K. L. Chan,  C. J. Cramer,  M. S. Gordon,  
 W. J. Hehre,  A. Klamt,  M. W. Schmidt,  C. D. Sherrill,  D. G. Truhlar,  
 A. Aspuru-Guzik,  R. Baer,  A. T. Bell,  N. A. Besley,  Jeng-Da Chai,  
 A. E. DePrince, III,  R. A. DiStasio Jr.,  A. Dreuw,  B. D. Dunietz,  
 T. R. Furlani,  Chao-Ping Hsu,  Yousung Jung,  Jing Kong,  D. S. Lambrecht,  
 WanZhen Liang,  C. Ochsenfeld,  V. A. Rassolov,  L. V. Slipchenko,  
 J. E. Subotnik,  T. Van Voorhis,  J. M. Herbert,  A. I. Krylov,  
 P. M. W. Gill,  M. Head-Gordon

 Contributors to earlier versions of Q-Chem not listed above: 
 R. D. Adamson,  B. Austin,  J. Baker,  G. J. O. Beran,  K. Brandhorst,  
 S. T. Brown,  E. F. C. Byrd,  A. K. Chakraborty,  C.-L. Cheng,  
 Siu Hung Chien,  D. M. Chipman,  D. L. Crittenden,  H. Dachsel,  
 R. J. Doerksen,  A. D. Dutoi,  L. Fusti-Molnar,  W. A. Goddard III,  
 A. Golubeva-Zadorozhnaya,  S. R. Gwaltney,  G. Hawkins,  A. Heyden,  
 S. Hirata,  G. Kedziora,  F. J. Keil,  C. Kelley,  Jihan Kim,  R. A. King,  
 R. Z. Khaliullin,  P. P. Korambath,  W. Kurlancheek,  A. M. Lee,  M. S. Lee,  
 S. V. Levchenko,  Ching Yeh Lin,  D. Liotard,  R. C. Lochan,  I. Lotan,  
 P. E. Maslen,  N. Nair,  D. P. O'Neill,  D. Neuhauser,  E. Neuscamman,  
 C. M. Oana,  R. Olson,  B. Peters,  R. Peverati,  P. A. Pieniazek,  
 Y. M. Rhee,  J. Ritchie,  M. A. Rohrdanz,  E. Rosta,  N. J. Russ,  
 H. F. Schaefer III,  N. E. Schultz,  N. Shenvi,  A. C. Simmonett,  A. Sodt,  
 D. Stuck,  K. S. Thanthiriwatte,  V. Vanovschi,  Tao Wang,  A. Warshel,  
 C. F. Williams,  Q. Wu,  X. Xu,  W. Zhang

 Please cite Q-Chem as follows:
 Y. Shao et al., Mol. Phys. 113, 184-215 (2015)
 DOI: 10.1080/00268976.2014.952696

 Q-Chem 5.2.0 for Intel X86 EM64T Linux

 Parts of Q-Chem use Armadillo 8.300.2 (Tropical Shenanigans).
 http://arma.sourceforge.net/

 Q-Chem begins on Sun Sep 26 04:32:32 2021  

Host: cori01
0

     Scratch files written to /tmp/qchem48107//Frg1//
 May1019 |scratch|qcdevops|jenkins|workspace|build_RNUM -1
Processing $rem in /global/common/cori/software/qchem/5.2/config/preferences:
	 MEM_TOTAL  96000 
NAlpha2: 50
NElect   50
Mult     1
Symmetry turned off for PCM/SM12/SMD calculation

Checking the input file for inconsistencies... 	...done.

--------------------------------------------------------------
User input:
--------------------------------------------------------------
$molecule
0 1
 6	-4.1694552980	0.1934760343	-0.0412369673
 6	-1.8814552980	1.2344760343	0.3107630327
 6	-3.1154552980	1.2264760343	-0.3432369673
 6	-0.9414552980	2.2014760343	0.0367630327
 6	-3.4144552980	2.2694760343	-1.2112369673
 6	-1.2134552980	3.2034760343	-0.8962369673
 6	-2.4574552980	3.2504760343	-1.4992369673
 1	-1.5584552980	0.4524760343	0.9607630327
 1	0.0265447020	2.1704760343	0.5187630327
 1	-4.5564552980	-0.1435239657	-1.0032369673
 1	-4.9864552980	0.6764760343	0.4937630327
 1	-4.3814552980	2.3104760343	-1.6952369673
 1	-0.4674552980	3.9534760343	-1.1232369673
 1	-2.6864552980	4.0414760343	-2.2012369673
 1	-3.8104052980	-0.6873049657	0.5113130327
$end
$rem
EDA2		1
METHOD		WB97X-V
BASIS		DEF2-TZVPD
XC_GRID		000099000590
NL_GRID		1
UNRESTRICTED		FALSE
MAX_SCF_CYCLES		200
SYMMETRY		FALSE
SYM_IGNORE		TRUE
BASIS_LIN_DEP_THRESH		6
THRESH		14
SCF_CONVERGENCE		8
SCF_PRINT_FRGM		TRUE
SOLVENT_METHOD		PCM
!required keywords
JOBTYPE		SP
SYM_IGNORE		TRUE
SUBSYSTEM		TRUE
GEN_SCFMAN		TRUE
CHILD_INSTRUCTION		2
SYM_IGNORE		TRUE
SCFMI		0
RI_K 0		
PARI_K 0		
MIN_PARI_K 0		
IARI_K 0		
OCC_RI_K 0		
PURECART		1111
MEM_STATIC		2000
MEM_TOTAL		96000
GUI		0
CHILD_MP		1
CHILD_MP_ORDERS		232
FRZ_RELAX		0
FRZ_RELAX_METHOD		0
EDA_CLS_ELEC		1
EDA_CLS_DISP		0
FRZ_ORTHO_DECOMP		1
EDA2		FALSE
FRGM_METHOD		FALSE
CIS_N_ROOTS  0
LOCAL_CIS    0
CIS_RLX_DNS  1
$end
$pcm
THEORY                  CPCM
METHOD                  SWIG
SOLVER                  INVERSION
RADII                   UFF
HPOINTS                 302
HEAVYPOINTS             302
PRINTLEVEL              0
$end
$solvent
DIELECTRIC              78.390000 ! water
$end
--------------------------------------------------------------
 ----------------------------------------------------------------
             Standard Nuclear Orientation (Angstroms)
    I     Atom           X                Y                Z
 ----------------------------------------------------------------
    1      C      -4.1694552980     0.1934760343    -0.0412369673
    2      C      -1.8814552980     1.2344760343     0.3107630327
    3      C      -3.1154552980     1.2264760343    -0.3432369673
    4      C      -0.9414552980     2.2014760343     0.0367630327
    5      C      -3.4144552980     2.2694760343    -1.2112369673
    6      C      -1.2134552980     3.2034760343    -0.8962369673
    7      C      -2.4574552980     3.2504760343    -1.4992369673
    8      H      -1.5584552980     0.4524760343     0.9607630327
    9      H       0.0265447020     2.1704760343     0.5187630327
   10      H      -4.5564552980    -0.1435239657    -1.0032369673
   11      H      -4.9864552980     0.6764760343     0.4937630327
   12      H      -4.3814552980     2.3104760343    -1.6952369673
   13      H      -0.4674552980     3.9534760343    -1.1232369673
   14      H      -2.6864552980     4.0414760343    -2.2012369673
   15      H      -3.8104052980    -0.6873049657     0.5113130327
 ----------------------------------------------------------------
 Nuclear Repulsion Energy =         270.18726319 hartrees
 There are       25 alpha and       25 beta electrons
 Requested basis set is def2-TZVPD
 There are 131 shells and 331 basis functions

 Total QAlloc Memory Limit  96000 MB
 Mega-Array Size      1956 MB
 MEM_STATIC part      2000 MB
 Discretize the solute cavity surface with Lebedev spheres
	Using 302 Lebedev grid points for each H atom
	Using 302 Lebedev grid points for other atoms
	Atomic van der Waals radii will be scaled by 1.20
 Remove points where switching function is < 1.0e-08
 Keep 1795 surface tesserae and discard 2735 interior tesserae
 Molecular Surface Area = 178.192 Angst**2

                       Distance Matrix (Angstroms)
             C (  1)   C (  2)   C (  3)   C (  4)   C (  5)   C (  6)
   C (  2)  2.538214
   C (  3)  1.506389  1.396616
   C (  4)  3.802385  1.376141  2.412737
   C (  5)  2.499740  2.395370  1.389487  2.770895
   C (  6)  4.304540  2.404170  2.798561  1.395879  2.411635
   C (  7)  3.794991  2.769861  2.421957  2.399574  1.400412  1.383240
   H (  8)  2.808631  1.066936  2.173417  2.072068  3.385825  3.336986
   H (  9)  4.672103  2.135374  3.392100  1.081808  3.852685  2.146372
   H ( 10)  1.090313  3.283459  2.094989  4.432702  2.677685  4.731755
   H ( 11)  1.089497  3.160044  2.122195  4.347010  2.813513  4.749038
   H ( 12)  2.694875  3.381096  2.146093  3.852961  1.082140  3.387045
   H ( 13)  5.386384  3.383595  3.880314  2.154015  3.395351  1.081917
   H ( 14)  4.655319  3.851937  3.400063  3.382199  2.156402  2.138924
   H ( 15)  1.100002  2.730258  2.208114  4.098918  3.444780  4.885031
             C (  7)   H (  8)   H (  9)   H ( 10)   H ( 11)   H ( 12)
   H (  8)  3.832572
   H (  9)  3.377718  2.378889
   H ( 10)  4.021325  3.633251  5.354901
   H ( 11)  4.122301  3.466908  5.230949  1.760201
   H ( 12)  2.150300  4.298352  4.934760  2.555700  2.797803
   H ( 13)  2.143755  4.217859  2.473720  5.789623  5.811607  4.283226
   H ( 14)  1.082093  4.914423  4.273103  4.737756  4.886333  2.474959
   H ( 15)  4.623733  2.563666  4.784261  1.773739  1.800916  3.765853
             H ( 13)   H ( 14)
   H ( 14)  2.468560
   H ( 15)  5.948438  5.566198
 
 A cutoff of  1.0D-14 yielded   8365 shell pairs
 There are     54511 function pairs (     69467 Cartesian)
 Smallest overlap matrix eigenvalue = 5.82E-07
 Linear dependence detected in AO basis
 Tighter screening thresholds may be required for diffuse basis sets
 Use S2THRESH > 14 and THRESH = 14 in case of SCF convergence issues
 Number of orthogonalized atomic orbitals = 330
 Maximum deviation from orthogonality = 1.070E-10

 Scale SEOQF with 1.000000e-01/1.000000e-01/1.000000e-01

 Standard Electronic Orientation quadrupole field applied
 Nucleus-field energy     =     0.0000000274 hartrees
 Guess from superposition of atomic densities
 Warning:  Energy on first SCF cycle will be non-variational
 SAD guess density has 49.913408 electrons

 -----------------------------------------------------------------------
  General SCF calculation program by
  Eric Jon Sundstrom, Paul Horn, Yuezhi Mao, Dmitri Zuev, Alec White,
  David Stuck, Shaama M.S., Shane Yost, Joonho Lee, David Small,
  Daniel Levine, Susi Lehtola, Hugh Burton, Evgeny Epifanovsky
 -----------------------------------------------------------------------
 Exchange:     0.1670 Hartree-Fock + 1.0000 wB97X-V + LR-HF
 Correlation:  1.0000 wB97X-V
 Using Euler-Maclaurin-Lebedev (99,590) quadrature formula
 Nonlocal Correlation:  VV10 with C = 0.0100 and b = 6.00 and scale = 1.00000
 Grid used for NLC:  SG-1 standard quadrature
Energy prior to optimization (guess energy) = -271.516868343824
Begin Timing: Total SCF Calculation
begin iterations for algorithm: DIIS         
the SCF tolerance is set to 1.00e-08
    1    -271.5168683438      1.98e-03     00000 
    2    -271.5564226740      1.27e-03     00000 
    3    -271.5788982318      1.39e-04     00000 
    4    -271.5793125933      4.86e-05     00000 
    5    -271.5793477914      1.61e-05     00000 
    6    -271.5793524061      3.93e-06     00000 
    7    -271.5793527294      1.74e-06     00000 
    8    -271.5793527816      3.47e-07     00000 
    9    -271.5793527849      6.53e-08     00000 
   10    -271.5793527852      3.02e-08     00000 
   11    -271.5793527852      1.33e-08     00000 
   12    -271.5793527852      5.22e-09     00000 Convergence criterion met
Timing for Total SCF: 1546.00s (wall), 3068.14s (cpu)

************** Final PCM Free Energy Summary **************
 G_electrostatic  =      -0.00246072 hartree =      -1.54412624 kcal/mol
 G_cavitation     =       0.00000000 hartree =       0.00000000 kcal/mol
 G_dispersion     =       0.00000000 hartree =       0.00000000 kcal/mol
 G_repulsion      =       0.00000000 hartree =       0.00000000 kcal/mol
 --------------------------------------------------
 Non-electrostatic Free Energy =       0.00000000 hartree =       0.00000000 kcal/mol
 Total                         =      -0.00246072 hartree =      -1.54412624 kcal/mol
 --------------------------------------------------
 SCF Energy (H0 + V/2)                       =    -271.57935279 
 Solute Internal Energy (H0)                 =    -271.57689206 
 Total Free Energy (H0 + V/2 + non-elec)     =    -271.57935279 hartree
                                             = -170418.61600076 kcal/mol
***********************************************************

E_pcm = -0.0024607218
Multipole orders to be included
        2
        3
computing dipole RHS
computing quadrupole RHS
total number of RHS in solve_reponses: 8
RHS batch sizes
        8
Beginning Block Conjugate Gradient Iterations. Batch Number: 0
computing hessian-vector products by finite difference
              1      5.69e-01     00000 Conjugate Gradient Iteration
computing hessian-vector products by finite difference
              2      1.84e-01     00000 Conjugate Gradient Iteration
computing hessian-vector products by finite difference
              3      4.18e-02     00000 Conjugate Gradient Iteration
computing hessian-vector products by finite difference
              4      9.46e-03     00000 Conjugate Gradient Iteration
computing hessian-vector products by finite difference
              5      2.18e-03     00000 Conjugate Gradient Iteration
computing hessian-vector products by finite difference
              6      6.48e-04     00000 Conjugate Gradient Iteration
computing hessian-vector products by finite difference
              7      1.48e-04     00000 Conjugate Gradient Iteration
computing hessian-vector products by finite difference
              8      2.06e-05     00000 Conjugate Gradient Iteration
computing hessian-vector products by finite difference
              9      3.36e-06     00000 Conjugate Gradient Iteration
computing hessian-vector products by finite difference
             10      4.71e-07     00000 Conjugate Gradient Iteration
computing hessian-vector products by finite difference
             11      7.91e-08     00000 Conjugate Gradient Iteration
computing hessian-vector products by finite difference
             12      1.24e-08     00000 Conjugate Gradient Iteration
computing hessian-vector products by finite difference
             13      2.41e-09     00000 CG Converged
batch 0 complete
Done Calculating Responses
TESTING ORTHOGONALIZATION OF MULTIPOLE BASIS
Multipole virts passed orthogonality test
Virts Per Order
           75
          125
 
 --------------------------------------------------------------
 
                    Orbital Energies (a.u.)
 --------------------------------------------------------------
 
 Alpha MOs
 -- Occupied --
-10.2832 -10.2733 -10.2704 -10.2700 -10.2689 -10.2662 -10.2632  -0.9985
 -0.9077  -0.8804  -0.8142  -0.7292  -0.7078  -0.6305  -0.5747  -0.5670
 -0.5375  -0.5300  -0.5146  -0.4902  -0.4734  -0.4418  -0.4404  -0.3499
 -0.3373
 -- Virtual --
  0.0618   0.0639   0.0701   0.0792   0.0845   0.1043   0.1100   0.1134
  0.1359   0.1496   0.1642   0.1679   0.1822   0.1899   0.1939   0.2021
  0.2224   0.2255   0.2349   0.2399   0.2436   0.2547   0.2597   0.2716
  0.2760   0.2798   0.2872   0.2920   0.2937   0.3013   0.3051   0.3136
  0.3206   0.3246   0.3293   0.3396   0.3451   0.3541   0.3675   0.3711
  0.3733   0.3812   0.3857   0.3906   0.3926   0.3958   0.4016   0.4017
  0.4146   0.4274   0.4304   0.4387   0.4410   0.4471   0.4507   0.4570
  0.4629   0.4685   0.4788   0.4830   0.4857   0.4991   0.5086   0.5126
  0.5173   0.5252   0.5301   0.5405   0.5450   0.5495   0.5569   0.5633
  0.5719   0.5785   0.5830   0.5958   0.5978   0.6231   0.6316   0.6379
  0.6638   0.6725   0.6748   0.6810   0.6916   0.7067   0.7186   0.7205
  0.7255   0.7297   0.7421   0.7620   0.7648   0.7686   0.7692   0.7838
  0.7876   0.7949   0.7985   0.8022   0.8094   0.8209   0.8258   0.8299
  0.8304   0.8375   0.8456   0.8534   0.8591   0.8673   0.8839   0.8958
  0.9178   0.9269   0.9371   0.9469   0.9580   1.0049   1.0283   1.0381
  1.0477   1.0508   1.0699   1.0720   1.0844   1.1013   1.1023   1.1444
  1.1571   1.1779   1.2556   1.2864   1.2997   1.3255   1.3506   1.3579
  1.3780   1.4386   1.4489   1.4612   1.4693   1.4781   1.5243   1.5416
  1.5945   1.6089   1.6175   1.6260   1.6733   1.6738   1.7226   1.7709
  1.7837   1.7912   1.8042   1.8076   1.8479   1.8577   1.8790   1.9028
  1.9218   1.9268   1.9454   1.9702   1.9867   2.0018   2.0127   2.0284
  2.0331   2.0376   2.0717   2.0917   2.1097   2.1320   2.1724   2.1745
  2.2005   2.2425   2.2521   2.2563   2.2929   2.3150   2.3741   2.3964
  2.4141   2.4281   2.4689   2.5146   2.5286   2.5503   2.5784   2.5853
  2.6137   2.6369   2.6586   2.6772   2.7140   2.7171   2.7774   2.7826
  2.7901   2.8110   2.8235   2.8502   2.8567   2.8918   2.9049   2.9202
  2.9333   2.9395   2.9719   2.9803   2.9985   3.0133   3.0231   3.0538
  3.0632   3.0886   3.0989   3.1601   3.1695   3.1825   3.2058   3.2188
  3.2218   3.2494   3.2786   3.2916   3.3309   3.3516   3.3693   3.3809
  3.4163   3.4292   3.4366   3.4479   3.4567   3.4672   3.4897   3.5024
  3.5123   3.5317   3.5390   3.5435   3.5574   3.5746   3.5813   3.5972
  3.6132   3.6337   3.6573   3.7003   3.7171   3.7481   3.7550   3.7907
  3.8491   3.8969   3.9402   3.9576   3.9712   3.9909   4.0346   4.0573
  4.1223   4.2048   4.2666   4.2720   4.2869   4.3122   4.3282   4.3394
  4.3678   4.3823   4.3927   4.4099   4.4263   4.4634   4.5199   4.5485
  4.6140   4.6399   4.7435   4.7852   4.8256   4.8583   4.9103   4.9500
  5.0277   5.0471   5.1609   5.2634   5.3771   5.4022   5.4847   5.5176
  5.6634   5.8437  22.5847  22.6759  22.8896  22.9107  23.0321  23.0861
 23.4296
 --------------------------------------------------------------
 
          Ground-State Mulliken Net Atomic Charges

     Atom                 Charge (a.u.)
  ----------------------------------------
      1 C                    -0.988716
      2 C                    -0.492168
      3 C                     0.829789
      4 C                    -0.469318
      5 C                    -0.276285
      6 C                    -0.436241
      7 C                    -0.474116
      8 H                     0.297618
      9 H                     0.296527
     10 H                     0.245785
     11 H                     0.220932
     12 H                     0.340985
     13 H                     0.333699
     14 H                     0.305834
     15 H                     0.265675
  ----------------------------------------
  Sum of atomic charges =     0.000000

 -----------------------------------------------------------------
                    Cartesian Multipole Moments
 -----------------------------------------------------------------
    Charge (ESU x 10^10)
                 0.0000
    Dipole Moment (Debye)
         X      -0.3534      Y      -0.3586      Z       0.0388
       Tot       0.5050
    Quadrupole Moments (Debye-Ang)
        XX     -37.2312     XY       1.7672     YY     -42.0475
        XZ       2.2126     YZ      -3.0949     ZZ     -42.9825
    Octopole Moments (Debye-Ang^2)
       XXX     288.6016    XXY     -77.9734    XYY     111.5825
       YYY    -235.6633    XXZ      10.5837    XYZ      10.1109
       YYZ       6.2552    XZZ     103.9754    YZZ     -78.0564
       ZZZ      65.6502
    Hexadecapole Moments (Debye-Ang^3)
      XXXX   -1879.0173   XXXY     466.4054   XXYY    -558.8633
      XYYY     516.7436   YYYY   -1269.5104   XXXZ    -126.5691
      XXYZ      31.3551   XYYZ     -20.8460   YYYZ     127.9665
      XXZZ    -360.8038   XYZZ     152.7269   YYZZ    -235.7299
      XZZZ    -170.3717   YZZZ     191.5196   ZZZZ    -256.6470
 -----------------------------------------------------------------
Archival summary:
1\1\nid00559\SP\ProcedureUnspecified\BasisUnspecified\78\meili\SunSep2613:22:372021SunSep2613:22:372021\0\\#,ProcedureUnspecified,BasisUnspecified,\\0,1\C\C,1,1.38949\H,2,1.08214,1,120.009\C,1,1.39662,2,118.578,3,-177.196,0\H,4,1.06694,1,123.269,2,-177.394,0\C,4,1.37614,1,120.952,2,-4.40182,0\H,6,1.08181,4,120.156,1,-177.312,0\C,6,1.39588,4,120.291,1,0.608068,0\H,8,1.08192,6,120.231,4,-178.962,0\C,8,1.38324,6,119.407,4,2.83849,0\H,10,1.08209,8,119.866,6,178.163,0\C,1,1.50639,2,119.302,3,-2.60998,0\H,12,1.0895,1,108.61,2,-65.4354,0\H,12,1.09031,1,106.464,2,50.2949,0\H,12,1.1,1,114.923,2,170.003,0\\\@

 Total job time:  31806.81s(wall), 63037.25s(cpu) 
 Sun Sep 26 13:22:39 2021

        *************************************************************
        *                                                           *
        *  Thank you very much for using Q-Chem.  Have a nice day.  *
        *                                                           *
        *************************************************************


Done Job For Fragment 0
calling putenv with: QCSCRATCH=/global/cscratch1/sd/meili 
calling putenv with: QCLOCALSCR=/tmp 
calling putenv with: QCTHREADS=32 
Creating input file /tmp/qchem48107/Frg2.input
using default PutDataFrgm: nothing
calling putenv with: QCSCRATCH=/tmp/qchem48107/ 
calling putenv with: QCLOCALSCR=/tmp/qchem48107/ 
Spawning Job For Fragment 1
                  Welcome to Q-Chem
     A Quantum Leap Into The Future Of Chemistry


 Q-Chem 5.2, Q-Chem, Inc., Pleasanton, CA (2019)

 License issued to: National Energy Research Scientific Computing Center

 Yihan Shao,  Zhengting Gan,  E. Epifanovsky,  A. T. B. Gilbert,  M. Wormit,  
 J. Kussmann,  A. W. Lange,  A. Behn,  Jia Deng,  Xintian Feng,  D. Ghosh,  
 M. Goldey,  P. R. Horn,  L. D. Jacobson,  I. Kaliman,  T. Kus,  A. Landau,  
 Jie Liu,  E. I. Proynov,  R. M. Richard,  R. P. Steele,  E. J. Sundstrom,  
 H. L. Woodcock III,  P. M. Zimmerman,  D. Zuev,  B. Albrecht,  E. Alguire,  
 S. A. Baeppler,  D. Barton,  Z. Benda,  Y. A. Bernard,  E. J. Berquist,  
 K. B. Bravaya,  H. Burton,  D. Casanova,  Chun-Min Chang,  Yunqing Chen,  
 A. Chien,  K. D. Closser,  M. P. Coons,  S. Coriani,  S. Dasgupta,  
 A. L. Dempwolff,  M. Diedenhofen,  Hainam Do,  R. G. Edgar,  Po-Tung Fang,  
 S. Faraji,  S. Fatehi,  Qingguo Feng,  K. D. Fenk,  J. Fosso-Tande,  
 J. Gayvert,  Qinghui Ge,  A. Ghysels,  G. Gidofalvi,  J. Gomes,  
 J. Gonthier,  A. Gunina,  D. Hait,  M. W. D. Hanson-Heine,  
 P. H. P. Harbach,  A. W. Hauser,  M. F. Herbst,  J. E. Herr,  
 E. G. Hohenstein,  Z. C. Holden,  Kerwin Hui,  B. C. Huynh,  T.-C. Jagau,  
 Hyunjun Ji,  B. Kaduk,  K. Khistyaev,  Jaehoon Kim,  P. Klunzinger,  K. Koh,  
 D. Kosenkov,  L. Koulias,  T. Kowalczyk,  C. M. Krauter,  A. Kunitsa,  
 Ka Un Lao,  A. Laurent,  K. V. Lawler,  Joonho Lee,  D. Lefrancois,  
 S. Lehtola,  D. S. Levine,  Yi-Pei Li,  You-Sheng Lin,  Fenglai Liu,  
 E. Livshits,  A. Luenser,  P. Manohar,  E. Mansoor,  S. F. Manzer,  
 Shan-Ping Mao,  Yuezhi Mao,  N. Mardirossian,  A. V. Marenich,  
 T. Markovich,  L. A. Martinez-Martinez,  S. A. Maurer,  N. J. Mayhall,  
 S. C. McKenzie,  J.-M. Mewes,  P. Morgante,  A. F. Morrison,  
 J. W. Mullinax,  K. Nanda,  T. S. Nguyen-Beck,  R. Olivares-Amaya,  
 J. A. Parkhill,  Zheng Pei,  T. M. Perrine,  F. Plasser,  P. Pokhilko,  
 S. Prager,  A. Prociuk,  E. Ramos,  D. R. Rehn,  F. Rob,  M. Scheurer,  
 M. Schneider,  N. Sergueev,  S. M. Sharada,  S. Sharma,  D. W. Small,  
 T. Stauch,  T. Stein,  Yu-Chuan Su,  A. J. W. Thom,  A. Tkatchenko,  
 T. Tsuchimochi,  N. M. Tubman,  L. Vogt,  M. L. Vidal,  O. Vydrov,  
 M. A. Watson,  J. Wenzel,  M. de Wergifosse,  T. A. Wesolowski,  A. White,  
 J. Witte,  A. Yamada,  Jun Yang,  K. Yao,  S. Yeganeh,  S. R. Yost,  
 Zhi-Qiang You,  A. Zech,  Igor Ying Zhang,  Xing Zhang,  Yan Zhao,  
 Ying Zhu,  B. R. Brooks,  G. K. L. Chan,  C. J. Cramer,  M. S. Gordon,  
 W. J. Hehre,  A. Klamt,  M. W. Schmidt,  C. D. Sherrill,  D. G. Truhlar,  
 A. Aspuru-Guzik,  R. Baer,  A. T. Bell,  N. A. Besley,  Jeng-Da Chai,  
 A. E. DePrince, III,  R. A. DiStasio Jr.,  A. Dreuw,  B. D. Dunietz,  
 T. R. Furlani,  Chao-Ping Hsu,  Yousung Jung,  Jing Kong,  D. S. Lambrecht,  
 WanZhen Liang,  C. Ochsenfeld,  V. A. Rassolov,  L. V. Slipchenko,  
 J. E. Subotnik,  T. Van Voorhis,  J. M. Herbert,  A. I. Krylov,  
 P. M. W. Gill,  M. Head-Gordon

 Contributors to earlier versions of Q-Chem not listed above: 
 R. D. Adamson,  B. Austin,  J. Baker,  G. J. O. Beran,  K. Brandhorst,  
 S. T. Brown,  E. F. C. Byrd,  A. K. Chakraborty,  C.-L. Cheng,  
 Siu Hung Chien,  D. M. Chipman,  D. L. Crittenden,  H. Dachsel,  
 R. J. Doerksen,  A. D. Dutoi,  L. Fusti-Molnar,  W. A. Goddard III,  
 A. Golubeva-Zadorozhnaya,  S. R. Gwaltney,  G. Hawkins,  A. Heyden,  
 S. Hirata,  G. Kedziora,  F. J. Keil,  C. Kelley,  Jihan Kim,  R. A. King,  
 R. Z. Khaliullin,  P. P. Korambath,  W. Kurlancheek,  A. M. Lee,  M. S. Lee,  
 S. V. Levchenko,  Ching Yeh Lin,  D. Liotard,  R. C. Lochan,  I. Lotan,  
 P. E. Maslen,  N. Nair,  D. P. O'Neill,  D. Neuhauser,  E. Neuscamman,  
 C. M. Oana,  R. Olson,  B. Peters,  R. Peverati,  P. A. Pieniazek,  
 Y. M. Rhee,  J. Ritchie,  M. A. Rohrdanz,  E. Rosta,  N. J. Russ,  
 H. F. Schaefer III,  N. E. Schultz,  N. Shenvi,  A. C. Simmonett,  A. Sodt,  
 D. Stuck,  K. S. Thanthiriwatte,  V. Vanovschi,  Tao Wang,  A. Warshel,  
 C. F. Williams,  Q. Wu,  X. Xu,  W. Zhang

 Please cite Q-Chem as follows:
 Y. Shao et al., Mol. Phys. 113, 184-215 (2015)
 DOI: 10.1080/00268976.2014.952696

 Q-Chem 5.2.0 for Intel X86 EM64T Linux

 Parts of Q-Chem use Armadillo 8.300.2 (Tropical Shenanigans).
 http://arma.sourceforge.net/

 Q-Chem begins on Sun Sep 26 13:22:42 2021  

Host: cori01
0

     Scratch files written to /tmp/qchem48107//Frg2//
 May1019 |scratch|qcdevops|jenkins|workspace|build_RNUM -1
Processing $rem in /global/common/cori/software/qchem/5.2/config/preferences:
	 MEM_TOTAL  96000 
NAlpha2: 50
NElect   50
Mult     1
Symmetry turned off for PCM/SM12/SMD calculation

Checking the input file for inconsistencies... 	...done.

--------------------------------------------------------------
User input:
--------------------------------------------------------------
$molecule
0 1
 6	3.9335447020	-3.6545239657	-0.4032369673
 6	1.1135447020	-1.0835239657	-0.0392369673
 6	1.9545447020	-2.1005239657	-0.6012369673
 6	1.3865447020	-0.5765239657	1.2537630327
 6	3.0695447020	-2.5615239657	0.1167630327
 6	2.4905447020	-1.0785239657	1.9537630327
 6	3.2855447020	-2.0775239657	1.4187630327
 1	0.2525447020	-0.7245239657	-0.5842369673
 1	1.7315447020	-2.4975239657	-1.5822369673
 1	0.7555447020	0.1804760343	1.6977630327
 1	2.7045447020	-0.7075239657	2.9477630327
 1	3.4385447020	-4.1115239657	-1.2612369673
 1	4.0205447020	-4.4275239657	0.3607630327
 1	4.0945447020	-2.4735239657	2.0067630327
 1	4.9390547020	-3.3307169657	-0.7099969673
$end
$rem
EDA2		1
METHOD		WB97X-V
BASIS		DEF2-TZVPD
XC_GRID		000099000590
NL_GRID		1
UNRESTRICTED		FALSE
MAX_SCF_CYCLES		200
SYMMETRY		FALSE
SYM_IGNORE		TRUE
BASIS_LIN_DEP_THRESH		6
THRESH		14
SCF_CONVERGENCE		8
SCF_PRINT_FRGM		TRUE
SOLVENT_METHOD		PCM
!required keywords
JOBTYPE		SP
SYM_IGNORE		TRUE
SUBSYSTEM		TRUE
GEN_SCFMAN		TRUE
CHILD_INSTRUCTION		2
SYM_IGNORE		TRUE
SCFMI		0
RI_K 0		
PARI_K 0		
MIN_PARI_K 0		
IARI_K 0		
OCC_RI_K 0		
PURECART		1111
MEM_STATIC		2000
MEM_TOTAL		96000
GUI		0
CHILD_MP		1
CHILD_MP_ORDERS		232
FRZ_RELAX		0
FRZ_RELAX_METHOD		0
EDA_CLS_ELEC		1
EDA_CLS_DISP		0
FRZ_ORTHO_DECOMP		1
EDA2		FALSE
FRGM_METHOD		FALSE
CIS_N_ROOTS  0
LOCAL_CIS    0
CIS_RLX_DNS  1
$end
$pcm
THEORY                  CPCM
METHOD                  SWIG
SOLVER                  INVERSION
RADII                   UFF
HPOINTS                 302
HEAVYPOINTS             302
PRINTLEVEL              0
$end
$solvent
DIELECTRIC              78.390000 ! water
$end
--------------------------------------------------------------
 ----------------------------------------------------------------
             Standard Nuclear Orientation (Angstroms)
    I     Atom           X                Y                Z
 ----------------------------------------------------------------
    1      C       3.9335447020    -3.6545239657    -0.4032369673
    2      C       1.1135447020    -1.0835239657    -0.0392369673
    3      C       1.9545447020    -2.1005239657    -0.6012369673
    4      C       1.3865447020    -0.5765239657     1.2537630327
    5      C       3.0695447020    -2.5615239657     0.1167630327
    6      C       2.4905447020    -1.0785239657     1.9537630327
    7      C       3.2855447020    -2.0775239657     1.4187630327
    8      H       0.2525447020    -0.7245239657    -0.5842369673
    9      H       1.7315447020    -2.4975239657    -1.5822369673
   10      H       0.7555447020     0.1804760343     1.6977630327
   11      H       2.7045447020    -0.7075239657     2.9477630327
   12      H       3.4385447020    -4.1115239657    -1.2612369673
   13      H       4.0205447020    -4.4275239657     0.3607630327
   14      H       4.0945447020    -2.4735239657     2.0067630327
   15      H       4.9390547020    -3.3307169657    -0.7099969673
 ----------------------------------------------------------------
 Nuclear Repulsion Energy =         268.30388837 hartrees
 There are       25 alpha and       25 beta electrons
 Requested basis set is def2-TZVPD
 There are 131 shells and 331 basis functions

 Total QAlloc Memory Limit  96000 MB
 Mega-Array Size      1956 MB
 MEM_STATIC part      2000 MB
 Discretize the solute cavity surface with Lebedev spheres
	Using 302 Lebedev grid points for each H atom
	Using 302 Lebedev grid points for other atoms
	Atomic van der Waals radii will be scaled by 1.20
 Remove points where switching function is < 1.0e-08
 Keep 1807 surface tesserae and discard 2723 interior tesserae
 Molecular Surface Area = 178.755 Angst**2

                       Distance Matrix (Angstroms)
             C (  1)   C (  2)   C (  3)   C (  4)   C (  5)   C (  6)
   C (  2)  3.833398
   C (  3)  2.523997  1.434369
   C (  4)  4.325152  1.415425  2.467028
   C (  5)  1.487126  2.456574  1.404019  2.839979
   C (  6)  3.778025  2.422437  2.803534  1.400293  2.430864
   C (  7)  2.495299  2.798461  2.419192  2.426196  1.405744  1.384287
   H (  8)  4.708229  1.080383  2.188714  2.164741  3.435325  3.402265
   H (  9)  2.752725  2.182239  1.081526  3.442697  2.163548  3.884963
   H ( 10)  5.405655  2.177850  3.453399  1.080901  3.920806  2.158898
   H ( 11)  4.628655  3.405118  3.885660  2.150330  3.403689  1.082346
   H ( 12)  1.090889  4.008453  2.584952  4.799183  2.106548  4.520400
   H ( 13)  1.090318  4.448931  3.257104  4.750327  2.108529  4.011776
   H ( 14)  2.688639  3.873574  3.394170  3.391000  2.151852  2.126417
   H ( 15)  1.100001  4.487128  3.229939  4.905330  2.184092  4.261830
             C (  7)   H (  8)   H (  9)   H ( 10)   H ( 11)   H ( 12)
   H (  8)  3.878364
   H (  9)  3.405483  2.515348
   H ( 10)  3.402544  2.505905  4.345418
   H ( 11)  2.133612  4.299723  4.967064  2.479848
   H ( 12)  3.367932  4.699010  2.371052  5.863057  5.462751
   H ( 13)  2.679942  5.366848  3.569267  5.803573  4.718350  1.751989
   H ( 14)  1.075658  4.953105  4.297123  4.276461  2.436460  3.713920
   H ( 15)  2.972576  5.363901  3.426826  5.968881  5.025275  1.779060
             H ( 13)   H ( 14)
   H ( 14)  2.555955
   H ( 15)  1.786945  2.971323
 
 A cutoff of  1.0D-14 yielded   8360 shell pairs
 There are     54498 function pairs (     69450 Cartesian)
 Smallest overlap matrix eigenvalue = 7.42E-07
 Linear dependence detected in AO basis
 Tighter screening thresholds may be required for diffuse basis sets
 Use S2THRESH > 14 and THRESH = 14 in case of SCF convergence issues
 Number of orthogonalized atomic orbitals = 330
 Maximum deviation from orthogonality = 9.506E-11

 Scale SEOQF with 1.000000e-01/1.000000e-01/1.000000e-01

 Standard Electronic Orientation quadrupole field applied
 Nucleus-field energy     =     0.0000000238 hartrees
 Guess from superposition of atomic densities
 Warning:  Energy on first SCF cycle will be non-variational
 SAD guess density has 49.913408 electrons

 -----------------------------------------------------------------------
  General SCF calculation program by
  Eric Jon Sundstrom, Paul Horn, Yuezhi Mao, Dmitri Zuev, Alec White,
  David Stuck, Shaama M.S., Shane Yost, Joonho Lee, David Small,
  Daniel Levine, Susi Lehtola, Hugh Burton, Evgeny Epifanovsky
 -----------------------------------------------------------------------
 Exchange:     0.1670 Hartree-Fock + 1.0000 wB97X-V + LR-HF
 Correlation:  1.0000 wB97X-V
 Using Euler-Maclaurin-Lebedev (99,590) quadrature formula
 Nonlocal Correlation:  VV10 with C = 0.0100 and b = 6.00 and scale = 1.00000
 Grid used for NLC:  SG-1 standard quadrature
Energy prior to optimization (guess energy) = -271.519127818398
Begin Timing: Total SCF Calculation
begin iterations for algorithm: DIIS         
the SCF tolerance is set to 1.00e-08
    1    -271.5191278184      1.91e-03     00000 
    2    -271.5572452636      1.21e-03     00000 
    3    -271.5778906764      1.42e-04     00000 
    4    -271.5783148251      6.08e-05     00000 
    5    -271.5783663115      2.08e-05     00000 
    6    -271.5783737696      5.29e-06     00000 
    7    -271.5783743291      1.98e-06     00000 
    8    -271.5783744131      3.88e-07     00000 
    9    -271.5783744204      1.71e-07     00000 
   10    -271.5783744220      1.01e-07     00000 
   11    -271.5783744226      3.52e-08     00000 
   12    -271.5783744228      6.38e-09     00000 Convergence criterion met
Timing for Total SCF: 1511.00s (wall), 3000.08s (cpu)

************** Final PCM Free Energy Summary **************
 G_electrostatic  =      -0.00266779 hartree =      -1.67406614 kcal/mol
 G_cavitation     =       0.00000000 hartree =       0.00000000 kcal/mol
 G_dispersion     =       0.00000000 hartree =       0.00000000 kcal/mol
 G_repulsion      =       0.00000000 hartree =       0.00000000 kcal/mol
 --------------------------------------------------
 Non-electrostatic Free Energy =       0.00000000 hartree =       0.00000000 kcal/mol
 Total                         =      -0.00266779 hartree =      -1.67406614 kcal/mol
 --------------------------------------------------
 SCF Energy (H0 + V/2)                       =    -271.57837442 
 Solute Internal Energy (H0)                 =    -271.57570663 
 Total Free Energy (H0 + V/2 + non-elec)     =    -271.57837442 hartree
                                             = -170418.00206907 kcal/mol
***********************************************************

E_pcm = -0.0026677942
Multipole orders to be included
        2
        3
computing dipole RHS
computing quadrupole RHS
total number of RHS in solve_reponses: 8
RHS batch sizes
        8
Beginning Block Conjugate Gradient Iterations. Batch Number: 0
computing hessian-vector products by finite difference
              1      5.69e-01     00000 Conjugate Gradient Iteration
computing hessian-vector products by finite difference
              2      1.86e-01     00000 Conjugate Gradient Iteration
computing hessian-vector products by finite difference
              3      4.39e-02     00000 Conjugate Gradient Iteration
computing hessian-vector products by finite difference
              4      1.00e-02     00000 Conjugate Gradient Iteration
computing hessian-vector products by finite difference
              5      2.46e-03     00000 Conjugate Gradient Iteration
computing hessian-vector products by finite difference
              6      7.30e-04     00000 Conjugate Gradient Iteration
computing hessian-vector products by finite difference
              7      1.62e-04     00000 Conjugate Gradient Iteration
computing hessian-vector products by finite difference
              8      2.54e-05     00000 Conjugate Gradient Iteration
computing hessian-vector products by finite difference
              9      3.95e-06     00000 Conjugate Gradient Iteration
computing hessian-vector products by finite difference
             10      6.16e-07     00000 Conjugate Gradient Iteration
computing hessian-vector products by finite difference
             11      7.93e-08     00000 Conjugate Gradient Iteration
computing hessian-vector products by finite difference
             12      1.61e-08     00000 Conjugate Gradient Iteration
computing hessian-vector products by finite difference
             13      4.90e-09     00000 CG Converged
batch 0 complete
Done Calculating Responses
TESTING ORTHOGONALIZATION OF MULTIPOLE BASIS
Multipole virts passed orthogonality test
Virts Per Order
           75
          125
 
 --------------------------------------------------------------
 
                    Orbital Energies (a.u.)
 --------------------------------------------------------------
 
 Alpha MOs
 -- Occupied --
-10.2849 -10.2819 -10.2775 -10.2758 -10.2741 -10.2698 -10.2621  -0.9923
 -0.9080  -0.8755  -0.8134  -0.7302  -0.7047  -0.6283  -0.5719  -0.5712
 -0.5373  -0.5280  -0.5172  -0.4867  -0.4696  -0.4448  -0.4407  -0.3468
 -0.3368
 -- Virtual --
  0.0581   0.0631   0.0663   0.0793   0.0845   0.1042   0.1100   0.1131
  0.1336   0.1509   0.1664   0.1710   0.1787   0.1869   0.1939   0.2014
  0.2209   0.2250   0.2298   0.2350   0.2458   0.2559   0.2586   0.2639
  0.2768   0.2792   0.2855   0.2930   0.2950   0.2978   0.3025   0.3114
  0.3171   0.3246   0.3326   0.3425   0.3470   0.3516   0.3675   0.3718
  0.3729   0.3812   0.3837   0.3882   0.3899   0.3965   0.3987   0.4022
  0.4130   0.4254   0.4287   0.4321   0.4376   0.4456   0.4503   0.4546
  0.4659   0.4708   0.4739   0.4842   0.4924   0.4938   0.5060   0.5116
  0.5158   0.5218   0.5316   0.5386   0.5427   0.5488   0.5511   0.5661
  0.5752   0.5759   0.5883   0.5968   0.5996   0.6170   0.6333   0.6443
  0.6494   0.6618   0.6686   0.6791   0.6889   0.6957   0.7163   0.7218
  0.7270   0.7348   0.7409   0.7526   0.7607   0.7646   0.7778   0.7805
  0.7856   0.7888   0.7971   0.8009   0.8057   0.8191   0.8231   0.8248
  0.8316   0.8360   0.8407   0.8513   0.8613   0.8717   0.8772   0.8940
  0.9057   0.9163   0.9303   0.9342   0.9558   1.0058   1.0165   1.0314
  1.0414   1.0554   1.0638   1.0741   1.0845   1.0962   1.1053   1.1375
  1.1602   1.1634   1.2554   1.2773   1.3033   1.3275   1.3494   1.3530
  1.3719   1.4336   1.4370   1.4548   1.4713   1.4735   1.5185   1.5259
  1.5981   1.6036   1.6098   1.6225   1.6516   1.6897   1.7292   1.7649
  1.7753   1.7860   1.7937   1.8039   1.8285   1.8536   1.8589   1.9049
  1.9130   1.9271   1.9312   1.9668   1.9850   1.9856   2.0094   2.0243
  2.0263   2.0399   2.0662   2.0857   2.1121   2.1200   2.1679   2.1787
  2.1975   2.2293   2.2459   2.2793   2.2895   2.3072   2.3776   2.3819
  2.3929   2.4169   2.4520   2.5035   2.5285   2.5515   2.5533   2.6049
  2.6225   2.6285   2.6690   2.6718   2.6870   2.7013   2.7400   2.7537
  2.7695   2.7965   2.8041   2.8388   2.8472   2.8896   2.8968   2.9131
  2.9239   2.9423   2.9571   2.9676   2.9858   3.0141   3.0285   3.0397
  3.0538   3.0785   3.0986   3.1261   3.1587   3.1839   3.1915   3.1985
  3.2304   3.2493   3.2707   3.2832   3.3347   3.3543   3.3594   3.3724
  3.4037   3.4176   3.4379   3.4456   3.4494   3.4627   3.4773   3.4796
  3.4933   3.5165   3.5330   3.5382   3.5514   3.5569   3.5727   3.5960
  3.6122   3.6298   3.6486   3.6775   3.6910   3.7355   3.7503   3.7953
  3.8444   3.8910   3.9074   3.9173   3.9325   4.0002   4.0163   4.0292
  4.1131   4.1826   4.2394   4.2474   4.2702   4.2919   4.3018   4.3169
  4.3238   4.3513   4.3644   4.3805   4.3976   4.4228   4.4663   4.5166
  4.5692   4.6191   4.7404   4.7613   4.8043   4.8476   4.9120   4.9271
  4.9914   5.0317   5.1560   5.2412   5.3147   5.3411   5.4731   5.5035
  5.6259   5.8259  22.5833  22.6897  22.8336  22.8493  22.9573  23.0348
 23.3592
 --------------------------------------------------------------
 
          Ground-State Mulliken Net Atomic Charges

     Atom                 Charge (a.u.)
  ----------------------------------------
      1 C                    -1.024444
      2 C                    -0.505256
      3 C                    -0.451473
      4 C                    -0.502949
      5 C                     0.913995
      6 C                    -0.430803
      7 C                    -0.313681
      8 H                     0.321140
      9 H                     0.290077
     10 H                     0.322562
     11 H                     0.314476
     12 H                     0.275158
     13 H                     0.244733
     14 H                     0.322027
     15 H                     0.224435
  ----------------------------------------
  Sum of atomic charges =     0.000000

 -----------------------------------------------------------------
                    Cartesian Multipole Moments
 -----------------------------------------------------------------
    Charge (ESU x 10^10)
                -0.0000
    Dipole Moment (Debye)
         X       0.2734      Y      -0.4636      Z      -0.0820
       Tot       0.5444
    Quadrupole Moments (Debye-Ang)
        XX     -39.5084     XY      -5.2835     YY     -40.4144
        XZ       1.7480     YZ       2.3444     ZZ     -39.6705
    Octopole Moments (Debye-Ang^2)
       XXX    -300.8601    XXY      58.0781    XYY     -88.7090
       YYY     236.8139    XXZ     -13.4487    XYZ      -1.0919
       YYZ     -27.5523    XZZ     -97.1933    YZZ      79.8696
       ZZZ     -58.5160
    Hexadecapole Moments (Debye-Ang^3)
      XXXX   -1840.9368   XXXY     634.3665   XXYY    -462.2085
      XYYY     678.4348   YYYY   -1266.4833   XXXZ    -125.9423
      XXYZ      -3.4484   XYYZ     -51.3738   YYYZ      56.7570
      XXZZ    -355.1298   XYZZ     231.2822   YYZZ    -274.6950
      XZZZ    -129.4038   YZZZ      50.1647   ZZZZ    -363.1452
 -----------------------------------------------------------------
Archival summary:
1\1\nid00559\SP\ProcedureUnspecified\BasisUnspecified\78\meili\SunSep2621:37:172021SunSep2621:37:172021\0\\#,ProcedureUnspecified,BasisUnspecified,\\0,1\C\C,1,1.40402\H,2,1.08153,1,120.469\C,1,1.40574,2,118.857,3,-176.477,0\H,4,1.07566,1,119.677,2,175.647,0\C,4,1.38429,1,121.211,2,-5.6055,0\H,6,1.08235,4,119.259,1,-178.072,0\C,6,1.40029,4,121.218,1,4.37619,0\H,8,1.0809,6,120.396,4,177.967,0\C,8,1.41542,6,118.706,4,-1.78744,0\H,10,1.08038,8,119.703,6,178.566,0\C,1,1.48713,2,121.594,3,-3.45402,0\H,12,1.09032,1,108.809,2,-127.03,0\H,12,1.09089,1,108.62,2,-11.028,0\H,12,1.1,1,114.345,2,110.415,0\\\@

 Total job time:  29678.43s(wall), 58772.75s(cpu) 
 Sun Sep 26 21:37:21 2021

        *************************************************************
        *                                                           *
        *  Thank you very much for using Q-Chem.  Have a nice day.  *
        *                                                           *
        *************************************************************


Done Job For Fragment 1
calling putenv with: QCSCRATCH=/global/cscratch1/sd/meili 
calling putenv with: QCLOCALSCR=/tmp 
calling putenv with: QCTHREADS=32 
Doing General SCFMI
 Exchange:     0.1670 Hartree-Fock + 1.0000 wB97X-V + LR-HF
 Correlation:  1.0000 wB97X-V
 Using Euler-Maclaurin-Lebedev (99,590) quadrature formula
 Nonlocal Correlation:  VV10 with C = 0.0100 and b = 6.00 and scale = 1.00000
 Grid used for NLC:  SG-1 standard quadrature
performing fock build before subrot guess so that all methods have access
Printing subrot_rss_gen Method Specification:
Occupied Subspace Method is 0
Virtual Subspace Method is 0
Energy of the unrelaxed supersystem initial determinant -543.154512490583
performing fock build before subrot guess so that all methods have access
Printing subrot_rss_gen Method Specification:
Occupied Subspace Method is 0
Virtual Subspace Method is 0
Energy of the unrelaxed supersystem initial determinant w/ solvent -543.159132354200
write pseudocanon occs and virts to disk
write pseudocanon orbital energies to disk
Tolerance of ortho_decomp_scf: 1.00e-06
GDM subspace size: 20
Beginning the Orthogonal Decomposition of the Initial Supersystem Wavefunction
    1    -543.1429109738      1.43e-02     ortho_decomp Preconditoned Steepest Descent
    2    -543.1438029734      3.38e-04     ortho_decomp BFGS Step
    3    -543.1438054178      2.44e-05     ortho_decomp BFGS Step
    4    -543.1438054224      9.82e-07     ortho_decomp 00000 Convergence criterion met
 Hartree-Fock
 Hartree-Fock
 Hartree-Fock
Doing General SCFMI
 Exchange:     0.1670 Hartree-Fock + 1.0000 wB97X-V + LR-HF
 Correlation:  1.0000 wB97X-V
 Using Euler-Maclaurin-Lebedev (99,590) quadrature formula
 Nonlocal Correlation:  VV10 with C = 0.0100 and b = 6.00 and scale = 1.00000
 Grid used for NLC:  SG-1 standard quadrature
performing fock build at end of subrot_r(subrot) constructor so that all methods have access
<S^2> of initial wavefunction before polarization iterations 0.0000000000
Beginning iterations for the determination of the polarized wavefunction
Energy prior to optimization (guess energy) = -543.159132354201
Begin Timing: Total SCF Calculation
begin iterations for algorithm: DIIS         
the SCF tolerance is set to 1.00e-08
    1    -543.1591323542      4.20e-05     00000 
    2    -543.1593450722      1.43e-05     00000 
    3    -543.1593653223      7.18e-06     00000 
    4    -543.1593700985      2.66e-06     00000 
    5    -543.1593710033      1.12e-06     00000 
    6    -543.1593711614      4.70e-07     00000 
    7    -543.1593711793      1.40e-07     00000 
    8    -543.1593711808      5.48e-08     00000 
    9    -543.1593711810      2.10e-08     00000 
   10    -543.1593711810      8.36e-09     00000 Convergence criterion met
write pseudocanon occs and virts to disk
write pseudocanon orbital energies to disk
Timing for Total SCF: 8022.00s (wall), 15965.94s (cpu)
<S^2> of polarized wavefunction after polarization iterations 0.0000000000
relaxing scfmi constraint to allow all rotations in the entire AO span
Doing General SCFMI
 Exchange:     0.1670 Hartree-Fock + 1.0000 wB97X-V + LR-HF
 Correlation:  1.0000 wB97X-V
 Using Euler-Maclaurin-Lebedev (99,590) quadrature formula
 Nonlocal Correlation:  VV10 with C = 0.0100 and b = 6.00 and scale = 1.00000
 Grid used for NLC:  SG-1 standard quadrature
performing fock build at end of subrot_r(subrot) constructor so that all methods have access
<S^2> of polarized wavefunction before ct-allowed iterations 0.0000000000
Beginning iterations for the determination of the CT-Allowed wavefunction
Energy prior to optimization (guess energy) = -543.159371181036
Begin Timing: Total SCF Calculation
begin iterations for algorithm: DIIS         
the SCF tolerance is set to 1.00e-08
    1    -543.1593711810      5.13e-05     00000 
    2    -543.1598923224      4.84e-06     00000 
    3    -543.1599048431      6.85e-07     00000 
    4    -543.1599051651      1.92e-07     00000 
    5    -543.1599051757      8.95e-08     00000 
    6    -543.1599051784      1.80e-08     00000 
    7    -543.1599051785      7.31e-09     00000 Convergence criterion met
write pseudocanon occs and virts to disk
write pseudocanon orbital energies to disk
Timing for Total SCF: 5247.00s (wall), 10447.79s (cpu)
<S^2> of ct_allowed wavefunction after ct-allowed iterations 0.0000000000

================================
        Results of EDA2         
================================
Basic EDA Quantities
--------------------
Fragment Energies (Ha):
1 -271.5793527852
2 -271.5783744228
--------------------
  E_prp (kJ/mol) = 0.0000
  E_sol (kJ/mol) = 1.3355
  E_frz (kJ/mol) = -5.0247
  E_pol (kJ/mol) = -0.6270
  E_vct (kJ/mol) = -1.4020
  E_int (kJ/mol) = -5.7183
--------------------


Initial Wavefunction Decomposition
--------------------
  --------------------
  Orthogonal Fragment Subspace Decomposition:
  --------------------
     E_elec   (ELEC)   (kJ/mol) = -11.3210
     E_pauli  (PAULI)  (kJ/mol) = 17.5627
     E_disp   (DISP)   (kJ/mol) = -11.2665
     --------------------
     Terms summing to E_pauli:
     --------------------
        E_kep_pauli       (kJ/mol) = 23.0870
        E_disp_free_pauli (kJ/mol) = -5.5243
  --------------------
  Classical Frozen Decomposition:
  --------------------
     E_cls_elec  (CLS ELEC)  (kJ/mol) = -3.9289
     E_cls_pauli (CLS PAULI) (kJ/mol) = -1.0959
    [E_mod_pauli (MOD PAULI) (kJ/mol) = 10.1706 (CLS PAULI - DISP from orthogonal decomposition) ]
  --------------------
--------------------

Simplified EDA Summary (kJ/mol)
--------------------
 PREPARATION     0.0000
 SOLVATION       1.3355
 FROZEN          6.2417      (does not include dispersion)
[PAULI           17.5627]     (if this is negligible, then frozen describes electrostatics)
 DISPERSION      -11.2665
 POLARIZATION    -0.6270
 CHARGE TRANSFER -1.4020
 TOTAL           -5.7183     (PRP + SOL + FRZ + DISP + POL + CT)
--------------------
 
 --------------------------------------------------------------
 
                    Orbital Energies (a.u.)
 --------------------------------------------------------------
 
 Alpha MOs
 -- Occupied --
-10.2856 -10.2844 -10.2826 -10.2781 -10.2774 -10.2751 -10.2742 -10.2719
-10.2708 -10.2704 -10.2700 -10.2678 -10.2636 -10.2623  -0.9997  -0.9930
 -0.9090  -0.9085  -0.8819  -0.8760  -0.8151  -0.8141  -0.7313  -0.7302
 -0.7095  -0.7053  -0.6345  -0.6269  -0.5760  -0.5727  -0.5723  -0.5681
 -0.5384  -0.5376  -0.5331  -0.5284  -0.5163  -0.5153  -0.4908  -0.4872
 -0.4744  -0.4704  -0.4462  -0.4428  -0.4417  -0.4407  -0.3510  -0.3474
 -0.3387  -0.3370
 -- Virtual --
  0.0540   0.0566   0.0614   0.0654   0.0669   0.0696   0.0763   0.0794
  0.0855   0.0961   0.1018   0.1058   0.1080   0.1146   0.1246   0.1275
  0.1357   0.1499   0.1514   0.1592   0.1618   0.1700   0.1744   0.1749
  0.1826   0.1893   0.1921   0.1945   0.2029   0.2062   0.2137   0.2184
  0.2209   0.2258   0.2309   0.2324   0.2364   0.2400   0.2469   0.2502
  0.2522   0.2575   0.2636   0.2684   0.2705   0.2730   0.2738   0.2784
  0.2821   0.2832   0.2863   0.2878   0.2942   0.2964   0.2989   0.3040
  0.3071   0.3088   0.3117   0.3205   0.3218   0.3279   0.3293   0.3330
  0.3351   0.3374   0.3440   0.3454   0.3486   0.3519   0.3540   0.3582
  0.3641   0.3680   0.3704   0.3715   0.3740   0.3755   0.3773   0.3815
  0.3847   0.3867   0.3898   0.3941   0.3960   0.3996   0.4036   0.4059
  0.4101   0.4142   0.4148   0.4187   0.4239   0.4274   0.4299   0.4340
  0.4359   0.4378   0.4441   0.4470   0.4531   0.4550   0.4575   0.4590
  0.4630   0.4694   0.4708   0.4732   0.4779   0.4821   0.4849   0.4889
  0.4911   0.4951   0.4979   0.4991   0.5010   0.5037   0.5040   0.5127
  0.5170   0.5179   0.5225   0.5255   0.5320   0.5323   0.5354   0.5405
  0.5472   0.5488   0.5543   0.5550   0.5575   0.5636   0.5666   0.5725
  0.5756   0.5817   0.5835   0.5873   0.5929   0.5959   0.6012   0.6082
  0.6141   0.6203   0.6246   0.6249   0.6343   0.6349   0.6459   0.6474
  0.6489   0.6592   0.6624   0.6665   0.6733   0.6788   0.6895   0.6937
  0.6958   0.7005   0.7018   0.7067   0.7087   0.7195   0.7243   0.7266
  0.7311   0.7338   0.7374   0.7435   0.7455   0.7468   0.7503   0.7565
  0.7593   0.7620   0.7713   0.7735   0.7768   0.7802   0.7809   0.7824
  0.7872   0.7966   0.8008   0.8015   0.8040   0.8067   0.8083   0.8133
  0.8139   0.8182   0.8204   0.8228   0.8280   0.8305   0.8344   0.8378
  0.8400   0.8431   0.8465   0.8506   0.8524   0.8595   0.8613   0.8655
  0.8733   0.8841   0.8863   0.8897   0.8973   0.9024   0.9063   0.9086
  0.9113   0.9192   0.9215   0.9276   0.9366   0.9398   0.9476   0.9507
  0.9607   0.9704   0.9801   0.9858   0.9931   1.0060   1.0156   1.0178
  1.0268   1.0327   1.0405   1.0430   1.0480   1.0553   1.0635   1.0712
  1.0763   1.0834   1.0933   1.0943   1.1067   1.1110   1.1125   1.1222
  1.1297   1.1367   1.1556   1.1587   1.1636   1.1710   1.1846   1.1916
  1.2251   1.2269   1.2521   1.2815   1.2893   1.3015   1.3104   1.3225
  1.3424   1.3515   1.3560   1.3665   1.3737   1.3845   1.3903   1.3978
  1.4164   1.4480   1.4566   1.4642   1.4663   1.4695   1.4739   1.4819
  1.4960   1.5181   1.5230   1.5350   1.5490   1.5515   1.5547   1.6046
  1.6156   1.6195   1.6308   1.6349   1.6420   1.6465   1.6590   1.6779
  1.6833   1.6900   1.7115   1.7332   1.7562   1.7669   1.7778   1.7873
  1.7925   1.7989   1.8056   1.8186   1.8222   1.8242   1.8585   1.8592
  1.8723   1.8790   1.8882   1.8997   1.9113   1.9245   1.9277   1.9336
  1.9464   1.9536   1.9565   1.9650   1.9685   1.9823   1.9909   1.9997
  2.0064   2.0188   2.0332   2.0340   2.0434   2.0514   2.0551   2.0595
  2.0679   2.0780   2.0915   2.1008   2.1043   2.1205   2.1416   2.1478
  2.1495   2.1758   2.1875   2.1909   2.1945   2.2088   2.2155   2.2302
  2.2371   2.2538   2.2581   2.2627   2.2724   2.2801   2.2945   2.3144
  2.3230   2.3325   2.3442   2.3886   2.3968   2.4026   2.4106   2.4159
  2.4311   2.4371   2.4467   2.4735   2.4778   2.5251   2.5334   2.5446
  2.5460   2.5623   2.5703   2.5759   2.5934   2.6078   2.6214   2.6264
  2.6353   2.6484   2.6646   2.6693   2.6829   2.6890   2.6987   2.7108
  2.7288   2.7333   2.7408   2.7480   2.7632   2.7795   2.7917   2.7980
  2.8026   2.8071   2.8107   2.8196   2.8349   2.8550   2.8595   2.8636
  2.8673   2.8965   2.9070   2.9117   2.9230   2.9289   2.9310   2.9434
  2.9439   2.9494   2.9590   2.9749   2.9880   2.9900   3.0031   3.0066
  3.0109   3.0203   3.0273   3.0411   3.0476   3.0627   3.0734   3.0760
  3.0835   3.0889   3.1060   3.1134   3.1216   3.1388   3.1693   3.1769
  3.1846   3.1943   3.2045   3.2123   3.2165   3.2276   3.2424   3.2484
  3.2573   3.2638   3.2682   3.2877   3.2998   3.3100   3.3184   3.3433
  3.3483   3.3604   3.3623   3.3733   3.3813   3.3925   3.4032   3.4167
  3.4294   3.4341   3.4359   3.4419   3.4474   3.4563   3.4618   3.4641
  3.4686   3.4821   3.4848   3.4958   3.5032   3.5104   3.5158   3.5225
  3.5342   3.5403   3.5485   3.5489   3.5573   3.5614   3.5623   3.5714
  3.5740   3.5845   3.5855   3.5960   3.6036   3.6082   3.6235   3.6238
  3.6283   3.6384   3.6435   3.6531   3.6788   3.6802   3.6903   3.7092
  3.7163   3.7314   3.7570   3.7597   3.7627   3.8021   3.8095   3.8499
  3.8554   3.8957   3.9067   3.9195   3.9279   3.9394   3.9504   3.9637
  3.9801   3.9956   4.0091   4.0251   4.0383   4.0474   4.0883   4.1284
  4.1384   4.2045   4.2111   4.2529   4.2539   4.2757   4.2797   4.2910
  4.2985   4.2993   4.3125   4.3189   4.3266   4.3317   4.3427   4.3499
  4.3599   4.3683   4.3766   4.3870   4.3957   4.4074   4.4103   4.4171
  4.4395   4.4523   4.4703   4.4868   4.5279   4.5377   4.5547   4.5777
  4.6233   4.6282   4.6504   4.7417   4.7488   4.7660   4.7918   4.8066
  4.8304   4.8528   4.8622   4.9162   4.9304   4.9480   4.9666   5.0262
  5.0414   5.0522   5.0546   5.1689   5.1788   5.2510   5.2736   5.3281
  5.3449   5.3850   5.4052   5.4792   5.4885   5.5019   5.5234   5.6391
  5.6740   5.8132   5.8555  22.6469  22.6790  22.6867  22.7051  22.8678
 22.8875  22.9072  22.9364  22.9641  23.0431  23.0545  23.1118  23.3675
 23.4403
 --------------------------------------------------------------
 
          Ground-State Mulliken Net Atomic Charges

     Atom                 Charge (a.u.)
  ----------------------------------------
      1 C                    -1.075256
      2 C                    -0.204444
      3 C                     0.584752
      4 C                    -0.243130
      5 C                    -0.367026
      6 C                    -0.643163
      7 C                    -0.481299
      8 H                     0.365407
      9 H                     0.280209
     10 H                     0.258605
     11 H                     0.246605
     12 H                     0.346025
     13 H                     0.347476
     14 H                     0.322917
     15 H                     0.265968
     16 C                    -1.107204
     17 C                    -0.051414
     18 C                    -0.683750
     19 C                    -0.185056
     20 C                     0.603675
     21 C                    -0.611259
     22 C                    -0.395500
     23 H                     0.415389
     24 H                     0.303033
     25 H                     0.276217
     26 H                     0.333146
     27 H                     0.272495
     28 H                     0.254722
     29 H                     0.341805
     30 H                     0.230056
  ----------------------------------------
  Sum of atomic charges =     0.000000

 -----------------------------------------------------------------
                    Cartesian Multipole Moments
 -----------------------------------------------------------------
    Charge (ESU x 10^10)
                -0.0000
    Dipole Moment (Debye)
         X      -0.0877      Y      -0.8243      Z      -0.1244
       Tot       0.8383
    Quadrupole Moments (Debye-Ang)
        XX     -76.1498     XY      -3.8844     YY     -82.0445
        XZ       4.1080     YZ      -0.9009     ZZ     -82.5854
    Octopole Moments (Debye-Ang^2)
       XXX     -12.8183    XXY     -19.8967    XYY      22.7389
       YYY       1.7198    XXZ      -2.9942    XYZ       9.2127
       YYZ     -21.7254    XZZ       6.8014    YZZ       1.8498
       ZZZ       6.9428
    Hexadecapole Moments (Debye-Ang^3)
      XXXX   -3708.7521   XXXY    1095.7902   XXYY   -1016.9164
      XYYY    1190.8739   YYYY   -2529.3119   XXXZ    -250.7475
      XXYZ      26.8396   XYYZ     -71.2019   YYYZ     183.1384
      XXZZ    -714.3751   XYZZ     383.0099   YYZZ    -509.4049
      XZZZ    -298.7370   YZZZ     240.8728   ZZZZ    -619.0072
 -----------------------------------------------------------------
Archival summary:
1\1\nid00559\SP\ProcedureUnspecified\BasisUnspecified\1416\meili\MonSep2704:24:272021MonSep2704:24:272021\0\\#,ProcedureUnspecified,BasisUnspecified,\\0,1\C\H,1,1.06694\C,1,1.37614,2,115.438\H,3,1.08181,1,120.156,2,-3.79776,0\C,3,1.39588,1,120.291,2,174.122,0\H,5,1.08192,3,120.231,1,-178.962,0\C,5,1.38324,3,119.407,1,2.83849,0\H,7,1.08209,5,119.866,3,178.163,0\C,1,1.39662,2,123.269,3,173.347,0\C,9,1.38949,1,118.578,2,-177.394,0\H,10,1.08214,9,120.009,1,-177.196,0\C,9,1.50639,1,121.888,2,8.16704,0\H,12,1.0895,9,108.61,1,108.964,0\H,12,1.09031,9,106.464,1,-135.305,0\H,12,1.1,9,114.923,1,-15.5971,0\H,4,2.4252,3,120.603,1,13.4518,0\C,16,1.0809,4,123.398,3,96.3263,0\C,17,1.40029,16,120.396,4,133.497,0\H,18,1.08235,17,119.478,16,0.420582,0\C,18,1.38429,17,121.218,16,177.967,0\H,20,1.07566,18,119.101,17,-176.869,0\C,20,1.40574,18,121.211,17,4.37619,0\C,22,1.40402,20,118.857,18,-5.6055,0\H,23,1.08153,22,120.469,20,-176.477,0\C,17,1.41542,16,120.898,4,-46.7545,0\H,25,1.08038,17,119.703,16,-1.1873,0\C,22,1.48713,20,119.186,18,-178.799,0\H,27,1.09032,22,108.809,20,45.9705,0\H,27,1.09089,22,108.62,20,161.972,0\H,27,1.1,22,114.345,20,-76.5847,0\\\@

 Total job time:  85925.54s(wall), 48652.07s(cpu) 
 Mon Sep 27 04:24:30 2021

        *************************************************************
        *                                                           *
        *  Thank you very much for using Q-Chem.  Have a nice day.  *
        *                                                           *
        *************************************************************


