
Running Job 1 of 1 SSI-043TYR-048GLN-1_PCM_TZVPD.in
qchem SSI-043TYR-048GLN-1_PCM_TZVPD.in_20364.0 /tmp/qchem20364/ 0
/global/common/cori/software/qchem/5.2/exe/qcprog.exe_s SSI-043TYR-048GLN-1_PCM_TZVPD.in_20364.0 /tmp/qchem20364/
                  Welcome to Q-Chem
     A Quantum Leap Into The Future Of Chemistry


 Q-Chem 5.2, Q-Chem, Inc., Pleasanton, CA (2019)

 License issued to: National Energy Research Scientific Computing Center

 Yihan Shao,  Zhengting Gan,  E. Epifanovsky,  A. T. B. Gilbert,  M. Wormit,  
 J. Kussmann,  A. W. Lange,  A. Behn,  Jia Deng,  Xintian Feng,  D. Ghosh,  
 M. Goldey,  P. R. Horn,  L. D. Jacobson,  I. Kaliman,  T. Kus,  A. Landau,  
 Jie Liu,  E. I. Proynov,  R. M. Richard,  R. P. Steele,  E. J. Sundstrom,  
 H. L. Woodcock III,  P. M. Zimmerman,  D. Zuev,  B. Albrecht,  E. Alguire,  
 S. A. Baeppler,  D. Barton,  Z. Benda,  Y. A. Bernard,  E. J. Berquist,  
 K. B. Bravaya,  H. Burton,  D. Casanova,  Chun-Min Chang,  Yunqing Chen,  
 A. Chien,  K. D. Closser,  M. P. Coons,  S. Coriani,  S. Dasgupta,  
 A. L. Dempwolff,  M. Diedenhofen,  Hainam Do,  R. G. Edgar,  Po-Tung Fang,  
 S. Faraji,  S. Fatehi,  Qingguo Feng,  K. D. Fenk,  J. Fosso-Tande,  
 J. Gayvert,  Qinghui Ge,  A. Ghysels,  G. Gidofalvi,  J. Gomes,  
 J. Gonthier,  A. Gunina,  D. Hait,  M. W. D. Hanson-Heine,  
 P. H. P. Harbach,  A. W. Hauser,  M. F. Herbst,  J. E. Herr,  
 E. G. Hohenstein,  Z. C. Holden,  Kerwin Hui,  B. C. Huynh,  T.-C. Jagau,  
 Hyunjun Ji,  B. Kaduk,  K. Khistyaev,  Jaehoon Kim,  P. Klunzinger,  K. Koh,  
 D. Kosenkov,  L. Koulias,  T. Kowalczyk,  C. M. Krauter,  A. Kunitsa,  
 Ka Un Lao,  A. Laurent,  K. V. Lawler,  Joonho Lee,  D. Lefrancois,  
 S. Lehtola,  D. S. Levine,  Yi-Pei Li,  You-Sheng Lin,  Fenglai Liu,  
 E. Livshits,  A. Luenser,  P. Manohar,  E. Mansoor,  S. F. Manzer,  
 Shan-Ping Mao,  Yuezhi Mao,  N. Mardirossian,  A. V. Marenich,  
 T. Markovich,  L. A. Martinez-Martinez,  S. A. Maurer,  N. J. Mayhall,  
 S. C. McKenzie,  J.-M. Mewes,  P. Morgante,  A. F. Morrison,  
 J. W. Mullinax,  K. Nanda,  T. S. Nguyen-Beck,  R. Olivares-Amaya,  
 J. A. Parkhill,  Zheng Pei,  T. M. Perrine,  F. Plasser,  P. Pokhilko,  
 S. Prager,  A. Prociuk,  E. Ramos,  D. R. Rehn,  F. Rob,  M. Scheurer,  
 M. Schneider,  N. Sergueev,  S. M. Sharada,  S. Sharma,  D. W. Small,  
 T. Stauch,  T. Stein,  Yu-Chuan Su,  A. J. W. Thom,  A. Tkatchenko,  
 T. Tsuchimochi,  N. M. Tubman,  L. Vogt,  M. L. Vidal,  O. Vydrov,  
 M. A. Watson,  J. Wenzel,  M. de Wergifosse,  T. A. Wesolowski,  A. White,  
 J. Witte,  A. Yamada,  Jun Yang,  K. Yao,  S. Yeganeh,  S. R. Yost,  
 Zhi-Qiang You,  A. Zech,  Igor Ying Zhang,  Xing Zhang,  Yan Zhao,  
 Ying Zhu,  B. R. Brooks,  G. K. L. Chan,  C. J. Cramer,  M. S. Gordon,  
 W. J. Hehre,  A. Klamt,  M. W. Schmidt,  C. D. Sherrill,  D. G. Truhlar,  
 A. Aspuru-Guzik,  R. Baer,  A. T. Bell,  N. A. Besley,  Jeng-Da Chai,  
 A. E. DePrince, III,  R. A. DiStasio Jr.,  A. Dreuw,  B. D. Dunietz,  
 T. R. Furlani,  Chao-Ping Hsu,  Yousung Jung,  Jing Kong,  D. S. Lambrecht,  
 WanZhen Liang,  C. Ochsenfeld,  V. A. Rassolov,  L. V. Slipchenko,  
 J. E. Subotnik,  T. Van Voorhis,  J. M. Herbert,  A. I. Krylov,  
 P. M. W. Gill,  M. Head-Gordon

 Contributors to earlier versions of Q-Chem not listed above: 
 R. D. Adamson,  B. Austin,  J. Baker,  G. J. O. Beran,  K. Brandhorst,  
 S. T. Brown,  E. F. C. Byrd,  A. K. Chakraborty,  C.-L. Cheng,  
 Siu Hung Chien,  D. M. Chipman,  D. L. Crittenden,  H. Dachsel,  
 R. J. Doerksen,  A. D. Dutoi,  L. Fusti-Molnar,  W. A. Goddard III,  
 A. Golubeva-Zadorozhnaya,  S. R. Gwaltney,  G. Hawkins,  A. Heyden,  
 S. Hirata,  G. Kedziora,  F. J. Keil,  C. Kelley,  Jihan Kim,  R. A. King,  
 R. Z. Khaliullin,  P. P. Korambath,  W. Kurlancheek,  A. M. Lee,  M. S. Lee,  
 S. V. Levchenko,  Ching Yeh Lin,  D. Liotard,  R. C. Lochan,  I. Lotan,  
 P. E. Maslen,  N. Nair,  D. P. O'Neill,  D. Neuhauser,  E. Neuscamman,  
 C. M. Oana,  R. Olson,  B. Peters,  R. Peverati,  P. A. Pieniazek,  
 Y. M. Rhee,  J. Ritchie,  M. A. Rohrdanz,  E. Rosta,  N. J. Russ,  
 H. F. Schaefer III,  N. E. Schultz,  N. Shenvi,  A. C. Simmonett,  A. Sodt,  
 D. Stuck,  K. S. Thanthiriwatte,  V. Vanovschi,  Tao Wang,  A. Warshel,  
 C. F. Williams,  Q. Wu,  X. Xu,  W. Zhang

 Please cite Q-Chem as follows:
 Y. Shao et al., Mol. Phys. 113, 184-215 (2015)
 DOI: 10.1080/00268976.2014.952696

 Q-Chem 5.2.0 for Intel X86 EM64T Linux

 Parts of Q-Chem use Armadillo 8.300.2 (Tropical Shenanigans).
 http://arma.sourceforge.net/

 Q-Chem begins on Sun Sep 26 07:33:24 2021  

Host: cori01
0

     Scratch files written to /tmp/qchem20364//
 May1019 |scratch|qcdevops|jenkins|workspace|build_RNUM -1
Processing $rem in /global/common/cori/software/qchem/5.2/config/preferences:
	 MEM_TOTAL  96000 
NAlpha2: 90
NElect   90
Mult     1
Symmetry turned off for PCM/SM12/SMD calculation

 Q-Chem warning in module libgen/rem_setup.C, line 2803:

 Neither GIA nor STOLL is specified by user. Use STOLL as the default


Checking the input file for inconsistencies... 	...done.

--------------------------------------------------------------
User input:
--------------------------------------------------------------
$comment
SSI-043TYR-048GLN-1.pdb
$end

$molecule
0 1
--
0 1
C   -2.546791877137   -0.842340828145   -1.235996369278
C   -0.105791877137   -0.738340828145   -0.594996369278
C   -1.377791877137   -1.276340828145   -0.380996369278
C    0.956208122863   -1.057340828145    0.252003630722
C   -1.566791877137   -2.149340828145    0.693003630722
C    0.750208122863   -1.924340828145    1.323003630722
C   -0.510791877137   -2.475340828145    1.545003630722
O    1.777208122863   -2.212340828145    2.170003630722
H    0.056208122863   -0.054340828145   -1.417996369278
H    1.930208122863   -0.619340828145    0.093003630722
H   -3.397791877137   -1.504340828145   -1.064996369278
H   -2.262791877137   -0.922340828145   -2.286996369278
H   -2.549791877137   -2.561340828145    0.886003630722
H   -0.673791877137   -3.139340828145    2.382003630722
H    1.436208122863   -2.637340828145    2.975003630722
H   -2.838891877137    0.194799171855   -1.014576369278
--
0 1
C   -0.398791877137    3.480659171855   -1.880996369278
C    0.625208122863    2.893659171855   -0.914996369278
O    1.654208122863    2.376659171855   -1.347996369278
N    0.358208122863    2.930659171855    0.382003630722
H   -0.923791877137    2.646659171855   -2.343996369278
H    0.124208122863    4.004659171855   -2.678996369278
H    1.030208122863    2.500659171855    1.005003630722
H   -0.501791877137    3.315659171855    0.761003630722
H   -1.152011877137    4.136319171855   -1.419736369278
$end

$rem
JOBTYPE			EDA
EDA2			1
method			wB97X-V
BASIS			def2-TZVPD
XC_GRID			000099000590
NL_GRID			1
UNRESTRICTED		FALSE
MAX_SCF_CYCLES		200
SYMMETRY		FALSE
SYM_IGNORE		TRUE
MEM_STATIC		2000
BASIS_LIN_DEP_THRESH 	6
THRESH 			14
SCF_CONVERGENCE 	8
SCF_PRINT_FRGM 		TRUE
SOLVENT_METHOD          PCM
$end

$PCM
THEORY                  CPCM
METHOD                  SWIG
SOLVER                  INVERSION
RADII                   UFF
HPOINTS                 302
HEAVYPOINTS             302
PRINTLEVEL              0
$END

$SOLVENT
DIELECTRIC              78.390000 ! water
$END
--------------------------------------------------------------
 ----------------------------------------------------------------
             Standard Nuclear Orientation (Angstroms)
    I     Atom           X                Y                Z
 ----------------------------------------------------------------
    1      C      -2.5467918771    -0.8423408281    -1.2359963693
    2      C      -0.1057918771    -0.7383408281    -0.5949963693
    3      C      -1.3777918771    -1.2763408281    -0.3809963693
    4      C       0.9562081229    -1.0573408281     0.2520036307
    5      C      -1.5667918771    -2.1493408281     0.6930036307
    6      C       0.7502081229    -1.9243408281     1.3230036307
    7      C      -0.5107918771    -2.4753408281     1.5450036307
    8      O       1.7772081229    -2.2123408281     2.1700036307
    9      H       0.0562081229    -0.0543408281    -1.4179963693
   10      H       1.9302081229    -0.6193408281     0.0930036307
   11      H      -3.3977918771    -1.5043408281    -1.0649963693
   12      H      -2.2627918771    -0.9223408281    -2.2869963693
   13      H      -2.5497918771    -2.5613408281     0.8860036307
   14      H      -0.6737918771    -3.1393408281     2.3820036307
   15      H       1.4362081229    -2.6373408281     2.9750036307
   16      H      -2.8388918771     0.1947991719    -1.0145763693
   17      C      -0.3987918771     3.4806591719    -1.8809963693
   18      C       0.6252081229     2.8936591719    -0.9149963693
   19      O       1.6542081229     2.3766591719    -1.3479963693
   20      N       0.3582081229     2.9306591719     0.3820036307
   21      H      -0.9237918771     2.6466591719    -2.3439963693
   22      H       0.1242081229     4.0046591719    -2.6789963693
   23      H       1.0302081229     2.5006591719     1.0050036307
   24      H      -0.5017918771     3.3156591719     0.7610036307
   25      H      -1.1520118771     4.1363191719    -1.4197363693
 ----------------------------------------------------------------
 Nuclear Repulsion Energy =         656.74615361 hartrees
 There are       45 alpha and       45 beta electrons
 Requested basis set is def2-TZVPD
 There are 223 shells and 567 basis functions

 Total QAlloc Memory Limit  96000 MB
 Mega-Array Size      1956 MB
 MEM_STATIC part      2000 MB
 Discretize the solute cavity surface with Lebedev spheres
	Using 302 Lebedev grid points for each H atom
	Using 302 Lebedev grid points for other atoms
	Atomic van der Waals radii will be scaled by 1.20
 Remove points where switching function is < 1.0e-08
 Keep 2867 surface tesserae and discard 4683 interior tesserae
 Molecular Surface Area = 290.979 Angst**2
 A cutoff of  1.0D-14 yielded  21774 shell pairs
 There are    141326 function pairs (    178302 Cartesian)
 Smallest overlap matrix eigenvalue = 4.85E-07
 Linear dependence detected in AO basis
 Tighter screening thresholds may be required for diffuse basis sets
 Use S2THRESH > 14 and THRESH = 14 in case of SCF convergence issues
 Number of orthogonalized atomic orbitals = 566
 Maximum deviation from orthogonality = 3.223E-10

 Scale SEOQF with 1.000000e-01/1.000000e-01/1.000000e-01

 Standard Electronic Orientation quadrupole field applied
 Nucleus-field energy     =     0.0000000218 hartrees

 -----------------------------------------------------------------------
  General SCF calculation program by
  Eric Jon Sundstrom, Paul Horn, Yuezhi Mao, Dmitri Zuev, Alec White,
  David Stuck, Shaama M.S., Shane Yost, Joonho Lee, David Small,
  Daniel Levine, Susi Lehtola, Hugh Burton, Evgeny Epifanovsky
 -----------------------------------------------------------------------
================================================================
                 ALMO-EDA with the EDA2 driver                  
================================================================
 The second-generation ALMO-EDA (for DFT):                      
 P. R. Horn, Y. Mao and M. Head-Gordon, PCCP, 18, 23067 (2016)  
 Decomposition of the frozen energy:                            
 P. R. Horn, Y. Mao and M. Head-Gordon, JCP, 144, 114107 (2016) 
 FERF model for polarization:                                   
 P. R. Horn and M. Head-Gordon, JCP, 143, 114111 (2015)         
Using eda2 option set 1
Option set summary: Frozen orbital wavefunction, initial wavefunction decomposition, and nDQ polarization.
--------------------------------
Printing EDA Options
--------------------------------
eda_child_super_basis      0
fragmo_guess_mode          0
child_mp                   1
child_mp_orders            232
cls_elec                   1
cls_disp                   0
scfmi_mode                 1
scfmi_occs                 0
scfmi_virts                0
frz_relax                  0
frz_relax_method           0
dc_pen_start               0
dc_pen_conv                0
dc_pen_increment           0
dc_pen_steps               0
dc_pen_thresh_factor       0
dc_pen_pre_newton_thresh   0
frz_ortho_decomp           1
frz_ortho_decomp_conv      6
frgm_method                2
scfmi_freeze_ss            0
separate_rehyb             0
plot_diff_den              0
eda_nocv                   0
eda_vct_relax              1
disp_free_x                0
disp_free_c                0
eda_bsse                   0
eda_pct_a                  0
eda_covp                   0
--------------------------------
Attempting to make child job directory: /tmp/qchem20364//Frg1/
Attempting to make child job directory: /tmp/qchem20364//Frg2/
Creating input file /tmp/qchem20364/Frg1.input
using default PutDataFrgm: nothing
calling putenv with: QCSCRATCH=/tmp/qchem20364/ 
calling putenv with: QCLOCALSCR=/tmp/qchem20364/ 
Spawning Job For Fragment 0
                  Welcome to Q-Chem
     A Quantum Leap Into The Future Of Chemistry


 Q-Chem 5.2, Q-Chem, Inc., Pleasanton, CA (2019)

 License issued to: National Energy Research Scientific Computing Center

 Yihan Shao,  Zhengting Gan,  E. Epifanovsky,  A. T. B. Gilbert,  M. Wormit,  
 J. Kussmann,  A. W. Lange,  A. Behn,  Jia Deng,  Xintian Feng,  D. Ghosh,  
 M. Goldey,  P. R. Horn,  L. D. Jacobson,  I. Kaliman,  T. Kus,  A. Landau,  
 Jie Liu,  E. I. Proynov,  R. M. Richard,  R. P. Steele,  E. J. Sundstrom,  
 H. L. Woodcock III,  P. M. Zimmerman,  D. Zuev,  B. Albrecht,  E. Alguire,  
 S. A. Baeppler,  D. Barton,  Z. Benda,  Y. A. Bernard,  E. J. Berquist,  
 K. B. Bravaya,  H. Burton,  D. Casanova,  Chun-Min Chang,  Yunqing Chen,  
 A. Chien,  K. D. Closser,  M. P. Coons,  S. Coriani,  S. Dasgupta,  
 A. L. Dempwolff,  M. Diedenhofen,  Hainam Do,  R. G. Edgar,  Po-Tung Fang,  
 S. Faraji,  S. Fatehi,  Qingguo Feng,  K. D. Fenk,  J. Fosso-Tande,  
 J. Gayvert,  Qinghui Ge,  A. Ghysels,  G. Gidofalvi,  J. Gomes,  
 J. Gonthier,  A. Gunina,  D. Hait,  M. W. D. Hanson-Heine,  
 P. H. P. Harbach,  A. W. Hauser,  M. F. Herbst,  J. E. Herr,  
 E. G. Hohenstein,  Z. C. Holden,  Kerwin Hui,  B. C. Huynh,  T.-C. Jagau,  
 Hyunjun Ji,  B. Kaduk,  K. Khistyaev,  Jaehoon Kim,  P. Klunzinger,  K. Koh,  
 D. Kosenkov,  L. Koulias,  T. Kowalczyk,  C. M. Krauter,  A. Kunitsa,  
 Ka Un Lao,  A. Laurent,  K. V. Lawler,  Joonho Lee,  D. Lefrancois,  
 S. Lehtola,  D. S. Levine,  Yi-Pei Li,  You-Sheng Lin,  Fenglai Liu,  
 E. Livshits,  A. Luenser,  P. Manohar,  E. Mansoor,  S. F. Manzer,  
 Shan-Ping Mao,  Yuezhi Mao,  N. Mardirossian,  A. V. Marenich,  
 T. Markovich,  L. A. Martinez-Martinez,  S. A. Maurer,  N. J. Mayhall,  
 S. C. McKenzie,  J.-M. Mewes,  P. Morgante,  A. F. Morrison,  
 J. W. Mullinax,  K. Nanda,  T. S. Nguyen-Beck,  R. Olivares-Amaya,  
 J. A. Parkhill,  Zheng Pei,  T. M. Perrine,  F. Plasser,  P. Pokhilko,  
 S. Prager,  A. Prociuk,  E. Ramos,  D. R. Rehn,  F. Rob,  M. Scheurer,  
 M. Schneider,  N. Sergueev,  S. M. Sharada,  S. Sharma,  D. W. Small,  
 T. Stauch,  T. Stein,  Yu-Chuan Su,  A. J. W. Thom,  A. Tkatchenko,  
 T. Tsuchimochi,  N. M. Tubman,  L. Vogt,  M. L. Vidal,  O. Vydrov,  
 M. A. Watson,  J. Wenzel,  M. de Wergifosse,  T. A. Wesolowski,  A. White,  
 J. Witte,  A. Yamada,  Jun Yang,  K. Yao,  S. Yeganeh,  S. R. Yost,  
 Zhi-Qiang You,  A. Zech,  Igor Ying Zhang,  Xing Zhang,  Yan Zhao,  
 Ying Zhu,  B. R. Brooks,  G. K. L. Chan,  C. J. Cramer,  M. S. Gordon,  
 W. J. Hehre,  A. Klamt,  M. W. Schmidt,  C. D. Sherrill,  D. G. Truhlar,  
 A. Aspuru-Guzik,  R. Baer,  A. T. Bell,  N. A. Besley,  Jeng-Da Chai,  
 A. E. DePrince, III,  R. A. DiStasio Jr.,  A. Dreuw,  B. D. Dunietz,  
 T. R. Furlani,  Chao-Ping Hsu,  Yousung Jung,  Jing Kong,  D. S. Lambrecht,  
 WanZhen Liang,  C. Ochsenfeld,  V. A. Rassolov,  L. V. Slipchenko,  
 J. E. Subotnik,  T. Van Voorhis,  J. M. Herbert,  A. I. Krylov,  
 P. M. W. Gill,  M. Head-Gordon

 Contributors to earlier versions of Q-Chem not listed above: 
 R. D. Adamson,  B. Austin,  J. Baker,  G. J. O. Beran,  K. Brandhorst,  
 S. T. Brown,  E. F. C. Byrd,  A. K. Chakraborty,  C.-L. Cheng,  
 Siu Hung Chien,  D. M. Chipman,  D. L. Crittenden,  H. Dachsel,  
 R. J. Doerksen,  A. D. Dutoi,  L. Fusti-Molnar,  W. A. Goddard III,  
 A. Golubeva-Zadorozhnaya,  S. R. Gwaltney,  G. Hawkins,  A. Heyden,  
 S. Hirata,  G. Kedziora,  F. J. Keil,  C. Kelley,  Jihan Kim,  R. A. King,  
 R. Z. Khaliullin,  P. P. Korambath,  W. Kurlancheek,  A. M. Lee,  M. S. Lee,  
 S. V. Levchenko,  Ching Yeh Lin,  D. Liotard,  R. C. Lochan,  I. Lotan,  
 P. E. Maslen,  N. Nair,  D. P. O'Neill,  D. Neuhauser,  E. Neuscamman,  
 C. M. Oana,  R. Olson,  B. Peters,  R. Peverati,  P. A. Pieniazek,  
 Y. M. Rhee,  J. Ritchie,  M. A. Rohrdanz,  E. Rosta,  N. J. Russ,  
 H. F. Schaefer III,  N. E. Schultz,  N. Shenvi,  A. C. Simmonett,  A. Sodt,  
 D. Stuck,  K. S. Thanthiriwatte,  V. Vanovschi,  Tao Wang,  A. Warshel,  
 C. F. Williams,  Q. Wu,  X. Xu,  W. Zhang

 Please cite Q-Chem as follows:
 Y. Shao et al., Mol. Phys. 113, 184-215 (2015)
 DOI: 10.1080/00268976.2014.952696

 Q-Chem 5.2.0 for Intel X86 EM64T Linux

 Parts of Q-Chem use Armadillo 8.300.2 (Tropical Shenanigans).
 http://arma.sourceforge.net/

 Q-Chem begins on Sun Sep 26 07:33:29 2021  

Host: cori01
0

     Scratch files written to /tmp/qchem20364//Frg1//
 May1019 |scratch|qcdevops|jenkins|workspace|build_RNUM -1
Processing $rem in /global/common/cori/software/qchem/5.2/config/preferences:
	 MEM_TOTAL  96000 
NAlpha2: 58
NElect   58
Mult     1
Symmetry turned off for PCM/SM12/SMD calculation

Checking the input file for inconsistencies... 	...done.

--------------------------------------------------------------
User input:
--------------------------------------------------------------
$molecule
0 1
 6	-2.5467918771	-0.8423408281	-1.2359963693
 6	-0.1057918771	-0.7383408281	-0.5949963693
 6	-1.3777918771	-1.2763408281	-0.3809963693
 6	0.9562081229	-1.0573408281	0.2520036307
 6	-1.5667918771	-2.1493408281	0.6930036307
 6	0.7502081229	-1.9243408281	1.3230036307
 6	-0.5107918771	-2.4753408281	1.5450036307
 8	1.7772081229	-2.2123408281	2.1700036307
 1	0.0562081229	-0.0543408281	-1.4179963693
 1	1.9302081229	-0.6193408281	0.0930036307
 1	-3.3977918771	-1.5043408281	-1.0649963693
 1	-2.2627918771	-0.9223408281	-2.2869963693
 1	-2.5497918771	-2.5613408281	0.8860036307
 1	-0.6737918771	-3.1393408281	2.3820036307
 1	1.4362081229	-2.6373408281	2.9750036307
 1	-2.8388918771	0.1947991719	-1.0145763693
$end
$rem
EDA2		1
METHOD		WB97X-V
BASIS		DEF2-TZVPD
XC_GRID		000099000590
NL_GRID		1
UNRESTRICTED		FALSE
MAX_SCF_CYCLES		200
SYMMETRY		FALSE
SYM_IGNORE		TRUE
BASIS_LIN_DEP_THRESH		6
THRESH		14
SCF_CONVERGENCE		8
SCF_PRINT_FRGM		TRUE
SOLVENT_METHOD		PCM
!required keywords
JOBTYPE		SP
SYM_IGNORE		TRUE
SUBSYSTEM		TRUE
GEN_SCFMAN		TRUE
CHILD_INSTRUCTION		2
SYM_IGNORE		TRUE
SCFMI		0
RI_K 0		
PARI_K 0		
MIN_PARI_K 0		
IARI_K 0		
OCC_RI_K 0		
PURECART		1111
MEM_STATIC		2000
MEM_TOTAL		96000
GUI		0
CHILD_MP		1
CHILD_MP_ORDERS		232
FRZ_RELAX		0
FRZ_RELAX_METHOD		0
EDA_CLS_ELEC		1
EDA_CLS_DISP		0
FRZ_ORTHO_DECOMP		1
EDA2		FALSE
FRGM_METHOD		FALSE
CIS_N_ROOTS  0
LOCAL_CIS    0
CIS_RLX_DNS  1
$end
$pcm
THEORY                  CPCM
METHOD                  SWIG
SOLVER                  INVERSION
RADII                   UFF
HPOINTS                 302
HEAVYPOINTS             302
PRINTLEVEL              0
$end
$solvent
DIELECTRIC              78.390000 ! water
$end
--------------------------------------------------------------
 ----------------------------------------------------------------
             Standard Nuclear Orientation (Angstroms)
    I     Atom           X                Y                Z
 ----------------------------------------------------------------
    1      C      -2.5467918771    -0.8423408281    -1.2359963693
    2      C      -0.1057918771    -0.7383408281    -0.5949963693
    3      C      -1.3777918771    -1.2763408281    -0.3809963693
    4      C       0.9562081229    -1.0573408281     0.2520036307
    5      C      -1.5667918771    -2.1493408281     0.6930036307
    6      C       0.7502081229    -1.9243408281     1.3230036307
    7      C      -0.5107918771    -2.4753408281     1.5450036307
    8      O       1.7772081229    -2.2123408281     2.1700036307
    9      H       0.0562081229    -0.0543408281    -1.4179963693
   10      H       1.9302081229    -0.6193408281     0.0930036307
   11      H      -3.3977918771    -1.5043408281    -1.0649963693
   12      H      -2.2627918771    -0.9223408281    -2.2869963693
   13      H      -2.5497918771    -2.5613408281     0.8860036307
   14      H      -0.6737918771    -3.1393408281     2.3820036307
   15      H       1.4362081229    -2.6373408281     2.9750036307
   16      H      -2.8388918771     0.1947991719    -1.0145763693
 ----------------------------------------------------------------
 Nuclear Repulsion Energy =         342.69776274 hartrees
 There are       29 alpha and       29 beta electrons
 Requested basis set is def2-TZVPD
 There are 145 shells and 371 basis functions

 Total QAlloc Memory Limit  96000 MB
 Mega-Array Size      1956 MB
 MEM_STATIC part      2000 MB
 Discretize the solute cavity surface with Lebedev spheres
	Using 302 Lebedev grid points for each H atom
	Using 302 Lebedev grid points for other atoms
	Atomic van der Waals radii will be scaled by 1.20
 Remove points where switching function is < 1.0e-08
 Keep 1845 surface tesserae and discard 2987 interior tesserae
 Molecular Surface Area = 190.358 Angst**2
 A cutoff of  1.0D-14 yielded  10046 shell pairs
 There are     67074 function pairs (     85767 Cartesian)
 Smallest overlap matrix eigenvalue = 5.66E-07
 Linear dependence detected in AO basis
 Tighter screening thresholds may be required for diffuse basis sets
 Use S2THRESH > 14 and THRESH = 14 in case of SCF convergence issues
 Number of orthogonalized atomic orbitals = 370
 Maximum deviation from orthogonality = 1.606E-10

 Scale SEOQF with 1.000000e-01/1.000000e-01/1.000000e-01

 Standard Electronic Orientation quadrupole field applied
 Nucleus-field energy     =     0.0000000066 hartrees
 Guess from superposition of atomic densities
 Warning:  Energy on first SCF cycle will be non-variational
 SAD guess density has 57.738434 electrons

 -----------------------------------------------------------------------
  General SCF calculation program by
  Eric Jon Sundstrom, Paul Horn, Yuezhi Mao, Dmitri Zuev, Alec White,
  David Stuck, Shaama M.S., Shane Yost, Joonho Lee, David Small,
  Daniel Levine, Susi Lehtola, Hugh Burton, Evgeny Epifanovsky
 -----------------------------------------------------------------------
 Exchange:     0.1670 Hartree-Fock + 1.0000 wB97X-V + LR-HF
 Correlation:  1.0000 wB97X-V
 Using Euler-Maclaurin-Lebedev (99,590) quadrature formula
 Nonlocal Correlation:  VV10 with C = 0.0100 and b = 6.00 and scale = 1.00000
 Grid used for NLC:  SG-1 standard quadrature
Energy prior to optimization (guess energy) = -346.496596523070
Begin Timing: Total SCF Calculation
begin iterations for algorithm: DIIS         
the SCF tolerance is set to 1.00e-08
    1    -346.4965965231      5.17e-03     00000 
    2    -346.4284466629      5.62e-03     00000 
    3    -346.8122239336      5.34e-04     00000 
    4    -346.8163330905      1.81e-04     00000 
    5    -346.8169455116      2.52e-05     00000 
    6    -346.8169651300      1.27e-05     00000 
    7    -346.8169684718      3.96e-06     00000 
    8    -346.8169688986      1.24e-06     00000 
    9    -346.8169689536      5.61e-07     00000 
   10    -346.8169689632      1.35e-07     00000 
   11    -346.8169689647      6.27e-08     00000 
   12    -346.8169689649      3.18e-08     00000 
   13    -346.8169689649      6.52e-09     00000 Convergence criterion met
Timing for Total SCF: 2119.00s (wall), 4208.93s (cpu)

************** Final PCM Free Energy Summary **************
 G_electrostatic  =      -0.00559976 hartree =      -3.51390423 kcal/mol
 G_cavitation     =       0.00000000 hartree =       0.00000000 kcal/mol
 G_dispersion     =       0.00000000 hartree =       0.00000000 kcal/mol
 G_repulsion      =       0.00000000 hartree =       0.00000000 kcal/mol
 --------------------------------------------------
 Non-electrostatic Free Energy =       0.00000000 hartree =       0.00000000 kcal/mol
 Total                         =      -0.00559976 hartree =      -3.51390423 kcal/mol
 --------------------------------------------------
 SCF Energy (H0 + V/2)                       =    -346.81696896 
 Solute Internal Energy (H0)                 =    -346.81136920 
 Total Free Energy (H0 + V/2 + non-elec)     =    -346.81696896 hartree
                                             = -217630.93272900 kcal/mol
***********************************************************

E_pcm = -0.0055997629
Multipole orders to be included
        2
        3
computing dipole RHS
computing quadrupole RHS
total number of RHS in solve_reponses: 8
RHS batch sizes
        8
Beginning Block Conjugate Gradient Iterations. Batch Number: 0
computing hessian-vector products by finite difference
              1      6.20e-01     00000 Conjugate Gradient Iteration
computing hessian-vector products by finite difference
              2      1.96e-01     00000 Conjugate Gradient Iteration
computing hessian-vector products by finite difference
              3      4.82e-02     00000 Conjugate Gradient Iteration
computing hessian-vector products by finite difference
              4      1.34e-02     00000 Conjugate Gradient Iteration
computing hessian-vector products by finite difference
              5      3.70e-03     00000 Conjugate Gradient Iteration
computing hessian-vector products by finite difference
              6      1.30e-03     00000 Conjugate Gradient Iteration
computing hessian-vector products by finite difference
              7      3.00e-04     00000 Conjugate Gradient Iteration
computing hessian-vector products by finite difference
              8      5.89e-05     00000 Conjugate Gradient Iteration
computing hessian-vector products by finite difference
              9      1.16e-05     00000 Conjugate Gradient Iteration
computing hessian-vector products by finite difference
             10      3.14e-06     00000 Conjugate Gradient Iteration
computing hessian-vector products by finite difference
             11      5.45e-07     00000 Conjugate Gradient Iteration
computing hessian-vector products by finite difference
             12      1.31e-07     00000 Conjugate Gradient Iteration
computing hessian-vector products by finite difference
             13      2.18e-08     00000 Conjugate Gradient Iteration
computing hessian-vector products by finite difference
             14      3.74e-09     00000 CG Converged
batch 0 complete
Done Calculating Responses
TESTING ORTHOGONALIZATION OF MULTIPOLE BASIS
Multipole virts passed orthogonality test
Virts Per Order
           87
          145
 
 --------------------------------------------------------------
 
                    Orbital Energies (a.u.)
 --------------------------------------------------------------
 
 Alpha MOs
 -- Occupied --
-19.2461 -10.3356 -10.2772 -10.2755 -10.2754 -10.2728 -10.2725 -10.2624
 -1.1952  -0.9943  -0.9008  -0.8840  -0.8095  -0.7483  -0.7137  -0.6645
 -0.6032  -0.5809  -0.5507  -0.5414  -0.5345  -0.5225  -0.5111  -0.4783
 -0.4552  -0.4449  -0.4388  -0.3529  -0.3134
 -- Virtual --
  0.0570   0.0586   0.0683   0.0775   0.0830   0.0946   0.1083   0.1097
  0.1138   0.1312   0.1447   0.1494   0.1539   0.1714   0.1766   0.1911
  0.1959   0.2042   0.2171   0.2245   0.2329   0.2380   0.2458   0.2542
  0.2622   0.2635   0.2696   0.2736   0.2830   0.2936   0.2963   0.3013
  0.3028   0.3082   0.3200   0.3240   0.3337   0.3389   0.3430   0.3461
  0.3544   0.3556   0.3589   0.3708   0.3750   0.3766   0.3818   0.3918
  0.3928   0.3958   0.4039   0.4046   0.4124   0.4224   0.4270   0.4296
  0.4326   0.4498   0.4582   0.4616   0.4669   0.4693   0.4769   0.4811
  0.4818   0.4933   0.5001   0.5027   0.5133   0.5165   0.5254   0.5326
  0.5398   0.5457   0.5534   0.5569   0.5614   0.5665   0.5789   0.5847
  0.5945   0.6056   0.6203   0.6286   0.6315   0.6488   0.6620   0.6729
  0.6822   0.6854   0.6901   0.6922   0.6979   0.7021   0.7068   0.7269
  0.7321   0.7423   0.7472   0.7525   0.7573   0.7707   0.7808   0.7845
  0.7880   0.7917   0.7949   0.8055   0.8082   0.8130   0.8245   0.8328
  0.8396   0.8496   0.8544   0.8584   0.8616   0.8748   0.8847   0.8920
  0.8946   0.9141   0.9272   0.9491   0.9535   0.9726   0.9900   1.0043
  1.0296   1.0338   1.0443   1.0456   1.0522   1.0626   1.0729   1.0738
  1.1025   1.1141   1.1423   1.1736   1.2044   1.2259   1.2467   1.2904
  1.3029   1.3135   1.3255   1.3515   1.3618   1.3854   1.3962   1.4373
  1.4504   1.4570   1.4737   1.4875   1.5252   1.5604   1.6024   1.6143
  1.6305   1.6390   1.6687   1.6855   1.7042   1.7226   1.7670   1.7953
  1.8186   1.8257   1.8293   1.8505   1.8747   1.8844   1.9154   1.9230
  1.9323   1.9524   1.9681   1.9892   1.9980   2.0240   2.0348   2.0497
  2.0620   2.0734   2.0835   2.0968   2.1170   2.1624   2.1912   2.2037
  2.2237   2.2404   2.2658   2.2736   2.2888   2.3067   2.3518   2.3596
  2.3995   2.4077   2.4312   2.4445   2.4938   2.5096   2.5200   2.5496
  2.5729   2.6015   2.6255   2.6336   2.6608   2.6651   2.6840   2.7248
  2.7434   2.7600   2.7784   2.8072   2.8161   2.8283   2.8610   2.8663
  2.8998   2.9262   2.9352   2.9385   2.9574   2.9604   2.9702   3.0061
  3.0192   3.0365   3.0603   3.0763   3.0967   3.1302   3.1407   3.1621
  3.1719   3.1951   3.2137   3.2337   3.2419   3.2575   3.2738   3.2880
  3.3080   3.3628   3.3826   3.3863   3.3923   3.4215   3.4375   3.4514
  3.4649   3.4716   3.4902   3.5016   3.5152   3.5230   3.5321   3.5440
  3.5589   3.5673   3.5751   3.5910   3.6039   3.6178   3.6451   3.6555
  3.6840   3.7060   3.7355   3.7630   3.7740   3.8149   3.8473   3.9016
  3.9338   3.9652   3.9704   3.9884   4.0364   4.0706   4.1328   4.1519
  4.2411   4.2625   4.2790   4.2995   4.3161   4.3256   4.3373   4.3598
  4.3691   4.3831   4.4096   4.4501   4.4809   4.5522   4.5940   4.6090
  4.7396   4.7505   4.7787   4.7932   4.8532   4.9154   5.0228   5.0578
  5.0839   5.1207   5.1424   5.2940   5.3095   5.4244   5.4429   5.5259
  5.5931   5.6613   5.7092   5.7630   5.9547   6.1835   6.4722   6.5402
  6.6716   6.8785   7.0026   7.2902   7.4396  22.6657  22.6718  22.9283
 22.9831  23.0213  23.1708  23.4937  44.4123
 --------------------------------------------------------------
 
          Ground-State Mulliken Net Atomic Charges

     Atom                 Charge (a.u.)
  ----------------------------------------
      1 C                    -1.006081
      2 C                    -0.381272
      3 C                     0.550368
      4 C                    -0.678962
      5 C                    -0.628641
      6 C                     0.790402
      7 C                    -0.434420
      8 O                    -0.491590
      9 H                     0.338175
     10 H                     0.330632
     11 H                     0.269128
     12 H                     0.256856
     13 H                     0.288959
     14 H                     0.278841
     15 H                     0.302924
     16 H                     0.214679
  ----------------------------------------
  Sum of atomic charges =     0.000000

 -----------------------------------------------------------------
                    Cartesian Multipole Moments
 -----------------------------------------------------------------
    Charge (ESU x 10^10)
                 0.0000
    Dipole Moment (Debye)
         X      -1.5559      Y      -0.3606      Z       0.7697
       Tot       1.7729
    Quadrupole Moments (Debye-Ang)
        XX     -48.2030     XY       3.8717     YY     -45.9362
        XZ      -0.7950     YZ      -7.6786     ZZ     -40.6363
    Octopole Moments (Debye-Ang^2)
       XXX      42.2557    XXY      75.9735    XYY      11.0483
       YYY     218.1003    XXZ     -26.3906    XYZ       0.7312
       YYZ       6.2236    XZZ      22.0268    YZZ      48.3818
       ZZZ     -33.6614
    Hexadecapole Moments (Debye-Ang^3)
      XXXX    -714.7771   XXXY     -11.3329   XXYY    -267.9563
      XYYY     -41.6616   YYYY    -890.6681   XXXZ    -161.1825
      XXYZ      72.0097   XYYZ     -45.3875   YYYZ     120.3512
      XXZZ    -214.7827   XYZZ     -32.0829   YYZZ    -149.7948
      XZZZ    -112.0762   YZZZ     103.7266   ZZZZ    -407.0329
 -----------------------------------------------------------------
Archival summary:
1\1\nid00538\SP\ProcedureUnspecified\BasisUnspecified\178\meili\SunSep2619:23:382021SunSep2619:23:382021\0\\#,ProcedureUnspecified,BasisUnspecified,\\0,1\C\O,1,1.36201\H,2,0.972076,1,110.055\C,1,1.39326,2,119.876,3,165.817,0\H,4,1.07972,1,119.935,2,0.284654,0\C,1,1.39392,2,119.967,3,-12.8651,0\H,6,1.08076,1,120.175,2,-0.645939,0\C,4,1.39535,1,119.758,2,-178.436,0\H,8,1.08233,4,119.481,1,179.213,0\C,6,1.39546,1,119.669,2,178.383,0\H,10,1.08318,6,119.282,1,-178.466,0\C,10,1.3969,6,120.866,1,-0.0316102,0\C,12,1.51193,10,120.635,6,-175.219,0\H,13,1.09163,12,108.8,10,-133.961,0\H,13,1.09164,12,109.882,10,-15.8989,0\H,13,1.1,12,111.231,10,105.477,0\\\@

 Total job time:  42612.10s(wall), 84574.89s(cpu) 
 Sun Sep 26 19:23:41 2021

        *************************************************************
        *                                                           *
        *  Thank you very much for using Q-Chem.  Have a nice day.  *
        *                                                           *
        *************************************************************


Done Job For Fragment 0
calling putenv with: QCSCRATCH=/global/cscratch1/sd/meili 
calling putenv with: QCLOCALSCR=/tmp 
calling putenv with: QCTHREADS=32 
Creating input file /tmp/qchem20364/Frg2.input
using default PutDataFrgm: nothing
calling putenv with: QCSCRATCH=/tmp/qchem20364/ 
calling putenv with: QCLOCALSCR=/tmp/qchem20364/ 
Spawning Job For Fragment 1
                  Welcome to Q-Chem
     A Quantum Leap Into The Future Of Chemistry


 Q-Chem 5.2, Q-Chem, Inc., Pleasanton, CA (2019)

 License issued to: National Energy Research Scientific Computing Center

 Yihan Shao,  Zhengting Gan,  E. Epifanovsky,  A. T. B. Gilbert,  M. Wormit,  
 J. Kussmann,  A. W. Lange,  A. Behn,  Jia Deng,  Xintian Feng,  D. Ghosh,  
 M. Goldey,  P. R. Horn,  L. D. Jacobson,  I. Kaliman,  T. Kus,  A. Landau,  
 Jie Liu,  E. I. Proynov,  R. M. Richard,  R. P. Steele,  E. J. Sundstrom,  
 H. L. Woodcock III,  P. M. Zimmerman,  D. Zuev,  B. Albrecht,  E. Alguire,  
 S. A. Baeppler,  D. Barton,  Z. Benda,  Y. A. Bernard,  E. J. Berquist,  
 K. B. Bravaya,  H. Burton,  D. Casanova,  Chun-Min Chang,  Yunqing Chen,  
 A. Chien,  K. D. Closser,  M. P. Coons,  S. Coriani,  S. Dasgupta,  
 A. L. Dempwolff,  M. Diedenhofen,  Hainam Do,  R. G. Edgar,  Po-Tung Fang,  
 S. Faraji,  S. Fatehi,  Qingguo Feng,  K. D. Fenk,  J. Fosso-Tande,  
 J. Gayvert,  Qinghui Ge,  A. Ghysels,  G. Gidofalvi,  J. Gomes,  
 J. Gonthier,  A. Gunina,  D. Hait,  M. W. D. Hanson-Heine,  
 P. H. P. Harbach,  A. W. Hauser,  M. F. Herbst,  J. E. Herr,  
 E. G. Hohenstein,  Z. C. Holden,  Kerwin Hui,  B. C. Huynh,  T.-C. Jagau,  
 Hyunjun Ji,  B. Kaduk,  K. Khistyaev,  Jaehoon Kim,  P. Klunzinger,  K. Koh,  
 D. Kosenkov,  L. Koulias,  T. Kowalczyk,  C. M. Krauter,  A. Kunitsa,  
 Ka Un Lao,  A. Laurent,  K. V. Lawler,  Joonho Lee,  D. Lefrancois,  
 S. Lehtola,  D. S. Levine,  Yi-Pei Li,  You-Sheng Lin,  Fenglai Liu,  
 E. Livshits,  A. Luenser,  P. Manohar,  E. Mansoor,  S. F. Manzer,  
 Shan-Ping Mao,  Yuezhi Mao,  N. Mardirossian,  A. V. Marenich,  
 T. Markovich,  L. A. Martinez-Martinez,  S. A. Maurer,  N. J. Mayhall,  
 S. C. McKenzie,  J.-M. Mewes,  P. Morgante,  A. F. Morrison,  
 J. W. Mullinax,  K. Nanda,  T. S. Nguyen-Beck,  R. Olivares-Amaya,  
 J. A. Parkhill,  Zheng Pei,  T. M. Perrine,  F. Plasser,  P. Pokhilko,  
 S. Prager,  A. Prociuk,  E. Ramos,  D. R. Rehn,  F. Rob,  M. Scheurer,  
 M. Schneider,  N. Sergueev,  S. M. Sharada,  S. Sharma,  D. W. Small,  
 T. Stauch,  T. Stein,  Yu-Chuan Su,  A. J. W. Thom,  A. Tkatchenko,  
 T. Tsuchimochi,  N. M. Tubman,  L. Vogt,  M. L. Vidal,  O. Vydrov,  
 M. A. Watson,  J. Wenzel,  M. de Wergifosse,  T. A. Wesolowski,  A. White,  
 J. Witte,  A. Yamada,  Jun Yang,  K. Yao,  S. Yeganeh,  S. R. Yost,  
 Zhi-Qiang You,  A. Zech,  Igor Ying Zhang,  Xing Zhang,  Yan Zhao,  
 Ying Zhu,  B. R. Brooks,  G. K. L. Chan,  C. J. Cramer,  M. S. Gordon,  
 W. J. Hehre,  A. Klamt,  M. W. Schmidt,  C. D. Sherrill,  D. G. Truhlar,  
 A. Aspuru-Guzik,  R. Baer,  A. T. Bell,  N. A. Besley,  Jeng-Da Chai,  
 A. E. DePrince, III,  R. A. DiStasio Jr.,  A. Dreuw,  B. D. Dunietz,  
 T. R. Furlani,  Chao-Ping Hsu,  Yousung Jung,  Jing Kong,  D. S. Lambrecht,  
 WanZhen Liang,  C. Ochsenfeld,  V. A. Rassolov,  L. V. Slipchenko,  
 J. E. Subotnik,  T. Van Voorhis,  J. M. Herbert,  A. I. Krylov,  
 P. M. W. Gill,  M. Head-Gordon

 Contributors to earlier versions of Q-Chem not listed above: 
 R. D. Adamson,  B. Austin,  J. Baker,  G. J. O. Beran,  K. Brandhorst,  
 S. T. Brown,  E. F. C. Byrd,  A. K. Chakraborty,  C.-L. Cheng,  
 Siu Hung Chien,  D. M. Chipman,  D. L. Crittenden,  H. Dachsel,  
 R. J. Doerksen,  A. D. Dutoi,  L. Fusti-Molnar,  W. A. Goddard III,  
 A. Golubeva-Zadorozhnaya,  S. R. Gwaltney,  G. Hawkins,  A. Heyden,  
 S. Hirata,  G. Kedziora,  F. J. Keil,  C. Kelley,  Jihan Kim,  R. A. King,  
 R. Z. Khaliullin,  P. P. Korambath,  W. Kurlancheek,  A. M. Lee,  M. S. Lee,  
 S. V. Levchenko,  Ching Yeh Lin,  D. Liotard,  R. C. Lochan,  I. Lotan,  
 P. E. Maslen,  N. Nair,  D. P. O'Neill,  D. Neuhauser,  E. Neuscamman,  
 C. M. Oana,  R. Olson,  B. Peters,  R. Peverati,  P. A. Pieniazek,  
 Y. M. Rhee,  J. Ritchie,  M. A. Rohrdanz,  E. Rosta,  N. J. Russ,  
 H. F. Schaefer III,  N. E. Schultz,  N. Shenvi,  A. C. Simmonett,  A. Sodt,  
 D. Stuck,  K. S. Thanthiriwatte,  V. Vanovschi,  Tao Wang,  A. Warshel,  
 C. F. Williams,  Q. Wu,  X. Xu,  W. Zhang

 Please cite Q-Chem as follows:
 Y. Shao et al., Mol. Phys. 113, 184-215 (2015)
 DOI: 10.1080/00268976.2014.952696

 Q-Chem 5.2.0 for Intel X86 EM64T Linux

 Parts of Q-Chem use Armadillo 8.300.2 (Tropical Shenanigans).
 http://arma.sourceforge.net/

 Q-Chem begins on Sun Sep 26 19:23:45 2021  

Host: cori01
0

     Scratch files written to /tmp/qchem20364//Frg2//
 May1019 |scratch|qcdevops|jenkins|workspace|build_RNUM -1
Processing $rem in /global/common/cori/software/qchem/5.2/config/preferences:
	 MEM_TOTAL  96000 
NAlpha2: 32
NElect   32
Mult     1
Symmetry turned off for PCM/SM12/SMD calculation

Checking the input file for inconsistencies... 	...done.

--------------------------------------------------------------
User input:
--------------------------------------------------------------
$molecule
0 1
 6	-0.3987918771	3.4806591719	-1.8809963693
 6	0.6252081229	2.8936591719	-0.9149963693
 8	1.6542081229	2.3766591719	-1.3479963693
 7	0.3582081229	2.9306591719	0.3820036307
 1	-0.9237918771	2.6466591719	-2.3439963693
 1	0.1242081229	4.0046591719	-2.6789963693
 1	1.0302081229	2.5006591719	1.0050036307
 1	-0.5017918771	3.3156591719	0.7610036307
 1	-1.1520118771	4.1363191719	-1.4197363693
$end
$rem
EDA2		1
METHOD		WB97X-V
BASIS		DEF2-TZVPD
XC_GRID		000099000590
NL_GRID		1
UNRESTRICTED		FALSE
MAX_SCF_CYCLES		200
SYMMETRY		FALSE
SYM_IGNORE		TRUE
BASIS_LIN_DEP_THRESH		6
THRESH		14
SCF_CONVERGENCE		8
SCF_PRINT_FRGM		TRUE
SOLVENT_METHOD		PCM
!required keywords
JOBTYPE		SP
SYM_IGNORE		TRUE
SUBSYSTEM		TRUE
GEN_SCFMAN		TRUE
CHILD_INSTRUCTION		2
SYM_IGNORE		TRUE
SCFMI		0
RI_K 0		
PARI_K 0		
MIN_PARI_K 0		
IARI_K 0		
OCC_RI_K 0		
PURECART		1111
MEM_STATIC		2000
MEM_TOTAL		96000
GUI		0
CHILD_MP		1
CHILD_MP_ORDERS		232
FRZ_RELAX		0
FRZ_RELAX_METHOD		0
EDA_CLS_ELEC		1
EDA_CLS_DISP		0
FRZ_ORTHO_DECOMP		1
EDA2		FALSE
FRGM_METHOD		FALSE
CIS_N_ROOTS  0
LOCAL_CIS    0
CIS_RLX_DNS  1
$end
$pcm
THEORY                  CPCM
METHOD                  SWIG
SOLVER                  INVERSION
RADII                   UFF
HPOINTS                 302
HEAVYPOINTS             302
PRINTLEVEL              0
$end
$solvent
DIELECTRIC              78.390000 ! water
$end
--------------------------------------------------------------
 ----------------------------------------------------------------
             Standard Nuclear Orientation (Angstroms)
    I     Atom           X                Y                Z
 ----------------------------------------------------------------
    1      C      -0.3987918771     3.4806591719    -1.8809963693
    2      C       0.6252081229     2.8936591719    -0.9149963693
    3      O       1.6542081229     2.3766591719    -1.3479963693
    4      N       0.3582081229     2.9306591719     0.3820036307
    5      H      -0.9237918771     2.6466591719    -2.3439963693
    6      H       0.1242081229     4.0046591719    -2.6789963693
    7      H       1.0302081229     2.5006591719     1.0050036307
    8      H      -0.5017918771     3.3156591719     0.7610036307
    9      H      -1.1520118771     4.1363191719    -1.4197363693
 ----------------------------------------------------------------
 Nuclear Repulsion Energy =         122.00300219 hartrees
 There are       16 alpha and       16 beta electrons
 Requested basis set is def2-TZVPD
 There are 78 shells and 196 basis functions

 Total QAlloc Memory Limit  96000 MB
 Mega-Array Size      1956 MB
 MEM_STATIC part      2000 MB
 Discretize the solute cavity surface with Lebedev spheres
	Using 302 Lebedev grid points for each H atom
	Using 302 Lebedev grid points for other atoms
	Atomic van der Waals radii will be scaled by 1.20
 Remove points where switching function is < 1.0e-08
 Keep 1213 surface tesserae and discard 1505 interior tesserae
 Molecular Surface Area = 129.061 Angst**2

                       Distance Matrix (Angstroms)
             C (  1)   C (  2)   O (  3)   N (  4)   H (  5)   H (  6)
   C (  2)  1.525222
   O (  3)  2.391174  1.230292
   N (  4)  2.448820  1.324714  2.231464
   H (  5)  1.088830  2.121898  2.776869  3.025765
   H (  6)  1.088535  2.144066  2.600547  3.252377  1.747768
   H (  7)  3.366220  2.001218  2.437491  1.012232  3.880107  4.081018
   H (  8)  2.649150  2.063296  3.158787  1.015611  3.204164  3.563734
   H (  9)  1.099996  2.226539  3.313068  2.642092  1.767888  1.797723
             H (  7)   H (  8)
   H (  8)  1.752366
   H (  9)  3.649223  2.419069
 
 A cutoff of  1.0D-14 yielded   3054 shell pairs
 There are     19544 function pairs (     24702 Cartesian)
 Smallest overlap matrix eigenvalue = 1.16E-05

 Scale SEOQF with 1.000000e-01/1.000000e-01/1.000000e-01

 Standard Electronic Orientation quadrupole field applied
 Nucleus-field energy     =     0.0000000152 hartrees
 Guess from superposition of atomic densities
 Warning:  Energy on first SCF cycle will be non-variational
 SAD guess density has 31.604610 electrons

 -----------------------------------------------------------------------
  General SCF calculation program by
  Eric Jon Sundstrom, Paul Horn, Yuezhi Mao, Dmitri Zuev, Alec White,
  David Stuck, Shaama M.S., Shane Yost, Joonho Lee, David Small,
  Daniel Levine, Susi Lehtola, Hugh Burton, Evgeny Epifanovsky
 -----------------------------------------------------------------------
 Exchange:     0.1670 Hartree-Fock + 1.0000 wB97X-V + LR-HF
 Correlation:  1.0000 wB97X-V
 Using Euler-Maclaurin-Lebedev (99,590) quadrature formula
 Nonlocal Correlation:  VV10 with C = 0.0100 and b = 6.00 and scale = 1.00000
 Grid used for NLC:  SG-1 standard quadrature
Energy prior to optimization (guess energy) = -208.705248919087
Begin Timing: Total SCF Calculation
begin iterations for algorithm: DIIS         
the SCF tolerance is set to 1.00e-08
    1    -208.7052489191      1.26e-02     00000 
    2    -208.3136091456      1.56e-02     00000 
    3    -209.2234983743      2.50e-03     00000 
    4    -209.2435312587      8.32e-04     00000 
    5    -209.2462722506      1.25e-04     00000 
    6    -209.2463723965      4.95e-05     00000 
    7    -209.2463899776      1.11e-05     00000 
    8    -209.2463911582      2.11e-06     00000 
    9    -209.2463912487      7.44e-07     00000 
   10    -209.2463912540      3.12e-07     00000 
   11    -209.2463912549      7.09e-08     00000 
   12    -209.2463912550      1.75e-08     00000 
   13    -209.2463912550      4.56e-09     00000 Convergence criterion met
Timing for Total SCF: 369.00s (wall), 730.09s (cpu)

************** Final PCM Free Energy Summary **************
 G_electrostatic  =      -0.01201552 hartree =      -7.53985428 kcal/mol
 G_cavitation     =       0.00000000 hartree =       0.00000000 kcal/mol
 G_dispersion     =       0.00000000 hartree =       0.00000000 kcal/mol
 G_repulsion      =       0.00000000 hartree =       0.00000000 kcal/mol
 --------------------------------------------------
 Non-electrostatic Free Energy =       0.00000000 hartree =       0.00000000 kcal/mol
 Total                         =      -0.01201552 hartree =      -7.53985428 kcal/mol
 --------------------------------------------------
 SCF Energy (H0 + V/2)                       =    -209.24639125 
 Solute Internal Energy (H0)                 =    -209.23437573 
 Total Free Energy (H0 + V/2 + non-elec)     =    -209.24639125 hartree
                                             = -131304.09228506 kcal/mol
***********************************************************

E_pcm = -0.0120155227
Multipole orders to be included
        2
        3
computing dipole RHS
computing quadrupole RHS
total number of RHS in solve_reponses: 8
RHS batch sizes
        8
Beginning Block Conjugate Gradient Iterations. Batch Number: 0
computing hessian-vector products by finite difference
              1      5.77e-01     00000 Conjugate Gradient Iteration
computing hessian-vector products by finite difference
              2      1.89e-01     00000 Conjugate Gradient Iteration
computing hessian-vector products by finite difference
              3      5.19e-02     00000 Conjugate Gradient Iteration
computing hessian-vector products by finite difference
              4      1.29e-02     00000 Conjugate Gradient Iteration
computing hessian-vector products by finite difference
              5      1.88e-03     00000 Conjugate Gradient Iteration
computing hessian-vector products by finite difference
              6      3.85e-04     00000 Conjugate Gradient Iteration
computing hessian-vector products by finite difference
              7      5.73e-05     00000 Conjugate Gradient Iteration
computing hessian-vector products by finite difference
              8      6.84e-06     00000 Conjugate Gradient Iteration
computing hessian-vector products by finite difference
              9      9.76e-07     00000 Conjugate Gradient Iteration
computing hessian-vector products by finite difference
             10      1.48e-07     00000 Conjugate Gradient Iteration
computing hessian-vector products by finite difference
             11      2.55e-08     00000 Conjugate Gradient Iteration
computing hessian-vector products by finite difference
             12      3.30e-09     00000 CG Converged
batch 0 complete
Done Calculating Responses
TESTING ORTHOGONALIZATION OF MULTIPOLE BASIS
Multipole virts passed orthogonality test
Virts Per Order
        48
        80
 
 --------------------------------------------------------------
 
                    Orbital Energies (a.u.)
 --------------------------------------------------------------
 
 Alpha MOs
 -- Occupied --
-19.1777 -14.4361 -10.3790 -10.2731  -1.1717  -1.0450  -0.8691  -0.7168
 -0.6602  -0.5902  -0.5663  -0.5166  -0.5084  -0.4808  -0.3828  -0.3688
 -- Virtual --
  0.0595   0.0912   0.0937   0.0969   0.1273   0.1276   0.1343   0.1433
  0.1772   0.1788   0.1894   0.2067   0.2233   0.2430   0.2504   0.2557
  0.2626   0.2661   0.2928   0.3075   0.3284   0.3299   0.3398   0.3448
  0.3559   0.3604   0.3669   0.3708   0.3819   0.3958   0.4148   0.4223
  0.4343   0.4522   0.4585   0.4631   0.4734   0.4925   0.4942   0.5025
  0.5186   0.5288   0.5510   0.5649   0.5748   0.5899   0.6264   0.6293
  0.6312   0.6556   0.6767   0.6918   0.7118   0.7198   0.7288   0.7619
  0.7645   0.7810   0.7883   0.8099   0.8173   0.8311   0.8536   0.8776
  0.9199   0.9548   0.9610   0.9878   1.0125   1.0268   1.0567   1.0842
  1.1079   1.1613   1.2316   1.2404   1.2834   1.3164   1.3342   1.3759
  1.4759   1.4932   1.5085   1.6137   1.6788   1.7124   1.7295   1.8061
  1.8439   1.8620   1.8769   1.9147   1.9289   1.9595   1.9931   2.0435
  2.0467   2.0877   2.1182   2.1706   2.1930   2.2156   2.3200   2.3789
  2.3914   2.4200   2.4387   2.4653   2.5462   2.5723   2.5861   2.6273
  2.6567   2.6755   2.7759   2.7951   2.8353   2.9169   2.9475   2.9834
  3.0605   3.0998   3.1078   3.1564   3.1946   3.2187   3.2522   3.2805
  3.3082   3.3350   3.3720   3.4203   3.4491   3.4948   3.5336   3.5628
  3.6258   3.6517   3.6683   3.7929   3.8496   3.9339   3.9839   4.0193
  4.0684   4.2122   4.2983   4.4178   4.4976   4.5610   4.6117   4.6771
  4.7686   4.8791   4.8950   4.9221   5.1485   5.1765   5.2718   5.3521
  5.3623   5.3952   5.4053   5.4917   5.5277   5.7694   5.9086   6.1439
  6.2437   6.5238   6.6443   6.7356   6.8220   6.9733   7.2248   7.3246
 22.5746  23.5641  32.4046  44.2961
 --------------------------------------------------------------
 
          Ground-State Mulliken Net Atomic Charges

     Atom                 Charge (a.u.)
  ----------------------------------------
      1 C                    -0.578553
      2 C                     0.395517
      3 O                    -0.582637
      4 N                    -0.260372
      5 H                     0.184587
      6 H                     0.198454
      7 H                     0.207339
      8 H                     0.199147
      9 H                     0.236517
  ----------------------------------------
  Sum of atomic charges =     0.000000

 -----------------------------------------------------------------
                    Cartesian Multipole Moments
 -----------------------------------------------------------------
    Charge (ESU x 10^10)
                 0.0000
    Dipole Moment (Debye)
         X      -3.9929      Y       1.7099      Z       2.7613
       Tot       5.1470
    Quadrupole Moments (Debye-Ang)
        XX     -30.7077     XY     -10.1750     YY     -15.5237
        XZ       6.6079     YZ       5.1309     ZZ     -24.6509
    Octopole Moments (Debye-Ang^2)
       XXX     -49.3526    XXY     -85.9548    XYY     -39.5144
       YYY    -181.9184    XXZ      36.1608    XYZ      13.6623
       YYZ      30.6563    XZZ     -20.1601    YZZ     -68.9630
       ZZZ      75.2575
    Hexadecapole Moments (Debye-Ang^3)
      XXXX    -184.8992   XXXY    -113.6416   XXYY    -278.5043
      XYYY    -161.1238   YYYY   -1220.6208   XXXZ      47.1510
      XXYZ     102.5015   XYYZ      34.6015   YYYZ     216.1742
      XXZZ     -89.6754   XYZZ     -44.4902   YYZZ    -251.1091
      XZZZ      41.8919   YZZZ     221.6319   ZZZZ    -295.4783
 -----------------------------------------------------------------
Archival summary:
1\1\nid00538\SP\ProcedureUnspecified\BasisUnspecified\1125\meili\SunSep2621:11:392021SunSep2621:11:392021\0\\#,ProcedureUnspecified,BasisUnspecified,\\0,1\C\O,1,1.23029\N,1,1.32471,2,121.661\H,3,1.01223,1,117.189,2,-1.0115,0\H,3,1.01561,1,123.136,2,-177.294,0\C,1,1.52522,2,120.023,3,-178.397,0\H,6,1.08854,1,109.087,2,-40.6066,0\H,6,1.08883,1,107.352,2,74.7421,0\H,6,1.1,1,115.058,2,-165.358,0\\\@

 Total job time:  6477.43s(wall), 12389.39s(cpu) 
 Sun Sep 26 21:11:43 2021

        *************************************************************
        *                                                           *
        *  Thank you very much for using Q-Chem.  Have a nice day.  *
        *                                                           *
        *************************************************************


Done Job For Fragment 1
calling putenv with: QCSCRATCH=/global/cscratch1/sd/meili 
calling putenv with: QCLOCALSCR=/tmp 
calling putenv with: QCTHREADS=32 
Doing General SCFMI
 Exchange:     0.1670 Hartree-Fock + 1.0000 wB97X-V + LR-HF
 Correlation:  1.0000 wB97X-V
 Using Euler-Maclaurin-Lebedev (99,590) quadrature formula
 Nonlocal Correlation:  VV10 with C = 0.0100 and b = 6.00 and scale = 1.00000
 Grid used for NLC:  SG-1 standard quadrature
performing fock build before subrot guess so that all methods have access
Printing subrot_rss_gen Method Specification:
Occupied Subspace Method is 0
Virtual Subspace Method is 0
Energy of the unrelaxed supersystem initial determinant -556.049729123650
performing fock build before subrot guess so that all methods have access
Printing subrot_rss_gen Method Specification:
Occupied Subspace Method is 0
Virtual Subspace Method is 0
Energy of the unrelaxed supersystem initial determinant w/ solvent -556.066001451787
write pseudocanon occs and virts to disk
write pseudocanon orbital energies to disk
Tolerance of ortho_decomp_scf: 1.00e-06
GDM subspace size: 20
Beginning the Orthogonal Decomposition of the Initial Supersystem Wavefunction
    1    -556.0378606747      1.77e-02     ortho_decomp Preconditoned Steepest Descent
    2    -556.0388872943      5.06e-04     ortho_decomp BFGS Step
    3    -556.0388910833      2.97e-05     ortho_decomp BFGS Step
    4    -556.0388910863      1.03e-06     ortho_decomp BFGS Step
    5    -556.0388910863      3.67e-08     ortho_decomp 00000 Convergence criterion met
 Hartree-Fock
 Hartree-Fock
 Hartree-Fock
Doing General SCFMI
 Exchange:     0.1670 Hartree-Fock + 1.0000 wB97X-V + LR-HF
 Correlation:  1.0000 wB97X-V
 Using Euler-Maclaurin-Lebedev (99,590) quadrature formula
 Nonlocal Correlation:  VV10 with C = 0.0100 and b = 6.00 and scale = 1.00000
 Grid used for NLC:  SG-1 standard quadrature
performing fock build at end of subrot_r(subrot) constructor so that all methods have access
<S^2> of initial wavefunction before polarization iterations 0.0000000000
Beginning iterations for the determination of the polarized wavefunction
Energy prior to optimization (guess energy) = -556.066001451787
Begin Timing: Total SCF Calculation
begin iterations for algorithm: DIIS         
the SCF tolerance is set to 1.00e-08
    1    -556.0660014518      3.33e-05     00000 
    2    -556.0660944259      1.75e-05     00000 
    3    -556.0661069748      8.85e-06     00000 
    4    -556.0661109783      2.76e-06     00000 
    5    -556.0661113323      1.28e-06     00000 
    6    -556.0661114201      4.19e-07     00000 
    7    -556.0661114335      1.53e-07     00000 
    8    -556.0661114353      4.66e-08     00000 
    9    -556.0661114354      1.84e-08     00000 
   10    -556.0661114355      6.55e-09     00000 Convergence criterion met
write pseudocanon occs and virts to disk
write pseudocanon orbital energies to disk
Timing for Total SCF: 4924.00s (wall), 9794.17s (cpu)
<S^2> of polarized wavefunction after polarization iterations 0.0000000000
relaxing scfmi constraint to allow all rotations in the entire AO span
Doing General SCFMI
 Exchange:     0.1670 Hartree-Fock + 1.0000 wB97X-V + LR-HF
 Correlation:  1.0000 wB97X-V
 Using Euler-Maclaurin-Lebedev (99,590) quadrature formula
 Nonlocal Correlation:  VV10 with C = 0.0100 and b = 6.00 and scale = 1.00000
 Grid used for NLC:  SG-1 standard quadrature
performing fock build at end of subrot_r(subrot) constructor so that all methods have access
<S^2> of polarized wavefunction before ct-allowed iterations 0.0000000000
Beginning iterations for the determination of the CT-Allowed wavefunction
Energy prior to optimization (guess energy) = -556.066111435461
Begin Timing: Total SCF Calculation
begin iterations for algorithm: DIIS         
the SCF tolerance is set to 1.00e-08
    1    -556.0661114355      5.43e-05     00000 
    2    -556.0665001599      4.73e-06     00000 
    3    -556.0665100296      8.92e-07     00000 
    4    -556.0665103115      8.05e-07     00000 
    5    -556.0665103830      1.14e-07     00000 
    6    -556.0665103864      6.02e-08     00000 
    7    -556.0665103870      1.17e-08     00000 
    8    -556.0665103871      4.98e-09     00000 Convergence criterion met
write pseudocanon occs and virts to disk
write pseudocanon orbital energies to disk
Timing for Total SCF: 3867.00s (wall), 7663.19s (cpu)
<S^2> of ct_allowed wavefunction after ct-allowed iterations 0.0000000000

================================
        Results of EDA2         
================================
Basic EDA Quantities
--------------------
Fragment Energies (Ha):
1 -346.8169689649
2 -209.2463912550
--------------------
  E_prp (kJ/mol) = 0.0000
  E_sol (kJ/mol) = 3.5260
  E_frz (kJ/mol) = -10.4606
  E_pol (kJ/mol) = -0.2888
  E_vct (kJ/mol) = -1.0475
  E_int (kJ/mol) = -8.2709
--------------------


Initial Wavefunction Decomposition
--------------------
  --------------------
  Orthogonal Fragment Subspace Decomposition:
  --------------------
     E_elec   (ELEC)   (kJ/mol) = -12.8704
     E_pauli  (PAULI)  (kJ/mol) = 13.5702
     E_disp   (DISP)   (kJ/mol) = -11.1604
     --------------------
     Terms summing to E_pauli:
     --------------------
        E_kep_pauli       (kJ/mol) = 17.9950
        E_disp_free_pauli (kJ/mol) = -4.4248
  --------------------
  Classical Frozen Decomposition:
  --------------------
     E_cls_elec  (CLS ELEC)  (kJ/mol) = -5.7418
     E_cls_pauli (CLS PAULI) (kJ/mol) = -4.7188
    [E_mod_pauli (MOD PAULI) (kJ/mol) = 6.4416 (CLS PAULI - DISP from orthogonal decomposition) ]
  --------------------
--------------------

Simplified EDA Summary (kJ/mol)
--------------------
 PREPARATION     0.0000
 SOLVATION       3.5260
 FROZEN          0.6998      (does not include dispersion)
[PAULI           13.5702]     (if this is negligible, then frozen describes electrostatics)
 DISPERSION      -11.1604
 POLARIZATION    -0.2888
 CHARGE TRANSFER -1.0475
 TOTAL           -8.2709     (PRP + SOL + FRZ + DISP + POL + CT)
--------------------
 
 --------------------------------------------------------------
 
                    Orbital Energies (a.u.)
 --------------------------------------------------------------
 
 Alpha MOs
 -- Occupied --
-19.2456 -19.1778 -14.4360 -10.3788 -10.3347 -10.2762 -10.2747 -10.2739
-10.2734 -10.2720 -10.2711 -10.2622  -1.1947  -1.1715  -1.0447  -0.9933
 -0.9001  -0.8828  -0.8692  -0.8089  -0.7475  -0.7166  -0.7127  -0.6637
 -0.6598  -0.6025  -0.5902  -0.5800  -0.5676  -0.5492  -0.5408  -0.5328
 -0.5220  -0.5164  -0.5105  -0.5085  -0.4807  -0.4777  -0.4544  -0.4441
 -0.4377  -0.3827  -0.3688  -0.3513  -0.3126
 -- Virtual --
  0.0530   0.0576   0.0630   0.0710   0.0733   0.0871   0.0904   0.0924
  0.0991   0.1060   0.1123   0.1162   0.1227   0.1260   0.1307   0.1403
  0.1444   0.1529   0.1565   0.1588   0.1659   0.1767   0.1808   0.1866
  0.1923   0.1967   0.2065   0.2102   0.2167   0.2205   0.2210   0.2309
  0.2361   0.2414   0.2463   0.2544   0.2550   0.2597   0.2688   0.2700
  0.2745   0.2798   0.2828   0.2856   0.2872   0.2973   0.3002   0.3061
  0.3121   0.3128   0.3189   0.3204   0.3279   0.3294   0.3315   0.3365
  0.3406   0.3446   0.3451   0.3508   0.3546   0.3564   0.3609   0.3636
  0.3660   0.3712   0.3776   0.3784   0.3815   0.3874   0.3913   0.3924
  0.3952   0.4023   0.4046   0.4076   0.4139   0.4157   0.4192   0.4254
  0.4274   0.4389   0.4440   0.4452   0.4533   0.4540   0.4584   0.4609
  0.4665   0.4686   0.4729   0.4766   0.4807   0.4833   0.4880   0.4922
  0.4936   0.4958   0.5009   0.5033   0.5116   0.5149   0.5224   0.5267
  0.5289   0.5336   0.5381   0.5445   0.5519   0.5532   0.5543   0.5571
  0.5635   0.5689   0.5832   0.5869   0.5888   0.5944   0.5999   0.6032
  0.6078   0.6180   0.6212   0.6243   0.6373   0.6417   0.6440   0.6519
  0.6552   0.6608   0.6634   0.6692   0.6814   0.6885   0.6907   0.6936
  0.6991   0.7035   0.7067   0.7111   0.7154   0.7243   0.7324   0.7355
  0.7432   0.7475   0.7510   0.7570   0.7612   0.7705   0.7728   0.7835
  0.7864   0.7907   0.7917   0.7970   0.8019   0.8043   0.8089   0.8138
  0.8172   0.8213   0.8258   0.8306   0.8381   0.8395   0.8448   0.8476
  0.8564   0.8596   0.8619   0.8686   0.8786   0.8827   0.8872   0.8973
  0.9001   0.9021   0.9125   0.9168   0.9288   0.9350   0.9407   0.9515
  0.9542   0.9578   0.9629   0.9753   0.9827   0.9915   1.0001   1.0166
  1.0198   1.0331   1.0338   1.0409   1.0521   1.0555   1.0641   1.0711
  1.0743   1.0876   1.0967   1.1071   1.1151   1.1224   1.1251   1.1486
  1.1606   1.1690   1.1794   1.1918   1.2188   1.2356   1.2468   1.2657
  1.2765   1.2886   1.3035   1.3112   1.3241   1.3306   1.3395   1.3465
  1.3735   1.3773   1.3873   1.4001   1.4022   1.4146   1.4385   1.4663
  1.4743   1.4809   1.5036   1.5132   1.5222   1.5364   1.5491   1.5663
  1.5760   1.6187   1.6422   1.6529   1.6551   1.6970   1.7014   1.7038
  1.7242   1.7334   1.7444   1.7544   1.7806   1.7945   1.8105   1.8355
  1.8503   1.8599   1.8664   1.8867   1.8944   1.9082   1.9126   1.9318
  1.9354   1.9435   1.9460   1.9571   1.9618   1.9805   1.9842   1.9976
  2.0051   2.0128   2.0304   2.0390   2.0468   2.0611   2.0658   2.0709
  2.0958   2.0995   2.1054   2.1259   2.1315   2.1433   2.1695   2.1806
  2.1823   2.1991   2.2156   2.2380   2.2415   2.2471   2.2507   2.2692
  2.2867   2.2987   2.3135   2.3276   2.3439   2.3672   2.3718   2.4036
  2.4096   2.4250   2.4427   2.4507   2.4600   2.4696   2.4821   2.4967
  2.5102   2.5332   2.5495   2.5584   2.5918   2.5961   2.6090   2.6209
  2.6321   2.6394   2.6606   2.6657   2.6783   2.6851   2.6878   2.7013
  2.7235   2.7444   2.7546   2.7772   2.7968   2.8004   2.8198   2.8331
  2.8368   2.8543   2.8753   2.8811   2.9067   2.9154   2.9381   2.9479
  2.9486   2.9534   2.9673   2.9703   2.9774   2.9844   3.0275   3.0398
  3.0455   3.0623   3.0723   3.0942   3.1047   3.1214   3.1304   3.1523
  3.1570   3.1698   3.1744   3.1827   3.1870   3.2090   3.2240   3.2391
  3.2471   3.2551   3.2649   3.2701   3.2780   3.2972   3.3016   3.3129
  3.3370   3.3588   3.3755   3.3766   3.3837   3.3989   3.4126   3.4186
  3.4342   3.4445   3.4521   3.4694   3.4785   3.4906   3.5001   3.5010
  3.5226   3.5249   3.5275   3.5343   3.5485   3.5621   3.5691   3.5800
  3.5879   3.5970   3.6140   3.6176   3.6313   3.6454   3.6505   3.6602
  3.6730   3.6917   3.6936   3.7075   3.7307   3.7435   3.7756   3.7997
  3.8020   3.8268   3.8573   3.8756   3.9144   3.9391   3.9606   3.9759
  3.9872   4.0008   4.0058   4.0372   4.0468   4.0774   4.0896   4.1397
  4.1628   4.2206   4.2530   4.2737   4.2902   4.3095   4.3242   4.3355
  4.3389   4.3461   4.3684   4.3724   4.3979   4.4281   4.4328   4.4631
  4.4867   4.5203   4.5608   4.5744   4.6013   4.6194   4.6279   4.6907
  4.7491   4.7576   4.7852   4.7890   4.8077   4.8629   4.9042   4.9149
  4.9396   4.9565   5.0345   5.0630   5.0949   5.1311   5.1542   5.1685
  5.2019   5.2875   5.3002   5.3138   5.3625   5.3793   5.4094   5.4228
  5.4294   5.4471   5.5092   5.5301   5.5528   5.5963   5.6689   5.7164
  5.7686   5.7785   5.9173   5.9572   6.1548   6.1870   6.2598   6.4753
  6.5365   6.5464   6.6794   6.6904   6.7578   6.8434   6.8821   7.0006
  7.0064   7.2420   7.2946   7.3359   7.4456  22.6005  22.6880  22.7056
 22.9695  22.9981  23.0416  23.1933  23.5070  23.5957  32.4852  44.3888
 44.4352
 --------------------------------------------------------------
 
          Ground-State Mulliken Net Atomic Charges

     Atom                 Charge (a.u.)
  ----------------------------------------
      1 C                    -0.923468
      2 C                    -0.310618
      3 C                     0.549982
      4 C                    -0.797280
      5 C                    -0.651595
      6 C                     0.835896
      7 C                    -0.501620
      8 O                    -0.495891
      9 H                     0.324727
     10 H                     0.348937
     11 H                     0.291838
     12 H                     0.234560
     13 H                     0.302149
     14 H                     0.279117
     15 H                     0.306243
     16 H                     0.190191
     17 C                    -0.693622
     18 C                     0.487850
     19 O                    -0.593240
     20 N                    -0.236433
     21 H                     0.169641
     22 H                     0.222929
     23 H                     0.214391
     24 H                     0.193088
     25 H                     0.252228
  ----------------------------------------
  Sum of atomic charges =     0.000000

 -----------------------------------------------------------------
                    Cartesian Multipole Moments
 -----------------------------------------------------------------
    Charge (ESU x 10^10)
                 0.0000
    Dipole Moment (Debye)
         X      -5.4732      Y       1.4318      Z       3.5039
       Tot       6.6546
    Quadrupole Moments (Debye-Ang)
        XX     -79.0424     XY      -6.2973     YY     -61.6312
        XZ       5.7579     YZ      -2.4596     ZZ     -65.4577
    Octopole Moments (Debye-Ang^2)
       XXX      -6.8230    XXY      -9.8229    XYY     -28.3885
       YYY      36.7795    XXZ       9.7593    XYZ      14.3851
       YYZ      36.6211    XZZ       1.9206    YZZ     -20.3881
       ZZZ      41.5340
    Hexadecapole Moments (Debye-Ang^3)
      XXXX    -901.1400   XXXY    -125.1193   XXYY    -547.2895
      XYYY    -203.1964   YYYY   -2113.5003   XXXZ    -114.2902
      XXYZ     174.8207   XYYZ     -10.7261   YYYZ     336.8087
      XXZZ    -305.0799   XYZZ     -76.5934   YYZZ    -401.6899
      XZZZ     -70.4372   YZZZ     326.0269   ZZZZ    -703.9856
 -----------------------------------------------------------------
Archival summary:
1\1\nid00538\SP\ProcedureUnspecified\BasisUnspecified\21913\meili\MonSep2701:49:482021MonSep2701:49:482021\0\\#,ProcedureUnspecified,BasisUnspecified,\\0,1\O\C,1,1.23029\N,2,1.32471,1,121.661\H,3,1.01223,2,117.189,1,-1.0115,0\H,3,1.01561,2,123.136,1,-177.294,0\C,2,1.52522,1,120.023,3,-178.397,0\H,6,1.08854,2,109.087,1,-40.6066,0\H,6,1.08883,2,107.352,1,74.7421,0\H,6,1.1,2,115.058,1,-165.358,0\H,1,2.91003,2,84.2739,3,89.2271,0\C,10,1.08233,1,126.288,2,-85.1228,0\C,11,1.39535,10,119.481,1,-40.5924,0\H,12,1.07972,11,120.294,10,0.497093,0\C,12,1.39326,11,119.758,10,179.213,0\O,14,1.36201,12,119.876,11,-178.436,0\H,15,0.972076,14,110.055,12,165.817,0\C,14,1.39392,12,120.143,11,0.243825,0\H,17,1.08076,14,120.175,12,-179.324,0\C,17,1.39546,14,119.669,12,-0.295609,0\H,19,1.08318,17,119.282,14,-178.466,0\C,19,1.3969,17,120.866,14,-0.0316102,0\C,21,1.51193,19,120.635,17,-175.219,0\H,22,1.09163,21,108.8,19,-133.961,0\H,22,1.09164,21,109.882,19,-15.8989,0\H,22,1.1,21,111.231,19,105.477,0\\\@

 Total job time:  65786.40s(wall), 33190.70s(cpu) 
 Mon Sep 27 01:49:50 2021

        *************************************************************
        *                                                           *
        *  Thank you very much for using Q-Chem.  Have a nice day.  *
        *                                                           *
        *************************************************************


