                  Welcome to Q-Chem
     A Quantum Leap Into The Future Of Chemistry


 Q-Chem 5.2 (devel), Q-Chem, Inc., Pleasanton, CA (2019)

 Yihan Shao,  Zhengting Gan,  E. Epifanovsky,  A. T. B. Gilbert,  M. Wormit,  
 J. Kussmann,  A. W. Lange,  A. Behn,  Jia Deng,  Xintian Feng,  D. Ghosh,  
 M. Goldey,  P. R. Horn,  L. D. Jacobson,  I. Kaliman,  T. Kus,  A. Landau,  
 Jie Liu,  E. I. Proynov,  R. M. Richard,  R. P. Steele,  E. J. Sundstrom,  
 H. L. Woodcock III,  P. M. Zimmerman,  D. Zuev,  B. Albrecht,  E. Alguire,  
 S. A. Baeppler,  D. Barton,  Z. Benda,  Y. A. Bernard,  E. J. Berquist,  
 K. B. Bravaya,  H. Burton,  D. Casanova,  Chun-Min Chang,  Yunqing Chen,  
 A. Chien,  K. D. Closser,  M. P. Coons,  S. Coriani,  S. Dasgupta,  
 A. L. Dempwolff,  M. Diedenhofen,  Hainam Do,  R. G. Edgar,  Po-Tung Fang,  
 S. Faraji,  S. Fatehi,  Qingguo Feng,  K. D. Fenk,  J. Fosso-Tande,  
 J. Gayvert,  Qinghui Ge,  A. Ghysels,  G. Gidofalvi,  J. Gomes,  
 J. Gonthier,  A. Gunina,  D. Hait,  M. W. D. Hanson-Heine,  
 P. H. P. Harbach,  A. W. Hauser,  M. F. Herbst,  J. E. Herr,  
 E. G. Hohenstein,  Z. C. Holden,  Kerwin Hui,  B. C. Huynh,  T.-C. Jagau,  
 Hyunjun Ji,  B. Kaduk,  K. Khistyaev,  Jaehoon Kim,  P. Klunzinger,  K. Koh,  
 D. Kosenkov,  L. Koulias,  T. Kowalczyk,  C. M. Krauter,  A. Kunitsa,  
 Ka Un Lao,  A. Laurent,  K. V. Lawler,  Joonho Lee,  D. Lefrancois,  
 S. Lehtola,  D. S. Levine,  Yi-Pei Li,  You-Sheng Lin,  Fenglai Liu,  
 E. Livshits,  A. Luenser,  P. Manohar,  E. Mansoor,  S. F. Manzer,  
 Shan-Ping Mao,  Yuezhi Mao,  N. Mardirossian,  A. V. Marenich,  
 T. Markovich,  L. A. Martinez-Martinez,  S. A. Maurer,  N. J. Mayhall,  
 S. C. McKenzie,  J.-M. Mewes,  P. Morgante,  A. F. Morrison,  
 J. W. Mullinax,  K. Nanda,  T. S. Nguyen-Beck,  R. Olivares-Amaya,  
 J. A. Parkhill,  Zheng Pei,  T. M. Perrine,  F. Plasser,  P. Pokhilko,  
 S. Prager,  A. Prociuk,  E. Ramos,  D. R. Rehn,  F. Rob,  M. Scheurer,  
 M. Schneider,  N. Sergueev,  S. M. Sharada,  S. Sharma,  D. W. Small,  
 T. Stauch,  T. Stein,  Yu-Chuan Su,  A. J. W. Thom,  A. Tkatchenko,  
 T. Tsuchimochi,  N. M. Tubman,  L. Vogt,  M. L. Vidal,  O. Vydrov,  
 M. A. Watson,  J. Wenzel,  M. de Wergifosse,  T. A. Wesolowski,  A. White,  
 J. Witte,  A. Yamada,  Jun Yang,  K. Yao,  S. Yeganeh,  S. R. Yost,  
 Zhi-Qiang You,  A. Zech,  Igor Ying Zhang,  Xing Zhang,  Yan Zhao,  
 Ying Zhu,  B. R. Brooks,  G. K. L. Chan,  C. J. Cramer,  M. S. Gordon,  
 W. J. Hehre,  A. Klamt,  M. W. Schmidt,  C. D. Sherrill,  D. G. Truhlar,  
 A. Aspuru-Guzik,  R. Baer,  A. T. Bell,  N. A. Besley,  Jeng-Da Chai,  
 A. E. DePrince, III,  R. A. DiStasio Jr.,  A. Dreuw,  B. D. Dunietz,  
 T. R. Furlani,  Chao-Ping Hsu,  Yousung Jung,  Jing Kong,  D. S. Lambrecht,  
 WanZhen Liang,  C. Ochsenfeld,  V. A. Rassolov,  L. V. Slipchenko,  
 J. E. Subotnik,  T. Van Voorhis,  J. M. Herbert,  A. I. Krylov,  
 P. M. W. Gill,  M. Head-Gordon

 Contributors to earlier versions of Q-Chem not listed above: 
 R. D. Adamson,  B. Austin,  J. Baker,  G. J. O. Beran,  K. Brandhorst,  
 S. T. Brown,  E. F. C. Byrd,  A. K. Chakraborty,  C.-L. Cheng,  
 Siu Hung Chien,  D. M. Chipman,  D. L. Crittenden,  H. Dachsel,  
 R. J. Doerksen,  A. D. Dutoi,  L. Fusti-Molnar,  W. A. Goddard III,  
 A. Golubeva-Zadorozhnaya,  S. R. Gwaltney,  G. Hawkins,  A. Heyden,  
 S. Hirata,  G. Kedziora,  F. J. Keil,  C. Kelley,  Jihan Kim,  R. A. King,  
 R. Z. Khaliullin,  P. P. Korambath,  W. Kurlancheek,  A. M. Lee,  M. S. Lee,  
 S. V. Levchenko,  Ching Yeh Lin,  D. Liotard,  R. C. Lochan,  I. Lotan,  
 P. E. Maslen,  N. Nair,  D. P. O'Neill,  D. Neuhauser,  E. Neuscamman,  
 C. M. Oana,  R. Olson,  B. Peters,  R. Peverati,  P. A. Pieniazek,  
 Y. M. Rhee,  J. Ritchie,  M. A. Rohrdanz,  E. Rosta,  N. J. Russ,  
 H. F. Schaefer III,  N. E. Schultz,  N. Shenvi,  A. C. Simmonett,  A. Sodt,  
 D. Stuck,  K. S. Thanthiriwatte,  V. Vanovschi,  Tao Wang,  A. Warshel,  
 C. F. Williams,  Q. Wu,  X. Xu,  W. Zhang

 Please cite Q-Chem as follows:
 Y. Shao et al., Mol. Phys. 113, 184-215 (2015)
 DOI: 10.1080/00268976.2014.952696

 Q-Chem 5.2.1 for Intel X86 EM64T Linux

 Parts of Q-Chem use Armadillo 8.300.2 (Tropical Shenanigans).
 http://arma.sourceforge.net/

 Q-Chem begins on Thu Sep 30 00:17:00 2021  

compute-0-13.local
Host: 0

     Scratch files written to /home/meili/scratch/qchem24357//
NAlpha2: 128
NElect   128
Mult     1
Symmetry turned off for PCM/SM12/SMD calculation

 Q-Chem warning in module libgen/rem_setup.C, line 2813:

 Neither GIA nor STOLL is specified by user. Use STOLL as the default


Checking the input file for inconsistencies... 	...done.

--------------------------------------------------------------
User input:
--------------------------------------------------------------
$comment
SSI-108PHE-125TRP-1.pdb
$end

$molecule
0 1
--
0 1
C    0.684043728949   -2.162481334664   -0.165963784601
C    1.848043728949   -3.134481334664   -0.376963784601
C   -0.563956271051   -2.813481334664    0.349036215399
C   -0.861956271051   -2.800481334664    1.714036215399
C   -1.427956271051   -3.466481334664   -0.527963784601
C   -2.023956271051   -3.418481334664    2.192036215399
C   -2.590956271051   -4.077481334664   -0.053963784601
C   -2.887956271051   -4.050481334664    1.303036215399
H    0.992043728949   -1.374481334664    0.519036215399
H    0.446043728949   -1.692481334664   -1.119963784601
H    1.517043728949   -3.928481334664   -1.044963784601
H   -0.188956271051   -2.317481334664    2.408036215399
H   -1.202956271051   -3.494481334664   -1.584963784601
H   -2.249956271051   -3.401481334664    3.249036215399
H   -3.257956271051   -4.576481334664   -0.742963784601
H   -3.787956271051   -4.524481334664    1.670036215399
H    2.196894728949   -3.557331334664    0.576716215399
H    2.672016728949   -2.590252334664   -0.861613784601
--
0 1
C   -0.685956271051    4.128518665336    1.642036215399
C    0.331043728949    2.665518665336   -0.233963784601
C    0.424043728949    3.656518665336    0.790036215399
C    1.622043728949    2.526518665336   -0.804963784601
C    1.713043728949    4.084518665336    0.797036215399
C   -0.461956271051    0.999518665336   -1.748963784601
C    0.822043728949    0.882518665336   -2.296963784601
C   -0.716956271051    1.881518665336   -0.724963784601
C    1.878043728949    1.644518665336   -1.836963784601
N    2.439043728949    3.407518665336   -0.154963784601
H   -1.267956271051    0.392518665336   -2.133963784601
H    0.984043728949    0.187518665336   -3.107963784601
H   -1.709956271051    1.974518665336   -0.306963784601
H    2.867043728949    1.565518665336   -2.261963784601
H   -0.283956271051    4.472518665336    2.595036215399
H   -1.338956271051    3.279518665336    1.850036215399
H    2.104043728949    4.851518665336    1.453036215399
H    3.419043728949    3.587518665336   -0.362963784601
H   -1.277587271051    4.929388665336    1.174506215399
$end

$rem
JOBTYPE			EDA
EDA2			1
method			wB97X-V
BASIS			def2-TZVPD
XC_GRID			000099000590
NL_GRID			1
UNRESTRICTED		FALSE
MAX_SCF_CYCLES		200
SYMMETRY		FALSE
SYM_IGNORE		TRUE
MEM_STATIC		2000
BASIS_LIN_DEP_THRESH 	6
THRESH 			14
SCF_CONVERGENCE 	8
SCF_PRINT_FRGM 		TRUE
SOLVENT_METHOD          PCM
$end

$PCM
THEORY                  CPCM
METHOD                  SWIG
SOLVER                  INVERSION
RADII                   UFF
HPOINTS                 302
HEAVYPOINTS             302
PRINTLEVEL              0
$END

$SOLVENT
DIELECTRIC              78.390000 ! water
$END
--------------------------------------------------------------
 ----------------------------------------------------------------
             Standard Nuclear Orientation (Angstroms)
    I     Atom           X                Y                Z
 ----------------------------------------------------------------
    1      C       0.6840437289    -2.1624813347    -0.1659637846
    2      C       1.8480437289    -3.1344813347    -0.3769637846
    3      C      -0.5639562711    -2.8134813347     0.3490362154
    4      C      -0.8619562711    -2.8004813347     1.7140362154
    5      C      -1.4279562711    -3.4664813347    -0.5279637846
    6      C      -2.0239562711    -3.4184813347     2.1920362154
    7      C      -2.5909562711    -4.0774813347    -0.0539637846
    8      C      -2.8879562711    -4.0504813347     1.3030362154
    9      H       0.9920437289    -1.3744813347     0.5190362154
   10      H       0.4460437289    -1.6924813347    -1.1199637846
   11      H       1.5170437289    -3.9284813347    -1.0449637846
   12      H      -0.1889562711    -2.3174813347     2.4080362154
   13      H      -1.2029562711    -3.4944813347    -1.5849637846
   14      H      -2.2499562711    -3.4014813347     3.2490362154
   15      H      -3.2579562711    -4.5764813347    -0.7429637846
   16      H      -3.7879562711    -4.5244813347     1.6700362154
   17      H       2.1968947289    -3.5573313347     0.5767162154
   18      H       2.6720167289    -2.5902523347    -0.8616137846
   19      C      -0.6859562711     4.1285186653     1.6420362154
   20      C       0.3310437289     2.6655186653    -0.2339637846
   21      C       0.4240437289     3.6565186653     0.7900362154
   22      C       1.6220437289     2.5265186653    -0.8049637846
   23      C       1.7130437289     4.0845186653     0.7970362154
   24      C      -0.4619562711     0.9995186653    -1.7489637846
   25      C       0.8220437289     0.8825186653    -2.2969637846
   26      C      -0.7169562711     1.8815186653    -0.7249637846
   27      C       1.8780437289     1.6445186653    -1.8369637846
   28      N       2.4390437289     3.4075186653    -0.1549637846
   29      H      -1.2679562711     0.3925186653    -2.1339637846
   30      H       0.9840437289     0.1875186653    -3.1079637846
   31      H      -1.7099562711     1.9745186653    -0.3069637846
   32      H       2.8670437289     1.5655186653    -2.2619637846
   33      H      -0.2839562711     4.4725186653     2.5950362154
   34      H      -1.3389562711     3.2795186653     1.8500362154
   35      H       2.1040437289     4.8515186653     1.4530362154
   36      H       3.4190437289     3.5875186653    -0.3629637846
   37      H      -1.2775872711     4.9293886653     1.1745062154
 ----------------------------------------------------------------
 Nuclear Repulsion Energy =        1167.03294554 hartrees
 There are       64 alpha and       64 beta electrons
 Requested basis set is def2-TZVPD
 There are 329 shells and 837 basis functions

 Total QAlloc Memory Limit   2000 MB
 Mega-Array Size      1956 MB
 MEM_STATIC part      2000 MB
 Discretize the solute cavity surface with Lebedev spheres
	Using 302 Lebedev grid points for each H atom
	Using 302 Lebedev grid points for other atoms
	Atomic van der Waals radii will be scaled by 1.20
 Remove points where switching function is < 1.0e-08
 Keep 4118 surface tesserae and discard 7056 interior tesserae
 Molecular Surface Area = 393.763 Angst**2
 A cutoff of  1.0D-14 yielded  43799 shell pairs
 There are    281885 function pairs (    355400 Cartesian)
 Smallest overlap matrix eigenvalue = 4.13E-07
 Linear dependence detected in AO basis
 Tighter screening thresholds may be required for diffuse basis sets
 Use S2THRESH > 14 and THRESH = 14 in case of SCF convergence issues
 Number of orthogonalized atomic orbitals = 831
 Maximum deviation from orthogonality = 1.514E-10

 Scale SEOQF with 1.000000e-01/1.000000e-01/1.000000e-01

 Standard Electronic Orientation quadrupole field applied
 Nucleus-field energy     =     0.0000000761 hartrees

 -----------------------------------------------------------------------
  General SCF calculation program by
  Eric Jon Sundstrom, Paul Horn, Yuezhi Mao, Dmitri Zuev, Alec White,
  David Stuck, Shaama M.S., Shane Yost, Joonho Lee, David Small,
  Daniel Levine, Susi Lehtola, Hugh Burton, Evgeny Epifanovsky,
  Bang C. Huynh
 -----------------------------------------------------------------------
================================================================
                 ALMO-EDA with the EDA2 driver                  
================================================================
 The second-generation ALMO-EDA (for DFT):                      
 P. R. Horn, Y. Mao and M. Head-Gordon, PCCP, 18, 23067 (2016)  
 Decomposition of the frozen energy:                            
 P. R. Horn, Y. Mao and M. Head-Gordon, JCP, 144, 114107 (2016) 
 FERF model for polarization:                                   
 P. R. Horn and M. Head-Gordon, JCP, 143, 114111 (2015)         
Using eda2 option set 1
Option set summary: Frozen orbital wavefunction, initial wavefunction decomposition, and nDQ polarization.
--------------------------------
Printing EDA Options
--------------------------------
eda_child_super_basis      0
fragmo_guess_mode          0
child_mp                   1
child_mp_orders            232
cls_elec                   1
cls_disp                   0
scfmi_mode                 1
scfmi_occs                 0
scfmi_virts                0
frz_relax                  0
frz_relax_method           0
dc_pen_start               0
dc_pen_conv                0
dc_pen_increment           0
dc_pen_steps               0
dc_pen_thresh_factor       0
dc_pen_pre_newton_thresh   0
frz_ortho_decomp           1
frz_ortho_decomp_conv      6
frgm_method                2
scfmi_freeze_ss            0
separate_rehyb             0
plot_diff_den              0
eda_nocv                   0
eda_vct_relax              1
disp_free_x                0
disp_free_c                0
eda_bsse                   0
eda_pct_a                  0
eda_covp                   0
--------------------------------
Attempting to make child job directory: /home/meili/scratch/qchem24357//Frg1/
Attempting to make child job directory: /home/meili/scratch/qchem24357//Frg2/
Creating input file /home/meili/scratch/qchem24357/Frg1.input
using default PutDataFrgm: nothing
calling putenv with: QCSCRATCH=/home/meili/scratch/qchem24357/ 
Spawning Job For Fragment 0
                  Welcome to Q-Chem
     A Quantum Leap Into The Future Of Chemistry


 Q-Chem 5.2 (devel), Q-Chem, Inc., Pleasanton, CA (2019)

 Yihan Shao,  Zhengting Gan,  E. Epifanovsky,  A. T. B. Gilbert,  M. Wormit,  
 J. Kussmann,  A. W. Lange,  A. Behn,  Jia Deng,  Xintian Feng,  D. Ghosh,  
 M. Goldey,  P. R. Horn,  L. D. Jacobson,  I. Kaliman,  T. Kus,  A. Landau,  
 Jie Liu,  E. I. Proynov,  R. M. Richard,  R. P. Steele,  E. J. Sundstrom,  
 H. L. Woodcock III,  P. M. Zimmerman,  D. Zuev,  B. Albrecht,  E. Alguire,  
 S. A. Baeppler,  D. Barton,  Z. Benda,  Y. A. Bernard,  E. J. Berquist,  
 K. B. Bravaya,  H. Burton,  D. Casanova,  Chun-Min Chang,  Yunqing Chen,  
 A. Chien,  K. D. Closser,  M. P. Coons,  S. Coriani,  S. Dasgupta,  
 A. L. Dempwolff,  M. Diedenhofen,  Hainam Do,  R. G. Edgar,  Po-Tung Fang,  
 S. Faraji,  S. Fatehi,  Qingguo Feng,  K. D. Fenk,  J. Fosso-Tande,  
 J. Gayvert,  Qinghui Ge,  A. Ghysels,  G. Gidofalvi,  J. Gomes,  
 J. Gonthier,  A. Gunina,  D. Hait,  M. W. D. Hanson-Heine,  
 P. H. P. Harbach,  A. W. Hauser,  M. F. Herbst,  J. E. Herr,  
 E. G. Hohenstein,  Z. C. Holden,  Kerwin Hui,  B. C. Huynh,  T.-C. Jagau,  
 Hyunjun Ji,  B. Kaduk,  K. Khistyaev,  Jaehoon Kim,  P. Klunzinger,  K. Koh,  
 D. Kosenkov,  L. Koulias,  T. Kowalczyk,  C. M. Krauter,  A. Kunitsa,  
 Ka Un Lao,  A. Laurent,  K. V. Lawler,  Joonho Lee,  D. Lefrancois,  
 S. Lehtola,  D. S. Levine,  Yi-Pei Li,  You-Sheng Lin,  Fenglai Liu,  
 E. Livshits,  A. Luenser,  P. Manohar,  E. Mansoor,  S. F. Manzer,  
 Shan-Ping Mao,  Yuezhi Mao,  N. Mardirossian,  A. V. Marenich,  
 T. Markovich,  L. A. Martinez-Martinez,  S. A. Maurer,  N. J. Mayhall,  
 S. C. McKenzie,  J.-M. Mewes,  P. Morgante,  A. F. Morrison,  
 J. W. Mullinax,  K. Nanda,  T. S. Nguyen-Beck,  R. Olivares-Amaya,  
 J. A. Parkhill,  Zheng Pei,  T. M. Perrine,  F. Plasser,  P. Pokhilko,  
 S. Prager,  A. Prociuk,  E. Ramos,  D. R. Rehn,  F. Rob,  M. Scheurer,  
 M. Schneider,  N. Sergueev,  S. M. Sharada,  S. Sharma,  D. W. Small,  
 T. Stauch,  T. Stein,  Yu-Chuan Su,  A. J. W. Thom,  A. Tkatchenko,  
 T. Tsuchimochi,  N. M. Tubman,  L. Vogt,  M. L. Vidal,  O. Vydrov,  
 M. A. Watson,  J. Wenzel,  M. de Wergifosse,  T. A. Wesolowski,  A. White,  
 J. Witte,  A. Yamada,  Jun Yang,  K. Yao,  S. Yeganeh,  S. R. Yost,  
 Zhi-Qiang You,  A. Zech,  Igor Ying Zhang,  Xing Zhang,  Yan Zhao,  
 Ying Zhu,  B. R. Brooks,  G. K. L. Chan,  C. J. Cramer,  M. S. Gordon,  
 W. J. Hehre,  A. Klamt,  M. W. Schmidt,  C. D. Sherrill,  D. G. Truhlar,  
 A. Aspuru-Guzik,  R. Baer,  A. T. Bell,  N. A. Besley,  Jeng-Da Chai,  
 A. E. DePrince, III,  R. A. DiStasio Jr.,  A. Dreuw,  B. D. Dunietz,  
 T. R. Furlani,  Chao-Ping Hsu,  Yousung Jung,  Jing Kong,  D. S. Lambrecht,  
 WanZhen Liang,  C. Ochsenfeld,  V. A. Rassolov,  L. V. Slipchenko,  
 J. E. Subotnik,  T. Van Voorhis,  J. M. Herbert,  A. I. Krylov,  
 P. M. W. Gill,  M. Head-Gordon

 Contributors to earlier versions of Q-Chem not listed above: 
 R. D. Adamson,  B. Austin,  J. Baker,  G. J. O. Beran,  K. Brandhorst,  
 S. T. Brown,  E. F. C. Byrd,  A. K. Chakraborty,  C.-L. Cheng,  
 Siu Hung Chien,  D. M. Chipman,  D. L. Crittenden,  H. Dachsel,  
 R. J. Doerksen,  A. D. Dutoi,  L. Fusti-Molnar,  W. A. Goddard III,  
 A. Golubeva-Zadorozhnaya,  S. R. Gwaltney,  G. Hawkins,  A. Heyden,  
 S. Hirata,  G. Kedziora,  F. J. Keil,  C. Kelley,  Jihan Kim,  R. A. King,  
 R. Z. Khaliullin,  P. P. Korambath,  W. Kurlancheek,  A. M. Lee,  M. S. Lee,  
 S. V. Levchenko,  Ching Yeh Lin,  D. Liotard,  R. C. Lochan,  I. Lotan,  
 P. E. Maslen,  N. Nair,  D. P. O'Neill,  D. Neuhauser,  E. Neuscamman,  
 C. M. Oana,  R. Olson,  B. Peters,  R. Peverati,  P. A. Pieniazek,  
 Y. M. Rhee,  J. Ritchie,  M. A. Rohrdanz,  E. Rosta,  N. J. Russ,  
 H. F. Schaefer III,  N. E. Schultz,  N. Shenvi,  A. C. Simmonett,  A. Sodt,  
 D. Stuck,  K. S. Thanthiriwatte,  V. Vanovschi,  Tao Wang,  A. Warshel,  
 C. F. Williams,  Q. Wu,  X. Xu,  W. Zhang

 Please cite Q-Chem as follows:
 Y. Shao et al., Mol. Phys. 113, 184-215 (2015)
 DOI: 10.1080/00268976.2014.952696

 Q-Chem 5.2.1 for Intel X86 EM64T Linux

 Parts of Q-Chem use Armadillo 8.300.2 (Tropical Shenanigans).
 http://arma.sourceforge.net/

 Q-Chem begins on Thu Sep 30 00:17:10 2021  

compute-0-13.local
Host: 0

     Scratch files written to /home/meili/scratch/qchem24357//Frg1//
NAlpha2: 58
NElect   58
Mult     1
Symmetry turned off for PCM/SM12/SMD calculation

Checking the input file for inconsistencies... 	...done.

--------------------------------------------------------------
User input:
--------------------------------------------------------------
$molecule
0 1
 6	0.6840437289	-2.1624813347	-0.1659637846
 6	1.8480437289	-3.1344813347	-0.3769637846
 6	-0.5639562711	-2.8134813347	0.3490362154
 6	-0.8619562711	-2.8004813347	1.7140362154
 6	-1.4279562711	-3.4664813347	-0.5279637846
 6	-2.0239562711	-3.4184813347	2.1920362154
 6	-2.5909562711	-4.0774813347	-0.0539637846
 6	-2.8879562711	-4.0504813347	1.3030362154
 1	0.9920437289	-1.3744813347	0.5190362154
 1	0.4460437289	-1.6924813347	-1.1199637846
 1	1.5170437289	-3.9284813347	-1.0449637846
 1	-0.1889562711	-2.3174813347	2.4080362154
 1	-1.2029562711	-3.4944813347	-1.5849637846
 1	-2.2499562711	-3.4014813347	3.2490362154
 1	-3.2579562711	-4.5764813347	-0.7429637846
 1	-3.7879562711	-4.5244813347	1.6700362154
 1	2.1968947289	-3.5573313347	0.5767162154
 1	2.6720167289	-2.5902523347	-0.8616137846
$end
$rem
EDA2		1
METHOD		WB97X-V
BASIS		DEF2-TZVPD
XC_GRID		000099000590
NL_GRID		1
UNRESTRICTED		FALSE
MAX_SCF_CYCLES		200
SYMMETRY		FALSE
SYM_IGNORE		TRUE
BASIS_LIN_DEP_THRESH		6
THRESH		14
SCF_CONVERGENCE		8
SCF_PRINT_FRGM		TRUE
SOLVENT_METHOD		PCM
!required keywords
JOBTYPE		SP
SYM_IGNORE		TRUE
SUBSYSTEM		TRUE
GEN_SCFMAN		TRUE
CHILD_INSTRUCTION		2
SYM_IGNORE		TRUE
SCFMI		0
RI_K 0		
PARI_K 0		
MIN_PARI_K 0		
IARI_K 0		
OCC_RI_K 0		
PURECART		1111
MEM_STATIC		2000
MEM_TOTAL		2000
GUI		0
CHILD_MP		1
CHILD_MP_ORDERS		232
FRZ_RELAX		0
FRZ_RELAX_METHOD		0
EDA_CLS_ELEC		1
EDA_CLS_DISP		0
FRZ_ORTHO_DECOMP		1
EDA2		FALSE
FRGM_METHOD		FALSE
CIS_N_ROOTS  0
LOCAL_CIS    0
CIS_RLX_DNS  1
$end
$pcm
THEORY                  CPCM
METHOD                  SWIG
SOLVER                  INVERSION
RADII                   UFF
HPOINTS                 302
HEAVYPOINTS             302
PRINTLEVEL              0
$end
$solvent
DIELECTRIC              78.390000 ! water
$end
--------------------------------------------------------------
 ----------------------------------------------------------------
             Standard Nuclear Orientation (Angstroms)
    I     Atom           X                Y                Z
 ----------------------------------------------------------------
    1      C       0.6840437289    -2.1624813347    -0.1659637846
    2      C       1.8480437289    -3.1344813347    -0.3769637846
    3      C      -0.5639562711    -2.8134813347     0.3490362154
    4      C      -0.8619562711    -2.8004813347     1.7140362154
    5      C      -1.4279562711    -3.4664813347    -0.5279637846
    6      C      -2.0239562711    -3.4184813347     2.1920362154
    7      C      -2.5909562711    -4.0774813347    -0.0539637846
    8      C      -2.8879562711    -4.0504813347     1.3030362154
    9      H       0.9920437289    -1.3744813347     0.5190362154
   10      H       0.4460437289    -1.6924813347    -1.1199637846
   11      H       1.5170437289    -3.9284813347    -1.0449637846
   12      H      -0.1889562711    -2.3174813347     2.4080362154
   13      H      -1.2029562711    -3.4944813347    -1.5849637846
   14      H      -2.2499562711    -3.4014813347     3.2490362154
   15      H      -3.2579562711    -4.5764813347    -0.7429637846
   16      H      -3.7879562711    -4.5244813347     1.6700362154
   17      H       2.1968947289    -3.5573313347     0.5767162154
   18      H       2.6720167289    -2.5902523347    -0.8616137846
 ----------------------------------------------------------------
 Nuclear Repulsion Energy =         340.59699358 hartrees
 There are       29 alpha and       29 beta electrons
 Requested basis set is def2-TZVPD
 There are 154 shells and 386 basis functions

 Total QAlloc Memory Limit   2000 MB
 Mega-Array Size      1956 MB
 MEM_STATIC part      2000 MB
 Discretize the solute cavity surface with Lebedev spheres
	Using 302 Lebedev grid points for each H atom
	Using 302 Lebedev grid points for other atoms
	Atomic van der Waals radii will be scaled by 1.20
 Remove points where switching function is < 1.0e-08
 Keep 2089 surface tesserae and discard 3347 interior tesserae
 Molecular Surface Area = 202.213 Angst**2
 A cutoff of  1.0D-14 yielded  11349 shell pairs
 There are     72679 function pairs (     92084 Cartesian)
 Smallest overlap matrix eigenvalue = 5.21E-07
 Linear dependence detected in AO basis
 Tighter screening thresholds may be required for diffuse basis sets
 Use S2THRESH > 14 and THRESH = 14 in case of SCF convergence issues
 Number of orthogonalized atomic orbitals = 385
 Maximum deviation from orthogonality = 1.223E-10

 Scale SEOQF with 1.000000e-01/1.000000e-01/1.000000e-01

 Standard Electronic Orientation quadrupole field applied
 Nucleus-field energy     =     0.0000000432 hartrees
 Guess from superposition of atomic densities
 Warning:  Energy on first SCF cycle will be non-variational
 SAD guess density has 58.000000 electrons

 -----------------------------------------------------------------------
  General SCF calculation program by
  Eric Jon Sundstrom, Paul Horn, Yuezhi Mao, Dmitri Zuev, Alec White,
  David Stuck, Shaama M.S., Shane Yost, Joonho Lee, David Small,
  Daniel Levine, Susi Lehtola, Hugh Burton, Evgeny Epifanovsky,
  Bang C. Huynh
 -----------------------------------------------------------------------
 Exchange:     0.1670 Hartree-Fock + 1.0000 wB97X-V + LR-HF
 Correlation:  1.0000 wB97X-V
 Using Euler-Maclaurin-Lebedev (99,590) quadrature formula
 Nonlocal Correlation:  VV10 with C = 0.0100 and b = 6.00 and scale = 1.00000
 Grid used for NLC:  SG-1 standard quadrature
Energy prior to optimization (guess energy) = -310.838066007577
Begin Timing: Total SCF Calculation
begin iterations for algorithm: DIIS         
the SCF tolerance is set to 1.00e-08
    1    -310.8380660076      1.67e-03     00000 
    2    -310.8781012390      1.04e-03     00000 
    3    -310.8983261122      1.27e-04     00000 
    4    -310.8988038839      3.35e-05     00000 
    5    -310.8988274479      1.57e-05     00000 
    6    -310.8988324884      4.11e-06     00000 
    7    -310.8988329315      1.46e-06     00000 
    8    -310.8988329845      3.55e-07     00000 
    9    -310.8988329892      9.08e-08     00000 
   10    -310.8988329896      4.71e-08     00000 
   11    -310.8988329896      1.41e-08     00000 
   12    -310.8988329897      4.84e-09     00000 Convergence criterion met
Timing for Total SCF: 1058.00s (wall), 5722.00s (cpu)

************** Final PCM Free Energy Summary **************
 G_electrostatic  =      -0.00262451 hartree =      -1.64690288 kcal/mol
 G_cavitation     =       0.00000000 hartree =       0.00000000 kcal/mol
 G_dispersion     =       0.00000000 hartree =       0.00000000 kcal/mol
 G_repulsion      =       0.00000000 hartree =       0.00000000 kcal/mol
 --------------------------------------------------
 Non-electrostatic Free Energy =       0.00000000 hartree =       0.00000000 kcal/mol
 Total                         =      -0.00262451 hartree =      -1.64690288 kcal/mol
 --------------------------------------------------
 SCF Energy (H0 + V/2)                       =    -310.89883299 
 Solute Internal Energy (H0)                 =    -310.89620848 
 Total Free Energy (H0 + V/2 + non-elec)     =    -310.89883299 hartree
                                             = -195091.96222386 kcal/mol
***********************************************************

E_pcm = -0.0026245068
Multipole orders to be included
        2
        3
computing dipole RHS
computing quadrupole RHS
total number of RHS in solve_reponses: 8
RHS batch sizes
        8
Beginning Block Conjugate Gradient Iterations. Batch Number: 0
computing hessian-vector products by finite difference
              1      5.62e-01     00000 Conjugate Gradient Iteration
computing hessian-vector products by finite difference
              2      1.88e-01     00000 Conjugate Gradient Iteration
computing hessian-vector products by finite difference
              3      4.54e-02     00000 Conjugate Gradient Iteration
computing hessian-vector products by finite difference
              4      1.07e-02     00000 Conjugate Gradient Iteration
computing hessian-vector products by finite difference
              5      2.57e-03     00000 Conjugate Gradient Iteration
computing hessian-vector products by finite difference
              6      5.88e-04     00000 Conjugate Gradient Iteration
computing hessian-vector products by finite difference
              7      1.71e-04     00000 Conjugate Gradient Iteration
computing hessian-vector products by finite difference
              8      2.89e-05     00000 Conjugate Gradient Iteration
computing hessian-vector products by finite difference
              9      4.43e-06     00000 Conjugate Gradient Iteration
computing hessian-vector products by finite difference
             10      6.84e-07     00000 Conjugate Gradient Iteration
computing hessian-vector products by finite difference
             11      9.65e-08     00000 Conjugate Gradient Iteration
computing hessian-vector products by finite difference
             12      1.45e-08     00000 Conjugate Gradient Iteration
computing hessian-vector products by finite difference
             13      3.07e-09     00000 CG Converged
batch 0 complete
Done Calculating Responses
TESTING ORTHOGONALIZATION OF MULTIPOLE BASIS
Multipole virts passed orthogonality test
Virts Per Order
           87
          145

 --------------------------------------------------------------

                    Orbital Energies (a.u.)
 --------------------------------------------------------------

 Alpha MOs
 -- Occupied --
-10.2791 -10.2743 -10.2738 -10.2713 -10.2707 -10.2706 -10.2657 -10.2591
 -0.9979  -0.9241  -0.8782  -0.8546  -0.7586  -0.7318  -0.6973  -0.6299
 -0.5836  -0.5728  -0.5416  -0.5353  -0.5253  -0.5065  -0.4802  -0.4624
 -0.4579  -0.4361  -0.4295  -0.3482  -0.3382
 -- Virtual --
  0.0604   0.0630   0.0674   0.0817   0.0833   0.0904   0.1046   0.1085
  0.1135   0.1312   0.1567   0.1622   0.1652   0.1735   0.1844   0.1885
  0.1939   0.1990   0.2130   0.2161   0.2216   0.2308   0.2409   0.2508
  0.2646   0.2657   0.2679   0.2735   0.2759   0.2823   0.2870   0.2926
  0.2938   0.3009   0.3025   0.3071   0.3193   0.3269   0.3299   0.3347
  0.3458   0.3507   0.3523   0.3585   0.3612   0.3665   0.3721   0.3739
  0.3813   0.3851   0.3900   0.3923   0.3955   0.4038   0.4125   0.4194
  0.4229   0.4334   0.4346   0.4390   0.4459   0.4540   0.4563   0.4599
  0.4636   0.4665   0.4744   0.4803   0.4865   0.4908   0.4959   0.4996
  0.5118   0.5200   0.5208   0.5243   0.5300   0.5345   0.5403   0.5482
  0.5521   0.5543   0.5703   0.5787   0.5806   0.5888   0.5925   0.6074
  0.6144   0.6239   0.6384   0.6400   0.6462   0.6611   0.6654   0.6701
  0.6797   0.6944   0.7024   0.7067   0.7164   0.7220   0.7224   0.7279
  0.7331   0.7511   0.7527   0.7577   0.7677   0.7716   0.7817   0.7841
  0.7910   0.7942   0.7980   0.8000   0.8075   0.8116   0.8162   0.8217
  0.8247   0.8345   0.8410   0.8452   0.8497   0.8541   0.8640   0.8734
  0.8836   0.8876   0.9115   0.9186   0.9298   0.9414   0.9553   0.9705
  0.9968   1.0149   1.0279   1.0447   1.0518   1.0626   1.0791   1.0827
  1.0951   1.1017   1.1040   1.1173   1.1627   1.1755   1.1955   1.2164
  1.2209   1.2927   1.3026   1.3229   1.3386   1.3648   1.3872   1.3970
  1.4096   1.4213   1.4434   1.4639   1.4799   1.4931   1.5180   1.5289
  1.5573   1.5728   1.6213   1.6276   1.6372   1.6553   1.6898   1.7380
  1.7547   1.7814   1.7960   1.8107   1.8206   1.8353   1.8380   1.8833
  1.8977   1.9013   1.9191   1.9254   1.9346   1.9528   1.9818   1.9852
  1.9939   2.0078   2.0119   2.0303   2.0365   2.0498   2.0705   2.0767
  2.0885   2.1023   2.1452   2.1497   2.1810   2.1932   2.2051   2.2253
  2.2424   2.2638   2.2932   2.3135   2.3170   2.3882   2.4037   2.4103
  2.4311   2.4788   2.5089   2.5276   2.5463   2.5533   2.5841   2.6046
  2.6071   2.6293   2.6447   2.6494   2.6853   2.6958   2.7263   2.7413
  2.7430   2.7728   2.7886   2.7989   2.8229   2.8279   2.8472   2.8652
  2.8920   2.9091   2.9144   2.9257   2.9294   2.9466   2.9588   2.9784
  2.9929   3.0100   3.0237   3.0303   3.0453   3.0579   3.0716   3.0801
  3.1081   3.1544   3.1742   3.1946   3.2152   3.2367   3.2515   3.2545
  3.2939   3.3022   3.3336   3.3444   3.3795   3.3877   3.4044   3.4143
  3.4296   3.4473   3.4558   3.4742   3.4855   3.4907   3.4988   3.5007
  3.5147   3.5235   3.5409   3.5478   3.5580   3.5677   3.5782   3.6079
  3.6249   3.6279   3.6466   3.6617   3.6828   3.6957   3.7052   3.7249
  3.7453   3.7783   3.7888   3.8324   3.8635   3.8725   3.9260   3.9689
  3.9758   3.9954   4.0432   4.0625   4.1080   4.1315   4.1775   4.1866
  4.2184   4.2683   4.2856   4.3100   4.3255   4.3340   4.3465   4.3691
  4.3918   4.3992   4.4337   4.4517   4.4702   4.5041   4.5470   4.5933
  4.6277   4.6872   4.7443   4.7685   4.8255   4.8722   4.9202   4.9242
  4.9624   5.0121   5.0249   5.1124   5.1811   5.3110   5.3681   5.3825
  5.5141   5.5404   5.6970   5.8621  22.6320  22.6595  22.7962  22.8946
 22.9381  23.0168  23.0805  23.4409
 --------------------------------------------------------------

          Ground-State Mulliken Net Atomic Charges

     Atom                 Charge (a.u.)
  ----------------------------------------
      1 C                    -0.554281
      2 C                    -0.756379
      3 C                     0.822885
      4 C                    -0.369771
      5 C                    -0.284979
      6 C                    -0.582713
      7 C                    -0.605093
      8 C                    -0.482120
      9 H                     0.261561
     10 H                     0.252776
     11 H                     0.242704
     12 H                     0.319538
     13 H                     0.335921
     14 H                     0.313460
     15 H                     0.314508
     16 H                     0.338741
     17 H                     0.227391
     18 H                     0.205851
  ----------------------------------------
  Sum of atomic charges =     0.000000

 -----------------------------------------------------------------
                    Cartesian Multipole Moments
 -----------------------------------------------------------------
    Charge (ESU x 10^10)
                 0.0000
    Dipole Moment (Debye)
         X       0.4670      Y       0.2097      Z      -0.2186
       Tot       0.5566
    Quadrupole Moments (Debye-Ang)
        XX     -48.0091     XY       2.2773     YY     -52.4578
        XZ      -0.0282     YZ       1.5541     ZZ     -45.0120
    Octopole Moments (Debye-Ang^2)
       XXX     120.2596    XXY     143.2311    XYY      25.7315
       YYY     503.8187    XXZ     -22.5177    XYZ       1.2704
       YYZ     -35.6909    XZZ      36.1353    YZZ     146.3781
       ZZZ     -66.8188
    Hexadecapole Moments (Debye-Ang^3)
      XXXX   -1051.9759   XXXY    -449.1618   XXYY    -634.5134
      XYYY    -450.2749   YYYY   -3464.0838   XXXZ     168.2688
      XXYZ      66.3622   XYYZ      57.8315   YYYZ     317.2348
      XXZZ    -239.6868   XYZZ    -145.7490   YYZZ    -592.5419
      XZZZ     161.0539   YZZZ     230.2462   ZZZZ    -436.8399
 -----------------------------------------------------------------
Archival summary:
1\1\compute-0-13.local\SP\ProcedureUnspecified\BasisUnspecified\810\meili\ThuSep3006:55:462021ThuSep3006:55:462021\0\\#,ProcedureUnspecified,BasisUnspecified,\\0,1\C\C,1,1.39357\H,2,1.08104,1,119.895\C,2,1.39663,1,120.51,3,-179.471,0\H,4,1.08102,2,119.962,1,179.632,0\C,4,1.38938,2,120.065,1,-0.696855,0\H,6,1.08137,4,120.057,2,-179.937,0\C,6,1.39149,4,120.006,2,-0.232674,0\H,8,1.08102,6,120.134,4,-179.625,0\C,1,1.39721,2,119.14,3,-179.253,0\H,10,1.08067,1,119.916,2,178.59,0\C,1,1.49884,2,120.233,3,-0.665409,0\H,12,1.08859,1,109.498,2,155.746,0\H,12,1.0898,1,107.834,2,39.0836,0\C,12,1.53108,1,113.868,2,-81.5137,0\H,15,1.08914,12,108.439,1,55.8557,0\H,15,1.1,12,108.427,1,173.535,0\H,15,1.1,12,111.448,1,-65.8113,0\\\@

 Total job time:  23916.21s(wall), 135896.93s(cpu) 
 Thu Sep 30 06:55:46 2021

        *************************************************************
        *                                                           *
        *  Thank you very much for using Q-Chem.  Have a nice day.  *
        *                                                           *
        *************************************************************


Done Job For Fragment 0
calling putenv with: QCSCRATCH=/home/meili/scratch 
calling putenv with: QCTHREADS=8 
Creating input file /home/meili/scratch/qchem24357/Frg2.input
using default PutDataFrgm: nothing
calling putenv with: QCSCRATCH=/home/meili/scratch/qchem24357/ 
Spawning Job For Fragment 1
                  Welcome to Q-Chem
     A Quantum Leap Into The Future Of Chemistry


 Q-Chem 5.2 (devel), Q-Chem, Inc., Pleasanton, CA (2019)

 Yihan Shao,  Zhengting Gan,  E. Epifanovsky,  A. T. B. Gilbert,  M. Wormit,  
 J. Kussmann,  A. W. Lange,  A. Behn,  Jia Deng,  Xintian Feng,  D. Ghosh,  
 M. Goldey,  P. R. Horn,  L. D. Jacobson,  I. Kaliman,  T. Kus,  A. Landau,  
 Jie Liu,  E. I. Proynov,  R. M. Richard,  R. P. Steele,  E. J. Sundstrom,  
 H. L. Woodcock III,  P. M. Zimmerman,  D. Zuev,  B. Albrecht,  E. Alguire,  
 S. A. Baeppler,  D. Barton,  Z. Benda,  Y. A. Bernard,  E. J. Berquist,  
 K. B. Bravaya,  H. Burton,  D. Casanova,  Chun-Min Chang,  Yunqing Chen,  
 A. Chien,  K. D. Closser,  M. P. Coons,  S. Coriani,  S. Dasgupta,  
 A. L. Dempwolff,  M. Diedenhofen,  Hainam Do,  R. G. Edgar,  Po-Tung Fang,  
 S. Faraji,  S. Fatehi,  Qingguo Feng,  K. D. Fenk,  J. Fosso-Tande,  
 J. Gayvert,  Qinghui Ge,  A. Ghysels,  G. Gidofalvi,  J. Gomes,  
 J. Gonthier,  A. Gunina,  D. Hait,  M. W. D. Hanson-Heine,  
 P. H. P. Harbach,  A. W. Hauser,  M. F. Herbst,  J. E. Herr,  
 E. G. Hohenstein,  Z. C. Holden,  Kerwin Hui,  B. C. Huynh,  T.-C. Jagau,  
 Hyunjun Ji,  B. Kaduk,  K. Khistyaev,  Jaehoon Kim,  P. Klunzinger,  K. Koh,  
 D. Kosenkov,  L. Koulias,  T. Kowalczyk,  C. M. Krauter,  A. Kunitsa,  
 Ka Un Lao,  A. Laurent,  K. V. Lawler,  Joonho Lee,  D. Lefrancois,  
 S. Lehtola,  D. S. Levine,  Yi-Pei Li,  You-Sheng Lin,  Fenglai Liu,  
 E. Livshits,  A. Luenser,  P. Manohar,  E. Mansoor,  S. F. Manzer,  
 Shan-Ping Mao,  Yuezhi Mao,  N. Mardirossian,  A. V. Marenich,  
 T. Markovich,  L. A. Martinez-Martinez,  S. A. Maurer,  N. J. Mayhall,  
 S. C. McKenzie,  J.-M. Mewes,  P. Morgante,  A. F. Morrison,  
 J. W. Mullinax,  K. Nanda,  T. S. Nguyen-Beck,  R. Olivares-Amaya,  
 J. A. Parkhill,  Zheng Pei,  T. M. Perrine,  F. Plasser,  P. Pokhilko,  
 S. Prager,  A. Prociuk,  E. Ramos,  D. R. Rehn,  F. Rob,  M. Scheurer,  
 M. Schneider,  N. Sergueev,  S. M. Sharada,  S. Sharma,  D. W. Small,  
 T. Stauch,  T. Stein,  Yu-Chuan Su,  A. J. W. Thom,  A. Tkatchenko,  
 T. Tsuchimochi,  N. M. Tubman,  L. Vogt,  M. L. Vidal,  O. Vydrov,  
 M. A. Watson,  J. Wenzel,  M. de Wergifosse,  T. A. Wesolowski,  A. White,  
 J. Witte,  A. Yamada,  Jun Yang,  K. Yao,  S. Yeganeh,  S. R. Yost,  
 Zhi-Qiang You,  A. Zech,  Igor Ying Zhang,  Xing Zhang,  Yan Zhao,  
 Ying Zhu,  B. R. Brooks,  G. K. L. Chan,  C. J. Cramer,  M. S. Gordon,  
 W. J. Hehre,  A. Klamt,  M. W. Schmidt,  C. D. Sherrill,  D. G. Truhlar,  
 A. Aspuru-Guzik,  R. Baer,  A. T. Bell,  N. A. Besley,  Jeng-Da Chai,  
 A. E. DePrince, III,  R. A. DiStasio Jr.,  A. Dreuw,  B. D. Dunietz,  
 T. R. Furlani,  Chao-Ping Hsu,  Yousung Jung,  Jing Kong,  D. S. Lambrecht,  
 WanZhen Liang,  C. Ochsenfeld,  V. A. Rassolov,  L. V. Slipchenko,  
 J. E. Subotnik,  T. Van Voorhis,  J. M. Herbert,  A. I. Krylov,  
 P. M. W. Gill,  M. Head-Gordon

 Contributors to earlier versions of Q-Chem not listed above: 
 R. D. Adamson,  B. Austin,  J. Baker,  G. J. O. Beran,  K. Brandhorst,  
 S. T. Brown,  E. F. C. Byrd,  A. K. Chakraborty,  C.-L. Cheng,  
 Siu Hung Chien,  D. M. Chipman,  D. L. Crittenden,  H. Dachsel,  
 R. J. Doerksen,  A. D. Dutoi,  L. Fusti-Molnar,  W. A. Goddard III,  
 A. Golubeva-Zadorozhnaya,  S. R. Gwaltney,  G. Hawkins,  A. Heyden,  
 S. Hirata,  G. Kedziora,  F. J. Keil,  C. Kelley,  Jihan Kim,  R. A. King,  
 R. Z. Khaliullin,  P. P. Korambath,  W. Kurlancheek,  A. M. Lee,  M. S. Lee,  
 S. V. Levchenko,  Ching Yeh Lin,  D. Liotard,  R. C. Lochan,  I. Lotan,  
 P. E. Maslen,  N. Nair,  D. P. O'Neill,  D. Neuhauser,  E. Neuscamman,  
 C. M. Oana,  R. Olson,  B. Peters,  R. Peverati,  P. A. Pieniazek,  
 Y. M. Rhee,  J. Ritchie,  M. A. Rohrdanz,  E. Rosta,  N. J. Russ,  
 H. F. Schaefer III,  N. E. Schultz,  N. Shenvi,  A. C. Simmonett,  A. Sodt,  
 D. Stuck,  K. S. Thanthiriwatte,  V. Vanovschi,  Tao Wang,  A. Warshel,  
 C. F. Williams,  Q. Wu,  X. Xu,  W. Zhang

 Please cite Q-Chem as follows:
 Y. Shao et al., Mol. Phys. 113, 184-215 (2015)
 DOI: 10.1080/00268976.2014.952696

 Q-Chem 5.2.1 for Intel X86 EM64T Linux

 Parts of Q-Chem use Armadillo 8.300.2 (Tropical Shenanigans).
 http://arma.sourceforge.net/

 Q-Chem begins on Thu Sep 30 06:55:47 2021  

compute-0-13.local
Host: 0

     Scratch files written to /home/meili/scratch/qchem24357//Frg2//
NAlpha2: 70
NElect   70
Mult     1
Symmetry turned off for PCM/SM12/SMD calculation

Checking the input file for inconsistencies... 	...done.

--------------------------------------------------------------
User input:
--------------------------------------------------------------
$molecule
0 1
 6	-0.6859562711	4.1285186653	1.6420362154
 6	0.3310437289	2.6655186653	-0.2339637846
 6	0.4240437289	3.6565186653	0.7900362154
 6	1.6220437289	2.5265186653	-0.8049637846
 6	1.7130437289	4.0845186653	0.7970362154
 6	-0.4619562711	0.9995186653	-1.7489637846
 6	0.8220437289	0.8825186653	-2.2969637846
 6	-0.7169562711	1.8815186653	-0.7249637846
 6	1.8780437289	1.6445186653	-1.8369637846
 7	2.4390437289	3.4075186653	-0.1549637846
 1	-1.2679562711	0.3925186653	-2.1339637846
 1	0.9840437289	0.1875186653	-3.1079637846
 1	-1.7099562711	1.9745186653	-0.3069637846
 1	2.8670437289	1.5655186653	-2.2619637846
 1	-0.2839562711	4.4725186653	2.5950362154
 1	-1.3389562711	3.2795186653	1.8500362154
 1	2.1040437289	4.8515186653	1.4530362154
 1	3.4190437289	3.5875186653	-0.3629637846
 1	-1.2775872711	4.9293886653	1.1745062154
$end
$rem
EDA2		1
METHOD		WB97X-V
BASIS		DEF2-TZVPD
XC_GRID		000099000590
NL_GRID		1
UNRESTRICTED		FALSE
MAX_SCF_CYCLES		200
SYMMETRY		FALSE
SYM_IGNORE		TRUE
BASIS_LIN_DEP_THRESH		6
THRESH		14
SCF_CONVERGENCE		8
SCF_PRINT_FRGM		TRUE
SOLVENT_METHOD		PCM
!required keywords
JOBTYPE		SP
SYM_IGNORE		TRUE
SUBSYSTEM		TRUE
GEN_SCFMAN		TRUE
CHILD_INSTRUCTION		2
SYM_IGNORE		TRUE
SCFMI		0
RI_K 0		
PARI_K 0		
MIN_PARI_K 0		
IARI_K 0		
OCC_RI_K 0		
PURECART		1111
MEM_STATIC		2000
MEM_TOTAL		2000
GUI		0
CHILD_MP		1
CHILD_MP_ORDERS		232
FRZ_RELAX		0
FRZ_RELAX_METHOD		0
EDA_CLS_ELEC		1
EDA_CLS_DISP		0
FRZ_ORTHO_DECOMP		1
EDA2		FALSE
FRGM_METHOD		FALSE
CIS_N_ROOTS  0
LOCAL_CIS    0
CIS_RLX_DNS  1
$end
$pcm
THEORY                  CPCM
METHOD                  SWIG
SOLVER                  INVERSION
RADII                   UFF
HPOINTS                 302
HEAVYPOINTS             302
PRINTLEVEL              0
$end
$solvent
DIELECTRIC              78.390000 ! water
$end
--------------------------------------------------------------
 ----------------------------------------------------------------
             Standard Nuclear Orientation (Angstroms)
    I     Atom           X                Y                Z
 ----------------------------------------------------------------
    1      C      -0.6859562711     4.1285186653     1.6420362154
    2      C       0.3310437289     2.6655186653    -0.2339637846
    3      C       0.4240437289     3.6565186653     0.7900362154
    4      C       1.6220437289     2.5265186653    -0.8049637846
    5      C       1.7130437289     4.0845186653     0.7970362154
    6      C      -0.4619562711     0.9995186653    -1.7489637846
    7      C       0.8220437289     0.8825186653    -2.2969637846
    8      C      -0.7169562711     1.8815186653    -0.7249637846
    9      C       1.8780437289     1.6445186653    -1.8369637846
   10      N       2.4390437289     3.4075186653    -0.1549637846
   11      H      -1.2679562711     0.3925186653    -2.1339637846
   12      H       0.9840437289     0.1875186653    -3.1079637846
   13      H      -1.7099562711     1.9745186653    -0.3069637846
   14      H       2.8670437289     1.5655186653    -2.2619637846
   15      H      -0.2839562711     4.4725186653     2.5950362154
   16      H      -1.3389562711     3.2795186653     1.8500362154
   17      H       2.1040437289     4.8515186653     1.4530362154
   18      H       3.4190437289     3.5875186653    -0.3629637846
   19      H      -1.2775872711     4.9293886653     1.1745062154
 ----------------------------------------------------------------
 Nuclear Repulsion Energy =         487.11496540 hartrees
 There are       35 alpha and       35 beta electrons
 Requested basis set is def2-TZVPD
 There are 175 shells and 451 basis functions

 Total QAlloc Memory Limit   2000 MB
 Mega-Array Size      1956 MB
 MEM_STATIC part      2000 MB
 Discretize the solute cavity surface with Lebedev spheres
	Using 302 Lebedev grid points for each H atom
	Using 302 Lebedev grid points for other atoms
	Atomic van der Waals radii will be scaled by 1.20
 Remove points where switching function is < 1.0e-08
 Keep 2168 surface tesserae and discard 3570 interior tesserae
 Molecular Surface Area = 213.849 Angst**2
 A cutoff of  1.0D-14 yielded  14481 shell pairs
 There are     98305 function pairs (    126483 Cartesian)
 Smallest overlap matrix eigenvalue = 4.87E-07
 Linear dependence detected in AO basis
 Tighter screening thresholds may be required for diffuse basis sets
 Use S2THRESH > 14 and THRESH = 14 in case of SCF convergence issues
 Number of orthogonalized atomic orbitals = 448
 Maximum deviation from orthogonality = 1.588E-10

 Scale SEOQF with 1.000000e-01/1.000000e-01/1.000000e-01

 Standard Electronic Orientation quadrupole field applied
 Nucleus-field energy     =     0.0000000329 hartrees
 Guess from superposition of atomic densities
 Warning:  Energy on first SCF cycle will be non-variational
 SAD guess density has 70.000000 electrons

 -----------------------------------------------------------------------
  General SCF calculation program by
  Eric Jon Sundstrom, Paul Horn, Yuezhi Mao, Dmitri Zuev, Alec White,
  David Stuck, Shaama M.S., Shane Yost, Joonho Lee, David Small,
  Daniel Levine, Susi Lehtola, Hugh Burton, Evgeny Epifanovsky,
  Bang C. Huynh
 -----------------------------------------------------------------------
 Exchange:     0.1670 Hartree-Fock + 1.0000 wB97X-V + LR-HF
 Correlation:  1.0000 wB97X-V
 Using Euler-Maclaurin-Lebedev (99,590) quadrature formula
 Nonlocal Correlation:  VV10 with C = 0.0100 and b = 6.00 and scale = 1.00000
 Grid used for NLC:  SG-1 standard quadrature
Energy prior to optimization (guess energy) = -403.077618302012
Begin Timing: Total SCF Calculation
begin iterations for algorithm: DIIS         
the SCF tolerance is set to 1.00e-08
    1    -403.0776183020      1.71e-03     00000 
    2    -403.1261666948      1.26e-03     00000 
    3    -403.1669412128      2.62e-04     00000 
    4    -403.1685116326      1.21e-04     00000 
    5    -403.1688855541      2.49e-05     00000 
    6    -403.1689055491      9.83e-06     00000 
    7    -403.1689083522      2.93e-06     00000 
    8    -403.1689088285      7.12e-07     00000 
    9    -403.1689088881      3.38e-07     00000 
   10    -403.1689089013      1.73e-07     00000 
   11    -403.1689089048      6.40e-08     00000 
   12    -403.1689089054      2.86e-08     00000 
   13    -403.1689089055      9.11e-09     00000 Convergence criterion met
Timing for Total SCF: 2061.00s (wall), 12052.82s (cpu)

************** Final PCM Free Energy Summary **************
 G_electrostatic  =      -0.00627407 hartree =      -3.93704107 kcal/mol
 G_cavitation     =       0.00000000 hartree =       0.00000000 kcal/mol
 G_dispersion     =       0.00000000 hartree =       0.00000000 kcal/mol
 G_repulsion      =       0.00000000 hartree =       0.00000000 kcal/mol
 --------------------------------------------------
 Non-electrostatic Free Energy =       0.00000000 hartree =       0.00000000 kcal/mol
 Total                         =      -0.00627407 hartree =      -3.93704107 kcal/mol
 --------------------------------------------------
 SCF Energy (H0 + V/2)                       =    -403.16890891 
 Solute Internal Energy (H0)                 =    -403.16263483 
 Total Free Energy (H0 + V/2 + non-elec)     =    -403.16890891 hartree
                                             = -252992.30875091 kcal/mol
***********************************************************

E_pcm = -0.0062740743
Multipole orders to be included
        2
        3
computing dipole RHS
computing quadrupole RHS
total number of RHS in solve_reponses: 8
RHS batch sizes
        8
Beginning Block Conjugate Gradient Iterations. Batch Number: 0
computing hessian-vector products by finite difference
              1      6.22e-01     00000 Conjugate Gradient Iteration
computing hessian-vector products by finite difference
              2      2.07e-01     00000 Conjugate Gradient Iteration
computing hessian-vector products by finite difference
              3      5.52e-02     00000 Conjugate Gradient Iteration
computing hessian-vector products by finite difference
              4      2.18e-02     00000 Conjugate Gradient Iteration
computing hessian-vector products by finite difference
              5      7.08e-03     00000 Conjugate Gradient Iteration
computing hessian-vector products by finite difference
              6      2.07e-03     00000 Conjugate Gradient Iteration
computing hessian-vector products by finite difference
              7      4.34e-04     00000 Conjugate Gradient Iteration
computing hessian-vector products by finite difference
              8      8.88e-05     00000 Conjugate Gradient Iteration
computing hessian-vector products by finite difference
              9      1.64e-05     00000 Conjugate Gradient Iteration
computing hessian-vector products by finite difference
             10      2.56e-06     00000 Conjugate Gradient Iteration
computing hessian-vector products by finite difference
             11      4.95e-07     00000 Conjugate Gradient Iteration
computing hessian-vector products by finite difference
             12      9.59e-08     00000 Conjugate Gradient Iteration
computing hessian-vector products by finite difference
             13      1.44e-08     00000 Conjugate Gradient Iteration
computing hessian-vector products by finite difference
             14      5.16e-09     00000 CG Converged
batch 0 complete
Done Calculating Responses
TESTING ORTHOGONALIZATION OF MULTIPOLE BASIS
Multipole virts passed orthogonality test
Virts Per Order
          105
          175

 --------------------------------------------------------------

                    Orbital Energies (a.u.)
 --------------------------------------------------------------

 Alpha MOs
 -- Occupied --
-14.4502 -10.3004 -10.2945 -10.2706 -10.2685 -10.2675 -10.2640 -10.2621
-10.2602 -10.2583  -1.1175  -0.9819  -0.9351  -0.8726  -0.8614  -0.8192
 -0.7469  -0.7165  -0.6781  -0.6522  -0.6009  -0.5846  -0.5574  -0.5516
 -0.5419  -0.5181  -0.5147  -0.4964  -0.4804  -0.4543  -0.4522  -0.4332
 -0.3795  -0.3162  -0.2921
 -- Virtual --
  0.0545   0.0598   0.0747   0.0764   0.0921   0.0972   0.0990   0.1052
  0.1270   0.1311   0.1343   0.1468   0.1554   0.1633   0.1713   0.1768
  0.1850   0.1935   0.2003   0.2066   0.2115   0.2185   0.2250   0.2457
  0.2472   0.2533   0.2587   0.2593   0.2652   0.2730   0.2749   0.2759
  0.2811   0.2841   0.2875   0.2902   0.3025   0.3065   0.3129   0.3204
  0.3273   0.3297   0.3343   0.3366   0.3407   0.3423   0.3456   0.3515
  0.3551   0.3621   0.3709   0.3763   0.3785   0.3882   0.3914   0.3946
  0.3985   0.4065   0.4095   0.4148   0.4178   0.4209   0.4256   0.4372
  0.4381   0.4492   0.4507   0.4535   0.4584   0.4623   0.4633   0.4728
  0.4816   0.4919   0.4974   0.4981   0.5018   0.5149   0.5199   0.5231
  0.5307   0.5345   0.5402   0.5458   0.5488   0.5508   0.5584   0.5639
  0.5678   0.5768   0.5861   0.5898   0.6046   0.6101   0.6143   0.6265
  0.6330   0.6404   0.6417   0.6481   0.6550   0.6697   0.6758   0.6845
  0.6871   0.6956   0.7013   0.7032   0.7122   0.7145   0.7245   0.7328
  0.7382   0.7438   0.7480   0.7564   0.7638   0.7659   0.7704   0.7755
  0.7815   0.7841   0.7895   0.7941   0.7987   0.7999   0.8102   0.8146
  0.8208   0.8285   0.8325   0.8339   0.8402   0.8508   0.8548   0.8653
  0.8671   0.8705   0.8774   0.8898   0.9030   0.9076   0.9151   0.9385
  0.9452   0.9488   0.9604   0.9860   0.9924   1.0037   1.0106   1.0148
  1.0393   1.0457   1.0553   1.0636   1.0765   1.0820   1.0907   1.0996
  1.1152   1.1336   1.1425   1.1503   1.1742   1.1853   1.1960   1.2176
  1.2363   1.2541   1.2636   1.2676   1.2986   1.3090   1.3446   1.3467
  1.3839   1.3942   1.3997   1.4147   1.4274   1.4465   1.4546   1.4714
  1.5170   1.5490   1.5657   1.5721   1.5823   1.5944   1.6147   1.6186
  1.6457   1.6611   1.6991   1.6995   1.7237   1.7290   1.7476   1.7670
  1.7912   1.8253   1.8433   1.8561   1.8664   1.8739   1.8804   1.8918
  1.9061   1.9179   1.9363   1.9427   1.9546   1.9643   1.9811   1.9824
  1.9988   2.0002   2.0022   2.0258   2.0334   2.0572   2.0636   2.0754
  2.0908   2.1213   2.1350   2.1740   2.1839   2.2012   2.2103   2.2290
  2.2536   2.2944   2.2992   2.3179   2.3343   2.3554   2.3656   2.3868
  2.4062   2.4331   2.4447   2.4591   2.4959   2.5100   2.5162   2.5503
  2.5645   2.5751   2.5992   2.6129   2.6249   2.6520   2.6593   2.6827
  2.6954   2.7241   2.7572   2.7613   2.7685   2.7883   2.7947   2.8095
  2.8203   2.8390   2.8609   2.8645   2.8816   2.8921   2.9007   2.9189
  2.9295   2.9444   2.9657   2.9771   2.9881   3.0103   3.0294   3.0386
  3.0468   3.0682   3.0880   3.0989   3.1177   3.1365   3.1535   3.1636
  3.1697   3.1972   3.2104   3.2228   3.2337   3.2490   3.2653   3.2701
  3.2867   3.3016   3.3048   3.3201   3.3578   3.3626   3.3831   3.3963
  3.4038   3.4162   3.4273   3.4447   3.4465   3.4574   3.4727   3.4846
  3.4998   3.5122   3.5172   3.5205   3.5286   3.5436   3.5607   3.5767
  3.5894   3.5986   3.6145   3.6316   3.6475   3.6661   3.6714   3.6745
  3.7098   3.7204   3.7268   3.7383   3.7604   3.7674   3.7905   3.7938
  3.8137   3.8600   3.8773   3.9285   3.9424   3.9589   3.9871   4.0319
  4.0522   4.0716   4.1214   4.1504   4.1823   4.2036   4.2246   4.2340
  4.2588   4.2721   4.2878   4.3046   4.3228   4.3679   4.3726   4.3787
  4.4101   4.4282   4.4388   4.4718   4.4931   4.5368   4.5734   4.6086
  4.6531   4.6630   4.6850   4.7719   4.8097   4.8280   4.8503   4.9338
  4.9423   4.9618   4.9856   4.9997   5.0115   5.0738   5.0793   5.1162
  5.1371   5.1633   5.2050   5.2343   5.2708   5.3978   5.4148   5.4623
  5.5169   5.5702   5.5948   5.6550   5.7145   5.8121   5.8260   5.9586
  5.9777   6.2757   6.3606  22.6718  22.7569  22.9404  22.9630  23.0025
 23.2267  23.2808  23.5141  23.8162  32.8388
 --------------------------------------------------------------

          Ground-State Mulliken Net Atomic Charges

     Atom                 Charge (a.u.)
  ----------------------------------------
      1 C                    -1.013286
      2 C                     0.390039
      3 C                     0.846845
      4 C                    -0.126038
      5 C                    -0.765885
      6 C                    -0.582980
      7 C                    -0.356439
      8 C                    -0.456508
      9 C                    -0.639528
     10 N                     0.160135
     11 H                     0.345981
     12 H                     0.338517
     13 H                     0.317906
     14 H                     0.342827
     15 H                     0.278772
     16 H                     0.272642
     17 H                     0.255839
     18 H                     0.192066
     19 H                     0.199094
  ----------------------------------------
  Sum of atomic charges =     0.000000

 -----------------------------------------------------------------
                    Cartesian Multipole Moments
 -----------------------------------------------------------------
    Charge (ESU x 10^10)
                 0.0000
    Dipole Moment (Debye)
         X       2.2083      Y       1.4490      Z       0.5906
       Tot       2.7065
    Quadrupole Moments (Debye-Ang)
        XX     -45.4240     XY      10.6361     YY     -51.0082
        XZ      -2.1589     YZ       5.7894     ZZ     -59.2537
    Octopole Moments (Debye-Ang^2)
       XXX     -74.7138    XXY    -105.4699    XYY       2.9784
       YYY    -421.5460    XXZ      15.0694    XYZ      -1.4754
       YYZ      51.2028    XZZ     -35.3645    YZZ    -159.1624
       ZZZ      78.2351
    Hexadecapole Moments (Debye-Ang^3)
      XXXX    -553.2139   XXXY    -171.4372   XXYY    -443.6919
      XYYY    -169.6961   YYYY   -2825.9300   XXXZ      66.7303
      XXYZ     -38.8794   XYYZ      52.0142   YYYZ      42.6488
      XXZZ    -232.7688   XYZZ    -102.5878   YYZZ    -623.3488
      XZZZ      94.6575   YZZZ     -36.0679   ZZZZ    -753.6996
 -----------------------------------------------------------------
Archival summary:
1\1\compute-0-13.local\SP\ProcedureUnspecified\BasisUnspecified\199\meili\ThuSep3016:18:132021ThuSep3016:18:132021\0\\#,ProcedureUnspecified,BasisUnspecified,\\0,1\C\C,1,1.39787\H,2,1.0814,1,120.293\C,2,1.37533,1,118.829,3,179.684,0\H,4,1.07996,2,119.176,1,-179.875,0\C,4,1.40095,2,120.98,1,-0.0317322,0\H,6,1.08027,4,119.002,2,-179.314,0\C,6,1.38108,4,121.63,2,-0.126889,0\H,8,1.07935,6,121.944,4,-179.385,0\C,8,1.38148,6,117.347,4,0.361486,0\N,10,1.36607,8,131.023,6,-179.323,0\H,11,1.01787,10,126.344,8,2.42242,0\C,11,1.37539,10,109.335,8,179.175,0\H,13,1.08236,11,125.284,10,-179.261,0\C,13,1.35822,11,110.015,10,0.320101,0\C,15,1.47675,13,127.564,11,-179.432,0\H,16,1.09002,15,109.152,13,-29.1475,0\H,16,1.09109,15,108.128,13,-145.727,0\H,16,1.1,15,113.064,13,93.4873,0\\\@

 Total job time:  33745.52s(wall), 200629.32s(cpu) 
 Thu Sep 30 16:18:13 2021

        *************************************************************
        *                                                           *
        *  Thank you very much for using Q-Chem.  Have a nice day.  *
        *                                                           *
        *************************************************************


Done Job For Fragment 1
calling putenv with: QCSCRATCH=/home/meili/scratch 
calling putenv with: QCTHREADS=8 
Doing General SCFMI
 Exchange:     0.1670 Hartree-Fock + 1.0000 wB97X-V + LR-HF
 Correlation:  1.0000 wB97X-V
 Using Euler-Maclaurin-Lebedev (99,590) quadrature formula
 Nonlocal Correlation:  VV10 with C = 0.0100 and b = 6.00 and scale = 1.00000
 Grid used for NLC:  SG-1 standard quadrature
performing fock build before subrot guess so that all methods have access
Printing subrot_rss_gen Method Specification:
Occupied Subspace Method is 0
Virtual Subspace Method is 0
Energy of the unrelaxed supersystem initial determinant -714.061209132667
performing fock build before subrot guess so that all methods have access
Printing subrot_rss_gen Method Specification:
Occupied Subspace Method is 0
Virtual Subspace Method is 0
Energy of the unrelaxed supersystem initial determinant w/ solvent -714.069819457020
write pseudocanon occs and virts to disk
write pseudocanon orbital energies to disk
Tolerance of ortho_decomp_scf: 1.00e-06
GDM subspace size: 20
Beginning the Orthogonal Decomposition of the Initial Supersystem Wavefunction
    1    -714.0488952554      1.15e-02     ortho_decomp Preconditoned Steepest Descent
    2    -714.0498566551      2.92e-04     ortho_decomp BFGS Step
    3    -714.0498598112      2.28e-05     ortho_decomp BFGS Step
    4    -714.0498598174      9.44e-07     ortho_decomp 00000 Convergence criterion met
 Hartree-Fock
 Hartree-Fock
 Hartree-Fock
Doing General SCFMI
 Exchange:     0.1670 Hartree-Fock + 1.0000 wB97X-V + LR-HF
 Correlation:  1.0000 wB97X-V
 Using Euler-Maclaurin-Lebedev (99,590) quadrature formula
 Nonlocal Correlation:  VV10 with C = 0.0100 and b = 6.00 and scale = 1.00000
 Grid used for NLC:  SG-1 standard quadrature
performing fock build at end of subrot_r(subrot) constructor so that all methods have access
<S^2> of initial wavefunction before polarization iterations 0.0000000000
Beginning iterations for the determination of the polarized wavefunction
Energy prior to optimization (guess energy) = -714.069819457020
Begin Timing: Total SCF Calculation
begin iterations for algorithm: DIIS         
the SCF tolerance is set to 1.00e-08
    1    -714.0698194570      2.68e-05     00000 
    2    -714.0699212390      1.24e-05     00000 
    3    -714.0699347070      5.98e-06     00000 
    4    -714.0699385562      1.78e-06     00000 
    5    -714.0699388937      8.76e-07     00000 
    6    -714.0699389735      3.76e-07     00000 
    7    -714.0699389842      1.87e-07     00000 
    8    -714.0699389863      9.05e-08     00000 
    9    -714.0699389868      3.86e-08     00000 
   10    -714.0699389869      1.83e-08     00000 
   11    -714.0699389869      5.54e-09     00000 Convergence criterion met
write pseudocanon occs and virts to disk
write pseudocanon orbital energies to disk
Timing for Total SCF: 8980.00s (wall), 53922.16s (cpu)
<S^2> of polarized wavefunction after polarization iterations 0.0000000000
relaxing scfmi constraint to allow all rotations in the entire AO span
Doing General SCFMI
 Exchange:     0.1670 Hartree-Fock + 1.0000 wB97X-V + LR-HF
 Correlation:  1.0000 wB97X-V
 Using Euler-Maclaurin-Lebedev (99,590) quadrature formula
 Nonlocal Correlation:  VV10 with C = 0.0100 and b = 6.00 and scale = 1.00000
 Grid used for NLC:  SG-1 standard quadrature
performing fock build at end of subrot_r(subrot) constructor so that all methods have access
<S^2> of polarized wavefunction before ct-allowed iterations 0.0000000000
Beginning iterations for the determination of the CT-Allowed wavefunction
Energy prior to optimization (guess energy) = -714.069938986933
Begin Timing: Total SCF Calculation
begin iterations for algorithm: DIIS         
the SCF tolerance is set to 1.00e-08
    1    -714.0699389869      4.04e-05     00000 
    2    -714.0704534912      3.88e-06     00000 
    3    -714.0704691340      7.33e-07     00000 
    4    -714.0704697108      4.02e-07     00000 
    5    -714.0704697729      7.74e-08     00000 
    6    -714.0704697773      3.75e-08     00000 
    7    -714.0704697780      8.77e-09     00000 Convergence criterion met
write pseudocanon occs and virts to disk
write pseudocanon orbital energies to disk
Timing for Total SCF: 5089.00s (wall), 30852.78s (cpu)
<S^2> of ct_allowed wavefunction after ct-allowed iterations 0.0000000000

================================
        Results of EDA2         
================================
Basic EDA Quantities
--------------------
Fragment Energies (Ha):
1 -310.8988329897
2 -403.1689089055
--------------------
  E_prp (kJ/mol) = 0.0000
  E_sol (kJ/mol) = 0.7568
  E_frz (kJ/mol) = -6.2115
  E_pol (kJ/mol) = -0.3138
  E_vct (kJ/mol) = -1.3936
  E_int (kJ/mol) = -7.1621
--------------------


Initial Wavefunction Decomposition
--------------------
  --------------------
  Orthogonal Fragment Subspace Decomposition:
  --------------------
     E_elec   (ELEC)   (kJ/mol) = -11.4671
     E_pauli  (PAULI)  (kJ/mol) = 18.1277
     E_disp   (DISP)   (kJ/mol) = -12.8722
     --------------------
     Terms summing to E_pauli:
     --------------------
        E_kep_pauli       (kJ/mol) = 23.5865
        E_disp_free_pauli (kJ/mol) = -5.4587
  --------------------
  Classical Frozen Decomposition:
  --------------------
     E_cls_elec  (CLS ELEC)  (kJ/mol) = -3.7162
     E_cls_pauli (CLS PAULI) (kJ/mol) = -2.4953
    [E_mod_pauli (MOD PAULI) (kJ/mol) = 10.3768 (CLS PAULI - DISP from orthogonal decomposition) ]
  --------------------
--------------------

Simplified EDA Summary (kJ/mol)
--------------------
 PREPARATION     0.0000
 SOLVATION       0.7568
 FROZEN          6.6606      (does not include dispersion)
[PAULI           18.1277]     (if this is negligible, then frozen describes electrostatics)
 DISPERSION      -12.8722
 POLARIZATION    -0.3138
 CHARGE TRANSFER -1.3936
 TOTAL           -7.1621     (PRP + SOL + FRZ + DISP + POL + CT)
--------------------

 --------------------------------------------------------------

                    Orbital Energies (a.u.)
 --------------------------------------------------------------

 Alpha MOs
 -- Occupied --
-14.4502 -10.3004 -10.2945 -10.2783 -10.2739 -10.2735 -10.2707 -10.2707
-10.2702 -10.2701 -10.2685 -10.2674 -10.2640 -10.2625 -10.2620 -10.2603
-10.2583 -10.2580  -1.1175  -0.9972  -0.9819  -0.9352  -0.9226  -0.8777
 -0.8725  -0.8615  -0.8536  -0.8192  -0.7573  -0.7470  -0.7312  -0.7166
 -0.6963  -0.6781  -0.6523  -0.6291  -0.6010  -0.5855  -0.5817  -0.5720
 -0.5574  -0.5516  -0.5419  -0.5407  -0.5345  -0.5246  -0.5181  -0.5147
 -0.5054  -0.4964  -0.4805  -0.4796  -0.4639  -0.4570  -0.4522  -0.4510
 -0.4348  -0.4332  -0.4276  -0.3794  -0.3478  -0.3375  -0.3155  -0.2921
 -- Virtual --
  0.0513   0.0538   0.0621   0.0659   0.0669   0.0722   0.0773   0.0816
  0.0858   0.0912   0.0931   0.0969   0.0998   0.1054   0.1145   0.1172
  0.1204   0.1271   0.1287   0.1306   0.1405   0.1497   0.1540   0.1597
  0.1623   0.1681   0.1711   0.1749   0.1791   0.1808   0.1879   0.1893
  0.1922   0.1959   0.1999   0.2091   0.2105   0.2131   0.2193   0.2241
  0.2260   0.2289   0.2350   0.2425   0.2458   0.2460   0.2521   0.2541
  0.2586   0.2603   0.2631   0.2650   0.2688   0.2707   0.2719   0.2732
  0.2776   0.2794   0.2798   0.2828   0.2860   0.2894   0.2918   0.2974
  0.3019   0.3039   0.3078   0.3088   0.3100   0.3142   0.3164   0.3181
  0.3244   0.3276   0.3292   0.3314   0.3341   0.3352   0.3364   0.3404
  0.3457   0.3464   0.3506   0.3515   0.3572   0.3577   0.3587   0.3627
  0.3635   0.3684   0.3695   0.3720   0.3755   0.3761   0.3807   0.3836
  0.3865   0.3892   0.3923   0.3934   0.3952   0.3987   0.3998   0.4054
  0.4066   0.4121   0.4155   0.4157   0.4191   0.4217   0.4230   0.4258
  0.4267   0.4314   0.4341   0.4367   0.4405   0.4435   0.4444   0.4485
  0.4507   0.4520   0.4551   0.4573   0.4599   0.4663   0.4672   0.4699
  0.4729   0.4742   0.4784   0.4830   0.4849   0.4864   0.4907   0.4940
  0.4966   0.4997   0.5012   0.5027   0.5044   0.5083   0.5103   0.5157
  0.5179   0.5219   0.5264   0.5279   0.5320   0.5364   0.5376   0.5408
  0.5446   0.5470   0.5501   0.5537   0.5556   0.5577   0.5632   0.5659
  0.5700   0.5747   0.5778   0.5834   0.5850   0.5864   0.5904   0.5963
  0.5988   0.6057   0.6085   0.6142   0.6151   0.6196   0.6217   0.6250
  0.6278   0.6299   0.6344   0.6381   0.6427   0.6455   0.6472   0.6543
  0.6614   0.6642   0.6682   0.6701   0.6741   0.6783   0.6811   0.6830
  0.6872   0.6950   0.6964   0.6998   0.7061   0.7093   0.7111   0.7154
  0.7190   0.7253   0.7261   0.7285   0.7312   0.7323   0.7346   0.7367
  0.7402   0.7465   0.7505   0.7550   0.7599   0.7614   0.7630   0.7658
  0.7672   0.7713   0.7731   0.7749   0.7793   0.7826   0.7851   0.7862
  0.7901   0.7917   0.7948   0.7993   0.7995   0.8016   0.8073   0.8101
  0.8123   0.8140   0.8167   0.8204   0.8209   0.8266   0.8299   0.8348
  0.8392   0.8421   0.8442   0.8466   0.8496   0.8514   0.8558   0.8597
  0.8608   0.8658   0.8691   0.8733   0.8743   0.8804   0.8836   0.8896
  0.8940   0.8981   0.9009   0.9083   0.9114   0.9154   0.9186   0.9236
  0.9270   0.9321   0.9379   0.9421   0.9495   0.9519   0.9596   0.9621
  0.9648   0.9728   0.9778   0.9824   0.9907   0.9970   1.0014   1.0063
  1.0077   1.0118   1.0178   1.0277   1.0378   1.0440   1.0486   1.0598
  1.0714   1.0771   1.0836   1.0867   1.0906   1.0947   1.1004   1.1081
  1.1106   1.1126   1.1236   1.1280   1.1306   1.1390   1.1430   1.1499
  1.1566   1.1638   1.1674   1.1812   1.1866   1.1915   1.2017   1.2046
  1.2161   1.2297   1.2428   1.2453   1.2533   1.2553   1.2648   1.2833
  1.2901   1.2961   1.3054   1.3182   1.3326   1.3336   1.3487   1.3568
  1.3637   1.3733   1.3781   1.3923   1.4062   1.4064   1.4178   1.4236
  1.4288   1.4345   1.4473   1.4538   1.4598   1.4690   1.4762   1.4766
  1.4916   1.5026   1.5190   1.5274   1.5371   1.5487   1.5632   1.5668
  1.5759   1.5787   1.5942   1.6014   1.6037   1.6207   1.6292   1.6317
  1.6397   1.6473   1.6572   1.6697   1.6753   1.6863   1.7019   1.7098
  1.7171   1.7300   1.7320   1.7533   1.7637   1.7791   1.7879   1.8042
  1.8114   1.8196   1.8263   1.8353   1.8555   1.8577   1.8633   1.8658
  1.8819   1.8885   1.8961   1.9000   1.9109   1.9184   1.9218   1.9305
  1.9405   1.9422   1.9472   1.9510   1.9542   1.9628   1.9673   1.9768
  1.9815   1.9905   1.9915   2.0064   2.0151   2.0180   2.0278   2.0310
  2.0344   2.0433   2.0443   2.0491   2.0596   2.0599   2.0632   2.0709
  2.0789   2.0818   2.0968   2.1039   2.1071   2.1141   2.1260   2.1328
  2.1460   2.1572   2.1685   2.1808   2.1869   2.1996   2.2079   2.2158
  2.2186   2.2269   2.2389   2.2545   2.2570   2.2666   2.2866   2.2968
  2.3007   2.3135   2.3241   2.3299   2.3303   2.3383   2.3546   2.3658
  2.3679   2.3836   2.3997   2.4119   2.4214   2.4221   2.4358   2.4521
  2.4587   2.4775   2.4922   2.4955   2.5091   2.5187   2.5276   2.5450
  2.5518   2.5621   2.5696   2.5790   2.5830   2.5910   2.6071   2.6149
  2.6168   2.6356   2.6379   2.6496   2.6582   2.6639   2.6694   2.6847
  2.6898   2.6995   2.7055   2.7152   2.7214   2.7315   2.7456   2.7571
  2.7637   2.7687   2.7773   2.7806   2.7949   2.7977   2.7993   2.8086
  2.8186   2.8228   2.8258   2.8267   2.8486   2.8548   2.8703   2.8729
  2.8894   2.8933   2.8966   2.9015   2.9073   2.9137   2.9231   2.9311
  2.9341   2.9428   2.9508   2.9626   2.9731   2.9781   2.9864   2.9880
  2.9956   2.9980   3.0100   3.0171   3.0227   3.0323   3.0354   3.0397
  3.0427   3.0573   3.0666   3.0692   3.0736   3.0844   3.0873   3.0942
  3.1076   3.1185   3.1249   3.1397   3.1491   3.1653   3.1758   3.1854
  3.1884   3.1995   3.2058   3.2137   3.2276   3.2353   3.2447   3.2475
  3.2522   3.2636   3.2666   3.2698   3.2811   3.2895   3.3067   3.3142
  3.3209   3.3275   3.3418   3.3580   3.3635   3.3689   3.3820   3.3854
  3.3866   3.3979   3.4048   3.4104   3.4176   3.4232   3.4274   3.4337
  3.4448   3.4502   3.4568   3.4620   3.4667   3.4732   3.4770   3.4817
  3.4945   3.4986   3.5008   3.5048   3.5067   3.5169   3.5180   3.5231
  3.5312   3.5317   3.5364   3.5447   3.5501   3.5514   3.5569   3.5718
  3.5739   3.5784   3.5854   3.5869   3.5951   3.6046   3.6156   3.6245
  3.6316   3.6373   3.6456   3.6488   3.6592   3.6614   3.6722   3.6820
  3.6836   3.6897   3.6921   3.7113   3.7166   3.7227   3.7326   3.7354
  3.7375   3.7469   3.7545   3.7726   3.7747   3.7888   3.7945   3.7999
  3.8062   3.8218   3.8464   3.8615   3.8752   3.8850   3.8939   3.9301
  3.9394   3.9415   3.9599   3.9788   3.9925   3.9968   4.0073   4.0426
  4.0574   4.0583   4.0803   4.0889   4.1225   4.1303   4.1580   4.1707
  4.1854   4.1932   4.2054   4.2191   4.2282   4.2348   4.2376   4.2652
  4.2724   4.2816   4.2937   4.2972   4.3160   4.3218   4.3271   4.3409
  4.3418   4.3512   4.3719   4.3751   4.3834   4.3906   4.4021   4.4169
  4.4194   4.4324   4.4471   4.4504   4.4579   4.4778   4.4869   4.5051
  4.5189   4.5439   4.5672   4.5839   4.6112   4.6172   4.6433   4.6633
  4.6687   4.6895   4.7022   4.7544   4.7723   4.7771   4.8150   4.8355
  4.8401   4.8592   4.8933   4.9339   4.9436   4.9468   4.9629   4.9649
  4.9779   4.9945   5.0092   5.0206   5.0243   5.0297   5.0784   5.0881
  5.1204   5.1412   5.1594   5.1667   5.1892   5.2081   5.2408   5.2757
  5.3286   5.3757   5.3806   5.4048   5.4203   5.4715   5.5205   5.5280
  5.5369   5.5698   5.6005   5.6614   5.7130   5.7209   5.8045   5.8301
  5.8309   5.9623   5.9813   6.2791   6.3575  22.6651  22.6772  22.6912
 22.8106  22.8813  22.8951  22.9642  22.9789  23.0067  23.0346  23.0453
 23.0988  23.2358  23.2925  23.4632  23.5197  23.8211  32.8562
 --------------------------------------------------------------

          Ground-State Mulliken Net Atomic Charges

     Atom                 Charge (a.u.)
  ----------------------------------------
      1 C                     0.121571
      2 C                    -0.980303
      3 C                     0.278973
      4 C                    -0.341026
      5 C                    -0.187822
      6 C                    -0.477159
      7 C                    -0.557224
      8 C                    -0.345943
      9 H                     0.171801
     10 H                    -0.156014
     11 H                     0.254091
     12 H                     0.368924
     13 H                     0.372634
     14 H                     0.320306
     15 H                     0.317634
     16 H                     0.351893
     17 H                     0.241333
     18 H                     0.237547
     19 C                    -1.063751
     20 C                     0.359819
     21 C                     0.764770
     22 C                    -0.179330
     23 C                    -0.575722
     24 C                    -0.548462
     25 C                    -0.286730
     26 C                    -0.548998
     27 C                    -0.596892
     28 N                     0.149754
     29 H                     0.344955
     30 H                     0.320339
     31 H                     0.322634
     32 H                     0.332162
     33 H                     0.281343
     34 H                     0.274007
     35 H                     0.256259
     36 H                     0.195018
     37 H                     0.207608
  ----------------------------------------
  Sum of atomic charges =     0.000000

 -----------------------------------------------------------------
                    Cartesian Multipole Moments
 -----------------------------------------------------------------
    Charge (ESU x 10^10)
                 0.0000
    Dipole Moment (Debye)
         X       2.6947      Y       1.7377      Z       0.3272
       Tot       3.2231
    Quadrupole Moments (Debye-Ang)
        XX     -93.7115     XY      12.9016     YY    -103.9579
        XZ      -2.1847     YZ       7.4602     ZZ    -104.4527
    Octopole Moments (Debye-Ang^2)
       XXX      45.6445    XXY      38.5593    XYY      28.8066
       YYY      84.2059    XXZ      -7.4988    XYZ      -0.3612
       YYZ      15.4497    XZZ       0.8873    YZZ     -12.6650
       ZZZ      11.6021
    Hexadecapole Moments (Debye-Ang^3)
      XXXX   -1608.3403   XXXY    -621.1729   XXYY   -1081.6924
      XYYY    -620.6853   YYYY   -6300.1812   XXXZ     235.4515
      XXYZ      27.9069   XYYZ     110.3376   YYYZ     360.9121
      XXZZ    -473.3229   XYZZ    -248.6627   YYZZ   -1217.8368
      XZZZ     255.9759   YZZZ     195.4789   ZZZZ   -1193.1374
 -----------------------------------------------------------------
Archival summary:
1\1\compute-0-13.local\SP\ProcedureUnspecified\BasisUnspecified\11719\meili\ThuSep3023:04:002021ThuSep3023:04:002021\0\\#,ProcedureUnspecified,BasisUnspecified,\\0,1\C\C,1,1.39787\H,2,1.0814,1,120.293\C,2,1.37533,1,118.829,3,179.684,0\H,4,1.07996,2,119.176,1,-179.875,0\C,4,1.40095,2,120.98,1,-0.0317322,0\H,6,1.08027,4,119.002,2,-179.314,0\C,6,1.38108,4,121.63,2,-0.126889,0\H,8,1.07935,6,121.944,4,-179.385,0\C,8,1.38148,6,117.347,4,0.361486,0\N,10,1.36607,8,131.023,6,-179.323,0\H,11,1.01787,10,126.344,8,2.42242,0\C,11,1.37539,10,109.335,8,179.175,0\H,13,1.08236,11,125.284,10,-179.261,0\C,13,1.35822,11,110.015,10,0.320101,0\C,15,1.47675,13,127.564,11,-179.432,0\H,16,1.09002,15,109.152,13,-29.1475,0\H,16,1.09109,15,108.128,13,-145.727,0\H,16,1.1,15,113.064,13,93.4873,0\H,7,2.78855,6,82.5071,4,-67.1902,0\C,20,1.0898,7,150.774,6,-61.2046,0\H,21,1.08859,20,107.484,7,40.1017,0\C,21,1.49884,20,107.834,7,158.068,0\C,23,1.39357,21,120.233,20,39.0836,0\H,24,1.08104,23,119.895,21,-0.665409,0\C,24,1.39663,23,120.51,21,179.863,0\H,26,1.08102,24,119.962,23,179.632,0\C,26,1.38938,24,120.065,23,-0.696855,0\H,28,1.08137,26,120.057,24,-179.937,0\C,28,1.39149,26,120.006,24,-0.232674,0\H,30,1.08102,28,120.134,26,-179.625,0\C,23,1.39721,21,120.612,20,-142.349,0\H,32,1.08067,23,119.916,21,0.00802481,0\C,21,1.53108,20,108.614,7,-78.0925,0\H,34,1.08914,21,108.439,20,-64.3038,0\H,34,1.1,21,108.427,20,53.3759,0\H,34,1.1,21,111.448,20,174.029,0\\\@

 Total job time:  82019.90s(wall), 150606.92s(cpu) 
 Thu Sep 30 23:04:00 2021

        *************************************************************
        *                                                           *
        *  Thank you very much for using Q-Chem.  Have a nice day.  *
        *                                                           *
        *************************************************************


