
Running Job 1 of 1 SSI-006PHE-061PHE-1_SMD_TZVPD.in
qchem SSI-006PHE-061PHE-1_SMD_TZVPD.in_37249.0 /tmp/qchem37249/ 0
/global/common/cori/software/qchem/5.2/exe/qcprog.exe_s SSI-006PHE-061PHE-1_SMD_TZVPD.in_37249.0 /tmp/qchem37249/
                  Welcome to Q-Chem
     A Quantum Leap Into The Future Of Chemistry


 Q-Chem 5.2, Q-Chem, Inc., Pleasanton, CA (2019)

 License issued to: National Energy Research Scientific Computing Center

 Yihan Shao,  Zhengting Gan,  E. Epifanovsky,  A. T. B. Gilbert,  M. Wormit,  
 J. Kussmann,  A. W. Lange,  A. Behn,  Jia Deng,  Xintian Feng,  D. Ghosh,  
 M. Goldey,  P. R. Horn,  L. D. Jacobson,  I. Kaliman,  T. Kus,  A. Landau,  
 Jie Liu,  E. I. Proynov,  R. M. Richard,  R. P. Steele,  E. J. Sundstrom,  
 H. L. Woodcock III,  P. M. Zimmerman,  D. Zuev,  B. Albrecht,  E. Alguire,  
 S. A. Baeppler,  D. Barton,  Z. Benda,  Y. A. Bernard,  E. J. Berquist,  
 K. B. Bravaya,  H. Burton,  D. Casanova,  Chun-Min Chang,  Yunqing Chen,  
 A. Chien,  K. D. Closser,  M. P. Coons,  S. Coriani,  S. Dasgupta,  
 A. L. Dempwolff,  M. Diedenhofen,  Hainam Do,  R. G. Edgar,  Po-Tung Fang,  
 S. Faraji,  S. Fatehi,  Qingguo Feng,  K. D. Fenk,  J. Fosso-Tande,  
 J. Gayvert,  Qinghui Ge,  A. Ghysels,  G. Gidofalvi,  J. Gomes,  
 J. Gonthier,  A. Gunina,  D. Hait,  M. W. D. Hanson-Heine,  
 P. H. P. Harbach,  A. W. Hauser,  M. F. Herbst,  J. E. Herr,  
 E. G. Hohenstein,  Z. C. Holden,  Kerwin Hui,  B. C. Huynh,  T.-C. Jagau,  
 Hyunjun Ji,  B. Kaduk,  K. Khistyaev,  Jaehoon Kim,  P. Klunzinger,  K. Koh,  
 D. Kosenkov,  L. Koulias,  T. Kowalczyk,  C. M. Krauter,  A. Kunitsa,  
 Ka Un Lao,  A. Laurent,  K. V. Lawler,  Joonho Lee,  D. Lefrancois,  
 S. Lehtola,  D. S. Levine,  Yi-Pei Li,  You-Sheng Lin,  Fenglai Liu,  
 E. Livshits,  A. Luenser,  P. Manohar,  E. Mansoor,  S. F. Manzer,  
 Shan-Ping Mao,  Yuezhi Mao,  N. Mardirossian,  A. V. Marenich,  
 T. Markovich,  L. A. Martinez-Martinez,  S. A. Maurer,  N. J. Mayhall,  
 S. C. McKenzie,  J.-M. Mewes,  P. Morgante,  A. F. Morrison,  
 J. W. Mullinax,  K. Nanda,  T. S. Nguyen-Beck,  R. Olivares-Amaya,  
 J. A. Parkhill,  Zheng Pei,  T. M. Perrine,  F. Plasser,  P. Pokhilko,  
 S. Prager,  A. Prociuk,  E. Ramos,  D. R. Rehn,  F. Rob,  M. Scheurer,  
 M. Schneider,  N. Sergueev,  S. M. Sharada,  S. Sharma,  D. W. Small,  
 T. Stauch,  T. Stein,  Yu-Chuan Su,  A. J. W. Thom,  A. Tkatchenko,  
 T. Tsuchimochi,  N. M. Tubman,  L. Vogt,  M. L. Vidal,  O. Vydrov,  
 M. A. Watson,  J. Wenzel,  M. de Wergifosse,  T. A. Wesolowski,  A. White,  
 J. Witte,  A. Yamada,  Jun Yang,  K. Yao,  S. Yeganeh,  S. R. Yost,  
 Zhi-Qiang You,  A. Zech,  Igor Ying Zhang,  Xing Zhang,  Yan Zhao,  
 Ying Zhu,  B. R. Brooks,  G. K. L. Chan,  C. J. Cramer,  M. S. Gordon,  
 W. J. Hehre,  A. Klamt,  M. W. Schmidt,  C. D. Sherrill,  D. G. Truhlar,  
 A. Aspuru-Guzik,  R. Baer,  A. T. Bell,  N. A. Besley,  Jeng-Da Chai,  
 A. E. DePrince, III,  R. A. DiStasio Jr.,  A. Dreuw,  B. D. Dunietz,  
 T. R. Furlani,  Chao-Ping Hsu,  Yousung Jung,  Jing Kong,  D. S. Lambrecht,  
 WanZhen Liang,  C. Ochsenfeld,  V. A. Rassolov,  L. V. Slipchenko,  
 J. E. Subotnik,  T. Van Voorhis,  J. M. Herbert,  A. I. Krylov,  
 P. M. W. Gill,  M. Head-Gordon

 Contributors to earlier versions of Q-Chem not listed above: 
 R. D. Adamson,  B. Austin,  J. Baker,  G. J. O. Beran,  K. Brandhorst,  
 S. T. Brown,  E. F. C. Byrd,  A. K. Chakraborty,  C.-L. Cheng,  
 Siu Hung Chien,  D. M. Chipman,  D. L. Crittenden,  H. Dachsel,  
 R. J. Doerksen,  A. D. Dutoi,  L. Fusti-Molnar,  W. A. Goddard III,  
 A. Golubeva-Zadorozhnaya,  S. R. Gwaltney,  G. Hawkins,  A. Heyden,  
 S. Hirata,  G. Kedziora,  F. J. Keil,  C. Kelley,  Jihan Kim,  R. A. King,  
 R. Z. Khaliullin,  P. P. Korambath,  W. Kurlancheek,  A. M. Lee,  M. S. Lee,  
 S. V. Levchenko,  Ching Yeh Lin,  D. Liotard,  R. C. Lochan,  I. Lotan,  
 P. E. Maslen,  N. Nair,  D. P. O'Neill,  D. Neuhauser,  E. Neuscamman,  
 C. M. Oana,  R. Olson,  B. Peters,  R. Peverati,  P. A. Pieniazek,  
 Y. M. Rhee,  J. Ritchie,  M. A. Rohrdanz,  E. Rosta,  N. J. Russ,  
 H. F. Schaefer III,  N. E. Schultz,  N. Shenvi,  A. C. Simmonett,  A. Sodt,  
 D. Stuck,  K. S. Thanthiriwatte,  V. Vanovschi,  Tao Wang,  A. Warshel,  
 C. F. Williams,  Q. Wu,  X. Xu,  W. Zhang

 Please cite Q-Chem as follows:
 Y. Shao et al., Mol. Phys. 113, 184-215 (2015)
 DOI: 10.1080/00268976.2014.952696

 Q-Chem 5.2.0 for Intel X86 EM64T Linux

 Parts of Q-Chem use Armadillo 8.300.2 (Tropical Shenanigans).
 http://arma.sourceforge.net/

 Q-Chem begins on Sun Sep 26 01:53:49 2021  

Host: cori01
0

     Scratch files written to /tmp/qchem37249//
 May1019 |scratch|qcdevops|jenkins|workspace|build_RNUM -1
Processing $rem in /global/common/cori/software/qchem/5.2/config/preferences:
	 MEM_TOTAL  96000 
NAlpha2: 108
NElect   108
Mult     1
Symmetry turned off for PCM/SM12/SMD calculation

 Q-Chem warning in module libgen/rem_setup.C, line 2803:

 Neither GIA nor STOLL is specified by user. Use STOLL as the default


Checking the input file for inconsistencies... 	...done.

--------------------------------------------------------------
User input:
--------------------------------------------------------------
$comment
SSI-006PHE-061PHE-1.pdb
$end

$molecule
0 1
--
0 1
C   -0.693891371362    1.788675225751    0.646872386115
C   -0.758891371362    2.752675225751    1.817872386115
C    0.716108628638    1.473675225751    0.220872386115
C    1.231108628638    2.080675225751   -0.897127613885
C    1.540108628638    0.631675225751    0.968872386115
C    2.504108628638    1.799675225751   -1.352127613885
C    2.844108628638    0.362675225751    0.534872386115
C    3.314108628638    0.950675225751   -0.634127613885
H   -1.194891371362    0.858675225751    0.918872386115
H   -1.238891371362    2.216675225751   -0.196127613885
H   -0.165891371362    3.614675225751    1.535872386115
H    0.616108628638    2.767675225751   -1.462127613885
H    1.165108628638    0.150675225751    1.860872386115
H    2.876108628638    2.266675225751   -2.253127613885
H    3.475108628638   -0.309324774249    1.096872386115
H    4.316108628638    0.738675225751   -0.981127613885
H   -0.332241371362    2.299552225751    2.724874386115
H   -1.787391371362    3.080485225751    2.029386386115
--
0 1
C   -2.972891371362   -2.607324774249    1.570872386115
C   -2.553891371362   -1.286324774249   -0.571127613885
C   -2.036891371362   -2.060324774249    0.480872386115
C   -1.722891371362   -0.793324774249   -1.621127613885
C   -0.655891371362   -2.353324774249    0.475872386115
C   -0.381891371362   -1.089324774249   -1.608127613885
C    0.164108628638   -1.850324774249   -0.544127613885
H   -3.602891371362   -1.047324774249   -0.581127613885
H   -2.145891371362   -0.194324774249   -2.415127613885
H   -2.601891371362   -3.592324774249    1.845872386115
H   -3.962891371362   -2.750324774249    1.136872386115
H   -0.218891371362   -2.940324774249    1.270872386115
H    0.267108628638   -0.732324774249   -2.393127613885
H    1.225108628638   -2.059324774249   -0.529127613885
H   -3.078551371362   -1.988328774249    2.474021386115
$end

$rem
JOBTYPE			EDA
EDA2			1
method			wB97X-V
BASIS			def2-TZVPD
XC_GRID			000099000590
NL_GRID			1
UNRESTRICTED		FALSE
MAX_SCF_CYCLES		200
SYMMETRY		FALSE
SYM_IGNORE		TRUE
MEM_STATIC		2000
BASIS_LIN_DEP_THRESH 	6
THRESH 			14
SCF_CONVERGENCE 	8
SCF_PRINT_FRGM 		TRUE
SOLVENT_METHOD          SMD
$end

$SMX
SOLVENT			WATER
$END
--------------------------------------------------------------
 ----------------------------------------------------------------
             Standard Nuclear Orientation (Angstroms)
    I     Atom           X                Y                Z
 ----------------------------------------------------------------
    1      C      -0.6938913714     1.7886752258     0.6468723861
    2      C      -0.7588913714     2.7526752258     1.8178723861
    3      C       0.7161086286     1.4736752258     0.2208723861
    4      C       1.2311086286     2.0806752258    -0.8971276139
    5      C       1.5401086286     0.6316752258     0.9688723861
    6      C       2.5041086286     1.7996752258    -1.3521276139
    7      C       2.8441086286     0.3626752258     0.5348723861
    8      C       3.3141086286     0.9506752258    -0.6341276139
    9      H      -1.1948913714     0.8586752258     0.9188723861
   10      H      -1.2388913714     2.2166752258    -0.1961276139
   11      H      -0.1658913714     3.6146752258     1.5358723861
   12      H       0.6161086286     2.7676752258    -1.4621276139
   13      H       1.1651086286     0.1506752258     1.8608723861
   14      H       2.8761086286     2.2666752258    -2.2531276139
   15      H       3.4751086286    -0.3093247742     1.0968723861
   16      H       4.3161086286     0.7386752258    -0.9811276139
   17      H      -0.3322413714     2.2995522258     2.7248743861
   18      H      -1.7873913714     3.0804852258     2.0293863861
   19      C      -2.9728913714    -2.6073247742     1.5708723861
   20      C      -2.5538913714    -1.2863247742    -0.5711276139
   21      C      -2.0368913714    -2.0603247742     0.4808723861
   22      C      -1.7228913714    -0.7933247742    -1.6211276139
   23      C      -0.6558913714    -2.3533247742     0.4758723861
   24      C      -0.3818913714    -1.0893247742    -1.6081276139
   25      C       0.1641086286    -1.8503247742    -0.5441276139
   26      H      -3.6028913714    -1.0473247742    -0.5811276139
   27      H      -2.1458913714    -0.1943247742    -2.4151276139
   28      H      -2.6018913714    -3.5923247742     1.8458723861
   29      H      -3.9628913714    -2.7503247742     1.1368723861
   30      H      -0.2188913714    -2.9403247742     1.2708723861
   31      H       0.2671086286    -0.7323247742    -2.3931276139
   32      H       1.2251086286    -2.0593247742    -0.5291276139
   33      H      -3.0785513714    -1.9883287742     2.4740213861
 ----------------------------------------------------------------
 Nuclear Repulsion Energy =         931.44467319 hartrees
 There are       54 alpha and       54 beta electrons
 Requested basis set is def2-TZVPD
 There are 285 shells and 717 basis functions

 Total QAlloc Memory Limit  96000 MB
 Mega-Array Size      1956 MB
 MEM_STATIC part      2000 MB
 
 Citation of the SMD model:
 Marenich, A.V.; Cramer, C.J.; Truhlar, D.G.
 J. Phys. Chem. B 2009, 113, 6378-6396.
 iSolventCode=           1
 Solvent: water                                                           
 
 vradii
            1           2           3           4           5           6
    1   1.8500000   1.8500000   1.8500000   1.8500000   1.8500000   1.8500000
            7           8           9          10          11          12
    1   1.8500000   1.8500000   1.2000000   1.2000000   1.2000000   1.2000000
           13          14          15          16          17          18
    1   1.2000000   1.2000000   1.2000000   1.2000000   1.2000000   1.2000000
           19          20          21          22          23          24
    1   1.8500000   1.8500000   1.8500000   1.8500000   1.8500000   1.8500000
           25          26          27          28          29          30
    1   1.8500000   1.2000000   1.2000000   1.2000000   1.2000000   1.2000000
           31          32          33
    1   1.2000000   1.2000000   1.2000000
 Changing PCM_VDW_RADII to SMD_RADIUS
 Discretize the solute cavity surface with Lebedev spheres
	Using 110 Lebedev grid points for each H atom
	Using 194 Lebedev grid points for other atoms
	Atomic van der Waals radii will be scaled by 1.20
 Remove points where switching function is < 1.0e-08
 Keep 2352 surface tesserae and discard 2538 interior tesserae
 Molecular Surface Area = 272.413 Angst**2
 A cutoff of  1.0D-14 yielded  36094 shell pairs
 There are    231750 function pairs (    292711 Cartesian)
 Smallest overlap matrix eigenvalue = 3.54E-07
 Linear dependence detected in AO basis
 Tighter screening thresholds may be required for diffuse basis sets
 Use S2THRESH > 14 and THRESH = 14 in case of SCF convergence issues
 Number of orthogonalized atomic orbitals = 713
 Maximum deviation from orthogonality = 3.030E-10

 Scale SEOQF with 1.000000e-01/1.000000e-01/1.000000e-01

 Standard Electronic Orientation quadrupole field applied
 Nucleus-field energy     =     0.0000000243 hartrees

 -----------------------------------------------------------------------
  General SCF calculation program by
  Eric Jon Sundstrom, Paul Horn, Yuezhi Mao, Dmitri Zuev, Alec White,
  David Stuck, Shaama M.S., Shane Yost, Joonho Lee, David Small,
  Daniel Levine, Susi Lehtola, Hugh Burton, Evgeny Epifanovsky
 -----------------------------------------------------------------------
================================================================
                 ALMO-EDA with the EDA2 driver                  
================================================================
 The second-generation ALMO-EDA (for DFT):                      
 P. R. Horn, Y. Mao and M. Head-Gordon, PCCP, 18, 23067 (2016)  
 Decomposition of the frozen energy:                            
 P. R. Horn, Y. Mao and M. Head-Gordon, JCP, 144, 114107 (2016) 
 FERF model for polarization:                                   
 P. R. Horn and M. Head-Gordon, JCP, 143, 114111 (2015)         
Using eda2 option set 1
Option set summary: Frozen orbital wavefunction, initial wavefunction decomposition, and nDQ polarization.
--------------------------------
Printing EDA Options
--------------------------------
eda_child_super_basis      0
fragmo_guess_mode          0
child_mp                   1
child_mp_orders            232
cls_elec                   1
cls_disp                   0
scfmi_mode                 1
scfmi_occs                 0
scfmi_virts                0
frz_relax                  0
frz_relax_method           0
dc_pen_start               0
dc_pen_conv                0
dc_pen_increment           0
dc_pen_steps               0
dc_pen_thresh_factor       0
dc_pen_pre_newton_thresh   0
frz_ortho_decomp           1
frz_ortho_decomp_conv      6
frgm_method                2
scfmi_freeze_ss            0
separate_rehyb             0
plot_diff_den              0
eda_nocv                   0
eda_vct_relax              1
disp_free_x                0
disp_free_c                0
eda_bsse                   0
eda_pct_a                  0
eda_covp                   0
--------------------------------
Attempting to make child job directory: /tmp/qchem37249//Frg1/
Attempting to make child job directory: /tmp/qchem37249//Frg2/
Creating input file /tmp/qchem37249/Frg1.input
using default PutDataFrgm: nothing
calling putenv with: QCSCRATCH=/tmp/qchem37249/ 
calling putenv with: QCLOCALSCR=/tmp/qchem37249/ 
Spawning Job For Fragment 0
                  Welcome to Q-Chem
     A Quantum Leap Into The Future Of Chemistry


 Q-Chem 5.2, Q-Chem, Inc., Pleasanton, CA (2019)

 License issued to: National Energy Research Scientific Computing Center

 Yihan Shao,  Zhengting Gan,  E. Epifanovsky,  A. T. B. Gilbert,  M. Wormit,  
 J. Kussmann,  A. W. Lange,  A. Behn,  Jia Deng,  Xintian Feng,  D. Ghosh,  
 M. Goldey,  P. R. Horn,  L. D. Jacobson,  I. Kaliman,  T. Kus,  A. Landau,  
 Jie Liu,  E. I. Proynov,  R. M. Richard,  R. P. Steele,  E. J. Sundstrom,  
 H. L. Woodcock III,  P. M. Zimmerman,  D. Zuev,  B. Albrecht,  E. Alguire,  
 S. A. Baeppler,  D. Barton,  Z. Benda,  Y. A. Bernard,  E. J. Berquist,  
 K. B. Bravaya,  H. Burton,  D. Casanova,  Chun-Min Chang,  Yunqing Chen,  
 A. Chien,  K. D. Closser,  M. P. Coons,  S. Coriani,  S. Dasgupta,  
 A. L. Dempwolff,  M. Diedenhofen,  Hainam Do,  R. G. Edgar,  Po-Tung Fang,  
 S. Faraji,  S. Fatehi,  Qingguo Feng,  K. D. Fenk,  J. Fosso-Tande,  
 J. Gayvert,  Qinghui Ge,  A. Ghysels,  G. Gidofalvi,  J. Gomes,  
 J. Gonthier,  A. Gunina,  D. Hait,  M. W. D. Hanson-Heine,  
 P. H. P. Harbach,  A. W. Hauser,  M. F. Herbst,  J. E. Herr,  
 E. G. Hohenstein,  Z. C. Holden,  Kerwin Hui,  B. C. Huynh,  T.-C. Jagau,  
 Hyunjun Ji,  B. Kaduk,  K. Khistyaev,  Jaehoon Kim,  P. Klunzinger,  K. Koh,  
 D. Kosenkov,  L. Koulias,  T. Kowalczyk,  C. M. Krauter,  A. Kunitsa,  
 Ka Un Lao,  A. Laurent,  K. V. Lawler,  Joonho Lee,  D. Lefrancois,  
 S. Lehtola,  D. S. Levine,  Yi-Pei Li,  You-Sheng Lin,  Fenglai Liu,  
 E. Livshits,  A. Luenser,  P. Manohar,  E. Mansoor,  S. F. Manzer,  
 Shan-Ping Mao,  Yuezhi Mao,  N. Mardirossian,  A. V. Marenich,  
 T. Markovich,  L. A. Martinez-Martinez,  S. A. Maurer,  N. J. Mayhall,  
 S. C. McKenzie,  J.-M. Mewes,  P. Morgante,  A. F. Morrison,  
 J. W. Mullinax,  K. Nanda,  T. S. Nguyen-Beck,  R. Olivares-Amaya,  
 J. A. Parkhill,  Zheng Pei,  T. M. Perrine,  F. Plasser,  P. Pokhilko,  
 S. Prager,  A. Prociuk,  E. Ramos,  D. R. Rehn,  F. Rob,  M. Scheurer,  
 M. Schneider,  N. Sergueev,  S. M. Sharada,  S. Sharma,  D. W. Small,  
 T. Stauch,  T. Stein,  Yu-Chuan Su,  A. J. W. Thom,  A. Tkatchenko,  
 T. Tsuchimochi,  N. M. Tubman,  L. Vogt,  M. L. Vidal,  O. Vydrov,  
 M. A. Watson,  J. Wenzel,  M. de Wergifosse,  T. A. Wesolowski,  A. White,  
 J. Witte,  A. Yamada,  Jun Yang,  K. Yao,  S. Yeganeh,  S. R. Yost,  
 Zhi-Qiang You,  A. Zech,  Igor Ying Zhang,  Xing Zhang,  Yan Zhao,  
 Ying Zhu,  B. R. Brooks,  G. K. L. Chan,  C. J. Cramer,  M. S. Gordon,  
 W. J. Hehre,  A. Klamt,  M. W. Schmidt,  C. D. Sherrill,  D. G. Truhlar,  
 A. Aspuru-Guzik,  R. Baer,  A. T. Bell,  N. A. Besley,  Jeng-Da Chai,  
 A. E. DePrince, III,  R. A. DiStasio Jr.,  A. Dreuw,  B. D. Dunietz,  
 T. R. Furlani,  Chao-Ping Hsu,  Yousung Jung,  Jing Kong,  D. S. Lambrecht,  
 WanZhen Liang,  C. Ochsenfeld,  V. A. Rassolov,  L. V. Slipchenko,  
 J. E. Subotnik,  T. Van Voorhis,  J. M. Herbert,  A. I. Krylov,  
 P. M. W. Gill,  M. Head-Gordon

 Contributors to earlier versions of Q-Chem not listed above: 
 R. D. Adamson,  B. Austin,  J. Baker,  G. J. O. Beran,  K. Brandhorst,  
 S. T. Brown,  E. F. C. Byrd,  A. K. Chakraborty,  C.-L. Cheng,  
 Siu Hung Chien,  D. M. Chipman,  D. L. Crittenden,  H. Dachsel,  
 R. J. Doerksen,  A. D. Dutoi,  L. Fusti-Molnar,  W. A. Goddard III,  
 A. Golubeva-Zadorozhnaya,  S. R. Gwaltney,  G. Hawkins,  A. Heyden,  
 S. Hirata,  G. Kedziora,  F. J. Keil,  C. Kelley,  Jihan Kim,  R. A. King,  
 R. Z. Khaliullin,  P. P. Korambath,  W. Kurlancheek,  A. M. Lee,  M. S. Lee,  
 S. V. Levchenko,  Ching Yeh Lin,  D. Liotard,  R. C. Lochan,  I. Lotan,  
 P. E. Maslen,  N. Nair,  D. P. O'Neill,  D. Neuhauser,  E. Neuscamman,  
 C. M. Oana,  R. Olson,  B. Peters,  R. Peverati,  P. A. Pieniazek,  
 Y. M. Rhee,  J. Ritchie,  M. A. Rohrdanz,  E. Rosta,  N. J. Russ,  
 H. F. Schaefer III,  N. E. Schultz,  N. Shenvi,  A. C. Simmonett,  A. Sodt,  
 D. Stuck,  K. S. Thanthiriwatte,  V. Vanovschi,  Tao Wang,  A. Warshel,  
 C. F. Williams,  Q. Wu,  X. Xu,  W. Zhang

 Please cite Q-Chem as follows:
 Y. Shao et al., Mol. Phys. 113, 184-215 (2015)
 DOI: 10.1080/00268976.2014.952696

 Q-Chem 5.2.0 for Intel X86 EM64T Linux

 Parts of Q-Chem use Armadillo 8.300.2 (Tropical Shenanigans).
 http://arma.sourceforge.net/

 Q-Chem begins on Sun Sep 26 01:53:57 2021  

Host: cori01
0

     Scratch files written to /tmp/qchem37249//Frg1//
 May1019 |scratch|qcdevops|jenkins|workspace|build_RNUM -1
Processing $rem in /global/common/cori/software/qchem/5.2/config/preferences:
	 MEM_TOTAL  96000 
NAlpha2: 58
NElect   58
Mult     1
Symmetry turned off for PCM/SM12/SMD calculation

Checking the input file for inconsistencies... 	...done.

--------------------------------------------------------------
User input:
--------------------------------------------------------------
$molecule
0 1
 6	-0.6938913714	1.7886752258	0.6468723861
 6	-0.7588913714	2.7526752258	1.8178723861
 6	0.7161086286	1.4736752258	0.2208723861
 6	1.2311086286	2.0806752258	-0.8971276139
 6	1.5401086286	0.6316752258	0.9688723861
 6	2.5041086286	1.7996752258	-1.3521276139
 6	2.8441086286	0.3626752258	0.5348723861
 6	3.3141086286	0.9506752258	-0.6341276139
 1	-1.1948913714	0.8586752258	0.9188723861
 1	-1.2388913714	2.2166752258	-0.1961276139
 1	-0.1658913714	3.6146752258	1.5358723861
 1	0.6161086286	2.7676752258	-1.4621276139
 1	1.1651086286	0.1506752258	1.8608723861
 1	2.8761086286	2.2666752258	-2.2531276139
 1	3.4751086286	-0.3093247742	1.0968723861
 1	4.3161086286	0.7386752258	-0.9811276139
 1	-0.3322413714	2.2995522258	2.7248743861
 1	-1.7873913714	3.0804852258	2.0293863861
$end
$rem
EDA2		1
METHOD		WB97X-V
BASIS		DEF2-TZVPD
XC_GRID		000099000590
NL_GRID		1
UNRESTRICTED		FALSE
MAX_SCF_CYCLES		200
SYMMETRY		FALSE
SYM_IGNORE		TRUE
BASIS_LIN_DEP_THRESH		6
THRESH		14
SCF_CONVERGENCE		8
SCF_PRINT_FRGM		TRUE
SOLVENT_METHOD		SMD
!required keywords
JOBTYPE		SP
SYM_IGNORE		TRUE
SUBSYSTEM		TRUE
GEN_SCFMAN		TRUE
CHILD_INSTRUCTION		2
SYM_IGNORE		TRUE
SCFMI		0
RI_K 0		
PARI_K 0		
MIN_PARI_K 0		
IARI_K 0		
OCC_RI_K 0		
PURECART		1111
MEM_STATIC		2000
MEM_TOTAL		96000
GUI		0
CHILD_MP		1
CHILD_MP_ORDERS		232
FRZ_RELAX		0
FRZ_RELAX_METHOD		0
EDA_CLS_ELEC		1
EDA_CLS_DISP		0
FRZ_ORTHO_DECOMP		1
EDA2		FALSE
FRGM_METHOD		FALSE
CIS_N_ROOTS  0
LOCAL_CIS    0
CIS_RLX_DNS  1
$end
$smx
SOLVENT			WATER
$end
--------------------------------------------------------------
 ----------------------------------------------------------------
             Standard Nuclear Orientation (Angstroms)
    I     Atom           X                Y                Z
 ----------------------------------------------------------------
    1      C      -0.6938913714     1.7886752258     0.6468723861
    2      C      -0.7588913714     2.7526752258     1.8178723861
    3      C       0.7161086286     1.4736752258     0.2208723861
    4      C       1.2311086286     2.0806752258    -0.8971276139
    5      C       1.5401086286     0.6316752258     0.9688723861
    6      C       2.5041086286     1.7996752258    -1.3521276139
    7      C       2.8441086286     0.3626752258     0.5348723861
    8      C       3.3141086286     0.9506752258    -0.6341276139
    9      H      -1.1948913714     0.8586752258     0.9188723861
   10      H      -1.2388913714     2.2166752258    -0.1961276139
   11      H      -0.1658913714     3.6146752258     1.5358723861
   12      H       0.6161086286     2.7676752258    -1.4621276139
   13      H       1.1651086286     0.1506752258     1.8608723861
   14      H       2.8761086286     2.2666752258    -2.2531276139
   15      H       3.4751086286    -0.3093247742     1.0968723861
   16      H       4.3161086286     0.7386752258    -0.9811276139
   17      H      -0.3322413714     2.2995522258     2.7248743861
   18      H      -1.7873913714     3.0804852258     2.0293863861
 ----------------------------------------------------------------
 Nuclear Repulsion Energy =         342.23064427 hartrees
 There are       29 alpha and       29 beta electrons
 Requested basis set is def2-TZVPD
 There are 154 shells and 386 basis functions

 Total QAlloc Memory Limit  96000 MB
 Mega-Array Size      1956 MB
 MEM_STATIC part      2000 MB
 
 Citation of the SMD model:
 Marenich, A.V.; Cramer, C.J.; Truhlar, D.G.
 J. Phys. Chem. B 2009, 113, 6378-6396.
 iSolventCode=           1
 Solvent: water                                                           
 
 vradii
            1           2           3           4           5           6
    1   1.8500000   1.8500000   1.8500000   1.8500000   1.8500000   1.8500000
            7           8           9          10          11          12
    1   1.8500000   1.8500000   1.2000000   1.2000000   1.2000000   1.2000000
           13          14          15          16          17          18
    1   1.2000000   1.2000000   1.2000000   1.2000000   1.2000000   1.2000000
 Changing PCM_VDW_RADII to SMD_RADIUS
 Discretize the solute cavity surface with Lebedev spheres
	Using 110 Lebedev grid points for each H atom
	Using 194 Lebedev grid points for other atoms
	Atomic van der Waals radii will be scaled by 1.20
 Remove points where switching function is < 1.0e-08
 Keep 1278 surface tesserae and discard 1374 interior tesserae
 Molecular Surface Area = 151.702 Angst**2
 A cutoff of  1.0D-14 yielded  11363 shell pairs
 There are     72831 function pairs (     92309 Cartesian)
 Smallest overlap matrix eigenvalue = 5.05E-07
 Linear dependence detected in AO basis
 Tighter screening thresholds may be required for diffuse basis sets
 Use S2THRESH > 14 and THRESH = 14 in case of SCF convergence issues
 Number of orthogonalized atomic orbitals = 384
 Maximum deviation from orthogonality = 1.042E-10

 Scale SEOQF with 1.000000e-01/1.000000e-01/1.000000e-01

 Standard Electronic Orientation quadrupole field applied
 Nucleus-field energy     =     0.0000000129 hartrees
 Guess from superposition of atomic densities
 Warning:  Energy on first SCF cycle will be non-variational
 SAD guess density has 57.901037 electrons

 -----------------------------------------------------------------------
  General SCF calculation program by
  Eric Jon Sundstrom, Paul Horn, Yuezhi Mao, Dmitri Zuev, Alec White,
  David Stuck, Shaama M.S., Shane Yost, Joonho Lee, David Small,
  Daniel Levine, Susi Lehtola, Hugh Burton, Evgeny Epifanovsky
 -----------------------------------------------------------------------
 Exchange:     0.1670 Hartree-Fock + 1.0000 wB97X-V + LR-HF
 Correlation:  1.0000 wB97X-V
 Using Euler-Maclaurin-Lebedev (99,590) quadrature formula
 Nonlocal Correlation:  VV10 with C = 0.0100 and b = 6.00 and scale = 1.00000
 Grid used for NLC:  SG-1 standard quadrature
Energy prior to optimization (guess energy) = -310.825488736752
Begin Timing: Total SCF Calculation
begin iterations for algorithm: DIIS         
the SCF tolerance is set to 1.00e-08
    1    -310.8254887368      1.84e-03     00000 
    2    -310.8722019094      1.21e-03     00000 
    3    -310.9006074937      1.38e-04     00000 
    4    -310.9013378041      4.39e-05     00000 
    5    -310.9013896669      2.40e-05     00000 
    6    -310.9014017499      5.36e-06     00000 
    7    -310.9014026802      1.82e-06     00000 
    8    -310.9014027642      4.19e-07     00000 
    9    -310.9014027715      1.04e-07     00000 
   10    -310.9014027721      5.26e-08     00000 
   11    -310.9014027722      1.83e-08     00000 
   12    -310.9014027722      6.17e-09     00000 Convergence criterion met
Timing for Total SCF: 2273.00s (wall), 4518.97s (cpu)
(3)  G-ENP(liq) elect-nuc-pol free energy of system     -310.901402772 a.u.
(4)  G-CDS(liq) cavity-dispersion-solvent structure 
     free energy                                                3.4509 kcal/mol
(6)  G-S(liq) free energy of system                     -310.895903390 a.u.
E_pcm = -0.0075789513
E_cds = 0.0054993819
Multipole orders to be included
        2
        3
computing dipole RHS
computing quadrupole RHS
total number of RHS in solve_reponses: 8
RHS batch sizes
        8
Beginning Block Conjugate Gradient Iterations. Batch Number: 0
computing hessian-vector products by finite difference
              1      5.83e-01     00000 Conjugate Gradient Iteration
computing hessian-vector products by finite difference
              2      1.74e-01     00000 Conjugate Gradient Iteration
computing hessian-vector products by finite difference
              3      4.58e-02     00000 Conjugate Gradient Iteration
computing hessian-vector products by finite difference
              4      1.14e-02     00000 Conjugate Gradient Iteration
computing hessian-vector products by finite difference
              5      2.11e-03     00000 Conjugate Gradient Iteration
computing hessian-vector products by finite difference
              6      4.71e-04     00000 Conjugate Gradient Iteration
computing hessian-vector products by finite difference
              7      1.30e-04     00000 Conjugate Gradient Iteration
computing hessian-vector products by finite difference
              8      2.34e-05     00000 Conjugate Gradient Iteration
computing hessian-vector products by finite difference
              9      3.74e-06     00000 Conjugate Gradient Iteration
computing hessian-vector products by finite difference
             10      6.16e-07     00000 Conjugate Gradient Iteration
computing hessian-vector products by finite difference
             11      1.05e-07     00000 Conjugate Gradient Iteration
computing hessian-vector products by finite difference
             12      1.59e-08     00000 Conjugate Gradient Iteration
computing hessian-vector products by finite difference
             13      2.37e-09     00000 CG Converged
batch 0 complete
Done Calculating Responses
TESTING ORTHOGONALIZATION OF MULTIPOLE BASIS
Multipole virts passed orthogonality test
Virts Per Order
           87
          145
 
 --------------------------------------------------------------
 
                    Orbital Energies (a.u.)
 --------------------------------------------------------------
 
 Alpha MOs
 -- Occupied --
-10.2717 -10.2683 -10.2658 -10.2637 -10.2627 -10.2594 -10.2571 -10.2486
 -0.9975  -0.9192  -0.8749  -0.8504  -0.7509  -0.7262  -0.6925  -0.6250
 -0.5778  -0.5639  -0.5383  -0.5296  -0.5185  -0.5010  -0.4755  -0.4560
 -0.4476  -0.4282  -0.4219  -0.3460  -0.3366
 -- Virtual --
  0.0662   0.0696   0.0727   0.0870   0.0886   0.0966   0.1100   0.1145
  0.1186   0.1369   0.1627   0.1649   0.1738   0.1807   0.1878   0.1944
  0.2004   0.2054   0.2187   0.2224   0.2311   0.2389   0.2486   0.2580
  0.2655   0.2722   0.2745   0.2810   0.2826   0.2908   0.2940   0.3016
  0.3020   0.3040   0.3062   0.3165   0.3241   0.3330   0.3392   0.3410
  0.3510   0.3530   0.3587   0.3594   0.3647   0.3753   0.3768   0.3831
  0.3873   0.3917   0.3965   0.3999   0.4094   0.4139   0.4176   0.4261
  0.4310   0.4399   0.4418   0.4445   0.4481   0.4585   0.4628   0.4685
  0.4730   0.4795   0.4825   0.4899   0.4933   0.5039   0.5070   0.5125
  0.5176   0.5226   0.5290   0.5345   0.5381   0.5426   0.5442   0.5516
  0.5586   0.5659   0.5716   0.5822   0.5912   0.5944   0.6019   0.6123
  0.6185   0.6260   0.6330   0.6471   0.6621   0.6674   0.6788   0.6868
  0.6898   0.7002   0.7097   0.7111   0.7235   0.7270   0.7321   0.7357
  0.7526   0.7633   0.7689   0.7716   0.7780   0.7857   0.7888   0.7955
  0.7979   0.8035   0.8089   0.8118   0.8182   0.8198   0.8288   0.8322
  0.8416   0.8477   0.8519   0.8533   0.8598   0.8734   0.8825   0.8887
  0.8934   0.9030   0.9224   0.9259   0.9351   0.9594   0.9689   0.9791
  1.0064   1.0319   1.0528   1.0539   1.0686   1.0826   1.0854   1.0988
  1.1013   1.1121   1.1237   1.1642   1.1960   1.2080   1.2188   1.2284
  1.2922   1.3109   1.3211   1.3482   1.3778   1.3927   1.4057   1.4180
  1.4250   1.4568   1.4678   1.4888   1.5059   1.5253   1.5404   1.5582
  1.5790   1.6149   1.6242   1.6366   1.6463   1.6962   1.7183   1.7572
  1.7820   1.8017   1.8107   1.8152   1.8446   1.8523   1.8930   1.8973
  1.9134   1.9300   1.9344   1.9487   1.9620   1.9877   1.9892   2.0063
  2.0082   2.0123   2.0410   2.0445   2.0526   2.0701   2.0808   2.0908
  2.1147   2.1442   2.1539   2.1841   2.2148   2.2180   2.2377   2.2516
  2.2851   2.2998   2.3258   2.3454   2.3910   2.4090   2.4234   2.4495
  2.4784   2.5126   2.5348   2.5584   2.5603   2.5915   2.6090   2.6230
  2.6445   2.6483   2.6672   2.6952   2.7060   2.7308   2.7480   2.7699
  2.7934   2.7963   2.8231   2.8303   2.8430   2.8603   2.8760   2.8966
  2.9071   2.9257   2.9322   2.9447   2.9644   2.9687   2.9915   2.9997
  3.0174   3.0327   3.0411   3.0474   3.0732   3.0823   3.0940   3.1116
  3.1615   3.1800   3.1968   3.2231   3.2367   3.2547   3.2682   3.3148
  3.3228   3.3328   3.3564   3.3798   3.3951   3.4090   3.4224   3.4287
  3.4391   3.4632   3.4752   3.4875   3.4968   3.5097   3.5148   3.5201
  3.5330   3.5429   3.5460   3.5605   3.5813   3.5907   3.6073   3.6269
  3.6383   3.6647   3.6829   3.7019   3.7084   3.7186   3.7234   3.7527
  3.7768   3.8166   3.8493   3.8830   3.8892   3.9400   3.9724   3.9989
  4.0135   4.0586   4.0819   4.1279   4.1475   4.1926   4.2104   4.2444
  4.2843   4.3036   4.3306   4.3434   4.3602   4.3747   4.3970   4.4038
  4.4243   4.4508   4.4790   4.4926   4.5253   4.5695   4.6086   4.6506
  4.6935   4.7695   4.7890   4.8457   4.8820   4.9215   4.9397   4.9798
  5.0371   5.0508   5.1236   5.1958   5.3177   5.3981   5.4166   5.5055
  5.5454   5.7147   5.8159  22.6468  22.6738  22.8069  22.9181  22.9599
 23.0554  23.1255  23.4971
 --------------------------------------------------------------
 
          Ground-State Mulliken Net Atomic Charges

     Atom                 Charge (a.u.)
  ----------------------------------------
      1 C                    -0.448528
      2 C                    -0.955675
      3 C                     0.417290
      4 C                    -0.400357
      5 C                    -0.384685
      6 C                    -0.526162
      7 C                    -0.531276
      8 C                    -0.449870
      9 H                     0.259765
     10 H                     0.267416
     11 H                     0.289260
     12 H                     0.374394
     13 H                     0.418159
     14 H                     0.377234
     15 H                     0.384406
     16 H                     0.399000
     17 H                     0.264172
     18 H                     0.245454
  ----------------------------------------
  Sum of atomic charges =     0.000000

 -----------------------------------------------------------------
                    Cartesian Multipole Moments
 -----------------------------------------------------------------
    Charge (ESU x 10^10)
                 0.0000
    Dipole Moment (Debye)
         X      -0.5312      Y       0.1132      Z       0.1349
       Tot       0.5597
    Quadrupole Moments (Debye-Ang)
        XX     -46.3752     XY      -3.0745     YY     -49.3131
        XZ      -1.6333     YZ      -3.9718     ZZ     -47.1020
    Octopole Moments (Debye-Ang^2)
       XXX    -167.2875    XXY     -80.6724    XYY     -70.1536
       YYY    -225.8963    XXZ     -17.8254    XYZ      -9.3010
       YYZ     -21.3097    XZZ     -56.9320    YZZ     -72.2524
       ZZZ     -33.9647
    Hexadecapole Moments (Debye-Ang^3)
      XXXX   -1126.1862   XXXY    -180.1915   XXYY    -380.2693
      XYYY    -176.2952   YYYY    -964.9983   XXXZ      72.2411
      XXYZ     -45.9663   XYYZ      20.2073   YYYZ     -88.4451
      XXZZ    -258.6528   XYZZ     -42.9775   YYZZ    -224.0776
      XZZZ      99.0316   YZZZ     -80.6390   ZZZZ    -423.4922
 -----------------------------------------------------------------
Archival summary:
1\1\nid00523\SP\ProcedureUnspecified\BasisUnspecified\810\meili\SunSep2615:13:352021SunSep2615:13:352021\0\\#,ProcedureUnspecified,BasisUnspecified,\\0,1\C\C,1,1.37244\H,2,1.0814,1,119.55\C,2,1.38077,1,121.627,3,-177.559,0\H,4,1.08087,2,120.27,1,178.03,0\C,4,1.37565,2,119.766,1,-3.79473,0\H,6,1.08137,4,119.941,2,-179.211,0\C,6,1.3904,4,120.052,2,0.958083,0\H,8,1.07962,6,120.22,4,179.581,0\C,1,1.39551,2,118.811,3,-177.45,0\H,10,1.08058,1,120.406,2,179.201,0\C,1,1.50625,2,119.285,3,-0.627765,0\H,12,1.09082,1,108.794,2,136.1,0\H,12,1.09126,1,109.332,2,19.1913,0\C,12,1.51814,1,113.018,2,-102.393,0\H,15,1.08361,12,106.317,1,53.1793,0\H,15,1.1,12,110.967,1,-65.5338,0\H,15,1.1,12,112.184,1,172.172,0\\\@

 Total job time:  47980.36s(wall), 95233.53s(cpu) 
 Sun Sep 26 15:13:38 2021

        *************************************************************
        *                                                           *
        *  Thank you very much for using Q-Chem.  Have a nice day.  *
        *                                                           *
        *************************************************************


Done Job For Fragment 0
calling putenv with: QCSCRATCH=/global/cscratch1/sd/meili 
calling putenv with: QCLOCALSCR=/tmp 
calling putenv with: QCTHREADS=32 
Creating input file /tmp/qchem37249/Frg2.input
using default PutDataFrgm: nothing
calling putenv with: QCSCRATCH=/tmp/qchem37249/ 
calling putenv with: QCLOCALSCR=/tmp/qchem37249/ 
Spawning Job For Fragment 1
                  Welcome to Q-Chem
     A Quantum Leap Into The Future Of Chemistry


 Q-Chem 5.2, Q-Chem, Inc., Pleasanton, CA (2019)

 License issued to: National Energy Research Scientific Computing Center

 Yihan Shao,  Zhengting Gan,  E. Epifanovsky,  A. T. B. Gilbert,  M. Wormit,  
 J. Kussmann,  A. W. Lange,  A. Behn,  Jia Deng,  Xintian Feng,  D. Ghosh,  
 M. Goldey,  P. R. Horn,  L. D. Jacobson,  I. Kaliman,  T. Kus,  A. Landau,  
 Jie Liu,  E. I. Proynov,  R. M. Richard,  R. P. Steele,  E. J. Sundstrom,  
 H. L. Woodcock III,  P. M. Zimmerman,  D. Zuev,  B. Albrecht,  E. Alguire,  
 S. A. Baeppler,  D. Barton,  Z. Benda,  Y. A. Bernard,  E. J. Berquist,  
 K. B. Bravaya,  H. Burton,  D. Casanova,  Chun-Min Chang,  Yunqing Chen,  
 A. Chien,  K. D. Closser,  M. P. Coons,  S. Coriani,  S. Dasgupta,  
 A. L. Dempwolff,  M. Diedenhofen,  Hainam Do,  R. G. Edgar,  Po-Tung Fang,  
 S. Faraji,  S. Fatehi,  Qingguo Feng,  K. D. Fenk,  J. Fosso-Tande,  
 J. Gayvert,  Qinghui Ge,  A. Ghysels,  G. Gidofalvi,  J. Gomes,  
 J. Gonthier,  A. Gunina,  D. Hait,  M. W. D. Hanson-Heine,  
 P. H. P. Harbach,  A. W. Hauser,  M. F. Herbst,  J. E. Herr,  
 E. G. Hohenstein,  Z. C. Holden,  Kerwin Hui,  B. C. Huynh,  T.-C. Jagau,  
 Hyunjun Ji,  B. Kaduk,  K. Khistyaev,  Jaehoon Kim,  P. Klunzinger,  K. Koh,  
 D. Kosenkov,  L. Koulias,  T. Kowalczyk,  C. M. Krauter,  A. Kunitsa,  
 Ka Un Lao,  A. Laurent,  K. V. Lawler,  Joonho Lee,  D. Lefrancois,  
 S. Lehtola,  D. S. Levine,  Yi-Pei Li,  You-Sheng Lin,  Fenglai Liu,  
 E. Livshits,  A. Luenser,  P. Manohar,  E. Mansoor,  S. F. Manzer,  
 Shan-Ping Mao,  Yuezhi Mao,  N. Mardirossian,  A. V. Marenich,  
 T. Markovich,  L. A. Martinez-Martinez,  S. A. Maurer,  N. J. Mayhall,  
 S. C. McKenzie,  J.-M. Mewes,  P. Morgante,  A. F. Morrison,  
 J. W. Mullinax,  K. Nanda,  T. S. Nguyen-Beck,  R. Olivares-Amaya,  
 J. A. Parkhill,  Zheng Pei,  T. M. Perrine,  F. Plasser,  P. Pokhilko,  
 S. Prager,  A. Prociuk,  E. Ramos,  D. R. Rehn,  F. Rob,  M. Scheurer,  
 M. Schneider,  N. Sergueev,  S. M. Sharada,  S. Sharma,  D. W. Small,  
 T. Stauch,  T. Stein,  Yu-Chuan Su,  A. J. W. Thom,  A. Tkatchenko,  
 T. Tsuchimochi,  N. M. Tubman,  L. Vogt,  M. L. Vidal,  O. Vydrov,  
 M. A. Watson,  J. Wenzel,  M. de Wergifosse,  T. A. Wesolowski,  A. White,  
 J. Witte,  A. Yamada,  Jun Yang,  K. Yao,  S. Yeganeh,  S. R. Yost,  
 Zhi-Qiang You,  A. Zech,  Igor Ying Zhang,  Xing Zhang,  Yan Zhao,  
 Ying Zhu,  B. R. Brooks,  G. K. L. Chan,  C. J. Cramer,  M. S. Gordon,  
 W. J. Hehre,  A. Klamt,  M. W. Schmidt,  C. D. Sherrill,  D. G. Truhlar,  
 A. Aspuru-Guzik,  R. Baer,  A. T. Bell,  N. A. Besley,  Jeng-Da Chai,  
 A. E. DePrince, III,  R. A. DiStasio Jr.,  A. Dreuw,  B. D. Dunietz,  
 T. R. Furlani,  Chao-Ping Hsu,  Yousung Jung,  Jing Kong,  D. S. Lambrecht,  
 WanZhen Liang,  C. Ochsenfeld,  V. A. Rassolov,  L. V. Slipchenko,  
 J. E. Subotnik,  T. Van Voorhis,  J. M. Herbert,  A. I. Krylov,  
 P. M. W. Gill,  M. Head-Gordon

 Contributors to earlier versions of Q-Chem not listed above: 
 R. D. Adamson,  B. Austin,  J. Baker,  G. J. O. Beran,  K. Brandhorst,  
 S. T. Brown,  E. F. C. Byrd,  A. K. Chakraborty,  C.-L. Cheng,  
 Siu Hung Chien,  D. M. Chipman,  D. L. Crittenden,  H. Dachsel,  
 R. J. Doerksen,  A. D. Dutoi,  L. Fusti-Molnar,  W. A. Goddard III,  
 A. Golubeva-Zadorozhnaya,  S. R. Gwaltney,  G. Hawkins,  A. Heyden,  
 S. Hirata,  G. Kedziora,  F. J. Keil,  C. Kelley,  Jihan Kim,  R. A. King,  
 R. Z. Khaliullin,  P. P. Korambath,  W. Kurlancheek,  A. M. Lee,  M. S. Lee,  
 S. V. Levchenko,  Ching Yeh Lin,  D. Liotard,  R. C. Lochan,  I. Lotan,  
 P. E. Maslen,  N. Nair,  D. P. O'Neill,  D. Neuhauser,  E. Neuscamman,  
 C. M. Oana,  R. Olson,  B. Peters,  R. Peverati,  P. A. Pieniazek,  
 Y. M. Rhee,  J. Ritchie,  M. A. Rohrdanz,  E. Rosta,  N. J. Russ,  
 H. F. Schaefer III,  N. E. Schultz,  N. Shenvi,  A. C. Simmonett,  A. Sodt,  
 D. Stuck,  K. S. Thanthiriwatte,  V. Vanovschi,  Tao Wang,  A. Warshel,  
 C. F. Williams,  Q. Wu,  X. Xu,  W. Zhang

 Please cite Q-Chem as follows:
 Y. Shao et al., Mol. Phys. 113, 184-215 (2015)
 DOI: 10.1080/00268976.2014.952696

 Q-Chem 5.2.0 for Intel X86 EM64T Linux

 Parts of Q-Chem use Armadillo 8.300.2 (Tropical Shenanigans).
 http://arma.sourceforge.net/

 Q-Chem begins on Sun Sep 26 15:13:42 2021  

Host: cori01
0

     Scratch files written to /tmp/qchem37249//Frg2//
 May1019 |scratch|qcdevops|jenkins|workspace|build_RNUM -1
Processing $rem in /global/common/cori/software/qchem/5.2/config/preferences:
	 MEM_TOTAL  96000 
NAlpha2: 50
NElect   50
Mult     1
Symmetry turned off for PCM/SM12/SMD calculation

Checking the input file for inconsistencies... 	...done.

--------------------------------------------------------------
User input:
--------------------------------------------------------------
$molecule
0 1
 6	-2.9728913714	-2.6073247742	1.5708723861
 6	-2.5538913714	-1.2863247742	-0.5711276139
 6	-2.0368913714	-2.0603247742	0.4808723861
 6	-1.7228913714	-0.7933247742	-1.6211276139
 6	-0.6558913714	-2.3533247742	0.4758723861
 6	-0.3818913714	-1.0893247742	-1.6081276139
 6	0.1641086286	-1.8503247742	-0.5441276139
 1	-3.6028913714	-1.0473247742	-0.5811276139
 1	-2.1458913714	-0.1943247742	-2.4151276139
 1	-2.6018913714	-3.5923247742	1.8458723861
 1	-3.9628913714	-2.7503247742	1.1368723861
 1	-0.2188913714	-2.9403247742	1.2708723861
 1	0.2671086286	-0.7323247742	-2.3931276139
 1	1.2251086286	-2.0593247742	-0.5291276139
 1	-3.0785513714	-1.9883287742	2.4740213861
$end
$rem
EDA2		1
METHOD		WB97X-V
BASIS		DEF2-TZVPD
XC_GRID		000099000590
NL_GRID		1
UNRESTRICTED		FALSE
MAX_SCF_CYCLES		200
SYMMETRY		FALSE
SYM_IGNORE		TRUE
BASIS_LIN_DEP_THRESH		6
THRESH		14
SCF_CONVERGENCE		8
SCF_PRINT_FRGM		TRUE
SOLVENT_METHOD		SMD
!required keywords
JOBTYPE		SP
SYM_IGNORE		TRUE
SUBSYSTEM		TRUE
GEN_SCFMAN		TRUE
CHILD_INSTRUCTION		2
SYM_IGNORE		TRUE
SCFMI		0
RI_K 0		
PARI_K 0		
MIN_PARI_K 0		
IARI_K 0		
OCC_RI_K 0		
PURECART		1111
MEM_STATIC		2000
MEM_TOTAL		96000
GUI		0
CHILD_MP		1
CHILD_MP_ORDERS		232
FRZ_RELAX		0
FRZ_RELAX_METHOD		0
EDA_CLS_ELEC		1
EDA_CLS_DISP		0
FRZ_ORTHO_DECOMP		1
EDA2		FALSE
FRGM_METHOD		FALSE
CIS_N_ROOTS  0
LOCAL_CIS    0
CIS_RLX_DNS  1
$end
$smx
SOLVENT			WATER
$end
--------------------------------------------------------------
 ----------------------------------------------------------------
             Standard Nuclear Orientation (Angstroms)
    I     Atom           X                Y                Z
 ----------------------------------------------------------------
    1      C      -2.9728913714    -2.6073247742     1.5708723861
    2      C      -2.5538913714    -1.2863247742    -0.5711276139
    3      C      -2.0368913714    -2.0603247742     0.4808723861
    4      C      -1.7228913714    -0.7933247742    -1.6211276139
    5      C      -0.6558913714    -2.3533247742     0.4758723861
    6      C      -0.3818913714    -1.0893247742    -1.6081276139
    7      C       0.1641086286    -1.8503247742    -0.5441276139
    8      H      -3.6028913714    -1.0473247742    -0.5811276139
    9      H      -2.1458913714    -0.1943247742    -2.4151276139
   10      H      -2.6018913714    -3.5923247742     1.8458723861
   11      H      -3.9628913714    -2.7503247742     1.1368723861
   12      H      -0.2188913714    -2.9403247742     1.2708723861
   13      H       0.2671086286    -0.7323247742    -2.3931276139
   14      H       1.2251086286    -2.0593247742    -0.5291276139
   15      H      -3.0785513714    -1.9883287742     2.4740213861
 ----------------------------------------------------------------
 Nuclear Repulsion Energy =         267.18789495 hartrees
 There are       25 alpha and       25 beta electrons
 Requested basis set is def2-TZVPD
 There are 131 shells and 331 basis functions

 Total QAlloc Memory Limit  96000 MB
 Mega-Array Size      1956 MB
 MEM_STATIC part      2000 MB
 
 Citation of the SMD model:
 Marenich, A.V.; Cramer, C.J.; Truhlar, D.G.
 J. Phys. Chem. B 2009, 113, 6378-6396.
 iSolventCode=           1
 Solvent: water                                                           
 
 vradii
            1           2           3           4           5           6
    1   1.8500000   1.8500000   1.8500000   1.8500000   1.8500000   1.8500000
            7           8           9          10          11          12
    1   1.8500000   1.2000000   1.2000000   1.2000000   1.2000000   1.2000000
           13          14          15
    1   1.2000000   1.2000000   1.2000000
 Changing PCM_VDW_RADII to SMD_RADIUS
 Discretize the solute cavity surface with Lebedev spheres
	Using 110 Lebedev grid points for each H atom
	Using 194 Lebedev grid points for other atoms
	Atomic van der Waals radii will be scaled by 1.20
 Remove points where switching function is < 1.0e-08
 Keep 1094 surface tesserae and discard 1144 interior tesserae
 Molecular Surface Area = 133.394 Angst**2

                       Distance Matrix (Angstroms)
             C (  1)   C (  2)   C (  3)   C (  4)   C (  5)   C (  6)
   C (  2)  2.551228
   C (  3)  1.537337  1.404660
   C (  4)  3.878397  1.426923  2.474326
   C (  5)  2.575273  2.416010  1.411749  2.823030
   C (  6)  4.373059  2.414904  2.836510  1.373341  2.452718
   C (  7)  3.858373  2.776031  2.437032  2.416184  1.402073  1.417509
   H (  8)  2.731594  1.075928  2.146245  2.163450  3.392299  3.381026
   H (  9)  4.732303  2.181574  3.446832  1.080817  3.903750  2.136345
   H ( 10)  1.087884  3.340932  2.128256  4.541710  2.683083  4.808693
   H ( 11)  1.090369  2.654400  2.148467  4.056355  3.395700  4.808067
   H ( 12)  2.790234  3.403073  2.168784  3.903241  1.080538  3.426574
   H ( 13)  5.452203  3.403622  3.915594  2.135370  3.422095  1.079294
   H ( 14)  4.725834  3.857478  3.414783  3.389089  2.152817  2.165084
   H ( 15)  1.099999  3.168755  2.250085  4.476170  3.161503  4.974347
             C (  7)   H (  8)   H (  9)   H ( 10)   H ( 11)   H ( 12)
   H (  8)  3.851813
   H (  9)  3.402804  2.492792
   H ( 10)  4.049373  3.656413  5.469046
   H ( 11)  4.546195  2.445676  4.738283  1.750419
   H ( 12)  2.151514  4.297070  4.984019  2.536615  3.751212
   H ( 13)  2.163177  4.284795  2.472346  5.863436  5.867378  4.305387
   H ( 14)  1.081493  4.933197  4.289389  4.757798  5.492575  2.470080
   H ( 15)  4.432055  3.239499  5.290754  1.787339  1.775011  3.245230
             H ( 13)   H ( 14)
   H ( 14)  2.480562
   H ( 15)  6.038222  5.248374
 
 A cutoff of  1.0D-14 yielded   8348 shell pairs
 There are     54392 function pairs (     69312 Cartesian)
 Smallest overlap matrix eigenvalue = 6.51E-07
 Linear dependence detected in AO basis
 Tighter screening thresholds may be required for diffuse basis sets
 Use S2THRESH > 14 and THRESH = 14 in case of SCF convergence issues
 Number of orthogonalized atomic orbitals = 330
 Maximum deviation from orthogonality = 1.621E-10

 Scale SEOQF with 1.000000e-01/1.000000e-01/1.000000e-01

 Standard Electronic Orientation quadrupole field applied
 Nucleus-field energy     =     0.0000000113 hartrees
 Guess from superposition of atomic densities
 Warning:  Energy on first SCF cycle will be non-variational
 SAD guess density has 49.913408 electrons

 -----------------------------------------------------------------------
  General SCF calculation program by
  Eric Jon Sundstrom, Paul Horn, Yuezhi Mao, Dmitri Zuev, Alec White,
  David Stuck, Shaama M.S., Shane Yost, Joonho Lee, David Small,
  Daniel Levine, Susi Lehtola, Hugh Burton, Evgeny Epifanovsky
 -----------------------------------------------------------------------
 Exchange:     0.1670 Hartree-Fock + 1.0000 wB97X-V + LR-HF
 Correlation:  1.0000 wB97X-V
 Using Euler-Maclaurin-Lebedev (99,590) quadrature formula
 Nonlocal Correlation:  VV10 with C = 0.0100 and b = 6.00 and scale = 1.00000
 Grid used for NLC:  SG-1 standard quadrature
Energy prior to optimization (guess energy) = -271.520782228649
Begin Timing: Total SCF Calculation
begin iterations for algorithm: DIIS         
the SCF tolerance is set to 1.00e-08
    1    -271.5207822286      1.88e-03     00000 
    2    -271.5603796513      1.21e-03     00000 
    3    -271.5819608565      1.56e-04     00000 
    4    -271.5826745037      4.76e-05     00000 
    5    -271.5827257772      2.54e-05     00000 
    6    -271.5827362314      6.07e-06     00000 
    7    -271.5827371016      2.32e-06     00000 
    8    -271.5827371979      4.17e-07     00000 
    9    -271.5827372070      1.37e-07     00000 
   10    -271.5827372085      6.85e-08     00000 
   11    -271.5827372089      3.40e-08     00000 
   12    -271.5827372090      8.54e-09     00000 Convergence criterion met
Timing for Total SCF: 1455.00s (wall), 2889.55s (cpu)
(3)  G-ENP(liq) elect-nuc-pol free energy of system     -271.582737209 a.u.
(4)  G-CDS(liq) cavity-dispersion-solvent structure 
     free energy                                                3.2745 kcal/mol
(6)  G-S(liq) free energy of system                     -271.577519017 a.u.
E_pcm = -0.0078444895
E_cds = 0.0052181916
Multipole orders to be included
        2
        3
computing dipole RHS
computing quadrupole RHS
total number of RHS in solve_reponses: 8
RHS batch sizes
        8
Beginning Block Conjugate Gradient Iterations. Batch Number: 0
computing hessian-vector products by finite difference
              1      6.28e-01     00000 Conjugate Gradient Iteration
computing hessian-vector products by finite difference
              2      1.94e-01     00000 Conjugate Gradient Iteration
computing hessian-vector products by finite difference
              3      4.66e-02     00000 Conjugate Gradient Iteration
computing hessian-vector products by finite difference
              4      1.16e-02     00000 Conjugate Gradient Iteration
computing hessian-vector products by finite difference
              5      2.14e-03     00000 Conjugate Gradient Iteration
computing hessian-vector products by finite difference
              6      5.89e-04     00000 Conjugate Gradient Iteration
computing hessian-vector products by finite difference
              7      1.54e-04     00000 Conjugate Gradient Iteration
computing hessian-vector products by finite difference
              8      2.52e-05     00000 Conjugate Gradient Iteration
computing hessian-vector products by finite difference
              9      3.39e-06     00000 Conjugate Gradient Iteration
computing hessian-vector products by finite difference
             10      6.08e-07     00000 Conjugate Gradient Iteration
computing hessian-vector products by finite difference
             11      9.53e-08     00000 Conjugate Gradient Iteration
computing hessian-vector products by finite difference
             12      1.64e-08     00000 Conjugate Gradient Iteration
computing hessian-vector products by finite difference
             13      3.16e-09     00000 CG Converged
batch 0 complete
Done Calculating Responses
TESTING ORTHOGONALIZATION OF MULTIPOLE BASIS
Multipole virts passed orthogonality test
Virts Per Order
           75
          125
 
 --------------------------------------------------------------
 
                    Orbital Energies (a.u.)
 --------------------------------------------------------------
 
 Alpha MOs
 -- Occupied --
-10.2848 -10.2727 -10.2712 -10.2699 -10.2692 -10.2675 -10.2573  -0.9869
 -0.8982  -0.8700  -0.8068  -0.7246  -0.6988  -0.6226  -0.5641  -0.5629
 -0.5259  -0.5220  -0.5065  -0.4813  -0.4678  -0.4367  -0.4334  -0.3442
 -0.3355
 -- Virtual --
  0.0627   0.0684   0.0698   0.0842   0.0901   0.1093   0.1157   0.1187
  0.1405   0.1597   0.1717   0.1733   0.1898   0.1932   0.2010   0.2067
  0.2256   0.2279   0.2391   0.2396   0.2561   0.2643   0.2662   0.2699
  0.2847   0.2854   0.2928   0.2949   0.2981   0.3058   0.3078   0.3120
  0.3206   0.3299   0.3378   0.3418   0.3517   0.3546   0.3669   0.3767
  0.3812   0.3831   0.3875   0.3903   0.3936   0.4058   0.4092   0.4112
  0.4149   0.4299   0.4320   0.4369   0.4416   0.4507   0.4525   0.4554
  0.4655   0.4687   0.4741   0.4840   0.4956   0.4987   0.5134   0.5192
  0.5207   0.5261   0.5341   0.5421   0.5467   0.5492   0.5553   0.5685
  0.5857   0.5895   0.5988   0.6013   0.6060   0.6226   0.6418   0.6473
  0.6573   0.6746   0.6805   0.6862   0.6902   0.6921   0.7186   0.7273
  0.7328   0.7385   0.7490   0.7579   0.7650   0.7703   0.7798   0.7876
  0.7946   0.7952   0.7972   0.8060   0.8094   0.8251   0.8298   0.8328
  0.8379   0.8416   0.8446   0.8562   0.8586   0.8782   0.8873   0.8976
  0.9059   0.9077   0.9323   0.9417   0.9541   1.0144   1.0210   1.0377
  1.0462   1.0609   1.0715   1.0822   1.0886   1.0956   1.1042   1.1340
  1.1589   1.1820   1.2437   1.2746   1.2952   1.3167   1.3456   1.3475
  1.3795   1.4330   1.4467   1.4565   1.4642   1.4798   1.5154   1.5297
  1.5985   1.6003   1.6135   1.6271   1.6584   1.6781   1.7392   1.7833
  1.7935   1.7971   1.8008   1.8197   1.8284   1.8649   1.8882   1.9086
  1.9180   1.9249   1.9547   1.9568   1.9776   1.9913   2.0219   2.0264
  2.0301   2.0544   2.0704   2.0975   2.1153   2.1231   2.1621   2.1774
  2.2013   2.2285   2.2361   2.2684   2.2866   2.3097   2.3795   2.3866
  2.3960   2.4013   2.4930   2.4988   2.5248   2.5510   2.5545   2.6029
  2.6126   2.6288   2.6737   2.6849   2.6915   2.7017   2.7496   2.7630
  2.7745   2.8049   2.8192   2.8327   2.8582   2.8995   2.9025   2.9157
  2.9334   2.9377   2.9448   2.9691   2.9849   3.0147   3.0238   3.0444
  3.0646   3.0774   3.0921   3.1004   3.1710   3.1972   3.2081   3.2145
  3.2280   3.2393   3.2876   3.2999   3.3151   3.3444   3.3591   3.3645
  3.4001   3.4339   3.4444   3.4528   3.4637   3.4707   3.4822   3.4921
  3.5049   3.5224   3.5336   3.5371   3.5534   3.5616   3.5867   3.5944
  3.6049   3.6285   3.6454   3.6794   3.6873   3.7448   3.7752   3.8054
  3.8139   3.8634   3.8944   3.9251   3.9316   3.9688   4.0189   4.0350
  4.1170   4.1900   4.2459   4.2679   4.2744   4.2904   4.3063   4.3210
  4.3271   4.3475   4.3593   4.3775   4.3931   4.4274   4.4479   4.5226
  4.5757   4.6104   4.7113   4.7265   4.7898   4.8552   4.9063   4.9385
  4.9955   5.0245   5.1441   5.2467   5.3245   5.3411   5.4640   5.5048
  5.6517   5.8324  22.5851  22.6306  22.8299  22.8883  22.9546  23.0316
 23.3446
 --------------------------------------------------------------
 
          Ground-State Mulliken Net Atomic Charges

     Atom                 Charge (a.u.)
  ----------------------------------------
      1 C                    -1.054548
      2 C                    -0.376721
      3 C                     0.770446
      4 C                    -0.592222
      5 C                    -0.437217
      6 C                    -0.568211
      7 C                    -0.502946
      8 H                     0.395391
      9 H                     0.376837
     10 H                     0.281952
     11 H                     0.288661
     12 H                     0.393815
     13 H                     0.396743
     14 H                     0.375593
     15 H                     0.252427
  ----------------------------------------
  Sum of atomic charges =     0.000000

 -----------------------------------------------------------------
                    Cartesian Multipole Moments
 -----------------------------------------------------------------
    Charge (ESU x 10^10)
                 0.0000
    Dipole Moment (Debye)
         X      -0.3063      Y      -0.1933      Z       0.3707
       Tot       0.5183
    Quadrupole Moments (Debye-Ang)
        XX     -36.7455     XY      -0.3505     YY     -43.0972
        XZ      -1.5945     YZ      -4.8756     ZZ     -39.8095
    Octopole Moments (Debye-Ang^2)
       XXX     169.6712    XXY      66.9127    XYY      66.1259
       YYY     225.3437    XXZ      10.0350    XYZ       8.0433
       YYZ      24.9468    XZZ      60.4166    YZZ      75.6918
       ZZZ      24.6804
    Hexadecapole Moments (Debye-Ang^3)
      XXXX    -904.6320   XXXY    -324.5612   XXYY    -317.4337
      XYYY    -356.6542   YYYY    -966.9765   XXXZ      41.0497
      XXYZ       2.5481   XYYZ      -5.1614   YYYZ       6.4104
      XXZZ    -226.0819   XYZZ    -121.1777   YYZZ    -235.1024
      XZZZ      38.9679   YZZZ      37.8591   ZZZZ    -411.4516
 -----------------------------------------------------------------
Archival summary:
1\1\nid00523\SP\ProcedureUnspecified\BasisUnspecified\78\meili\SunSep2622:57:352021SunSep2622:57:352021\0\\#,ProcedureUnspecified,BasisUnspecified,\\0,1\C\C,1,1.40466\H,2,1.07593,1,119.223\C,1,1.41175,2,118.148,3,-179.607,0\H,4,1.08054,1,120.382,2,179.599,0\C,4,1.40207,1,120.015,2,1.40991,0\H,6,1.08149,4,119.627,1,178.569,0\C,6,1.41751,4,120.89,1,-2.48641,0\H,8,1.07929,6,119.466,4,-178.615,0\C,8,1.37334,6,119.929,4,2.49031,0\H,10,1.08082,8,120.568,6,178.561,0\C,1,1.53734,2,120.197,3,2.57019,0\H,12,1.08788,1,107.083,2,143.719,0\H,12,1.09037,1,108.497,2,28.6079,0\H,12,1.1,1,116.129,2,-93.5445,0\\\@

 Total job time:  27837.57s(wall), 55153.07s(cpu) 
 Sun Sep 26 22:57:40 2021

        *************************************************************
        *                                                           *
        *  Thank you very much for using Q-Chem.  Have a nice day.  *
        *                                                           *
        *************************************************************


Done Job For Fragment 1
calling putenv with: QCSCRATCH=/global/cscratch1/sd/meili 
calling putenv with: QCLOCALSCR=/tmp 
calling putenv with: QCTHREADS=32 
Doing General SCFMI
 Exchange:     0.1670 Hartree-Fock + 1.0000 wB97X-V + LR-HF
 Correlation:  1.0000 wB97X-V
 Using Euler-Maclaurin-Lebedev (99,590) quadrature formula
 Nonlocal Correlation:  VV10 with C = 0.0100 and b = 6.00 and scale = 1.00000
 Grid used for NLC:  SG-1 standard quadrature
performing fock build before subrot guess so that all methods have access
Printing subrot_rss_gen Method Specification:
Occupied Subspace Method is 0
Virtual Subspace Method is 0
Energy of the unrelaxed supersystem initial determinant -582.472113161233
performing fock build before subrot guess so that all methods have access
Printing subrot_rss_gen Method Specification:
Occupied Subspace Method is 0
Virtual Subspace Method is 0
Energy of the unrelaxed supersystem initial determinant w/ solvent -582.485975485552
write pseudocanon occs and virts to disk
write pseudocanon orbital energies to disk
Tolerance of ortho_decomp_scf: 1.00e-06
GDM subspace size: 20
Beginning the Orthogonal Decomposition of the Initial Supersystem Wavefunction
    1    -582.4321532387      2.79e-02     ortho_decomp Preconditoned Steepest Descent
    2    -582.4360802838      7.34e-04     ortho_decomp BFGS Step
    3    -582.4360946836      6.33e-05     ortho_decomp BFGS Step
    4    -582.4360947172      2.69e-06     ortho_decomp BFGS Step
    5    -582.4360947172      7.27e-08     ortho_decomp 00000 Convergence criterion met
 Hartree-Fock
 Hartree-Fock
 Hartree-Fock
Doing General SCFMI
 Exchange:     0.1670 Hartree-Fock + 1.0000 wB97X-V + LR-HF
 Correlation:  1.0000 wB97X-V
 Using Euler-Maclaurin-Lebedev (99,590) quadrature formula
 Nonlocal Correlation:  VV10 with C = 0.0100 and b = 6.00 and scale = 1.00000
 Grid used for NLC:  SG-1 standard quadrature
performing fock build at end of subrot_r(subrot) constructor so that all methods have access
<S^2> of initial wavefunction before polarization iterations 0.0000000000
Beginning iterations for the determination of the polarized wavefunction
Energy prior to optimization (guess energy) = -582.485975485552
Begin Timing: Total SCF Calculation
begin iterations for algorithm: DIIS         
the SCF tolerance is set to 1.00e-08
    1    -582.4859754856      6.19e-05     00000 
    2    -582.4863392662      3.59e-05     00000 
    3    -582.4864190920      1.22e-05     00000 
    4    -582.4864339707      5.53e-06     00000 
    5    -582.4864367061      2.87e-06     00000 
    6    -582.4864375886      1.38e-06     00000 
    7    -582.4864377226      7.74e-07     00000 
    8    -582.4864377529      4.54e-07     00000 
    9    -582.4864377624      2.31e-07     00000 
   10    -582.4864377657      1.01e-07     00000 
   11    -582.4864377665      4.64e-08     00000 
   12    -582.4864377668      1.60e-08     00000 
   13    -582.4864377669      8.00e-09     00000 Convergence criterion met
write pseudocanon occs and virts to disk
write pseudocanon orbital energies to disk
Timing for Total SCF: 15150.00s (wall), 30198.95s (cpu)
<S^2> of polarized wavefunction after polarization iterations 0.0000000000
relaxing scfmi constraint to allow all rotations in the entire AO span
Doing General SCFMI
 Exchange:     0.1670 Hartree-Fock + 1.0000 wB97X-V + LR-HF
 Correlation:  1.0000 wB97X-V
 Using Euler-Maclaurin-Lebedev (99,590) quadrature formula
 Nonlocal Correlation:  VV10 with C = 0.0100 and b = 6.00 and scale = 1.00000
 Grid used for NLC:  SG-1 standard quadrature
performing fock build at end of subrot_r(subrot) constructor so that all methods have access
<S^2> of polarized wavefunction before ct-allowed iterations 0.0000000000
Beginning iterations for the determination of the CT-Allowed wavefunction
Energy prior to optimization (guess energy) = -582.486437766869
Begin Timing: Total SCF Calculation
begin iterations for algorithm: DIIS         
the SCF tolerance is set to 1.00e-08
    1    -582.4864377669      7.30e-05     00000 
    2    -582.4878077092      7.63e-06     00000 
    3    -582.4878650777      1.58e-06     00000 
    4    -582.4878682079      5.30e-07     00000 
    5    -582.4878683120      1.81e-07     00000 
    6    -582.4878683296      3.98e-08     00000 
    7    -582.4878683306      2.06e-08     00000 
    8    -582.4878683309      6.33e-09     00000 Convergence criterion met
write pseudocanon occs and virts to disk
write pseudocanon orbital energies to disk
Timing for Total SCF: 8901.00s (wall), 17742.27s (cpu)
<S^2> of ct_allowed wavefunction after ct-allowed iterations 0.0000000000

================================
        Results of EDA2         
================================
Basic EDA Quantities
--------------------
Fragment Energies (Ha):
1 -310.8959033904
2 -271.5775190173
--------------------
  E_prp (kJ/mol) = -0.0000
  E_sol (kJ/mol) = 0.4070
  E_frz (kJ/mol) = -8.9179
  E_pol (kJ/mol) = -1.2137
  E_vct (kJ/mol) = -3.7560
  E_int (kJ/mol) = -13.4806
--------------------


Initial Wavefunction Decomposition
--------------------
  --------------------
  Orthogonal Fragment Subspace Decomposition:
  --------------------
     E_elec   (ELEC)   (kJ/mol) = -41.1769
     E_pauli  (PAULI)  (kJ/mol) = 66.9139
     E_disp   (DISP)   (kJ/mol) = -34.6550
     --------------------
     Terms summing to E_pauli:
     --------------------
        E_kep_pauli       (kJ/mol) = 85.6496
        E_disp_free_pauli (kJ/mol) = -18.7357
  --------------------
  Classical Frozen Decomposition:
  --------------------
     E_cls_elec  (CLS ELEC)  (kJ/mol) = -15.1601
     E_cls_pauli (CLS PAULI) (kJ/mol) = 6.2421
    [E_mod_pauli (MOD PAULI) (kJ/mol) = 40.8971 (CLS PAULI - DISP from orthogonal decomposition) ]
  --------------------
--------------------

Simplified EDA Summary (kJ/mol)
--------------------
 PREPARATION     -0.0000
 SOLVATION       0.4070
 FROZEN          25.7371      (does not include dispersion)
[PAULI           66.9139]     (if this is negligible, then frozen describes electrostatics)
 DISPERSION      -34.6550
 POLARIZATION    -1.2137
 CHARGE TRANSFER -3.7560
 TOTAL           -13.4806     (PRP + SOL + FRZ + DISP + POL + CT)
--------------------
 
 --------------------------------------------------------------
 
                    Orbital Energies (a.u.)
 --------------------------------------------------------------
 
 Alpha MOs
 -- Occupied --
-10.2836 -10.2709 -10.2696 -10.2695 -10.2683 -10.2674 -10.2668 -10.2654
-10.2638 -10.2628 -10.2619 -10.2579 -10.2570 -10.2555 -10.2481  -0.9963
 -0.9851  -0.9180  -0.8969  -0.8740  -0.8682  -0.8493  -0.8059  -0.7500
 -0.7251  -0.7231  -0.6978  -0.6912  -0.6241  -0.6216  -0.5768  -0.5634
 -0.5628  -0.5618  -0.5387  -0.5290  -0.5249  -0.5209  -0.5174  -0.5058
 -0.5017  -0.4807  -0.4760  -0.4638  -0.4540  -0.4460  -0.4354  -0.4323
 -0.4270  -0.4201  -0.3516  -0.3439  -0.3365  -0.3219
 -- Virtual --
  0.0572   0.0616   0.0660   0.0714   0.0746   0.0796   0.0823   0.0837
  0.0953   0.0992   0.1031   0.1088   0.1162   0.1187   0.1240   0.1277
  0.1317   0.1411   0.1453   0.1521   0.1614   0.1706   0.1786   0.1811
  0.1875   0.1899   0.1964   0.1993   0.2009   0.2075   0.2122   0.2183
  0.2212   0.2310   0.2341   0.2369   0.2393   0.2401   0.2458   0.2498
  0.2551   0.2598   0.2608   0.2692   0.2722   0.2729   0.2785   0.2795
  0.2820   0.2845   0.2873   0.2883   0.2961   0.2970   0.3015   0.3049
  0.3083   0.3117   0.3127   0.3190   0.3216   0.3238   0.3273   0.3336
  0.3365   0.3393   0.3425   0.3467   0.3476   0.3528   0.3583   0.3602
  0.3608   0.3627   0.3638   0.3662   0.3708   0.3754   0.3789   0.3825
  0.3839   0.3850   0.3885   0.3908   0.3933   0.3953   0.3993   0.4009
  0.4050   0.4071   0.4091   0.4178   0.4186   0.4207   0.4281   0.4304
  0.4324   0.4360   0.4394   0.4423   0.4480   0.4505   0.4542   0.4560
  0.4580   0.4621   0.4625   0.4660   0.4667   0.4700   0.4748   0.4754
  0.4797   0.4861   0.4881   0.4908   0.4933   0.4951   0.5007   0.5021
  0.5082   0.5098   0.5110   0.5141   0.5183   0.5223   0.5257   0.5315
  0.5400   0.5412   0.5420   0.5449   0.5494   0.5501   0.5585   0.5623
  0.5653   0.5693   0.5708   0.5754   0.5794   0.5892   0.5908   0.5974
  0.6033   0.6050   0.6088   0.6154   0.6177   0.6188   0.6216   0.6276
  0.6304   0.6364   0.6386   0.6448   0.6510   0.6540   0.6548   0.6616
  0.6674   0.6689   0.6762   0.6778   0.6816   0.6845   0.6872   0.6899
  0.6996   0.6998   0.7058   0.7091   0.7114   0.7139   0.7163   0.7275
  0.7300   0.7320   0.7364   0.7399   0.7483   0.7498   0.7573   0.7603
  0.7640   0.7659   0.7672   0.7683   0.7727   0.7757   0.7787   0.7840
  0.7853   0.7861   0.7908   0.7973   0.7990   0.8002   0.8065   0.8083
  0.8107   0.8152   0.8206   0.8269   0.8317   0.8343   0.8364   0.8377
  0.8438   0.8463   0.8492   0.8525   0.8552   0.8587   0.8606   0.8622
  0.8660   0.8719   0.8773   0.8789   0.8834   0.8878   0.8917   0.8959
  0.9006   0.9032   0.9048   0.9094   0.9144   0.9171   0.9244   0.9301
  0.9372   0.9434   0.9457   0.9542   0.9589   0.9674   0.9738   0.9817
  0.9874   0.9956   0.9988   1.0067   1.0126   1.0262   1.0333   1.0397
  1.0461   1.0626   1.0694   1.0732   1.0781   1.0833   1.0876   1.0913
  1.1010   1.1070   1.1159   1.1207   1.1282   1.1305   1.1366   1.1449
  1.1617   1.1695   1.1738   1.1884   1.1926   1.2096   1.2181   1.2261
  1.2348   1.2451   1.2664   1.2740   1.2843   1.2994   1.3190   1.3272
  1.3395   1.3517   1.3540   1.3634   1.3705   1.3760   1.3901   1.4030
  1.4093   1.4256   1.4361   1.4459   1.4522   1.4577   1.4712   1.4776
  1.4865   1.4950   1.5035   1.5086   1.5152   1.5341   1.5406   1.5437
  1.5590   1.5615   1.5709   1.5892   1.5981   1.5997   1.6084   1.6215
  1.6368   1.6445   1.6531   1.6541   1.6649   1.6767   1.6782   1.6921
  1.7066   1.7229   1.7355   1.7668   1.7821   1.8061   1.8085   1.8139
  1.8248   1.8263   1.8401   1.8563   1.8596   1.8731   1.8795   1.9069
  1.9167   1.9236   1.9342   1.9427   1.9473   1.9513   1.9594   1.9688
  1.9713   1.9804   1.9910   1.9942   1.9990   2.0038   2.0143   2.0253
  2.0385   2.0427   2.0458   2.0601   2.0722   2.0742   2.0813   2.0852
  2.0917   2.1107   2.1183   2.1191   2.1314   2.1383   2.1434   2.1573
  2.1693   2.1757   2.1919   2.1990   2.2042   2.2153   2.2288   2.2452
  2.2459   2.2534   2.2579   2.2704   2.2842   2.2990   2.3079   2.3191
  2.3231   2.3400   2.3484   2.3625   2.3717   2.3796   2.3873   2.3933
  2.4020   2.4123   2.4320   2.4421   2.4549   2.4638   2.4846   2.4990
  2.5062   2.5180   2.5244   2.5466   2.5535   2.5701   2.5782   2.5884
  2.5911   2.6035   2.6235   2.6269   2.6417   2.6485   2.6532   2.6584
  2.6744   2.6774   2.6966   2.7022   2.7097   2.7183   2.7278   2.7333
  2.7487   2.7587   2.7657   2.7789   2.7944   2.8014   2.8107   2.8190
  2.8255   2.8338   2.8420   2.8464   2.8590   2.8623   2.8672   2.8739
  2.9022   2.9085   2.9178   2.9278   2.9397   2.9443   2.9493   2.9503
  2.9630   2.9739   2.9802   2.9888   2.9919   2.9965   3.0137   3.0166
  3.0193   3.0255   3.0321   3.0387   3.0476   3.0526   3.0699   3.0748
  3.0841   3.0898   3.0989   3.1040   3.1113   3.1196   3.1253   3.1364
  3.1411   3.1479   3.1684   3.1911   3.2149   3.2262   3.2341   3.2436
  3.2511   3.2837   3.2962   3.3067   3.3076   3.3153   3.3251   3.3331
  3.3442   3.3491   3.3579   3.3634   3.3786   3.3893   3.4001   3.4033
  3.4187   3.4271   3.4401   3.4509   3.4521   3.4589   3.4638   3.4676
  3.4703   3.4779   3.4839   3.4960   3.4989   3.5011   3.5099   3.5147
  3.5268   3.5283   3.5328   3.5457   3.5522   3.5581   3.5655   3.5681
  3.5706   3.5776   3.5826   3.5860   3.5884   3.5995   3.6018   3.6115
  3.6237   3.6302   3.6306   3.6423   3.6456   3.6520   3.6620   3.6632
  3.6712   3.6799   3.6938   3.7015   3.7111   3.7198   3.7234   3.7387
  3.7397   3.7487   3.7544   3.7678   3.7794   3.8043   3.8129   3.8346
  3.8464   3.8510   3.8814   3.8867   3.9088   3.9144   3.9417   3.9604
  3.9669   3.9827   4.0010   4.0022   4.0296   4.0380   4.0680   4.0907
  4.0952   4.1210   4.1374   4.1625   4.1984   4.2130   4.2258   4.2529
  4.2639   4.2701   4.2879   4.3000   4.3034   4.3088   4.3215   4.3307
  4.3402   4.3511   4.3566   4.3681   4.3805   4.3848   4.3864   4.3929
  4.4053   4.4205   4.4291   4.4366   4.4582   4.4620   4.4806   4.4827
  4.4985   4.5190   4.5614   4.5672   4.5886   4.6111   4.6298   4.6459
  4.6782   4.7189   4.7236   4.7553   4.7897   4.8032   4.8082   4.8654
  4.8734   4.9008   4.9305   4.9601   4.9755   4.9929   5.0066   5.0347
  5.0555   5.0669   5.0743   5.1549   5.1684   5.2110   5.2658   5.3377
  5.3452   5.3487   5.4088   5.4282   5.4763   5.5075   5.5403   5.5657
  5.6726   5.7389   5.8187   5.8291  22.6562  22.7124  22.7239  22.7784
 22.8947  22.9359  22.9642  22.9946  23.0230  23.0690  23.0867  23.1420
 23.1866  23.3739  23.5349
 --------------------------------------------------------------
 
          Ground-State Mulliken Net Atomic Charges

     Atom                 Charge (a.u.)
  ----------------------------------------
      1 C                    -0.240351
      2 C                    -1.186619
      3 C                     0.553992
      4 C                    -0.289887
      5 C                    -0.260815
      6 C                    -0.575712
      7 C                    -0.669541
      8 C                    -0.463581
      9 H                    -0.194218
     10 H                     0.367686
     11 H                     0.317478
     12 H                     0.399451
     13 H                     0.473800
     14 H                     0.368319
     15 H                     0.389569
     16 H                     0.423717
     17 H                     0.294479
     18 H                     0.275755
     19 C                    -1.222158
     20 C                    -0.407053
     21 C                     0.795998
     22 C                    -0.497606
     23 C                    -0.511520
     24 C                    -0.620868
     25 C                    -0.392074
     26 H                     0.407327
     27 H                     0.390989
     28 H                     0.292887
     29 H                     0.306792
     30 H                     0.426705
     31 H                     0.410581
     32 H                     0.383838
     33 H                     0.252640
  ----------------------------------------
  Sum of atomic charges =     0.000000

 -----------------------------------------------------------------
                    Cartesian Multipole Moments
 -----------------------------------------------------------------
    Charge (ESU x 10^10)
                 0.0000
    Dipole Moment (Debye)
         X      -0.7840      Y      -0.0881      Z       0.5323
       Tot       0.9517
    Quadrupole Moments (Debye-Ang)
        XX     -84.0913     XY      -3.9758     YY     -93.4353
        XZ      -3.2624     YZ      -9.0656     ZZ     -87.5381
    Octopole Moments (Debye-Ang^2)
       XXX       1.9734    XXY     -13.7443    XYY      -3.7877
       YYY      -0.2990    XXZ      -7.5181    XYZ      -1.1390
       YYZ       3.7611    XZZ       3.4926    YZZ       3.5605
       ZZZ      -8.8495
    Hexadecapole Moments (Debye-Ang^3)
      XXXX   -2044.2184   XXXY    -509.5326   XXYY    -701.9733
      XYYY    -536.3367   YYYY   -1943.6151   XXXZ     113.1988
      XXYZ     -43.6717   XYYZ      15.2576   YYYZ     -83.3697
      XXZZ    -487.9370   XYZZ    -165.5004   YYZZ    -462.3370
      XZZZ     137.9561   YZZZ     -43.9927   ZZZZ    -839.9032
 -----------------------------------------------------------------
Archival summary:
1\1\nid00523\SP\ProcedureUnspecified\BasisUnspecified\1518\meili\MonSep2711:09:142021MonSep2711:09:142021\0\\#,ProcedureUnspecified,BasisUnspecified,\\0,1\C\C,1,1.37244\H,2,1.0814,1,119.55\C,2,1.38077,1,121.627,3,-177.559,0\H,4,1.08087,2,120.27,1,178.03,0\C,4,1.37565,2,119.766,1,-3.79473,0\H,6,1.08137,4,119.941,2,-179.211,0\C,6,1.3904,4,120.052,2,0.958083,0\H,8,1.07962,6,120.22,4,179.581,0\C,1,1.39551,2,118.811,3,-177.45,0\H,10,1.08058,1,120.406,2,179.201,0\C,1,1.50625,2,119.285,3,-0.627765,0\H,12,1.09082,1,108.794,2,136.1,0\H,12,1.09126,1,109.332,2,19.1913,0\C,12,1.51814,1,113.018,2,-102.393,0\H,15,1.08361,12,106.317,1,53.1793,0\H,15,1.1,12,110.967,1,-65.5338,0\H,15,1.1,12,112.184,1,172.172,0\C,13,2.94415,12,134.988,1,-82.175,0\H,19,1.07593,13,107.032,12,-94.1568,0\C,19,1.40466,13,81.5198,12,147.772,0\C,21,1.41175,19,118.148,13,-74.7784,0\H,22,1.08054,21,120.382,19,179.599,0\C,22,1.40207,21,120.015,19,1.40991,0\H,24,1.08149,22,119.627,21,178.569,0\C,24,1.41751,22,120.89,21,-2.48641,0\H,26,1.07929,24,119.466,22,-178.615,0\C,26,1.37334,24,119.929,22,2.49031,0\H,28,1.08082,26,120.568,24,178.561,0\C,21,1.53734,19,120.197,13,107.399,0\H,30,1.08788,21,107.083,19,143.719,0\H,30,1.09037,21,108.497,19,28.6079,0\H,30,1.1,21,116.129,19,-93.5445,0\\\@

 Total job time:  119728.38s(wall), 87533.46s(cpu) 
 Mon Sep 27 11:09:17 2021

        *************************************************************
        *                                                           *
        *  Thank you very much for using Q-Chem.  Have a nice day.  *
        *                                                           *
        *************************************************************


