
Running Job 1 of 1 SSI-049PHE-057GLN-2_PCM_TZVPD.in
qchem SSI-049PHE-057GLN-2_PCM_TZVPD.in_19201.0 /tmp/qchem19201/ 0
/global/common/cori/software/qchem/5.2/exe/qcprog.exe_s SSI-049PHE-057GLN-2_PCM_TZVPD.in_19201.0 /tmp/qchem19201/
                  Welcome to Q-Chem
     A Quantum Leap Into The Future Of Chemistry


 Q-Chem 5.2, Q-Chem, Inc., Pleasanton, CA (2019)

 License issued to: National Energy Research Scientific Computing Center

 Yihan Shao,  Zhengting Gan,  E. Epifanovsky,  A. T. B. Gilbert,  M. Wormit,  
 J. Kussmann,  A. W. Lange,  A. Behn,  Jia Deng,  Xintian Feng,  D. Ghosh,  
 M. Goldey,  P. R. Horn,  L. D. Jacobson,  I. Kaliman,  T. Kus,  A. Landau,  
 Jie Liu,  E. I. Proynov,  R. M. Richard,  R. P. Steele,  E. J. Sundstrom,  
 H. L. Woodcock III,  P. M. Zimmerman,  D. Zuev,  B. Albrecht,  E. Alguire,  
 S. A. Baeppler,  D. Barton,  Z. Benda,  Y. A. Bernard,  E. J. Berquist,  
 K. B. Bravaya,  H. Burton,  D. Casanova,  Chun-Min Chang,  Yunqing Chen,  
 A. Chien,  K. D. Closser,  M. P. Coons,  S. Coriani,  S. Dasgupta,  
 A. L. Dempwolff,  M. Diedenhofen,  Hainam Do,  R. G. Edgar,  Po-Tung Fang,  
 S. Faraji,  S. Fatehi,  Qingguo Feng,  K. D. Fenk,  J. Fosso-Tande,  
 J. Gayvert,  Qinghui Ge,  A. Ghysels,  G. Gidofalvi,  J. Gomes,  
 J. Gonthier,  A. Gunina,  D. Hait,  M. W. D. Hanson-Heine,  
 P. H. P. Harbach,  A. W. Hauser,  M. F. Herbst,  J. E. Herr,  
 E. G. Hohenstein,  Z. C. Holden,  Kerwin Hui,  B. C. Huynh,  T.-C. Jagau,  
 Hyunjun Ji,  B. Kaduk,  K. Khistyaev,  Jaehoon Kim,  P. Klunzinger,  K. Koh,  
 D. Kosenkov,  L. Koulias,  T. Kowalczyk,  C. M. Krauter,  A. Kunitsa,  
 Ka Un Lao,  A. Laurent,  K. V. Lawler,  Joonho Lee,  D. Lefrancois,  
 S. Lehtola,  D. S. Levine,  Yi-Pei Li,  You-Sheng Lin,  Fenglai Liu,  
 E. Livshits,  A. Luenser,  P. Manohar,  E. Mansoor,  S. F. Manzer,  
 Shan-Ping Mao,  Yuezhi Mao,  N. Mardirossian,  A. V. Marenich,  
 T. Markovich,  L. A. Martinez-Martinez,  S. A. Maurer,  N. J. Mayhall,  
 S. C. McKenzie,  J.-M. Mewes,  P. Morgante,  A. F. Morrison,  
 J. W. Mullinax,  K. Nanda,  T. S. Nguyen-Beck,  R. Olivares-Amaya,  
 J. A. Parkhill,  Zheng Pei,  T. M. Perrine,  F. Plasser,  P. Pokhilko,  
 S. Prager,  A. Prociuk,  E. Ramos,  D. R. Rehn,  F. Rob,  M. Scheurer,  
 M. Schneider,  N. Sergueev,  S. M. Sharada,  S. Sharma,  D. W. Small,  
 T. Stauch,  T. Stein,  Yu-Chuan Su,  A. J. W. Thom,  A. Tkatchenko,  
 T. Tsuchimochi,  N. M. Tubman,  L. Vogt,  M. L. Vidal,  O. Vydrov,  
 M. A. Watson,  J. Wenzel,  M. de Wergifosse,  T. A. Wesolowski,  A. White,  
 J. Witte,  A. Yamada,  Jun Yang,  K. Yao,  S. Yeganeh,  S. R. Yost,  
 Zhi-Qiang You,  A. Zech,  Igor Ying Zhang,  Xing Zhang,  Yan Zhao,  
 Ying Zhu,  B. R. Brooks,  G. K. L. Chan,  C. J. Cramer,  M. S. Gordon,  
 W. J. Hehre,  A. Klamt,  M. W. Schmidt,  C. D. Sherrill,  D. G. Truhlar,  
 A. Aspuru-Guzik,  R. Baer,  A. T. Bell,  N. A. Besley,  Jeng-Da Chai,  
 A. E. DePrince, III,  R. A. DiStasio Jr.,  A. Dreuw,  B. D. Dunietz,  
 T. R. Furlani,  Chao-Ping Hsu,  Yousung Jung,  Jing Kong,  D. S. Lambrecht,  
 WanZhen Liang,  C. Ochsenfeld,  V. A. Rassolov,  L. V. Slipchenko,  
 J. E. Subotnik,  T. Van Voorhis,  J. M. Herbert,  A. I. Krylov,  
 P. M. W. Gill,  M. Head-Gordon

 Contributors to earlier versions of Q-Chem not listed above: 
 R. D. Adamson,  B. Austin,  J. Baker,  G. J. O. Beran,  K. Brandhorst,  
 S. T. Brown,  E. F. C. Byrd,  A. K. Chakraborty,  C.-L. Cheng,  
 Siu Hung Chien,  D. M. Chipman,  D. L. Crittenden,  H. Dachsel,  
 R. J. Doerksen,  A. D. Dutoi,  L. Fusti-Molnar,  W. A. Goddard III,  
 A. Golubeva-Zadorozhnaya,  S. R. Gwaltney,  G. Hawkins,  A. Heyden,  
 S. Hirata,  G. Kedziora,  F. J. Keil,  C. Kelley,  Jihan Kim,  R. A. King,  
 R. Z. Khaliullin,  P. P. Korambath,  W. Kurlancheek,  A. M. Lee,  M. S. Lee,  
 S. V. Levchenko,  Ching Yeh Lin,  D. Liotard,  R. C. Lochan,  I. Lotan,  
 P. E. Maslen,  N. Nair,  D. P. O'Neill,  D. Neuhauser,  E. Neuscamman,  
 C. M. Oana,  R. Olson,  B. Peters,  R. Peverati,  P. A. Pieniazek,  
 Y. M. Rhee,  J. Ritchie,  M. A. Rohrdanz,  E. Rosta,  N. J. Russ,  
 H. F. Schaefer III,  N. E. Schultz,  N. Shenvi,  A. C. Simmonett,  A. Sodt,  
 D. Stuck,  K. S. Thanthiriwatte,  V. Vanovschi,  Tao Wang,  A. Warshel,  
 C. F. Williams,  Q. Wu,  X. Xu,  W. Zhang

 Please cite Q-Chem as follows:
 Y. Shao et al., Mol. Phys. 113, 184-215 (2015)
 DOI: 10.1080/00268976.2014.952696

 Q-Chem 5.2.0 for Intel X86 EM64T Linux

 Parts of Q-Chem use Armadillo 8.300.2 (Tropical Shenanigans).
 http://arma.sourceforge.net/

 Q-Chem begins on Sun Sep 26 08:20:46 2021  

Host: cori01
0

     Scratch files written to /tmp/qchem19201//
 May1019 |scratch|qcdevops|jenkins|workspace|build_RNUM -1
Processing $rem in /global/common/cori/software/qchem/5.2/config/preferences:
	 MEM_TOTAL  96000 
NAlpha2: 90
NElect   90
Mult     1
Symmetry turned off for PCM/SM12/SMD calculation

 Q-Chem warning in module libgen/rem_setup.C, line 2803:

 Neither GIA nor STOLL is specified by user. Use STOLL as the default


Checking the input file for inconsistencies... 	...done.

--------------------------------------------------------------
User input:
--------------------------------------------------------------
$comment
SSI-049PHE-057GLN-2.pdb
$end

$molecule
0 1
--
0 1
C    0.738265285698    1.415318652448    3.225127375895
C   -2.019734714302   -0.608681347552    0.613127375895
C   -1.556734714302   -1.252681347552    1.748127375895
C   -1.594734714302    0.684318652448    0.317127375895
C   -0.657734714302   -0.595681347552    2.607127375895
C   -0.701734714302    1.340318652448    1.172127375895
C   -0.227734714302    0.705318652448    2.321127375895
H   -2.712734714302   -1.113681347552   -0.043872624105
H   -1.895734714302   -2.252681347552    1.980127375895
H   -1.946734714302    1.179318652448   -0.575872624105
H   -0.303734714302   -1.098681347552    3.496127375895
H   -0.376734714302    2.343318652448    0.931127375895
H    0.437265285698    1.238318652448    4.258127375895
H    0.683265285698    2.488318652448    3.042127375895
H    1.783445285698    1.096878652448    3.097897375895
--
0 1
C    0.998265285698   -1.210681347552   -1.554872624105
C   -0.242734714302   -1.832681347552   -2.171872624105
C    1.344265285698    0.100318652448   -2.214872624105
O    0.484265285698    0.964318652448   -2.387872624105
N    2.601265285698    0.277318652448   -2.586872624105
H    0.831265285698   -1.038681347552   -0.492872624105
H    1.837265285698   -1.896681347552   -1.660872624105
H   -0.086734714302   -1.929681347552   -3.245872624105
H   -1.084734714302   -1.156681347552   -2.017872624105
H    2.864265285698    1.150318652448   -3.010872624105
H    3.312265285698   -0.413681347552   -2.360872624105
H   -0.491524714302   -2.812771347552   -1.738822624105
$end

$rem
JOBTYPE			EDA
EDA2			1
method			wB97X-V
BASIS			def2-TZVPD
XC_GRID			000099000590
NL_GRID			1
UNRESTRICTED		FALSE
MAX_SCF_CYCLES		200
SYMMETRY		FALSE
SYM_IGNORE		TRUE
MEM_STATIC		2000
BASIS_LIN_DEP_THRESH 	6
THRESH 			14
SCF_CONVERGENCE 	8
SCF_PRINT_FRGM 		TRUE
SOLVENT_METHOD          PCM
$end

$PCM
THEORY                  CPCM
METHOD                  SWIG
SOLVER                  INVERSION
RADII                   UFF
HPOINTS                 302
HEAVYPOINTS             302
PRINTLEVEL              0
$END

$SOLVENT
DIELECTRIC              78.390000 ! water
$END
--------------------------------------------------------------
 ----------------------------------------------------------------
             Standard Nuclear Orientation (Angstroms)
    I     Atom           X                Y                Z
 ----------------------------------------------------------------
    1      C       0.7382652857     1.4153186524     3.2251273759
    2      C      -2.0197347143    -0.6086813476     0.6131273759
    3      C      -1.5567347143    -1.2526813476     1.7481273759
    4      C      -1.5947347143     0.6843186524     0.3171273759
    5      C      -0.6577347143    -0.5956813476     2.6071273759
    6      C      -0.7017347143     1.3403186524     1.1721273759
    7      C      -0.2277347143     0.7053186524     2.3211273759
    8      H      -2.7127347143    -1.1136813476    -0.0438726241
    9      H      -1.8957347143    -2.2526813476     1.9801273759
   10      H      -1.9467347143     1.1793186524    -0.5758726241
   11      H      -0.3037347143    -1.0986813476     3.4961273759
   12      H      -0.3767347143     2.3433186524     0.9311273759
   13      H       0.4372652857     1.2383186524     4.2581273759
   14      H       0.6832652857     2.4883186524     3.0421273759
   15      H       1.7834452857     1.0968786524     3.0978973759
   16      C       0.9982652857    -1.2106813476    -1.5548726241
   17      C      -0.2427347143    -1.8326813476    -2.1718726241
   18      C       1.3442652857     0.1003186524    -2.2148726241
   19      O       0.4842652857     0.9643186524    -2.3878726241
   20      N       2.6012652857     0.2773186524    -2.5868726241
   21      H       0.8312652857    -1.0386813476    -0.4928726241
   22      H       1.8372652857    -1.8966813476    -1.6608726241
   23      H      -0.0867347143    -1.9296813476    -3.2458726241
   24      H      -1.0847347143    -1.1566813476    -2.0178726241
   25      H       2.8642652857     1.1503186524    -3.0108726241
   26      H       3.3122652857    -0.4136813476    -2.3608726241
   27      H      -0.4915247143    -2.8127713476    -1.7388226241
 ----------------------------------------------------------------
 Nuclear Repulsion Energy =         671.29835081 hartrees
 There are       45 alpha and       45 beta electrons
 Requested basis set is def2-TZVPD
 There are 232 shells and 582 basis functions

 Total QAlloc Memory Limit  96000 MB
 Mega-Array Size      1956 MB
 MEM_STATIC part      2000 MB
 Discretize the solute cavity surface with Lebedev spheres
	Using 302 Lebedev grid points for each H atom
	Using 302 Lebedev grid points for other atoms
	Atomic van der Waals radii will be scaled by 1.20
 Remove points where switching function is < 1.0e-08
 Keep 2944 surface tesserae and discard 5210 interior tesserae
 Molecular Surface Area = 285.873 Angst**2
 A cutoff of  1.0D-14 yielded  24026 shell pairs
 There are    152796 function pairs (    192235 Cartesian)
 Smallest overlap matrix eigenvalue = 4.94E-07
 Linear dependence detected in AO basis
 Tighter screening thresholds may be required for diffuse basis sets
 Use S2THRESH > 14 and THRESH = 14 in case of SCF convergence issues
 Number of orthogonalized atomic orbitals = 580
 Maximum deviation from orthogonality = 2.197E-10

 Scale SEOQF with 1.000000e-01/1.000000e-01/1.000000e-01

 Standard Electronic Orientation quadrupole field applied
 Nucleus-field energy     =    -0.0000000300 hartrees

 -----------------------------------------------------------------------
  General SCF calculation program by
  Eric Jon Sundstrom, Paul Horn, Yuezhi Mao, Dmitri Zuev, Alec White,
  David Stuck, Shaama M.S., Shane Yost, Joonho Lee, David Small,
  Daniel Levine, Susi Lehtola, Hugh Burton, Evgeny Epifanovsky
 -----------------------------------------------------------------------
================================================================
                 ALMO-EDA with the EDA2 driver                  
================================================================
 The second-generation ALMO-EDA (for DFT):                      
 P. R. Horn, Y. Mao and M. Head-Gordon, PCCP, 18, 23067 (2016)  
 Decomposition of the frozen energy:                            
 P. R. Horn, Y. Mao and M. Head-Gordon, JCP, 144, 114107 (2016) 
 FERF model for polarization:                                   
 P. R. Horn and M. Head-Gordon, JCP, 143, 114111 (2015)         
Using eda2 option set 1
Option set summary: Frozen orbital wavefunction, initial wavefunction decomposition, and nDQ polarization.
--------------------------------
Printing EDA Options
--------------------------------
eda_child_super_basis      0
fragmo_guess_mode          0
child_mp                   1
child_mp_orders            232
cls_elec                   1
cls_disp                   0
scfmi_mode                 1
scfmi_occs                 0
scfmi_virts                0
frz_relax                  0
frz_relax_method           0
dc_pen_start               0
dc_pen_conv                0
dc_pen_increment           0
dc_pen_steps               0
dc_pen_thresh_factor       0
dc_pen_pre_newton_thresh   0
frz_ortho_decomp           1
frz_ortho_decomp_conv      6
frgm_method                2
scfmi_freeze_ss            0
separate_rehyb             0
plot_diff_den              0
eda_nocv                   0
eda_vct_relax              1
disp_free_x                0
disp_free_c                0
eda_bsse                   0
eda_pct_a                  0
eda_covp                   0
--------------------------------
Attempting to make child job directory: /tmp/qchem19201//Frg1/
Attempting to make child job directory: /tmp/qchem19201//Frg2/
Creating input file /tmp/qchem19201/Frg1.input
using default PutDataFrgm: nothing
calling putenv with: QCSCRATCH=/tmp/qchem19201/ 
calling putenv with: QCLOCALSCR=/tmp/qchem19201/ 
Spawning Job For Fragment 0
                  Welcome to Q-Chem
     A Quantum Leap Into The Future Of Chemistry


 Q-Chem 5.2, Q-Chem, Inc., Pleasanton, CA (2019)

 License issued to: National Energy Research Scientific Computing Center

 Yihan Shao,  Zhengting Gan,  E. Epifanovsky,  A. T. B. Gilbert,  M. Wormit,  
 J. Kussmann,  A. W. Lange,  A. Behn,  Jia Deng,  Xintian Feng,  D. Ghosh,  
 M. Goldey,  P. R. Horn,  L. D. Jacobson,  I. Kaliman,  T. Kus,  A. Landau,  
 Jie Liu,  E. I. Proynov,  R. M. Richard,  R. P. Steele,  E. J. Sundstrom,  
 H. L. Woodcock III,  P. M. Zimmerman,  D. Zuev,  B. Albrecht,  E. Alguire,  
 S. A. Baeppler,  D. Barton,  Z. Benda,  Y. A. Bernard,  E. J. Berquist,  
 K. B. Bravaya,  H. Burton,  D. Casanova,  Chun-Min Chang,  Yunqing Chen,  
 A. Chien,  K. D. Closser,  M. P. Coons,  S. Coriani,  S. Dasgupta,  
 A. L. Dempwolff,  M. Diedenhofen,  Hainam Do,  R. G. Edgar,  Po-Tung Fang,  
 S. Faraji,  S. Fatehi,  Qingguo Feng,  K. D. Fenk,  J. Fosso-Tande,  
 J. Gayvert,  Qinghui Ge,  A. Ghysels,  G. Gidofalvi,  J. Gomes,  
 J. Gonthier,  A. Gunina,  D. Hait,  M. W. D. Hanson-Heine,  
 P. H. P. Harbach,  A. W. Hauser,  M. F. Herbst,  J. E. Herr,  
 E. G. Hohenstein,  Z. C. Holden,  Kerwin Hui,  B. C. Huynh,  T.-C. Jagau,  
 Hyunjun Ji,  B. Kaduk,  K. Khistyaev,  Jaehoon Kim,  P. Klunzinger,  K. Koh,  
 D. Kosenkov,  L. Koulias,  T. Kowalczyk,  C. M. Krauter,  A. Kunitsa,  
 Ka Un Lao,  A. Laurent,  K. V. Lawler,  Joonho Lee,  D. Lefrancois,  
 S. Lehtola,  D. S. Levine,  Yi-Pei Li,  You-Sheng Lin,  Fenglai Liu,  
 E. Livshits,  A. Luenser,  P. Manohar,  E. Mansoor,  S. F. Manzer,  
 Shan-Ping Mao,  Yuezhi Mao,  N. Mardirossian,  A. V. Marenich,  
 T. Markovich,  L. A. Martinez-Martinez,  S. A. Maurer,  N. J. Mayhall,  
 S. C. McKenzie,  J.-M. Mewes,  P. Morgante,  A. F. Morrison,  
 J. W. Mullinax,  K. Nanda,  T. S. Nguyen-Beck,  R. Olivares-Amaya,  
 J. A. Parkhill,  Zheng Pei,  T. M. Perrine,  F. Plasser,  P. Pokhilko,  
 S. Prager,  A. Prociuk,  E. Ramos,  D. R. Rehn,  F. Rob,  M. Scheurer,  
 M. Schneider,  N. Sergueev,  S. M. Sharada,  S. Sharma,  D. W. Small,  
 T. Stauch,  T. Stein,  Yu-Chuan Su,  A. J. W. Thom,  A. Tkatchenko,  
 T. Tsuchimochi,  N. M. Tubman,  L. Vogt,  M. L. Vidal,  O. Vydrov,  
 M. A. Watson,  J. Wenzel,  M. de Wergifosse,  T. A. Wesolowski,  A. White,  
 J. Witte,  A. Yamada,  Jun Yang,  K. Yao,  S. Yeganeh,  S. R. Yost,  
 Zhi-Qiang You,  A. Zech,  Igor Ying Zhang,  Xing Zhang,  Yan Zhao,  
 Ying Zhu,  B. R. Brooks,  G. K. L. Chan,  C. J. Cramer,  M. S. Gordon,  
 W. J. Hehre,  A. Klamt,  M. W. Schmidt,  C. D. Sherrill,  D. G. Truhlar,  
 A. Aspuru-Guzik,  R. Baer,  A. T. Bell,  N. A. Besley,  Jeng-Da Chai,  
 A. E. DePrince, III,  R. A. DiStasio Jr.,  A. Dreuw,  B. D. Dunietz,  
 T. R. Furlani,  Chao-Ping Hsu,  Yousung Jung,  Jing Kong,  D. S. Lambrecht,  
 WanZhen Liang,  C. Ochsenfeld,  V. A. Rassolov,  L. V. Slipchenko,  
 J. E. Subotnik,  T. Van Voorhis,  J. M. Herbert,  A. I. Krylov,  
 P. M. W. Gill,  M. Head-Gordon

 Contributors to earlier versions of Q-Chem not listed above: 
 R. D. Adamson,  B. Austin,  J. Baker,  G. J. O. Beran,  K. Brandhorst,  
 S. T. Brown,  E. F. C. Byrd,  A. K. Chakraborty,  C.-L. Cheng,  
 Siu Hung Chien,  D. M. Chipman,  D. L. Crittenden,  H. Dachsel,  
 R. J. Doerksen,  A. D. Dutoi,  L. Fusti-Molnar,  W. A. Goddard III,  
 A. Golubeva-Zadorozhnaya,  S. R. Gwaltney,  G. Hawkins,  A. Heyden,  
 S. Hirata,  G. Kedziora,  F. J. Keil,  C. Kelley,  Jihan Kim,  R. A. King,  
 R. Z. Khaliullin,  P. P. Korambath,  W. Kurlancheek,  A. M. Lee,  M. S. Lee,  
 S. V. Levchenko,  Ching Yeh Lin,  D. Liotard,  R. C. Lochan,  I. Lotan,  
 P. E. Maslen,  N. Nair,  D. P. O'Neill,  D. Neuhauser,  E. Neuscamman,  
 C. M. Oana,  R. Olson,  B. Peters,  R. Peverati,  P. A. Pieniazek,  
 Y. M. Rhee,  J. Ritchie,  M. A. Rohrdanz,  E. Rosta,  N. J. Russ,  
 H. F. Schaefer III,  N. E. Schultz,  N. Shenvi,  A. C. Simmonett,  A. Sodt,  
 D. Stuck,  K. S. Thanthiriwatte,  V. Vanovschi,  Tao Wang,  A. Warshel,  
 C. F. Williams,  Q. Wu,  X. Xu,  W. Zhang

 Please cite Q-Chem as follows:
 Y. Shao et al., Mol. Phys. 113, 184-215 (2015)
 DOI: 10.1080/00268976.2014.952696

 Q-Chem 5.2.0 for Intel X86 EM64T Linux

 Parts of Q-Chem use Armadillo 8.300.2 (Tropical Shenanigans).
 http://arma.sourceforge.net/

 Q-Chem begins on Sun Sep 26 08:20:53 2021  

Host: cori01
0

     Scratch files written to /tmp/qchem19201//Frg1//
 May1019 |scratch|qcdevops|jenkins|workspace|build_RNUM -1
Processing $rem in /global/common/cori/software/qchem/5.2/config/preferences:
	 MEM_TOTAL  96000 
NAlpha2: 50
NElect   50
Mult     1
Symmetry turned off for PCM/SM12/SMD calculation

Checking the input file for inconsistencies... 	...done.

--------------------------------------------------------------
User input:
--------------------------------------------------------------
$molecule
0 1
 6	0.7382652857	1.4153186524	3.2251273759
 6	-2.0197347143	-0.6086813476	0.6131273759
 6	-1.5567347143	-1.2526813476	1.7481273759
 6	-1.5947347143	0.6843186524	0.3171273759
 6	-0.6577347143	-0.5956813476	2.6071273759
 6	-0.7017347143	1.3403186524	1.1721273759
 6	-0.2277347143	0.7053186524	2.3211273759
 1	-2.7127347143	-1.1136813476	-0.0438726241
 1	-1.8957347143	-2.2526813476	1.9801273759
 1	-1.9467347143	1.1793186524	-0.5758726241
 1	-0.3037347143	-1.0986813476	3.4961273759
 1	-0.3767347143	2.3433186524	0.9311273759
 1	0.4372652857	1.2383186524	4.2581273759
 1	0.6832652857	2.4883186524	3.0421273759
 1	1.7834452857	1.0968786524	3.0978973759
$end
$rem
EDA2		1
METHOD		WB97X-V
BASIS		DEF2-TZVPD
XC_GRID		000099000590
NL_GRID		1
UNRESTRICTED		FALSE
MAX_SCF_CYCLES		200
SYMMETRY		FALSE
SYM_IGNORE		TRUE
BASIS_LIN_DEP_THRESH		6
THRESH		14
SCF_CONVERGENCE		8
SCF_PRINT_FRGM		TRUE
SOLVENT_METHOD		PCM
!required keywords
JOBTYPE		SP
SYM_IGNORE		TRUE
SUBSYSTEM		TRUE
GEN_SCFMAN		TRUE
CHILD_INSTRUCTION		2
SYM_IGNORE		TRUE
SCFMI		0
RI_K 0		
PARI_K 0		
MIN_PARI_K 0		
IARI_K 0		
OCC_RI_K 0		
PURECART		1111
MEM_STATIC		2000
MEM_TOTAL		96000
GUI		0
CHILD_MP		1
CHILD_MP_ORDERS		232
FRZ_RELAX		0
FRZ_RELAX_METHOD		0
EDA_CLS_ELEC		1
EDA_CLS_DISP		0
FRZ_ORTHO_DECOMP		1
EDA2		FALSE
FRGM_METHOD		FALSE
CIS_N_ROOTS  0
LOCAL_CIS    0
CIS_RLX_DNS  1
$end
$pcm
THEORY                  CPCM
METHOD                  SWIG
SOLVER                  INVERSION
RADII                   UFF
HPOINTS                 302
HEAVYPOINTS             302
PRINTLEVEL              0
$end
$solvent
DIELECTRIC              78.390000 ! water
$end
--------------------------------------------------------------
 ----------------------------------------------------------------
             Standard Nuclear Orientation (Angstroms)
    I     Atom           X                Y                Z
 ----------------------------------------------------------------
    1      C       0.7382652857     1.4153186524     3.2251273759
    2      C      -2.0197347143    -0.6086813476     0.6131273759
    3      C      -1.5567347143    -1.2526813476     1.7481273759
    4      C      -1.5947347143     0.6843186524     0.3171273759
    5      C      -0.6577347143    -0.5956813476     2.6071273759
    6      C      -0.7017347143     1.3403186524     1.1721273759
    7      C      -0.2277347143     0.7053186524     2.3211273759
    8      H      -2.7127347143    -1.1136813476    -0.0438726241
    9      H      -1.8957347143    -2.2526813476     1.9801273759
   10      H      -1.9467347143     1.1793186524    -0.5758726241
   11      H      -0.3037347143    -1.0986813476     3.4961273759
   12      H      -0.3767347143     2.3433186524     0.9311273759
   13      H       0.4372652857     1.2383186524     4.2581273759
   14      H       0.6832652857     2.4883186524     3.0421273759
   15      H       1.7834452857     1.0968786524     3.0978973759
 ----------------------------------------------------------------
 Nuclear Repulsion Energy =         269.37127351 hartrees
 There are       25 alpha and       25 beta electrons
 Requested basis set is def2-TZVPD
 There are 131 shells and 331 basis functions

 Total QAlloc Memory Limit  96000 MB
 Mega-Array Size      1956 MB
 MEM_STATIC part      2000 MB
 Discretize the solute cavity surface with Lebedev spheres
	Using 302 Lebedev grid points for each H atom
	Using 302 Lebedev grid points for other atoms
	Atomic van der Waals radii will be scaled by 1.20
 Remove points where switching function is < 1.0e-08
 Keep 1778 surface tesserae and discard 2752 interior tesserae
 Molecular Surface Area = 178.228 Angst**2

                       Distance Matrix (Angstroms)
             C (  1)   C (  2)   C (  3)   C (  4)   C (  5)   C (  6)
   C (  2)  4.304147
   C (  3)  3.816645  1.384677
   C (  4)  3.799173  1.392871  2.408563
   C (  5)  2.524849  2.414798  1.406318  2.785762
   C (  6)  2.508791  2.418306  2.790421  1.399575  2.410240
   C (  7)  1.501490  2.802699  2.434817  2.425932  1.399749  1.395744
   H (  8)  5.384385  1.080242  2.137036  2.147801  3.393987  3.397778
   H (  9)  4.684251  2.141682  1.081085  3.388531  2.161347  3.871453
   H ( 10)  4.659670  2.148486  3.386399  1.079990  3.865700  2.152080
   H ( 11)  2.734849  3.390641  2.156207  3.866757  1.081039  3.392359
   H ( 12)  2.714193  3.393358  3.871835  2.147743  3.394946  1.081534
   H ( 13)  1.090421  4.768048  4.059707  4.468492  2.699700  3.291067
   H ( 14)  1.089882  4.774689  4.548309  3.983632  3.390953  2.594808
   H ( 15)  1.099997  4.852545  4.301060  4.394882  3.010810  3.153407
             C (  7)   H (  8)   H (  9)   H ( 10)   H ( 11)   H ( 12)
   H (  8)  3.882938
   H (  9)  3.412956  2.461988
   H ( 10)  3.401800  2.475405  4.279528
   H ( 11)  2.154256  4.281951  2.482828  4.946708
   H ( 12)  2.153450  4.284667  4.952876  2.467964  4.293241
   H ( 13)  2.116195  5.827659  4.776950  5.390222  2.567352  3.598965
   H ( 14)  2.128110  5.833577  5.500561  4.660505  3.747913  2.366632
   H ( 15)  2.191241  5.913791  5.099542  5.236184  3.055387  3.303768
             H ( 13)   H ( 14)
   H ( 14)  1.761156
   H ( 15)  1.782790  1.774715
 
 A cutoff of  1.0D-14 yielded   8358 shell pairs
 There are     54486 function pairs (     69437 Cartesian)
 Smallest overlap matrix eigenvalue = 5.78E-07
 Linear dependence detected in AO basis
 Tighter screening thresholds may be required for diffuse basis sets
 Use S2THRESH > 14 and THRESH = 14 in case of SCF convergence issues
 Number of orthogonalized atomic orbitals = 330
 Maximum deviation from orthogonality = 2.135E-10

 Scale SEOQF with 1.000000e-01/1.000000e-01/1.000000e-01

 Standard Electronic Orientation quadrupole field applied
 Nucleus-field energy     =    -0.0000000159 hartrees
 Guess from superposition of atomic densities
 Warning:  Energy on first SCF cycle will be non-variational
 SAD guess density has 49.913408 electrons

 -----------------------------------------------------------------------
  General SCF calculation program by
  Eric Jon Sundstrom, Paul Horn, Yuezhi Mao, Dmitri Zuev, Alec White,
  David Stuck, Shaama M.S., Shane Yost, Joonho Lee, David Small,
  Daniel Levine, Susi Lehtola, Hugh Burton, Evgeny Epifanovsky
 -----------------------------------------------------------------------
 Exchange:     0.1670 Hartree-Fock + 1.0000 wB97X-V + LR-HF
 Correlation:  1.0000 wB97X-V
 Using Euler-Maclaurin-Lebedev (99,590) quadrature formula
 Nonlocal Correlation:  VV10 with C = 0.0100 and b = 6.00 and scale = 1.00000
 Grid used for NLC:  SG-1 standard quadrature
Energy prior to optimization (guess energy) = -271.520775838920
Begin Timing: Total SCF Calculation
begin iterations for algorithm: DIIS         
the SCF tolerance is set to 1.00e-08
    1    -271.5207758389      1.95e-03     00000 
    2    -271.5595858317      1.24e-03     00000 
    3    -271.5811431493      1.38e-04     00000 
    4    -271.5815607020      4.72e-05     00000 
    5    -271.5815938702      1.60e-05     00000 
    6    -271.5815983336      3.66e-06     00000 
    7    -271.5815986234      1.60e-06     00000 
    8    -271.5815986663      3.63e-07     00000 
    9    -271.5815986694      7.56e-08     00000 
   10    -271.5815986695      4.21e-08     00000 
   11    -271.5815986695      5.83e-09     00000 Convergence criterion met
Timing for Total SCF: 1276.00s (wall), 2533.71s (cpu)

************** Final PCM Free Energy Summary **************
 G_electrostatic  =      -0.00253052 hartree =      -1.58792354 kcal/mol
 G_cavitation     =       0.00000000 hartree =       0.00000000 kcal/mol
 G_dispersion     =       0.00000000 hartree =       0.00000000 kcal/mol
 G_repulsion      =       0.00000000 hartree =       0.00000000 kcal/mol
 --------------------------------------------------
 Non-electrostatic Free Energy =       0.00000000 hartree =       0.00000000 kcal/mol
 Total                         =      -0.00253052 hartree =      -1.58792354 kcal/mol
 --------------------------------------------------
 SCF Energy (H0 + V/2)                       =    -271.58159867 
 Solute Internal Energy (H0)                 =    -271.57906815 
 Total Free Energy (H0 + V/2 + non-elec)     =    -271.58159867 hartree
                                             = -170420.02531445 kcal/mol
***********************************************************

E_pcm = -0.0025305172
Multipole orders to be included
        2
        3
computing dipole RHS
computing quadrupole RHS
total number of RHS in solve_reponses: 8
RHS batch sizes
        8
Beginning Block Conjugate Gradient Iterations. Batch Number: 0
computing hessian-vector products by finite difference
              1      5.70e-01     00000 Conjugate Gradient Iteration
computing hessian-vector products by finite difference
              2      1.86e-01     00000 Conjugate Gradient Iteration
computing hessian-vector products by finite difference
              3      4.29e-02     00000 Conjugate Gradient Iteration
computing hessian-vector products by finite difference
              4      9.72e-03     00000 Conjugate Gradient Iteration
computing hessian-vector products by finite difference
              5      2.09e-03     00000 Conjugate Gradient Iteration
computing hessian-vector products by finite difference
              6      5.92e-04     00000 Conjugate Gradient Iteration
computing hessian-vector products by finite difference
              7      1.61e-04     00000 Conjugate Gradient Iteration
computing hessian-vector products by finite difference
              8      2.52e-05     00000 Conjugate Gradient Iteration
computing hessian-vector products by finite difference
              9      2.85e-06     00000 Conjugate Gradient Iteration
computing hessian-vector products by finite difference
             10      4.64e-07     00000 Conjugate Gradient Iteration
computing hessian-vector products by finite difference
             11      9.44e-08     00000 Conjugate Gradient Iteration
computing hessian-vector products by finite difference
             12      1.41e-08     00000 Conjugate Gradient Iteration
computing hessian-vector products by finite difference
             13      3.21e-09     00000 CG Converged
batch 0 complete
Done Calculating Responses
TESTING ORTHOGONALIZATION OF MULTIPOLE BASIS
Multipole virts passed orthogonality test
Virts Per Order
           75
          125
 
 --------------------------------------------------------------
 
                    Orbital Energies (a.u.)
 --------------------------------------------------------------
 
 Alpha MOs
 -- Occupied --
-10.2834 -10.2747 -10.2743 -10.2725 -10.2712 -10.2702 -10.2625  -0.9960
 -0.9083  -0.8775  -0.8138  -0.7317  -0.7049  -0.6300  -0.5737  -0.5690
 -0.5355  -0.5297  -0.5150  -0.4886  -0.4726  -0.4434  -0.4407  -0.3480
 -0.3388
 -- Virtual --
  0.0605   0.0633   0.0682   0.0789   0.0845   0.1043   0.1102   0.1136
  0.1355   0.1536   0.1650   0.1695   0.1846   0.1898   0.1944   0.1997
  0.2218   0.2252   0.2327   0.2385   0.2486   0.2575   0.2593   0.2690
  0.2789   0.2826   0.2844   0.2906   0.2929   0.3000   0.3040   0.3102
  0.3203   0.3241   0.3305   0.3369   0.3489   0.3523   0.3651   0.3723
  0.3754   0.3820   0.3833   0.3875   0.3901   0.3996   0.4036   0.4049
  0.4118   0.4277   0.4289   0.4357   0.4395   0.4471   0.4496   0.4532
  0.4634   0.4698   0.4739   0.4809   0.4898   0.4955   0.5110   0.5136
  0.5168   0.5227   0.5338   0.5372   0.5418   0.5479   0.5497   0.5669
  0.5791   0.5848   0.5937   0.5960   0.5983   0.6210   0.6371   0.6423
  0.6623   0.6737   0.6805   0.6859   0.6901   0.6977   0.7192   0.7225
  0.7284   0.7311   0.7441   0.7585   0.7628   0.7656   0.7761   0.7843
  0.7884   0.7927   0.7957   0.8010   0.8060   0.8217   0.8258   0.8288
  0.8335   0.8348   0.8462   0.8554   0.8571   0.8694   0.8870   0.8908
  0.9081   0.9197   0.9305   0.9456   0.9504   1.0055   1.0246   1.0388
  1.0449   1.0594   1.0722   1.0725   1.0900   1.0917   1.1005   1.1392
  1.1602   1.1735   1.2537   1.2725   1.2924   1.3217   1.3488   1.3509
  1.3751   1.4354   1.4494   1.4559   1.4604   1.4778   1.5237   1.5331
  1.5987   1.6052   1.6175   1.6238   1.6587   1.6742   1.7362   1.7736
  1.7854   1.7955   1.7997   1.8145   1.8276   1.8630   1.8847   1.9100
  1.9158   1.9217   1.9398   1.9617   1.9831   1.9916   2.0121   2.0237
  2.0306   2.0449   2.0660   2.0892   2.1087   2.1200   2.1720   2.1786
  2.1951   2.2312   2.2438   2.2672   2.2859   2.3087   2.3858   2.3957
  2.4007   2.4099   2.4774   2.5085   2.5367   2.5517   2.5615   2.6045
  2.6215   2.6276   2.6649   2.6729   2.6919   2.7060   2.7518   2.7664
  2.7820   2.8086   2.8132   2.8415   2.8584   2.8967   2.9067   2.9146
  2.9306   2.9350   2.9618   2.9735   2.9886   3.0144   3.0199   3.0478
  3.0613   3.0853   3.0955   3.1249   3.1700   3.1929   3.1975   3.2198
  3.2291   3.2403   3.2842   3.2939   3.3360   3.3540   3.3619   3.3727
  3.3995   3.4357   3.4427   3.4487   3.4577   3.4732   3.4837   3.4955
  3.5037   3.5291   3.5384   3.5411   3.5535   3.5633   3.5780   3.5996
  3.6201   3.6270   3.6505   3.6876   3.7073   3.7474   3.7733   3.8064
  3.8465   3.8928   3.9072   3.9485   3.9517   3.9832   4.0322   4.0500
  4.1152   4.1981   4.2633   4.2693   4.2840   4.3033   4.3204   4.3290
  4.3425   4.3552   4.3843   4.3964   4.4197   4.4392   4.4744   4.5287
  4.5919   4.6241   4.7396   4.7678   4.8139   4.8698   4.9043   4.9439
  5.0131   5.0432   5.1563   5.2637   5.3565   5.3727   5.4935   5.5308
  5.6608   5.8450  22.5789  22.6733  22.8758  22.8937  22.9820  23.0674
 23.4007
 --------------------------------------------------------------
 
          Ground-State Mulliken Net Atomic Charges

     Atom                 Charge (a.u.)
  ----------------------------------------
      1 C                    -1.033324
      2 C                    -0.472951
      3 C                    -0.480977
      4 C                    -0.520401
      5 C                    -0.332658
      6 C                    -0.390191
      7 C                     0.883038
      8 H                     0.333405
      9 H                     0.313243
     10 H                     0.312794
     11 H                     0.338852
     12 H                     0.301271
     13 H                     0.256138
     14 H                     0.276115
     15 H                     0.215647
  ----------------------------------------
  Sum of atomic charges =     0.000000

 -----------------------------------------------------------------
                    Cartesian Multipole Moments
 -----------------------------------------------------------------
    Charge (ESU x 10^10)
                 0.0000
    Dipole Moment (Debye)
         X       0.3167      Y       0.2131      Z       0.2935
       Tot       0.4815
    Quadrupole Moments (Debye-Ang)
        XX     -43.3959     XY       2.3752     YY     -39.2322
        XZ       3.6435     YZ      -1.0887     ZZ     -39.3663
    Octopole Moments (Debye-Ang^2)
       XXX     109.1897    XXY     -17.4335    XYY      31.1991
       YYY     -33.2601    XXZ     -83.3125    XYZ       5.1040
       YYZ     -69.7651    XZZ      41.7218    YZZ     -14.8012
       ZZZ    -210.5218
    Hexadecapole Moments (Debye-Ang^3)
      XXXX    -477.2159   XXXY     -43.4560   XXYY    -133.9419
      XYYY     -45.0623   YYYY    -347.6814   XXXZ      94.9285
      XXYZ     -34.6480   XYYZ      20.0127   YYYZ     -87.2630
      XXZZ    -285.3057   XYZZ     -11.4358   YYZZ    -241.6222
      XZZZ      87.3444   YZZZ     -94.8566   ZZZZ   -1093.3779
 -----------------------------------------------------------------
Archival summary:
1\1\nid00506\SP\ProcedureUnspecified\BasisUnspecified\78\meili\SunSep2616:22:542021SunSep2616:22:542021\0\\#,ProcedureUnspecified,BasisUnspecified,\\0,1\C\C,1,1.39574\H,2,1.08153,1,120.219\C,2,1.39957,1,120.421,3,179.623,0\H,4,1.07999,2,119.885,1,-179.261,0\C,4,1.39287,2,119.998,1,0.233875,0\H,6,1.08024,4,120.031,2,179.7,0\C,6,1.38468,4,120.259,2,-0.337921,0\H,8,1.08109,6,120.083,4,179.417,0\C,1,1.39975,2,119.126,3,-179.651,0\H,10,1.08104,1,119.993,2,-179.664,0\C,1,1.50149,2,119.933,3,-0.0961944,0\H,12,1.08988,1,109.389,2,19.8429,0\H,12,1.09042,1,108.422,2,137.099,0\H,12,1.1,1,113.877,2,-101.441,0\\\@

 Total job time:  28927.64s(wall), 57410.28s(cpu) 
 Sun Sep 26 16:23:00 2021

        *************************************************************
        *                                                           *
        *  Thank you very much for using Q-Chem.  Have a nice day.  *
        *                                                           *
        *************************************************************


Done Job For Fragment 0
calling putenv with: QCSCRATCH=/global/cscratch1/sd/meili 
calling putenv with: QCLOCALSCR=/tmp 
calling putenv with: QCTHREADS=32 
Creating input file /tmp/qchem19201/Frg2.input
using default PutDataFrgm: nothing
calling putenv with: QCSCRATCH=/tmp/qchem19201/ 
calling putenv with: QCLOCALSCR=/tmp/qchem19201/ 
Spawning Job For Fragment 1
                  Welcome to Q-Chem
     A Quantum Leap Into The Future Of Chemistry


 Q-Chem 5.2, Q-Chem, Inc., Pleasanton, CA (2019)

 License issued to: National Energy Research Scientific Computing Center

 Yihan Shao,  Zhengting Gan,  E. Epifanovsky,  A. T. B. Gilbert,  M. Wormit,  
 J. Kussmann,  A. W. Lange,  A. Behn,  Jia Deng,  Xintian Feng,  D. Ghosh,  
 M. Goldey,  P. R. Horn,  L. D. Jacobson,  I. Kaliman,  T. Kus,  A. Landau,  
 Jie Liu,  E. I. Proynov,  R. M. Richard,  R. P. Steele,  E. J. Sundstrom,  
 H. L. Woodcock III,  P. M. Zimmerman,  D. Zuev,  B. Albrecht,  E. Alguire,  
 S. A. Baeppler,  D. Barton,  Z. Benda,  Y. A. Bernard,  E. J. Berquist,  
 K. B. Bravaya,  H. Burton,  D. Casanova,  Chun-Min Chang,  Yunqing Chen,  
 A. Chien,  K. D. Closser,  M. P. Coons,  S. Coriani,  S. Dasgupta,  
 A. L. Dempwolff,  M. Diedenhofen,  Hainam Do,  R. G. Edgar,  Po-Tung Fang,  
 S. Faraji,  S. Fatehi,  Qingguo Feng,  K. D. Fenk,  J. Fosso-Tande,  
 J. Gayvert,  Qinghui Ge,  A. Ghysels,  G. Gidofalvi,  J. Gomes,  
 J. Gonthier,  A. Gunina,  D. Hait,  M. W. D. Hanson-Heine,  
 P. H. P. Harbach,  A. W. Hauser,  M. F. Herbst,  J. E. Herr,  
 E. G. Hohenstein,  Z. C. Holden,  Kerwin Hui,  B. C. Huynh,  T.-C. Jagau,  
 Hyunjun Ji,  B. Kaduk,  K. Khistyaev,  Jaehoon Kim,  P. Klunzinger,  K. Koh,  
 D. Kosenkov,  L. Koulias,  T. Kowalczyk,  C. M. Krauter,  A. Kunitsa,  
 Ka Un Lao,  A. Laurent,  K. V. Lawler,  Joonho Lee,  D. Lefrancois,  
 S. Lehtola,  D. S. Levine,  Yi-Pei Li,  You-Sheng Lin,  Fenglai Liu,  
 E. Livshits,  A. Luenser,  P. Manohar,  E. Mansoor,  S. F. Manzer,  
 Shan-Ping Mao,  Yuezhi Mao,  N. Mardirossian,  A. V. Marenich,  
 T. Markovich,  L. A. Martinez-Martinez,  S. A. Maurer,  N. J. Mayhall,  
 S. C. McKenzie,  J.-M. Mewes,  P. Morgante,  A. F. Morrison,  
 J. W. Mullinax,  K. Nanda,  T. S. Nguyen-Beck,  R. Olivares-Amaya,  
 J. A. Parkhill,  Zheng Pei,  T. M. Perrine,  F. Plasser,  P. Pokhilko,  
 S. Prager,  A. Prociuk,  E. Ramos,  D. R. Rehn,  F. Rob,  M. Scheurer,  
 M. Schneider,  N. Sergueev,  S. M. Sharada,  S. Sharma,  D. W. Small,  
 T. Stauch,  T. Stein,  Yu-Chuan Su,  A. J. W. Thom,  A. Tkatchenko,  
 T. Tsuchimochi,  N. M. Tubman,  L. Vogt,  M. L. Vidal,  O. Vydrov,  
 M. A. Watson,  J. Wenzel,  M. de Wergifosse,  T. A. Wesolowski,  A. White,  
 J. Witte,  A. Yamada,  Jun Yang,  K. Yao,  S. Yeganeh,  S. R. Yost,  
 Zhi-Qiang You,  A. Zech,  Igor Ying Zhang,  Xing Zhang,  Yan Zhao,  
 Ying Zhu,  B. R. Brooks,  G. K. L. Chan,  C. J. Cramer,  M. S. Gordon,  
 W. J. Hehre,  A. Klamt,  M. W. Schmidt,  C. D. Sherrill,  D. G. Truhlar,  
 A. Aspuru-Guzik,  R. Baer,  A. T. Bell,  N. A. Besley,  Jeng-Da Chai,  
 A. E. DePrince, III,  R. A. DiStasio Jr.,  A. Dreuw,  B. D. Dunietz,  
 T. R. Furlani,  Chao-Ping Hsu,  Yousung Jung,  Jing Kong,  D. S. Lambrecht,  
 WanZhen Liang,  C. Ochsenfeld,  V. A. Rassolov,  L. V. Slipchenko,  
 J. E. Subotnik,  T. Van Voorhis,  J. M. Herbert,  A. I. Krylov,  
 P. M. W. Gill,  M. Head-Gordon

 Contributors to earlier versions of Q-Chem not listed above: 
 R. D. Adamson,  B. Austin,  J. Baker,  G. J. O. Beran,  K. Brandhorst,  
 S. T. Brown,  E. F. C. Byrd,  A. K. Chakraborty,  C.-L. Cheng,  
 Siu Hung Chien,  D. M. Chipman,  D. L. Crittenden,  H. Dachsel,  
 R. J. Doerksen,  A. D. Dutoi,  L. Fusti-Molnar,  W. A. Goddard III,  
 A. Golubeva-Zadorozhnaya,  S. R. Gwaltney,  G. Hawkins,  A. Heyden,  
 S. Hirata,  G. Kedziora,  F. J. Keil,  C. Kelley,  Jihan Kim,  R. A. King,  
 R. Z. Khaliullin,  P. P. Korambath,  W. Kurlancheek,  A. M. Lee,  M. S. Lee,  
 S. V. Levchenko,  Ching Yeh Lin,  D. Liotard,  R. C. Lochan,  I. Lotan,  
 P. E. Maslen,  N. Nair,  D. P. O'Neill,  D. Neuhauser,  E. Neuscamman,  
 C. M. Oana,  R. Olson,  B. Peters,  R. Peverati,  P. A. Pieniazek,  
 Y. M. Rhee,  J. Ritchie,  M. A. Rohrdanz,  E. Rosta,  N. J. Russ,  
 H. F. Schaefer III,  N. E. Schultz,  N. Shenvi,  A. C. Simmonett,  A. Sodt,  
 D. Stuck,  K. S. Thanthiriwatte,  V. Vanovschi,  Tao Wang,  A. Warshel,  
 C. F. Williams,  Q. Wu,  X. Xu,  W. Zhang

 Please cite Q-Chem as follows:
 Y. Shao et al., Mol. Phys. 113, 184-215 (2015)
 DOI: 10.1080/00268976.2014.952696

 Q-Chem 5.2.0 for Intel X86 EM64T Linux

 Parts of Q-Chem use Armadillo 8.300.2 (Tropical Shenanigans).
 http://arma.sourceforge.net/

 Q-Chem begins on Sun Sep 26 16:23:08 2021  

Host: cori01
0

     Scratch files written to /tmp/qchem19201//Frg2//
 May1019 |scratch|qcdevops|jenkins|workspace|build_RNUM -1
Processing $rem in /global/common/cori/software/qchem/5.2/config/preferences:
	 MEM_TOTAL  96000 
NAlpha2: 40
NElect   40
Mult     1
Symmetry turned off for PCM/SM12/SMD calculation

Checking the input file for inconsistencies... 	...done.

--------------------------------------------------------------
User input:
--------------------------------------------------------------
$molecule
0 1
 6	0.9982652857	-1.2106813476	-1.5548726241
 6	-0.2427347143	-1.8326813476	-2.1718726241
 6	1.3442652857	0.1003186524	-2.2148726241
 8	0.4842652857	0.9643186524	-2.3878726241
 7	2.6012652857	0.2773186524	-2.5868726241
 1	0.8312652857	-1.0386813476	-0.4928726241
 1	1.8372652857	-1.8966813476	-1.6608726241
 1	-0.0867347143	-1.9296813476	-3.2458726241
 1	-1.0847347143	-1.1566813476	-2.0178726241
 1	2.8642652857	1.1503186524	-3.0108726241
 1	3.3122652857	-0.4136813476	-2.3608726241
 1	-0.4915247143	-2.8127713476	-1.7388226241
$end
$rem
EDA2		1
METHOD		WB97X-V
BASIS		DEF2-TZVPD
XC_GRID		000099000590
NL_GRID		1
UNRESTRICTED		FALSE
MAX_SCF_CYCLES		200
SYMMETRY		FALSE
SYM_IGNORE		TRUE
BASIS_LIN_DEP_THRESH		6
THRESH		14
SCF_CONVERGENCE		8
SCF_PRINT_FRGM		TRUE
SOLVENT_METHOD		PCM
!required keywords
JOBTYPE		SP
SYM_IGNORE		TRUE
SUBSYSTEM		TRUE
GEN_SCFMAN		TRUE
CHILD_INSTRUCTION		2
SYM_IGNORE		TRUE
SCFMI		0
RI_K 0		
PARI_K 0		
MIN_PARI_K 0		
IARI_K 0		
OCC_RI_K 0		
PURECART		1111
MEM_STATIC		2000
MEM_TOTAL		96000
GUI		0
CHILD_MP		1
CHILD_MP_ORDERS		232
FRZ_RELAX		0
FRZ_RELAX_METHOD		0
EDA_CLS_ELEC		1
EDA_CLS_DISP		0
FRZ_ORTHO_DECOMP		1
EDA2		FALSE
FRGM_METHOD		FALSE
CIS_N_ROOTS  0
LOCAL_CIS    0
CIS_RLX_DNS  1
$end
$pcm
THEORY                  CPCM
METHOD                  SWIG
SOLVER                  INVERSION
RADII                   UFF
HPOINTS                 302
HEAVYPOINTS             302
PRINTLEVEL              0
$end
$solvent
DIELECTRIC              78.390000 ! water
$end
--------------------------------------------------------------
 ----------------------------------------------------------------
             Standard Nuclear Orientation (Angstroms)
    I     Atom           X                Y                Z
 ----------------------------------------------------------------
    1      C       0.9982652857    -1.2106813476    -1.5548726241
    2      C      -0.2427347143    -1.8326813476    -2.1718726241
    3      C       1.3442652857     0.1003186524    -2.2148726241
    4      O       0.4842652857     0.9643186524    -2.3878726241
    5      N       2.6012652857     0.2773186524    -2.5868726241
    6      H       0.8312652857    -1.0386813476    -0.4928726241
    7      H       1.8372652857    -1.8966813476    -1.6608726241
    8      H      -0.0867347143    -1.9296813476    -3.2458726241
    9      H      -1.0847347143    -1.1566813476    -2.0178726241
   10      H       2.8642652857     1.1503186524    -3.0108726241
   11      H       3.3122652857    -0.4136813476    -2.3608726241
   12      H      -0.4915247143    -2.8127713476    -1.7388226241
 ----------------------------------------------------------------
 Nuclear Repulsion Energy =         180.21370671 hartrees
 There are       20 alpha and       20 beta electrons
 Requested basis set is def2-TZVPD
 There are 101 shells and 251 basis functions

 Total QAlloc Memory Limit  96000 MB
 Mega-Array Size      1956 MB
 MEM_STATIC part      2000 MB
 Discretize the solute cavity surface with Lebedev spheres
	Using 302 Lebedev grid points for each H atom
	Using 302 Lebedev grid points for other atoms
	Atomic van der Waals radii will be scaled by 1.20
 Remove points where switching function is < 1.0e-08
 Keep 1494 surface tesserae and discard 2130 interior tesserae
 Molecular Surface Area = 151.367 Angst**2

                       Distance Matrix (Angstroms)
             C (  1)   C (  2)   C (  3)   O (  4)   N (  5)   H (  6)
   C (  2)  1.519096
   C (  3)  1.507991  2.501381
   O (  4)  2.385102  2.897998  1.231270
   N (  5)  2.418424  3.565482  1.322786  2.234560
   H (  6)  1.088723  2.145449  2.127387  2.779108  3.041314
   H (  7)  1.088923  2.142806  2.130252  3.247223  2.483435  1.764206
   H (  8)  2.133932  1.089597  2.689168  3.072042  3.539841  3.035723
   H (  9)  2.134520  1.090714  2.742061  2.664076  3.995837  2.451654
   H ( 10)  3.343084  4.388127  2.011595  2.467210  1.005522  3.907062
   H ( 11)  2.576711  3.832402  2.039249  3.145981  1.016896  3.167872
   H ( 12)  2.195451  1.100002  3.476038  3.954724  4.453448  2.539598
             H (  7)   H (  8)   H (  9)   H ( 10)   H ( 11)
   H (  8)  2.493008
   H (  9)  3.035314  1.761112
   H ( 10)  3.487325  4.272005  4.680053
   H ( 11)  2.205655  3.825530  4.472506  1.751942
   H ( 12)  2.503709  1.793015  1.781124  5.346543  4.539978
 
 A cutoff of  1.0D-14 yielded   5044 shell pairs
 There are     31696 function pairs (     39853 Cartesian)
 Smallest overlap matrix eigenvalue = 6.04E-06

 Scale SEOQF with 1.000000e-01/1.000000e-01/1.000000e-01

 Standard Electronic Orientation quadrupole field applied
 Nucleus-field energy     =    -0.0000000142 hartrees
 Guess from superposition of atomic densities
 Warning:  Energy on first SCF cycle will be non-variational
 SAD guess density has 39.592240 electrons

 -----------------------------------------------------------------------
  General SCF calculation program by
  Eric Jon Sundstrom, Paul Horn, Yuezhi Mao, Dmitri Zuev, Alec White,
  David Stuck, Shaama M.S., Shane Yost, Joonho Lee, David Small,
  Daniel Levine, Susi Lehtola, Hugh Burton, Evgeny Epifanovsky
 -----------------------------------------------------------------------
 Exchange:     0.1670 Hartree-Fock + 1.0000 wB97X-V + LR-HF
 Correlation:  1.0000 wB97X-V
 Using Euler-Maclaurin-Lebedev (99,590) quadrature formula
 Nonlocal Correlation:  VV10 with C = 0.0100 and b = 6.00 and scale = 1.00000
 Grid used for NLC:  SG-1 standard quadrature
Energy prior to optimization (guess energy) = -248.016296756192
Begin Timing: Total SCF Calculation
begin iterations for algorithm: DIIS         
the SCF tolerance is set to 1.00e-08
    1    -248.0162967562      9.83e-03     00000 
    2    -247.6240566010      1.22e-02     00000 
    3    -248.5381401320      1.99e-03     00000 
    4    -248.5592243558      6.55e-04     00000 
    5    -248.5620235854      9.98e-05     00000 
    6    -248.5621267848      4.24e-05     00000 
    7    -248.5621468821      9.55e-06     00000 
    8    -248.5621482653      1.74e-06     00000 
    9    -248.5621483664      4.99e-07     00000 
   10    -248.5621483718      1.71e-07     00000 
   11    -248.5621483723      6.15e-08     00000 
   12    -248.5621483724      1.82e-08     00000 
   13    -248.5621483724      5.29e-09     00000 Convergence criterion met
Timing for Total SCF: 722.00s (wall), 1429.27s (cpu)

************** Final PCM Free Energy Summary **************
 G_electrostatic  =      -0.01158432 hartree =      -7.26926981 kcal/mol
 G_cavitation     =       0.00000000 hartree =       0.00000000 kcal/mol
 G_dispersion     =       0.00000000 hartree =       0.00000000 kcal/mol
 G_repulsion      =       0.00000000 hartree =       0.00000000 kcal/mol
 --------------------------------------------------
 Non-electrostatic Free Energy =       0.00000000 hartree =       0.00000000 kcal/mol
 Total                         =      -0.01158432 hartree =      -7.26926981 kcal/mol
 --------------------------------------------------
 SCF Energy (H0 + V/2)                       =    -248.56214837 
 Solute Internal Energy (H0)                 =    -248.55056405 
 Total Free Energy (H0 + V/2 + non-elec)     =    -248.56214837 hartree
                                             = -155975.10223577 kcal/mol
***********************************************************

E_pcm = -0.0115843189
Multipole orders to be included
        2
        3
computing dipole RHS
computing quadrupole RHS
total number of RHS in solve_reponses: 8
RHS batch sizes
        8
Beginning Block Conjugate Gradient Iterations. Batch Number: 0
computing hessian-vector products by finite difference
              1      5.61e-01     00000 Conjugate Gradient Iteration
computing hessian-vector products by finite difference
              2      1.93e-01     00000 Conjugate Gradient Iteration
computing hessian-vector products by finite difference
              3      5.02e-02     00000 Conjugate Gradient Iteration
computing hessian-vector products by finite difference
              4      1.30e-02     00000 Conjugate Gradient Iteration
computing hessian-vector products by finite difference
              5      1.97e-03     00000 Conjugate Gradient Iteration
computing hessian-vector products by finite difference
              6      3.91e-04     00000 Conjugate Gradient Iteration
computing hessian-vector products by finite difference
              7      6.18e-05     00000 Conjugate Gradient Iteration
computing hessian-vector products by finite difference
              8      9.50e-06     00000 Conjugate Gradient Iteration
computing hessian-vector products by finite difference
              9      1.52e-06     00000 Conjugate Gradient Iteration
computing hessian-vector products by finite difference
             10      2.53e-07     00000 Conjugate Gradient Iteration
computing hessian-vector products by finite difference
             11      3.66e-08     00000 Conjugate Gradient Iteration
computing hessian-vector products by finite difference
             12      6.34e-09     00000 CG Converged
batch 0 complete
Done Calculating Responses
TESTING ORTHOGONALIZATION OF MULTIPOLE BASIS
Multipole virts passed orthogonality test
Virts Per Order
           60
          100
 
 --------------------------------------------------------------
 
                    Orbital Energies (a.u.)
 --------------------------------------------------------------
 
 Alpha MOs
 -- Occupied --
-19.1765 -14.4354 -10.3730 -10.2748 -10.2607  -1.1707  -1.0466  -0.9144
 -0.7832  -0.7038  -0.6568  -0.6038  -0.5791  -0.5329  -0.5216  -0.4799
 -0.4661  -0.4515  -0.3824  -0.3662
 -- Virtual --
  0.0596   0.0840   0.0864   0.0953   0.1107   0.1276   0.1325   0.1337
  0.1451   0.1642   0.1848   0.1886   0.1916   0.2147   0.2165   0.2263
  0.2328   0.2455   0.2530   0.2666   0.2809   0.2860   0.2972   0.3066
  0.3200   0.3219   0.3289   0.3363   0.3416   0.3500   0.3568   0.3663
  0.3687   0.3745   0.3875   0.3930   0.3953   0.4015   0.4135   0.4206
  0.4404   0.4449   0.4535   0.4603   0.4700   0.4761   0.4878   0.4911
  0.5061   0.5112   0.5207   0.5316   0.5424   0.5495   0.5553   0.5665
  0.5876   0.5938   0.6095   0.6128   0.6305   0.6459   0.6499   0.6667
  0.6838   0.7033   0.7153   0.7214   0.7467   0.7533   0.7642   0.7761
  0.7811   0.7914   0.7931   0.8015   0.8058   0.8121   0.8332   0.8390
  0.8438   0.8735   0.8953   0.9075   0.9126   0.9684   0.9752   1.0163
  1.0248   1.0382   1.0498   1.0607   1.0988   1.1274   1.1395   1.1736
  1.2202   1.2601   1.2866   1.3067   1.3293   1.3533   1.4030   1.4251
  1.4411   1.4849   1.4977   1.5423   1.5694   1.6335   1.6986   1.7532
  1.7803   1.8480   1.8556   1.8909   1.9085   1.9279   1.9371   1.9436
  1.9777   1.9915   1.9956   2.0154   2.0200   2.0517   2.0892   2.1415
  2.1625   2.1778   2.2280   2.2362   2.2877   2.3392   2.3589   2.3969
  2.4257   2.4513   2.4827   2.5259   2.5387   2.5929   2.6119   2.6411
  2.6584   2.6690   2.6836   2.7016   2.7468   2.7968   2.8124   2.8531
  2.8679   2.9148   2.9352   2.9583   3.0185   3.0729   3.0916   3.0962
  3.1523   3.1971   3.2356   3.2389   3.2562   3.3017   3.3182   3.3380
  3.3453   3.3874   3.4168   3.4439   3.4796   3.4925   3.5254   3.5844
  3.5963   3.6256   3.6438   3.6628   3.6810   3.7204   3.7591   3.8001
  3.9151   3.9682   4.0223   4.0735   4.0901   4.1346   4.1754   4.2103
  4.2877   4.3825   4.4492   4.5138   4.5888   4.6266   4.6848   4.7560
  4.7673   4.8450   4.9012   4.9075   4.9839   5.0520   5.1779   5.2033
  5.2740   5.3577   5.3862   5.4208   5.4290   5.5106   5.5592   5.7872
  5.9325   6.1540   6.2572   6.5336   6.6632   6.7642   6.8508   6.9947
  7.2500   7.3352  22.6416  22.7576  23.6297  32.4392  44.3620
 --------------------------------------------------------------
 
          Ground-State Mulliken Net Atomic Charges

     Atom                 Charge (a.u.)
  ----------------------------------------
      1 C                     0.112323
      2 C                    -0.844581
      3 C                     0.155455
      4 O                    -0.586853
      5 N                    -0.231656
      6 H                     0.155961
      7 H                     0.185836
      8 H                     0.226050
      9 H                     0.188669
     10 H                     0.205512
     11 H                     0.215822
     12 H                     0.217464
  ----------------------------------------
  Sum of atomic charges =     0.000000

 -----------------------------------------------------------------
                    Cartesian Multipole Moments
 -----------------------------------------------------------------
    Charge (ESU x 10^10)
                -0.0000
    Dipole Moment (Debye)
         X       4.1880      Y      -2.8456      Z       0.4321
       Tot       5.0817
    Quadrupole Moments (Debye-Ang)
        XX     -17.4702     XY      -0.3608     YY     -31.5178
        XZ     -10.6610     YZ       5.0886     ZZ     -32.8484
    Octopole Moments (Debye-Ang^2)
       XXX     -47.2298    XXY      15.7646    XYY     -26.2246
       YYY      37.8532    XXZ      31.6499    XYZ      -2.7324
       YYZ      68.6158    XZZ      -4.4955    YZZ       5.5955
       ZZZ     209.3489
    Hexadecapole Moments (Debye-Ang^3)
      XXXX    -272.7182   XXXY     -10.2408   XXYY    -104.5652
      XYYY      -7.8483   YYYY    -298.0738   XXXZ      91.3626
      XXYZ     -38.5816   XYYZ      55.1945   YYYZ     -64.3957
      XXZZ    -139.9991   XYZZ      13.4718   YYZZ    -210.9214
      XZZZ     149.7221   YZZZ     -57.2476   ZZZZ    -977.6352
 -----------------------------------------------------------------
Archival summary:
1\1\nid00506\SP\ProcedureUnspecified\BasisUnspecified\1137\meili\SunSep2620:00:012021SunSep2620:00:012021\0\\#,ProcedureUnspecified,BasisUnspecified,\\0,1\C\O,1,1.23127\N,1,1.32279,2,122.027\H,3,1.00552,1,118.902,2,0.970365,0\H,3,1.0169,1,120.73,2,174.52,0\C,1,1.50799,2,120.749,3,179.611,0\H,6,1.08872,1,108.952,2,-72.3098,0\H,6,1.08892,1,109.165,2,169.699,0\C,6,1.5191,1,111.447,2,48.7611,0\H,9,1.0896,6,108.653,1,55.1594,0\H,9,1.09071,6,108.635,1,-61.8031,0\H,9,1.1,6,112.935,1,177.419,0\\\@

 Total job time:  13018.51s(wall), 25665.27s(cpu) 
 Sun Sep 26 20:00:07 2021

        *************************************************************
        *                                                           *
        *  Thank you very much for using Q-Chem.  Have a nice day.  *
        *                                                           *
        *************************************************************


Done Job For Fragment 1
calling putenv with: QCSCRATCH=/global/cscratch1/sd/meili 
calling putenv with: QCLOCALSCR=/tmp 
calling putenv with: QCTHREADS=32 
Doing General SCFMI
 Exchange:     0.1670 Hartree-Fock + 1.0000 wB97X-V + LR-HF
 Correlation:  1.0000 wB97X-V
 Using Euler-Maclaurin-Lebedev (99,590) quadrature formula
 Nonlocal Correlation:  VV10 with C = 0.0100 and b = 6.00 and scale = 1.00000
 Grid used for NLC:  SG-1 standard quadrature
performing fock build before subrot guess so that all methods have access
Printing subrot_rss_gen Method Specification:
Occupied Subspace Method is 0
Virtual Subspace Method is 0
Energy of the unrelaxed supersystem initial determinant -520.133887814287
performing fock build before subrot guess so that all methods have access
Printing subrot_rss_gen Method Specification:
Occupied Subspace Method is 0
Virtual Subspace Method is 0
Energy of the unrelaxed supersystem initial determinant w/ solvent -520.145813359663
write pseudocanon occs and virts to disk
write pseudocanon orbital energies to disk
Tolerance of ortho_decomp_scf: 1.00e-06
GDM subspace size: 20
Beginning the Orthogonal Decomposition of the Initial Supersystem Wavefunction
    1    -520.1087848982      2.93e-02     ortho_decomp Preconditoned Steepest Descent
    2    -520.1116462550      8.07e-04     ortho_decomp BFGS Step
    3    -520.1116571572      5.88e-05     ortho_decomp BFGS Step
    4    -520.1116571732      2.41e-06     ortho_decomp BFGS Step
    5    -520.1116571733      9.91e-08     ortho_decomp 00000 Convergence criterion met
 Hartree-Fock
 Hartree-Fock
 Hartree-Fock
Doing General SCFMI
 Exchange:     0.1670 Hartree-Fock + 1.0000 wB97X-V + LR-HF
 Correlation:  1.0000 wB97X-V
 Using Euler-Maclaurin-Lebedev (99,590) quadrature formula
 Nonlocal Correlation:  VV10 with C = 0.0100 and b = 6.00 and scale = 1.00000
 Grid used for NLC:  SG-1 standard quadrature
performing fock build at end of subrot_r(subrot) constructor so that all methods have access
<S^2> of initial wavefunction before polarization iterations 0.0000000000
Beginning iterations for the determination of the polarized wavefunction
Energy prior to optimization (guess energy) = -520.145813359664
Begin Timing: Total SCF Calculation
begin iterations for algorithm: DIIS         
the SCF tolerance is set to 1.00e-08
    1    -520.1458133597      7.02e-05     00000 
    2    -520.1461299892      4.39e-05     00000 
    3    -520.1462035677      1.65e-05     00000 
    4    -520.1462167091      7.41e-06     00000 
    5    -520.1462193259      3.05e-06     00000 
    6    -520.1462198732      1.31e-06     00000 
    7    -520.1462199827      5.54e-07     00000 
    8    -520.1462199995      2.48e-07     00000 
    9    -520.1462200022      9.99e-08     00000 
   10    -520.1462200025      5.03e-08     00000 
   11    -520.1462200026      2.00e-08     00000 
   12    -520.1462200027      8.31e-09     00000 Convergence criterion met
write pseudocanon occs and virts to disk
write pseudocanon orbital energies to disk
Timing for Total SCF: 7296.00s (wall), 14519.39s (cpu)
<S^2> of polarized wavefunction after polarization iterations 0.0000000000
relaxing scfmi constraint to allow all rotations in the entire AO span
Doing General SCFMI
 Exchange:     0.1670 Hartree-Fock + 1.0000 wB97X-V + LR-HF
 Correlation:  1.0000 wB97X-V
 Using Euler-Maclaurin-Lebedev (99,590) quadrature formula
 Nonlocal Correlation:  VV10 with C = 0.0100 and b = 6.00 and scale = 1.00000
 Grid used for NLC:  SG-1 standard quadrature
performing fock build at end of subrot_r(subrot) constructor so that all methods have access
<S^2> of polarized wavefunction before ct-allowed iterations 0.0000000000
Beginning iterations for the determination of the CT-Allowed wavefunction
Energy prior to optimization (guess energy) = -520.146220002672
Begin Timing: Total SCF Calculation
begin iterations for algorithm: DIIS         
the SCF tolerance is set to 1.00e-08
    1    -520.1462200027      6.88e-05     00000 
    2    -520.1470075105      7.00e-06     00000 
    3    -520.1470325835      1.44e-06     00000 
    4    -520.1470334471      1.26e-06     00000 
    5    -520.1470336489      2.15e-07     00000 
    6    -520.1470336591      9.44e-08     00000 
    7    -520.1470336611      1.89e-08     00000 
    8    -520.1470336612      8.14e-09     00000 Convergence criterion met
write pseudocanon occs and virts to disk
write pseudocanon orbital energies to disk
Timing for Total SCF: 4529.00s (wall), 9015.69s (cpu)
<S^2> of ct_allowed wavefunction after ct-allowed iterations 0.0000000000

================================
        Results of EDA2         
================================
Basic EDA Quantities
--------------------
Fragment Energies (Ha):
1 -271.5815986695
2 -248.5621483724
--------------------
  E_prp (kJ/mol) = 0.0000
  E_sol (kJ/mol) = 5.7481
  E_frz (kJ/mol) = -11.1732
  E_pol (kJ/mol) = -1.0677
  E_vct (kJ/mol) = -2.1363
  E_int (kJ/mol) = -8.6291
--------------------


Initial Wavefunction Decomposition
--------------------
  --------------------
  Orthogonal Fragment Subspace Decomposition:
  --------------------
     E_elec   (ELEC)   (kJ/mol) = -26.2468
     E_pauli  (PAULI)  (kJ/mol) = 36.0718
     E_disp   (DISP)   (kJ/mol) = -20.9983
     --------------------
     Terms summing to E_pauli:
     --------------------
        E_kep_pauli       (kJ/mol) = 47.1940
        E_disp_free_pauli (kJ/mol) = -11.1222
  --------------------
  Classical Frozen Decomposition:
  --------------------
     E_cls_elec  (CLS ELEC)  (kJ/mol) = -9.8986
     E_cls_pauli (CLS PAULI) (kJ/mol) = -1.2747
    [E_mod_pauli (MOD PAULI) (kJ/mol) = 19.7236 (CLS PAULI - DISP from orthogonal decomposition) ]
  --------------------
--------------------

Simplified EDA Summary (kJ/mol)
--------------------
 PREPARATION     0.0000
 SOLVATION       5.7481
 FROZEN          9.8250      (does not include dispersion)
[PAULI           36.0718]     (if this is negligible, then frozen describes electrostatics)
 DISPERSION      -20.9983
 POLARIZATION    -1.0677
 CHARGE TRANSFER -2.1363
 TOTAL           -8.6291     (PRP + SOL + FRZ + DISP + POL + CT)
--------------------
 
 --------------------------------------------------------------
 
                    Orbital Energies (a.u.)
 --------------------------------------------------------------
 
 Alpha MOs
 -- Occupied --
-19.1732 -14.4333 -10.3699 -10.2817 -10.2731 -10.2710 -10.2709 -10.2707
-10.2687 -10.2676 -10.2618 -10.2575  -1.1675  -1.0442  -0.9939  -0.9113
 -0.9062  -0.8750  -0.8125  -0.7803  -0.7295  -0.7033  -0.7008  -0.6547
 -0.6283  -0.6006  -0.5769  -0.5718  -0.5667  -0.5349  -0.5308  -0.5262
 -0.5184  -0.5135  -0.4875  -0.4771  -0.4705  -0.4617  -0.4478  -0.4412
 -0.4384  -0.3801  -0.3633  -0.3443  -0.3362
 -- Virtual --
  0.0557   0.0622   0.0684   0.0716   0.0744   0.0814   0.0938   0.0967
  0.1017   0.1049   0.1126   0.1167   0.1230   0.1299   0.1338   0.1425
  0.1443   0.1493   0.1655   0.1682   0.1791   0.1847   0.1880   0.1907
  0.1963   0.2050   0.2085   0.2106   0.2145   0.2241   0.2271   0.2347
  0.2366   0.2431   0.2489   0.2563   0.2580   0.2618   0.2650   0.2663
  0.2715   0.2790   0.2816   0.2858   0.2885   0.2966   0.3005   0.3055
  0.3083   0.3108   0.3135   0.3162   0.3210   0.3265   0.3317   0.3330
  0.3396   0.3402   0.3449   0.3507   0.3526   0.3550   0.3579   0.3587
  0.3622   0.3689   0.3705   0.3760   0.3789   0.3827   0.3855   0.3872
  0.3882   0.3951   0.4005   0.4048   0.4095   0.4135   0.4176   0.4204
  0.4233   0.4307   0.4344   0.4385   0.4421   0.4470   0.4493   0.4541
  0.4582   0.4607   0.4632   0.4709   0.4738   0.4757   0.4759   0.4793
  0.4834   0.4885   0.4923   0.4956   0.4984   0.5031   0.5077   0.5165
  0.5188   0.5246   0.5292   0.5334   0.5392   0.5404   0.5459   0.5498
  0.5564   0.5571   0.5630   0.5671   0.5750   0.5787   0.5822   0.5872
  0.5942   0.5949   0.5975   0.6026   0.6119   0.6184   0.6270   0.6361
  0.6397   0.6445   0.6465   0.6517   0.6561   0.6649   0.6701   0.6727
  0.6808   0.6853   0.6898   0.6943   0.7020   0.7059   0.7085   0.7143
  0.7160   0.7223   0.7274   0.7283   0.7330   0.7431   0.7483   0.7561
  0.7592   0.7627   0.7674   0.7738   0.7754   0.7805   0.7838   0.7895
  0.7914   0.7956   0.8016   0.8033   0.8096   0.8125   0.8151   0.8175
  0.8210   0.8250   0.8322   0.8371   0.8412   0.8430   0.8489   0.8582
  0.8618   0.8666   0.8709   0.8740   0.8768   0.8874   0.8898   0.8966
  0.9002   0.9036   0.9089   0.9147   0.9210   0.9375   0.9407   0.9562
  0.9620   0.9689   0.9757   0.9863   0.9915   0.9996   1.0067   1.0114
  1.0229   1.0300   1.0379   1.0464   1.0539   1.0658   1.0776   1.0842
  1.0916   1.1023   1.1066   1.1132   1.1303   1.1452   1.1462   1.1512
  1.1565   1.1777   1.1977   1.2073   1.2229   1.2299   1.2479   1.2566
  1.2845   1.2906   1.2956   1.3182   1.3391   1.3486   1.3652   1.3716
  1.3810   1.3853   1.4069   1.4211   1.4387   1.4498   1.4613   1.4672
  1.4745   1.4807   1.4921   1.5035   1.5142   1.5213   1.5427   1.5535
  1.5636   1.5753   1.5808   1.6132   1.6182   1.6287   1.6318   1.6453
  1.6708   1.6776   1.6935   1.7280   1.7724   1.7915   1.8004   1.8053
  1.8161   1.8253   1.8334   1.8673   1.8932   1.8995   1.9059   1.9293
  1.9355   1.9378   1.9473   1.9515   1.9589   1.9673   1.9711   1.9804
  1.9840   1.9957   2.0022   2.0113   2.0284   2.0374   2.0457   2.0548
  2.0624   2.0675   2.0755   2.0888   2.0938   2.1004   2.1184   2.1252
  2.1368   2.1593   2.1696   2.1782   2.2000   2.2092   2.2252   2.2385
  2.2561   2.2686   2.2774   2.2880   2.2982   2.3098   2.3227   2.3407
  2.3494   2.3646   2.3818   2.4111   2.4130   2.4172   2.4228   2.4555
  2.4599   2.4745   2.4940   2.5096   2.5237   2.5427   2.5616   2.5719
  2.5851   2.6022   2.6077   2.6159   2.6358   2.6388   2.6473   2.6706
  2.6818   2.6837   2.6924   2.7053   2.7179   2.7255   2.7295   2.7326
  2.7606   2.7634   2.7789   2.8015   2.8163   2.8294   2.8322   2.8452
  2.8519   2.8620   2.8713   2.8843   2.8999   2.9193   2.9306   2.9513
  2.9571   2.9677   2.9795   2.9874   2.9931   3.0001   3.0229   3.0336
  3.0485   3.0547   3.0714   3.0866   3.0954   3.1063   3.1172   3.1207
  3.1390   3.1478   3.1663   3.1830   3.2045   3.2219   3.2294   3.2443
  3.2618   3.2751   3.2812   3.2894   3.3058   3.3088   3.3197   3.3331
  3.3542   3.3567   3.3639   3.3665   3.3810   3.4023   3.4059   3.4162
  3.4332   3.4387   3.4474   3.4540   3.4638   3.4654   3.4909   3.5031
  3.5064   3.5089   3.5121   3.5236   3.5375   3.5479   3.5561   3.5574
  3.5730   3.5784   3.5856   3.5951   3.6037   3.6121   3.6201   3.6312
  3.6399   3.6574   3.6665   3.6863   3.6926   3.7016   3.7114   3.7258
  3.7395   3.7397   3.7475   3.7864   3.8062   3.8238   3.8435   3.8640
  3.9060   3.9208   3.9428   3.9600   3.9697   3.9875   4.0033   4.0480
  4.0595   4.0855   4.1012   4.1295   4.1433   4.1679   4.2070   4.2300
  4.2516   4.2796   4.2842   4.2961   4.3108   4.3198   4.3359   4.3424
  4.3565   4.3692   4.3957   4.4093   4.4157   4.4430   4.4599   4.4648
  4.4881   4.5398   4.5604   4.6120   4.6344   4.6381   4.6460   4.7021
  4.7483   4.7773   4.7803   4.8190   4.8304   4.8707   4.8799   4.9133
  4.9183   4.9276   4.9658   5.0126   5.0425   5.0643   5.0919   5.1694
  5.2109   5.2284   5.2781   5.2945   5.3643   5.3690   5.3743   5.4018
  5.4328   5.4408   5.4985   5.5306   5.5385   5.5833   5.6717   5.7950
  5.8143   5.9447   6.1623   6.2746   6.5559   6.7128   6.7934   6.8725
  7.0185   7.2786   7.3543  22.6628  22.7025  22.7201  22.8326  22.9224
 22.9537  23.0085  23.1003  23.4148  23.6467  32.5012  44.4345
 --------------------------------------------------------------
 
          Ground-State Mulliken Net Atomic Charges

     Atom                 Charge (a.u.)
  ----------------------------------------
      1 C                    -1.165158
      2 C                    -0.460015
      3 C                    -0.432148
      4 C                    -0.236148
      5 C                    -0.367619
      6 C                    -0.391339
      7 C                     0.800967
      8 H                     0.359461
      9 H                     0.313740
     10 H                     0.174032
     11 H                     0.354738
     12 H                     0.301508
     13 H                     0.280160
     14 H                     0.277462
     15 H                     0.206401
     16 C                     0.332520
     17 C                    -0.791665
     18 C                     0.004220
     19 O                    -0.576199
     20 N                    -0.211120
     21 H                     0.009861
     22 H                     0.233723
     23 H                     0.260254
     24 H                     0.084693
     25 H                     0.218652
     26 H                     0.214448
     27 H                     0.204574
  ----------------------------------------
  Sum of atomic charges =     0.000000

 -----------------------------------------------------------------
                    Cartesian Multipole Moments
 -----------------------------------------------------------------
    Charge (ESU x 10^10)
                -0.0000
    Dipole Moment (Debye)
         X       4.4003      Y      -2.4859      Z       0.6119
       Tot       5.0909
    Quadrupole Moments (Debye-Ang)
        XX     -61.5322     XY       1.9497     YY     -71.2085
        XZ      -6.5296     YZ       3.8086     ZZ     -73.2950
    Octopole Moments (Debye-Ang^2)
       XXX      61.8041    XXY      -1.4839    XYY       4.8855
       YYY       5.3496    XXZ     -51.4217    XYZ       2.3630
       YYZ      -0.9362    XZZ      36.5939    YZZ      -8.6926
       ZZZ      -0.7344
    Hexadecapole Moments (Debye-Ang^3)
      XXXX    -757.2978   XXXY     -53.8938   XXYY    -240.1431
      XYYY     -53.0859   YYYY    -650.2387   XXXZ     189.9602
      XXYZ     -73.4013   XYYZ      76.0889   YYYZ    -153.3305
      XXZZ    -429.2876   XYZZ       1.4040   YYZZ    -456.2700
      XZZZ     240.3341   YZZZ    -153.7756   ZZZZ   -2085.6660
 -----------------------------------------------------------------
Archival summary:
1\1\nid00506\SP\ProcedureUnspecified\BasisUnspecified\111015\meili\MonSep2702:03:432021MonSep2702:03:432021\0\\#,ProcedureUnspecified,BasisUnspecified,\\0,1\O\C,1,1.23127\N,2,1.32279,1,122.027\H,3,1.00552,2,118.902,1,0.970365,0\H,3,1.0169,2,120.73,1,174.52,0\C,2,1.50799,1,120.749,3,179.611,0\H,6,1.08872,2,108.952,1,-72.3098,0\H,6,1.08892,2,109.165,1,169.699,0\C,6,1.5191,2,111.447,1,48.7611,0\H,9,1.0896,6,108.653,2,55.1594,0\H,9,1.09071,6,108.635,2,-61.8031,0\H,9,1.1,6,112.935,2,177.419,0\H,11,2.55908,9,127.62,6,-90.3414,0\C,13,1.08024,11,93.95,9,78.1937,0\C,14,1.38468,13,119.71,11,-115.836,0\H,15,1.08109,14,120.083,13,-0.620478,0\C,14,1.39287,13,120.031,11,64.1262,0\H,17,1.07999,14,120.115,13,-0.805853,0\C,17,1.39957,14,119.998,13,179.7,0\H,19,1.08153,17,119.359,14,179.86,0\C,19,1.39574,17,120.421,14,0.233875,0\C,21,1.39975,19,119.126,17,-0.028693,0\H,22,1.08104,21,119.993,19,-179.664,0\C,21,1.50149,19,119.933,17,179.527,0\H,24,1.08988,21,109.389,19,19.8429,0\H,24,1.09042,21,108.422,19,137.099,0\H,24,1.1,21,113.877,19,-101.441,0\\\@

 Total job time:  63780.84s(wall), 43465.63s(cpu) 
 Mon Sep 27 02:03:47 2021

        *************************************************************
        *                                                           *
        *  Thank you very much for using Q-Chem.  Have a nice day.  *
        *                                                           *
        *************************************************************


