
Running Job 1 of 1 SSI-121GLN-144ARG-1_SMD_TZVPD.in
qchem SSI-121GLN-144ARG-1_SMD_TZVPD.in_55510.0 /tmp/qchem55510/ 0
/global/common/cori/software/qchem/5.2/exe/qcprog.exe_s SSI-121GLN-144ARG-1_SMD_TZVPD.in_55510.0 /tmp/qchem55510/
                  Welcome to Q-Chem
     A Quantum Leap Into The Future Of Chemistry


 Q-Chem 5.2, Q-Chem, Inc., Pleasanton, CA (2019)

 License issued to: National Energy Research Scientific Computing Center

 Yihan Shao,  Zhengting Gan,  E. Epifanovsky,  A. T. B. Gilbert,  M. Wormit,  
 J. Kussmann,  A. W. Lange,  A. Behn,  Jia Deng,  Xintian Feng,  D. Ghosh,  
 M. Goldey,  P. R. Horn,  L. D. Jacobson,  I. Kaliman,  T. Kus,  A. Landau,  
 Jie Liu,  E. I. Proynov,  R. M. Richard,  R. P. Steele,  E. J. Sundstrom,  
 H. L. Woodcock III,  P. M. Zimmerman,  D. Zuev,  B. Albrecht,  E. Alguire,  
 S. A. Baeppler,  D. Barton,  Z. Benda,  Y. A. Bernard,  E. J. Berquist,  
 K. B. Bravaya,  H. Burton,  D. Casanova,  Chun-Min Chang,  Yunqing Chen,  
 A. Chien,  K. D. Closser,  M. P. Coons,  S. Coriani,  S. Dasgupta,  
 A. L. Dempwolff,  M. Diedenhofen,  Hainam Do,  R. G. Edgar,  Po-Tung Fang,  
 S. Faraji,  S. Fatehi,  Qingguo Feng,  K. D. Fenk,  J. Fosso-Tande,  
 J. Gayvert,  Qinghui Ge,  A. Ghysels,  G. Gidofalvi,  J. Gomes,  
 J. Gonthier,  A. Gunina,  D. Hait,  M. W. D. Hanson-Heine,  
 P. H. P. Harbach,  A. W. Hauser,  M. F. Herbst,  J. E. Herr,  
 E. G. Hohenstein,  Z. C. Holden,  Kerwin Hui,  B. C. Huynh,  T.-C. Jagau,  
 Hyunjun Ji,  B. Kaduk,  K. Khistyaev,  Jaehoon Kim,  P. Klunzinger,  K. Koh,  
 D. Kosenkov,  L. Koulias,  T. Kowalczyk,  C. M. Krauter,  A. Kunitsa,  
 Ka Un Lao,  A. Laurent,  K. V. Lawler,  Joonho Lee,  D. Lefrancois,  
 S. Lehtola,  D. S. Levine,  Yi-Pei Li,  You-Sheng Lin,  Fenglai Liu,  
 E. Livshits,  A. Luenser,  P. Manohar,  E. Mansoor,  S. F. Manzer,  
 Shan-Ping Mao,  Yuezhi Mao,  N. Mardirossian,  A. V. Marenich,  
 T. Markovich,  L. A. Martinez-Martinez,  S. A. Maurer,  N. J. Mayhall,  
 S. C. McKenzie,  J.-M. Mewes,  P. Morgante,  A. F. Morrison,  
 J. W. Mullinax,  K. Nanda,  T. S. Nguyen-Beck,  R. Olivares-Amaya,  
 J. A. Parkhill,  Zheng Pei,  T. M. Perrine,  F. Plasser,  P. Pokhilko,  
 S. Prager,  A. Prociuk,  E. Ramos,  D. R. Rehn,  F. Rob,  M. Scheurer,  
 M. Schneider,  N. Sergueev,  S. M. Sharada,  S. Sharma,  D. W. Small,  
 T. Stauch,  T. Stein,  Yu-Chuan Su,  A. J. W. Thom,  A. Tkatchenko,  
 T. Tsuchimochi,  N. M. Tubman,  L. Vogt,  M. L. Vidal,  O. Vydrov,  
 M. A. Watson,  J. Wenzel,  M. de Wergifosse,  T. A. Wesolowski,  A. White,  
 J. Witte,  A. Yamada,  Jun Yang,  K. Yao,  S. Yeganeh,  S. R. Yost,  
 Zhi-Qiang You,  A. Zech,  Igor Ying Zhang,  Xing Zhang,  Yan Zhao,  
 Ying Zhu,  B. R. Brooks,  G. K. L. Chan,  C. J. Cramer,  M. S. Gordon,  
 W. J. Hehre,  A. Klamt,  M. W. Schmidt,  C. D. Sherrill,  D. G. Truhlar,  
 A. Aspuru-Guzik,  R. Baer,  A. T. Bell,  N. A. Besley,  Jeng-Da Chai,  
 A. E. DePrince, III,  R. A. DiStasio Jr.,  A. Dreuw,  B. D. Dunietz,  
 T. R. Furlani,  Chao-Ping Hsu,  Yousung Jung,  Jing Kong,  D. S. Lambrecht,  
 WanZhen Liang,  C. Ochsenfeld,  V. A. Rassolov,  L. V. Slipchenko,  
 J. E. Subotnik,  T. Van Voorhis,  J. M. Herbert,  A. I. Krylov,  
 P. M. W. Gill,  M. Head-Gordon

 Contributors to earlier versions of Q-Chem not listed above: 
 R. D. Adamson,  B. Austin,  J. Baker,  G. J. O. Beran,  K. Brandhorst,  
 S. T. Brown,  E. F. C. Byrd,  A. K. Chakraborty,  C.-L. Cheng,  
 Siu Hung Chien,  D. M. Chipman,  D. L. Crittenden,  H. Dachsel,  
 R. J. Doerksen,  A. D. Dutoi,  L. Fusti-Molnar,  W. A. Goddard III,  
 A. Golubeva-Zadorozhnaya,  S. R. Gwaltney,  G. Hawkins,  A. Heyden,  
 S. Hirata,  G. Kedziora,  F. J. Keil,  C. Kelley,  Jihan Kim,  R. A. King,  
 R. Z. Khaliullin,  P. P. Korambath,  W. Kurlancheek,  A. M. Lee,  M. S. Lee,  
 S. V. Levchenko,  Ching Yeh Lin,  D. Liotard,  R. C. Lochan,  I. Lotan,  
 P. E. Maslen,  N. Nair,  D. P. O'Neill,  D. Neuhauser,  E. Neuscamman,  
 C. M. Oana,  R. Olson,  B. Peters,  R. Peverati,  P. A. Pieniazek,  
 Y. M. Rhee,  J. Ritchie,  M. A. Rohrdanz,  E. Rosta,  N. J. Russ,  
 H. F. Schaefer III,  N. E. Schultz,  N. Shenvi,  A. C. Simmonett,  A. Sodt,  
 D. Stuck,  K. S. Thanthiriwatte,  V. Vanovschi,  Tao Wang,  A. Warshel,  
 C. F. Williams,  Q. Wu,  X. Xu,  W. Zhang

 Please cite Q-Chem as follows:
 Y. Shao et al., Mol. Phys. 113, 184-215 (2015)
 DOI: 10.1080/00268976.2014.952696

 Q-Chem 5.2.0 for Intel X86 EM64T Linux

 Parts of Q-Chem use Armadillo 8.300.2 (Tropical Shenanigans).
 http://arma.sourceforge.net/

 Q-Chem begins on Sun Sep 26 14:03:33 2021  

Host: cori01
0

     Scratch files written to /tmp/qchem55510//
 May1019 |scratch|qcdevops|jenkins|workspace|build_RNUM -1
Processing $rem in /global/common/cori/software/qchem/5.2/config/preferences:
	 MEM_TOTAL  96000 
NAlpha2: 72
NElect   72
Mult     1
Symmetry turned off for PCM/SM12/SMD calculation

 Q-Chem warning in module libgen/rem_setup.C, line 2803:

 Neither GIA nor STOLL is specified by user. Use STOLL as the default


Checking the input file for inconsistencies... 	...done.

--------------------------------------------------------------
User input:
--------------------------------------------------------------
$comment
SSI-121GLN-144ARG-1.pdb
$end

$molecule
1 1
--
0 1
C    3.292281501170   -1.253220864049   -1.543190014630
C    2.204281501170   -0.240220864049   -1.842190014630
O    1.300281501170   -0.028220864049   -1.043190014630
N    2.282281501170    0.402779135951   -2.995190014630
H    3.804281501170   -0.881220864049   -0.661190014630
H    4.015281501170   -1.282220864049   -2.361190014630
H    1.566281501170    1.078779135951   -3.217190014630
H    3.026281501170    0.203779135951   -3.649190014630
H    2.900611501170   -2.268260864049   -1.381070014630
--
1 1
C   -3.470718498830    0.179779135951    2.582809985370
C   -1.397718498830    0.219779135951    1.232809985370
N   -0.099718498830    0.418779135951    1.168809985370
N   -2.028718498830    0.373779135951    2.384809985370
N   -2.063718498830   -0.126220864049    0.148809985370
H    0.415281501170    0.676779135951    2.003809985370
H    0.383281501170    0.319779135951    0.286809985370
H   -1.491718498830    0.721779135951    3.165809985370
H   -3.063718498830   -0.229220864049    0.177809985370
H   -1.580718498830   -0.198220864049   -0.732190014630
H   -4.028718498830    0.034779135951    1.656809985370
H   -3.860718498830    1.091779135951    3.039809985370
H   -3.664649498830   -0.650420864049    3.277909985370
$end

$rem
JOBTYPE			EDA
EDA2			1
method			wB97X-V
BASIS			def2-TZVPD
XC_GRID			000099000590
NL_GRID			1
UNRESTRICTED		FALSE
MAX_SCF_CYCLES		200
SYMMETRY		FALSE
SYM_IGNORE		TRUE
MEM_STATIC		2000
BASIS_LIN_DEP_THRESH 	6
THRESH 			14
SCF_CONVERGENCE 	8
SCF_PRINT_FRGM 		TRUE
SOLVENT_METHOD          SMD
$end

$SMX
SOLVENT			WATER
$END
--------------------------------------------------------------
 ----------------------------------------------------------------
             Standard Nuclear Orientation (Angstroms)
    I     Atom           X                Y                Z
 ----------------------------------------------------------------
    1      C       3.2922815012    -1.2532208640    -1.5431900146
    2      C       2.2042815012    -0.2402208640    -1.8421900146
    3      O       1.3002815012    -0.0282208640    -1.0431900146
    4      N       2.2822815012     0.4027791360    -2.9951900146
    5      H       3.8042815012    -0.8812208640    -0.6611900146
    6      H       4.0152815012    -1.2822208640    -2.3611900146
    7      H       1.5662815012     1.0787791360    -3.2171900146
    8      H       3.0262815012     0.2037791360    -3.6491900146
    9      H       2.9006115012    -2.2682608640    -1.3810700146
   10      C      -3.4707184988     0.1797791360     2.5828099854
   11      C      -1.3977184988     0.2197791360     1.2328099854
   12      N      -0.0997184988     0.4187791360     1.1688099854
   13      N      -2.0287184988     0.3737791360     2.3848099854
   14      N      -2.0637184988    -0.1262208640     0.1488099854
   15      H       0.4152815012     0.6767791360     2.0038099854
   16      H       0.3832815012     0.3197791360     0.2868099854
   17      H      -1.4917184988     0.7217791360     3.1658099854
   18      H      -3.0637184988    -0.2292208640     0.1778099854
   19      H      -1.5807184988    -0.1982208640    -0.7321900146
   20      H      -4.0287184988     0.0347791360     1.6568099854
   21      H      -3.8607184988     1.0917791360     3.0398099854
   22      H      -3.6646494988    -0.6504208640     3.2779099854
 ----------------------------------------------------------------
 Nuclear Repulsion Energy =         453.68126501 hartrees
 There are       36 alpha and       36 beta electrons
 Requested basis set is def2-TZVPD
 There are 183 shells and 453 basis functions

 Total QAlloc Memory Limit  96000 MB
 Mega-Array Size      1956 MB
 MEM_STATIC part      2000 MB
 
 Citation of the SMD model:
 Marenich, A.V.; Cramer, C.J.; Truhlar, D.G.
 J. Phys. Chem. B 2009, 113, 6378-6396.
 iSolventCode=           1
 Solvent: water                                                           
 
 vradii
            1           2           3           4           5           6
    1   1.8500000   1.8500000   1.5200000   1.8900000   1.2000000   1.2000000
            7           8           9          10          11          12
    1   1.2000000   1.2000000   1.2000000   1.8500000   1.8500000   1.8900000
           13          14          15          16          17          18
    1   1.8900000   1.8900000   1.2000000   1.2000000   1.2000000   1.2000000
           19          20          21          22
    1   1.2000000   1.2000000   1.2000000   1.2000000
 Changing PCM_VDW_RADII to SMD_RADIUS
 Discretize the solute cavity surface with Lebedev spheres
	Using 110 Lebedev grid points for each H atom
	Using 194 Lebedev grid points for other atoms
	Atomic van der Waals radii will be scaled by 1.20
 Remove points where switching function is < 1.0e-08
 Keep 1581 surface tesserae and discard 1595 interior tesserae
 Molecular Surface Area = 193.527 Angst**2
 A cutoff of  1.0D-14 yielded  14355 shell pairs
 There are     88113 function pairs (    109594 Cartesian)
 Smallest overlap matrix eigenvalue = 9.08E-06

 Scale SEOQF with 1.000000e-01/1.000000e-01/1.000000e-01

 Standard Electronic Orientation quadrupole field applied
 Nucleus-field energy     =    -0.0000000134 hartrees

 -----------------------------------------------------------------------
  General SCF calculation program by
  Eric Jon Sundstrom, Paul Horn, Yuezhi Mao, Dmitri Zuev, Alec White,
  David Stuck, Shaama M.S., Shane Yost, Joonho Lee, David Small,
  Daniel Levine, Susi Lehtola, Hugh Burton, Evgeny Epifanovsky
 -----------------------------------------------------------------------
================================================================
                 ALMO-EDA with the EDA2 driver                  
================================================================
 The second-generation ALMO-EDA (for DFT):                      
 P. R. Horn, Y. Mao and M. Head-Gordon, PCCP, 18, 23067 (2016)  
 Decomposition of the frozen energy:                            
 P. R. Horn, Y. Mao and M. Head-Gordon, JCP, 144, 114107 (2016) 
 FERF model for polarization:                                   
 P. R. Horn and M. Head-Gordon, JCP, 143, 114111 (2015)         
Using eda2 option set 1
Option set summary: Frozen orbital wavefunction, initial wavefunction decomposition, and nDQ polarization.
--------------------------------
Printing EDA Options
--------------------------------
eda_child_super_basis      0
fragmo_guess_mode          0
child_mp                   1
child_mp_orders            232
cls_elec                   1
cls_disp                   0
scfmi_mode                 1
scfmi_occs                 0
scfmi_virts                0
frz_relax                  0
frz_relax_method           0
dc_pen_start               0
dc_pen_conv                0
dc_pen_increment           0
dc_pen_steps               0
dc_pen_thresh_factor       0
dc_pen_pre_newton_thresh   0
frz_ortho_decomp           1
frz_ortho_decomp_conv      6
frgm_method                2
scfmi_freeze_ss            0
separate_rehyb             0
plot_diff_den              0
eda_nocv                   0
eda_vct_relax              1
disp_free_x                0
disp_free_c                0
eda_bsse                   0
eda_pct_a                  0
eda_covp                   0
--------------------------------
Attempting to make child job directory: /tmp/qchem55510//Frg1/
Attempting to make child job directory: /tmp/qchem55510//Frg2/
Creating input file /tmp/qchem55510/Frg1.input
using default PutDataFrgm: nothing
calling putenv with: QCSCRATCH=/tmp/qchem55510/ 
calling putenv with: QCLOCALSCR=/tmp/qchem55510/ 
Spawning Job For Fragment 0
                  Welcome to Q-Chem
     A Quantum Leap Into The Future Of Chemistry


 Q-Chem 5.2, Q-Chem, Inc., Pleasanton, CA (2019)

 License issued to: National Energy Research Scientific Computing Center

 Yihan Shao,  Zhengting Gan,  E. Epifanovsky,  A. T. B. Gilbert,  M. Wormit,  
 J. Kussmann,  A. W. Lange,  A. Behn,  Jia Deng,  Xintian Feng,  D. Ghosh,  
 M. Goldey,  P. R. Horn,  L. D. Jacobson,  I. Kaliman,  T. Kus,  A. Landau,  
 Jie Liu,  E. I. Proynov,  R. M. Richard,  R. P. Steele,  E. J. Sundstrom,  
 H. L. Woodcock III,  P. M. Zimmerman,  D. Zuev,  B. Albrecht,  E. Alguire,  
 S. A. Baeppler,  D. Barton,  Z. Benda,  Y. A. Bernard,  E. J. Berquist,  
 K. B. Bravaya,  H. Burton,  D. Casanova,  Chun-Min Chang,  Yunqing Chen,  
 A. Chien,  K. D. Closser,  M. P. Coons,  S. Coriani,  S. Dasgupta,  
 A. L. Dempwolff,  M. Diedenhofen,  Hainam Do,  R. G. Edgar,  Po-Tung Fang,  
 S. Faraji,  S. Fatehi,  Qingguo Feng,  K. D. Fenk,  J. Fosso-Tande,  
 J. Gayvert,  Qinghui Ge,  A. Ghysels,  G. Gidofalvi,  J. Gomes,  
 J. Gonthier,  A. Gunina,  D. Hait,  M. W. D. Hanson-Heine,  
 P. H. P. Harbach,  A. W. Hauser,  M. F. Herbst,  J. E. Herr,  
 E. G. Hohenstein,  Z. C. Holden,  Kerwin Hui,  B. C. Huynh,  T.-C. Jagau,  
 Hyunjun Ji,  B. Kaduk,  K. Khistyaev,  Jaehoon Kim,  P. Klunzinger,  K. Koh,  
 D. Kosenkov,  L. Koulias,  T. Kowalczyk,  C. M. Krauter,  A. Kunitsa,  
 Ka Un Lao,  A. Laurent,  K. V. Lawler,  Joonho Lee,  D. Lefrancois,  
 S. Lehtola,  D. S. Levine,  Yi-Pei Li,  You-Sheng Lin,  Fenglai Liu,  
 E. Livshits,  A. Luenser,  P. Manohar,  E. Mansoor,  S. F. Manzer,  
 Shan-Ping Mao,  Yuezhi Mao,  N. Mardirossian,  A. V. Marenich,  
 T. Markovich,  L. A. Martinez-Martinez,  S. A. Maurer,  N. J. Mayhall,  
 S. C. McKenzie,  J.-M. Mewes,  P. Morgante,  A. F. Morrison,  
 J. W. Mullinax,  K. Nanda,  T. S. Nguyen-Beck,  R. Olivares-Amaya,  
 J. A. Parkhill,  Zheng Pei,  T. M. Perrine,  F. Plasser,  P. Pokhilko,  
 S. Prager,  A. Prociuk,  E. Ramos,  D. R. Rehn,  F. Rob,  M. Scheurer,  
 M. Schneider,  N. Sergueev,  S. M. Sharada,  S. Sharma,  D. W. Small,  
 T. Stauch,  T. Stein,  Yu-Chuan Su,  A. J. W. Thom,  A. Tkatchenko,  
 T. Tsuchimochi,  N. M. Tubman,  L. Vogt,  M. L. Vidal,  O. Vydrov,  
 M. A. Watson,  J. Wenzel,  M. de Wergifosse,  T. A. Wesolowski,  A. White,  
 J. Witte,  A. Yamada,  Jun Yang,  K. Yao,  S. Yeganeh,  S. R. Yost,  
 Zhi-Qiang You,  A. Zech,  Igor Ying Zhang,  Xing Zhang,  Yan Zhao,  
 Ying Zhu,  B. R. Brooks,  G. K. L. Chan,  C. J. Cramer,  M. S. Gordon,  
 W. J. Hehre,  A. Klamt,  M. W. Schmidt,  C. D. Sherrill,  D. G. Truhlar,  
 A. Aspuru-Guzik,  R. Baer,  A. T. Bell,  N. A. Besley,  Jeng-Da Chai,  
 A. E. DePrince, III,  R. A. DiStasio Jr.,  A. Dreuw,  B. D. Dunietz,  
 T. R. Furlani,  Chao-Ping Hsu,  Yousung Jung,  Jing Kong,  D. S. Lambrecht,  
 WanZhen Liang,  C. Ochsenfeld,  V. A. Rassolov,  L. V. Slipchenko,  
 J. E. Subotnik,  T. Van Voorhis,  J. M. Herbert,  A. I. Krylov,  
 P. M. W. Gill,  M. Head-Gordon

 Contributors to earlier versions of Q-Chem not listed above: 
 R. D. Adamson,  B. Austin,  J. Baker,  G. J. O. Beran,  K. Brandhorst,  
 S. T. Brown,  E. F. C. Byrd,  A. K. Chakraborty,  C.-L. Cheng,  
 Siu Hung Chien,  D. M. Chipman,  D. L. Crittenden,  H. Dachsel,  
 R. J. Doerksen,  A. D. Dutoi,  L. Fusti-Molnar,  W. A. Goddard III,  
 A. Golubeva-Zadorozhnaya,  S. R. Gwaltney,  G. Hawkins,  A. Heyden,  
 S. Hirata,  G. Kedziora,  F. J. Keil,  C. Kelley,  Jihan Kim,  R. A. King,  
 R. Z. Khaliullin,  P. P. Korambath,  W. Kurlancheek,  A. M. Lee,  M. S. Lee,  
 S. V. Levchenko,  Ching Yeh Lin,  D. Liotard,  R. C. Lochan,  I. Lotan,  
 P. E. Maslen,  N. Nair,  D. P. O'Neill,  D. Neuhauser,  E. Neuscamman,  
 C. M. Oana,  R. Olson,  B. Peters,  R. Peverati,  P. A. Pieniazek,  
 Y. M. Rhee,  J. Ritchie,  M. A. Rohrdanz,  E. Rosta,  N. J. Russ,  
 H. F. Schaefer III,  N. E. Schultz,  N. Shenvi,  A. C. Simmonett,  A. Sodt,  
 D. Stuck,  K. S. Thanthiriwatte,  V. Vanovschi,  Tao Wang,  A. Warshel,  
 C. F. Williams,  Q. Wu,  X. Xu,  W. Zhang

 Please cite Q-Chem as follows:
 Y. Shao et al., Mol. Phys. 113, 184-215 (2015)
 DOI: 10.1080/00268976.2014.952696

 Q-Chem 5.2.0 for Intel X86 EM64T Linux

 Parts of Q-Chem use Armadillo 8.300.2 (Tropical Shenanigans).
 http://arma.sourceforge.net/

 Q-Chem begins on Sun Sep 26 14:03:36 2021  

Host: cori01
0

     Scratch files written to /tmp/qchem55510//Frg1//
 May1019 |scratch|qcdevops|jenkins|workspace|build_RNUM -1
Processing $rem in /global/common/cori/software/qchem/5.2/config/preferences:
	 MEM_TOTAL  96000 
NAlpha2: 32
NElect   32
Mult     1
Symmetry turned off for PCM/SM12/SMD calculation

Checking the input file for inconsistencies... 	...done.

--------------------------------------------------------------
User input:
--------------------------------------------------------------
$molecule
0 1
 6	3.2922815012	-1.2532208640	-1.5431900146
 6	2.2042815012	-0.2402208640	-1.8421900146
 8	1.3002815012	-0.0282208640	-1.0431900146
 7	2.2822815012	0.4027791360	-2.9951900146
 1	3.8042815012	-0.8812208640	-0.6611900146
 1	4.0152815012	-1.2822208640	-2.3611900146
 1	1.5662815012	1.0787791360	-3.2171900146
 1	3.0262815012	0.2037791360	-3.6491900146
 1	2.9006115012	-2.2682608640	-1.3810700146
$end
$rem
EDA2		1
METHOD		WB97X-V
BASIS		DEF2-TZVPD
XC_GRID		000099000590
NL_GRID		1
UNRESTRICTED		FALSE
MAX_SCF_CYCLES		200
SYMMETRY		FALSE
SYM_IGNORE		TRUE
BASIS_LIN_DEP_THRESH		6
THRESH		14
SCF_CONVERGENCE		8
SCF_PRINT_FRGM		TRUE
SOLVENT_METHOD		SMD
!required keywords
JOBTYPE		SP
SYM_IGNORE		TRUE
SUBSYSTEM		TRUE
GEN_SCFMAN		TRUE
CHILD_INSTRUCTION		2
SYM_IGNORE		TRUE
SCFMI		0
RI_K 0		
PARI_K 0		
MIN_PARI_K 0		
IARI_K 0		
OCC_RI_K 0		
PURECART		1111
MEM_STATIC		2000
MEM_TOTAL		96000
GUI		0
CHILD_MP		1
CHILD_MP_ORDERS		232
FRZ_RELAX		0
FRZ_RELAX_METHOD		0
EDA_CLS_ELEC		1
EDA_CLS_DISP		0
FRZ_ORTHO_DECOMP		1
EDA2		FALSE
FRGM_METHOD		FALSE
CIS_N_ROOTS  0
LOCAL_CIS    0
CIS_RLX_DNS  1
$end
$smx
SOLVENT			WATER
$end
--------------------------------------------------------------
 ----------------------------------------------------------------
             Standard Nuclear Orientation (Angstroms)
    I     Atom           X                Y                Z
 ----------------------------------------------------------------
    1      C       3.2922815012    -1.2532208640    -1.5431900146
    2      C       2.2042815012    -0.2402208640    -1.8421900146
    3      O       1.3002815012    -0.0282208640    -1.0431900146
    4      N       2.2822815012     0.4027791360    -2.9951900146
    5      H       3.8042815012    -0.8812208640    -0.6611900146
    6      H       4.0152815012    -1.2822208640    -2.3611900146
    7      H       1.5662815012     1.0787791360    -3.2171900146
    8      H       3.0262815012     0.2037791360    -3.6491900146
    9      H       2.9006115012    -2.2682608640    -1.3810700146
 ----------------------------------------------------------------
 Nuclear Repulsion Energy =         122.52729039 hartrees
 There are       16 alpha and       16 beta electrons
 Requested basis set is def2-TZVPD
 There are 78 shells and 196 basis functions

 Total QAlloc Memory Limit  96000 MB
 Mega-Array Size      1956 MB
 MEM_STATIC part      2000 MB
 
 Citation of the SMD model:
 Marenich, A.V.; Cramer, C.J.; Truhlar, D.G.
 J. Phys. Chem. B 2009, 113, 6378-6396.
 iSolventCode=           1
 Solvent: water                                                           
 
 vradii
            1           2           3           4           5           6
    1   1.8500000   1.8500000   1.5200000   1.8900000   1.2000000   1.2000000
            7           8           9
    1   1.2000000   1.2000000   1.2000000
 Changing PCM_VDW_RADII to SMD_RADIUS
 Discretize the solute cavity surface with Lebedev spheres
	Using 110 Lebedev grid points for each H atom
	Using 194 Lebedev grid points for other atoms
	Atomic van der Waals radii will be scaled by 1.20
 Remove points where switching function is < 1.0e-08
 Keep 722 surface tesserae and discard 604 interior tesserae
 Molecular Surface Area = 89.956 Angst**2

                       Distance Matrix (Angstroms)
             C (  1)   C (  2)   O (  3)   N (  4)   H (  5)   H (  6)
   C (  2)  1.516349
   O (  3)  2.391378  1.224974
   N (  4)  2.422961  1.322476  2.227193
   H (  5)  1.085565  2.089412  2.672742  3.068012
   H (  6)  1.092105  2.152869  3.268159  2.498894  1.759353
   H (  7)  3.349564  2.009336  2.454074  1.009414  3.922165  3.507800
   H (  8)  2.574654  2.034224  3.134348  1.010373  3.272713  2.201195
   H (  9)  1.099997  2.193275  2.773625  3.181536  1.805194  1.781965
             H (  7)   H (  8)
   H (  8)  1.756089
   H (  9)  4.044064  3.357252
 
 A cutoff of  1.0D-14 yielded   3053 shell pairs
 There are     19543 function pairs (     24701 Cartesian)
 Smallest overlap matrix eigenvalue = 1.11E-05

 Scale SEOQF with 1.000000e-01/1.000000e-01/1.000000e-01

 Standard Electronic Orientation quadrupole field applied
 Nucleus-field energy     =    -0.0000000064 hartrees
 Guess from superposition of atomic densities
 Warning:  Energy on first SCF cycle will be non-variational
 SAD guess density has 31.604610 electrons

 -----------------------------------------------------------------------
  General SCF calculation program by
  Eric Jon Sundstrom, Paul Horn, Yuezhi Mao, Dmitri Zuev, Alec White,
  David Stuck, Shaama M.S., Shane Yost, Joonho Lee, David Small,
  Daniel Levine, Susi Lehtola, Hugh Burton, Evgeny Epifanovsky
 -----------------------------------------------------------------------
 Exchange:     0.1670 Hartree-Fock + 1.0000 wB97X-V + LR-HF
 Correlation:  1.0000 wB97X-V
 Using Euler-Maclaurin-Lebedev (99,590) quadrature formula
 Nonlocal Correlation:  VV10 with C = 0.0100 and b = 6.00 and scale = 1.00000
 Grid used for NLC:  SG-1 standard quadrature
Energy prior to optimization (guess energy) = -208.706130981121
Begin Timing: Total SCF Calculation
begin iterations for algorithm: DIIS         
the SCF tolerance is set to 1.00e-08
    1    -208.7061309811      1.25e-02     00000 
    2    -208.3499005822      1.52e-02     00000 
    3    -209.2372109391      2.32e-03     00000 
    4    -209.2552186326      7.62e-04     00000 
    5    -209.2582214703      1.98e-04     00000 
    6    -209.2584890935      6.71e-05     00000 
    7    -209.2585298812      2.02e-05     00000 
    8    -209.2585349064      5.78e-06     00000 
    9    -209.2585356369      1.94e-06     00000 
   10    -209.2585356849      3.55e-07     00000 
   11    -209.2585356862      1.45e-07     00000 
   12    -209.2585356864      2.04e-08     00000 
   13    -209.2585356864      4.69e-09     00000 Convergence criterion met
Timing for Total SCF: 350.00s (wall), 694.03s (cpu)
(3)  G-ENP(liq) elect-nuc-pol free energy of system     -209.258535686 a.u.
(4)  G-CDS(liq) cavity-dispersion-solvent structure 
     free energy                                                3.5389 kcal/mol
(6)  G-S(liq) free energy of system                     -209.252896014 a.u.
E_pcm = -0.0300649312
E_cds = 0.0056396721
Multipole orders to be included
        2
        3
computing dipole RHS
computing quadrupole RHS
total number of RHS in solve_reponses: 8
RHS batch sizes
        8
Beginning Block Conjugate Gradient Iterations. Batch Number: 0
computing hessian-vector products by finite difference
              1      6.26e-01     00000 Conjugate Gradient Iteration
computing hessian-vector products by finite difference
              2      2.04e-01     00000 Conjugate Gradient Iteration
computing hessian-vector products by finite difference
              3      5.69e-02     00000 Conjugate Gradient Iteration
computing hessian-vector products by finite difference
              4      1.43e-02     00000 Conjugate Gradient Iteration
computing hessian-vector products by finite difference
              5      1.90e-03     00000 Conjugate Gradient Iteration
computing hessian-vector products by finite difference
              6      4.22e-04     00000 Conjugate Gradient Iteration
computing hessian-vector products by finite difference
              7      5.56e-05     00000 Conjugate Gradient Iteration
computing hessian-vector products by finite difference
              8      6.14e-06     00000 Conjugate Gradient Iteration
computing hessian-vector products by finite difference
              9      8.38e-07     00000 Conjugate Gradient Iteration
computing hessian-vector products by finite difference
             10      8.80e-08     00000 Conjugate Gradient Iteration
computing hessian-vector products by finite difference
             11      1.15e-08     00000 Conjugate Gradient Iteration
computing hessian-vector products by finite difference
             12      3.97e-09     00000 CG Converged
batch 0 complete
Done Calculating Responses
TESTING ORTHOGONALIZATION OF MULTIPOLE BASIS
Multipole virts passed orthogonality test
Virts Per Order
        48
        80
 
 --------------------------------------------------------------
 
                    Orbital Energies (a.u.)
 --------------------------------------------------------------
 
 Alpha MOs
 -- Occupied --
-19.1820 -14.4271 -10.3764 -10.2626  -1.1784  -1.0422  -0.8631  -0.7079
 -0.6523  -0.5917  -0.5668  -0.5203  -0.4950  -0.4799  -0.3839  -0.3753
 -- Virtual --
  0.0651   0.0966   0.0971   0.1033   0.1328   0.1344   0.1376   0.1518
  0.1815   0.1917   0.1929   0.2152   0.2304   0.2500   0.2536   0.2649
  0.2673   0.2792   0.3030   0.3147   0.3339   0.3396   0.3462   0.3561
  0.3610   0.3654   0.3774   0.3808   0.3859   0.4017   0.4167   0.4291
  0.4374   0.4627   0.4650   0.4768   0.4814   0.4930   0.5058   0.5111
  0.5147   0.5347   0.5622   0.5659   0.5844   0.5932   0.6160   0.6346
  0.6393   0.6500   0.6688   0.6965   0.7102   0.7244   0.7372   0.7666
  0.7761   0.7808   0.7958   0.8105   0.8279   0.8365   0.8554   0.8869
  0.9134   0.9596   0.9659   1.0004   1.0195   1.0300   1.0617   1.1058
  1.1216   1.1746   1.2253   1.2403   1.2957   1.3170   1.3306   1.3966
  1.4761   1.4954   1.5344   1.6131   1.6899   1.7325   1.7415   1.8064
  1.8531   1.8799   1.8815   1.9236   1.9327   1.9610   1.9786   2.0540
  2.0587   2.0815   2.1274   2.1667   2.2026   2.2353   2.3149   2.3799
  2.4212   2.4463   2.4701   2.4910   2.5161   2.5564   2.6164   2.6342
  2.6429   2.6946   2.7960   2.8122   2.8576   2.8994   2.9502   2.9773
  3.0770   3.1098   3.1270   3.1674   3.2044   3.2171   3.2679   3.3085
  3.3172   3.3439   3.3992   3.4198   3.4652   3.5042   3.5362   3.5528
  3.5948   3.6862   3.6986   3.8266   3.8603   3.9464   4.0254   4.0435
  4.0771   4.2183   4.3314   4.4225   4.4536   4.6194   4.6589   4.6675
  4.7776   4.8963   4.9047   4.9303   5.1439   5.1778   5.2590   5.3532
  5.3892   5.4014   5.4141   5.4997   5.5428   5.7706   5.9249   6.1598
  6.2503   6.5320   6.6352   6.7428   6.8439   6.9620   7.2198   7.3228
 22.5963  23.6037  32.4140  44.2872
 --------------------------------------------------------------
 
          Ground-State Mulliken Net Atomic Charges

     Atom                 Charge (a.u.)
  ----------------------------------------
      1 C                    -0.610823
      2 C                     0.424187
      3 O                    -0.693405
      4 N                    -0.294463
      5 H                     0.203724
      6 H                     0.236421
      7 H                     0.241759
      8 H                     0.249803
      9 H                     0.242798
  ----------------------------------------
  Sum of atomic charges =     0.000000

 -----------------------------------------------------------------
                    Cartesian Multipole Moments
 -----------------------------------------------------------------
    Charge (ESU x 10^10)
                 0.0000
    Dipole Moment (Debye)
         X       3.7949      Y      -0.1649      Z      -4.5640
       Tot       5.9379
    Quadrupole Moments (Debye-Ang)
        XX      -8.6696     XY      -2.2804     YY     -22.3082
        XZ     -15.0152     YZ      -1.6002     ZZ      -5.7453
    Octopole Moments (Debye-Ang^2)
       XXX    -117.7747    XXY      -1.2555    XYY     -53.4506
       YYY      21.6723    XXZ      -1.7491    XYZ       1.5838
       YYZ      40.1892    XZZ      -4.5291    YZZ      18.2071
       ZZZ      69.1189
    Hexadecapole Moments (Debye-Ang^3)
      XXXX    -747.7326   XXXY      54.5722   XXYY    -167.2507
      XYYY      77.7209   YYYY    -105.7568   XXXZ     176.8381
      XXYZ       6.1937   XYYZ     101.5793   YYYZ     -24.1928
      XXZZ     -96.6051   XYZZ      35.8842   YYZZ    -109.7200
      XZZZ     138.9348   YZZZ     -68.2011   ZZZZ    -384.0904
 -----------------------------------------------------------------
Archival summary:
1\1\nid00556\SP\ProcedureUnspecified\BasisUnspecified\1125\meili\SunSep2615:43:112021SunSep2615:43:112021\0\\#,ProcedureUnspecified,BasisUnspecified,\\0,1\C\O,1,1.22497\N,1,1.32248,2,121.874\H,3,1.00941,1,118.393,2,-0.614717,0\H,3,1.01037,1,120.797,2,-178.95,0\C,1,1.51635,2,121.098,3,179.649,0\H,6,1.08557,1,105.646,2,-62.5194,0\H,6,1.09211,1,110.185,2,-178.68,0\H,6,1.1,1,112.957,2,59.4595,0\\\@

 Total job time:  5975.09s(wall), 11828.23s(cpu) 
 Sun Sep 26 15:43:11 2021

        *************************************************************
        *                                                           *
        *  Thank you very much for using Q-Chem.  Have a nice day.  *
        *                                                           *
        *************************************************************


Done Job For Fragment 0
calling putenv with: QCSCRATCH=/global/cscratch1/sd/meili 
calling putenv with: QCLOCALSCR=/tmp 
calling putenv with: QCTHREADS=32 
Creating input file /tmp/qchem55510/Frg2.input
using default PutDataFrgm: nothing
calling putenv with: QCSCRATCH=/tmp/qchem55510/ 
calling putenv with: QCLOCALSCR=/tmp/qchem55510/ 
Spawning Job For Fragment 1
                  Welcome to Q-Chem
     A Quantum Leap Into The Future Of Chemistry


 Q-Chem 5.2, Q-Chem, Inc., Pleasanton, CA (2019)

 License issued to: National Energy Research Scientific Computing Center

 Yihan Shao,  Zhengting Gan,  E. Epifanovsky,  A. T. B. Gilbert,  M. Wormit,  
 J. Kussmann,  A. W. Lange,  A. Behn,  Jia Deng,  Xintian Feng,  D. Ghosh,  
 M. Goldey,  P. R. Horn,  L. D. Jacobson,  I. Kaliman,  T. Kus,  A. Landau,  
 Jie Liu,  E. I. Proynov,  R. M. Richard,  R. P. Steele,  E. J. Sundstrom,  
 H. L. Woodcock III,  P. M. Zimmerman,  D. Zuev,  B. Albrecht,  E. Alguire,  
 S. A. Baeppler,  D. Barton,  Z. Benda,  Y. A. Bernard,  E. J. Berquist,  
 K. B. Bravaya,  H. Burton,  D. Casanova,  Chun-Min Chang,  Yunqing Chen,  
 A. Chien,  K. D. Closser,  M. P. Coons,  S. Coriani,  S. Dasgupta,  
 A. L. Dempwolff,  M. Diedenhofen,  Hainam Do,  R. G. Edgar,  Po-Tung Fang,  
 S. Faraji,  S. Fatehi,  Qingguo Feng,  K. D. Fenk,  J. Fosso-Tande,  
 J. Gayvert,  Qinghui Ge,  A. Ghysels,  G. Gidofalvi,  J. Gomes,  
 J. Gonthier,  A. Gunina,  D. Hait,  M. W. D. Hanson-Heine,  
 P. H. P. Harbach,  A. W. Hauser,  M. F. Herbst,  J. E. Herr,  
 E. G. Hohenstein,  Z. C. Holden,  Kerwin Hui,  B. C. Huynh,  T.-C. Jagau,  
 Hyunjun Ji,  B. Kaduk,  K. Khistyaev,  Jaehoon Kim,  P. Klunzinger,  K. Koh,  
 D. Kosenkov,  L. Koulias,  T. Kowalczyk,  C. M. Krauter,  A. Kunitsa,  
 Ka Un Lao,  A. Laurent,  K. V. Lawler,  Joonho Lee,  D. Lefrancois,  
 S. Lehtola,  D. S. Levine,  Yi-Pei Li,  You-Sheng Lin,  Fenglai Liu,  
 E. Livshits,  A. Luenser,  P. Manohar,  E. Mansoor,  S. F. Manzer,  
 Shan-Ping Mao,  Yuezhi Mao,  N. Mardirossian,  A. V. Marenich,  
 T. Markovich,  L. A. Martinez-Martinez,  S. A. Maurer,  N. J. Mayhall,  
 S. C. McKenzie,  J.-M. Mewes,  P. Morgante,  A. F. Morrison,  
 J. W. Mullinax,  K. Nanda,  T. S. Nguyen-Beck,  R. Olivares-Amaya,  
 J. A. Parkhill,  Zheng Pei,  T. M. Perrine,  F. Plasser,  P. Pokhilko,  
 S. Prager,  A. Prociuk,  E. Ramos,  D. R. Rehn,  F. Rob,  M. Scheurer,  
 M. Schneider,  N. Sergueev,  S. M. Sharada,  S. Sharma,  D. W. Small,  
 T. Stauch,  T. Stein,  Yu-Chuan Su,  A. J. W. Thom,  A. Tkatchenko,  
 T. Tsuchimochi,  N. M. Tubman,  L. Vogt,  M. L. Vidal,  O. Vydrov,  
 M. A. Watson,  J. Wenzel,  M. de Wergifosse,  T. A. Wesolowski,  A. White,  
 J. Witte,  A. Yamada,  Jun Yang,  K. Yao,  S. Yeganeh,  S. R. Yost,  
 Zhi-Qiang You,  A. Zech,  Igor Ying Zhang,  Xing Zhang,  Yan Zhao,  
 Ying Zhu,  B. R. Brooks,  G. K. L. Chan,  C. J. Cramer,  M. S. Gordon,  
 W. J. Hehre,  A. Klamt,  M. W. Schmidt,  C. D. Sherrill,  D. G. Truhlar,  
 A. Aspuru-Guzik,  R. Baer,  A. T. Bell,  N. A. Besley,  Jeng-Da Chai,  
 A. E. DePrince, III,  R. A. DiStasio Jr.,  A. Dreuw,  B. D. Dunietz,  
 T. R. Furlani,  Chao-Ping Hsu,  Yousung Jung,  Jing Kong,  D. S. Lambrecht,  
 WanZhen Liang,  C. Ochsenfeld,  V. A. Rassolov,  L. V. Slipchenko,  
 J. E. Subotnik,  T. Van Voorhis,  J. M. Herbert,  A. I. Krylov,  
 P. M. W. Gill,  M. Head-Gordon

 Contributors to earlier versions of Q-Chem not listed above: 
 R. D. Adamson,  B. Austin,  J. Baker,  G. J. O. Beran,  K. Brandhorst,  
 S. T. Brown,  E. F. C. Byrd,  A. K. Chakraborty,  C.-L. Cheng,  
 Siu Hung Chien,  D. M. Chipman,  D. L. Crittenden,  H. Dachsel,  
 R. J. Doerksen,  A. D. Dutoi,  L. Fusti-Molnar,  W. A. Goddard III,  
 A. Golubeva-Zadorozhnaya,  S. R. Gwaltney,  G. Hawkins,  A. Heyden,  
 S. Hirata,  G. Kedziora,  F. J. Keil,  C. Kelley,  Jihan Kim,  R. A. King,  
 R. Z. Khaliullin,  P. P. Korambath,  W. Kurlancheek,  A. M. Lee,  M. S. Lee,  
 S. V. Levchenko,  Ching Yeh Lin,  D. Liotard,  R. C. Lochan,  I. Lotan,  
 P. E. Maslen,  N. Nair,  D. P. O'Neill,  D. Neuhauser,  E. Neuscamman,  
 C. M. Oana,  R. Olson,  B. Peters,  R. Peverati,  P. A. Pieniazek,  
 Y. M. Rhee,  J. Ritchie,  M. A. Rohrdanz,  E. Rosta,  N. J. Russ,  
 H. F. Schaefer III,  N. E. Schultz,  N. Shenvi,  A. C. Simmonett,  A. Sodt,  
 D. Stuck,  K. S. Thanthiriwatte,  V. Vanovschi,  Tao Wang,  A. Warshel,  
 C. F. Williams,  Q. Wu,  X. Xu,  W. Zhang

 Please cite Q-Chem as follows:
 Y. Shao et al., Mol. Phys. 113, 184-215 (2015)
 DOI: 10.1080/00268976.2014.952696

 Q-Chem 5.2.0 for Intel X86 EM64T Linux

 Parts of Q-Chem use Armadillo 8.300.2 (Tropical Shenanigans).
 http://arma.sourceforge.net/

 Q-Chem begins on Sun Sep 26 15:43:12 2021  

Host: cori01
0

     Scratch files written to /tmp/qchem55510//Frg2//
 May1019 |scratch|qcdevops|jenkins|workspace|build_RNUM -1
Processing $rem in /global/common/cori/software/qchem/5.2/config/preferences:
	 MEM_TOTAL  96000 
NAlpha2: 40
NElect   40
Mult     1
Symmetry turned off for PCM/SM12/SMD calculation

Checking the input file for inconsistencies... 	...done.

--------------------------------------------------------------
User input:
--------------------------------------------------------------
$molecule
1 1
 6	-3.4707184988	0.1797791360	2.5828099854
 6	-1.3977184988	0.2197791360	1.2328099854
 7	-0.0997184988	0.4187791360	1.1688099854
 7	-2.0287184988	0.3737791360	2.3848099854
 7	-2.0637184988	-0.1262208640	0.1488099854
 1	0.4152815012	0.6767791360	2.0038099854
 1	0.3832815012	0.3197791360	0.2868099854
 1	-1.4917184988	0.7217791360	3.1658099854
 1	-3.0637184988	-0.2292208640	0.1778099854
 1	-1.5807184988	-0.1982208640	-0.7321900146
 1	-4.0287184988	0.0347791360	1.6568099854
 1	-3.8607184988	1.0917791360	3.0398099854
 1	-3.6646494988	-0.6504208640	3.2779099854
$end
$rem
EDA2		1
METHOD		WB97X-V
BASIS		DEF2-TZVPD
XC_GRID		000099000590
NL_GRID		1
UNRESTRICTED		FALSE
MAX_SCF_CYCLES		200
SYMMETRY		FALSE
SYM_IGNORE		TRUE
BASIS_LIN_DEP_THRESH		6
THRESH		14
SCF_CONVERGENCE		8
SCF_PRINT_FRGM		TRUE
SOLVENT_METHOD		SMD
!required keywords
JOBTYPE		SP
SYM_IGNORE		TRUE
SUBSYSTEM		TRUE
GEN_SCFMAN		TRUE
CHILD_INSTRUCTION		2
SYM_IGNORE		TRUE
SCFMI		0
RI_K 0		
PARI_K 0		
MIN_PARI_K 0		
IARI_K 0		
OCC_RI_K 0		
PURECART		1111
MEM_STATIC		2000
MEM_TOTAL		96000
GUI		0
CHILD_MP		1
CHILD_MP_ORDERS		232
FRZ_RELAX		0
FRZ_RELAX_METHOD		0
EDA_CLS_ELEC		1
EDA_CLS_DISP		0
FRZ_ORTHO_DECOMP		1
EDA2		FALSE
FRGM_METHOD		FALSE
CIS_N_ROOTS  0
LOCAL_CIS    0
CIS_RLX_DNS  1
$end
$smx
SOLVENT			WATER
$end
--------------------------------------------------------------
 ----------------------------------------------------------------
             Standard Nuclear Orientation (Angstroms)
    I     Atom           X                Y                Z
 ----------------------------------------------------------------
    1      C      -3.4707184988     0.1797791360     2.5828099854
    2      C      -1.3977184988     0.2197791360     1.2328099854
    3      N      -0.0997184988     0.4187791360     1.1688099854
    4      N      -2.0287184988     0.3737791360     2.3848099854
    5      N      -2.0637184988    -0.1262208640     0.1488099854
    6      H       0.4152815012     0.6767791360     2.0038099854
    7      H       0.3832815012     0.3197791360     0.2868099854
    8      H      -1.4917184988     0.7217791360     3.1658099854
    9      H      -3.0637184988    -0.2292208640     0.1778099854
   10      H      -1.5807184988    -0.1982208640    -0.7321900146
   11      H      -4.0287184988     0.0347791360     1.6568099854
   12      H      -3.8607184988     1.0917791360     3.0398099854
   13      H      -3.6646494988    -0.6504208640     3.2779099854
 ----------------------------------------------------------------
 Nuclear Repulsion Energy =         194.46325970 hartrees
 There are       20 alpha and       20 beta electrons
 Requested basis set is def2-TZVPD
 There are 105 shells and 257 basis functions

 Total QAlloc Memory Limit  96000 MB
 Mega-Array Size      1956 MB
 MEM_STATIC part      2000 MB
 
 Citation of the SMD model:
 Marenich, A.V.; Cramer, C.J.; Truhlar, D.G.
 J. Phys. Chem. B 2009, 113, 6378-6396.
 iSolventCode=           1
 Solvent: water                                                           
 
 vradii
            1           2           3           4           5           6
    1   1.8500000   1.8500000   1.8900000   1.8900000   1.8900000   1.2000000
            7           8           9          10          11          12
    1   1.2000000   1.2000000   1.2000000   1.2000000   1.2000000   1.2000000
           13
    1   1.2000000
 Changing PCM_VDW_RADII to SMD_RADIUS
 Discretize the solute cavity surface with Lebedev spheres
	Using 110 Lebedev grid points for each H atom
	Using 194 Lebedev grid points for other atoms
	Atomic van der Waals radii will be scaled by 1.20
 Remove points where switching function is < 1.0e-08
 Keep 903 surface tesserae and discard 947 interior tesserae
 Molecular Surface Area = 112.940 Angst**2

                       Distance Matrix (Angstroms)
             C (  1)   C (  2)   N (  3)   N (  4)   N (  5)   H (  6)
   C (  2)  2.474152
   N (  3)  3.663353  1.314725
   N (  4)  1.468402  1.322490  2.280728
   N (  5)  2.828010  1.318457  2.279193  2.291489
   H (  6)  3.960208  2.022439  1.014403  2.492008  3.198636
   H (  7)  4.488266  2.019128  1.010452  3.197228  2.491138  1.754013
   H (  8)  2.133095  1.999332  2.453056  1.009670  3.185683  2.233589
   H (  9)  2.473248  2.022420  3.191752  2.511112  1.005709  4.032190
   H ( 10)  3.834607  2.017285  2.487539  3.200559  1.007290  3.497905
   H ( 11)  1.090809  2.671360  3.977768  2.155204  2.482178  4.503522
   H ( 12)  1.092105  3.176791  4.254256  2.073831  3.615330  4.419242
   H ( 13)  1.100002  3.174690  4.277876  2.126707  3.553735  4.475559
             H (  7)   H (  8)   H (  9)   H ( 10)   H ( 11)   H ( 12)
   H (  8)  3.459172
   H (  9)  3.492147  3.507667
   H ( 10)  2.272439  4.006086  1.740216
   H ( 11)  4.628593  3.030746  1.785598  3.428457
   H ( 12)  5.117277  2.401028  3.251353  4.592438  1.748760
   H ( 13)  5.125789  2.572378  3.185773  4.541823  1.797223  1.769292

 
 A cutoff of  1.0D-14 yielded   5439 shell pairs
 There are     33169 function pairs (     41503 Cartesian)
 Smallest overlap matrix eigenvalue = 1.46E-05

 Scale SEOQF with 1.000000e-01/1.000000e-01/1.000000e-01

 Standard Electronic Orientation quadrupole field applied
 Nucleus-field energy     =    -0.0000000070 hartrees
 Guess from superposition of atomic densities
 Warning:  Energy on first SCF cycle will be non-variational
 SAD guess density has 40.388232 electrons

 -----------------------------------------------------------------------
  General SCF calculation program by
  Eric Jon Sundstrom, Paul Horn, Yuezhi Mao, Dmitri Zuev, Alec White,
  David Stuck, Shaama M.S., Shane Yost, Joonho Lee, David Small,
  Daniel Levine, Susi Lehtola, Hugh Burton, Evgeny Epifanovsky
 -----------------------------------------------------------------------
 Exchange:     0.1670 Hartree-Fock + 1.0000 wB97X-V + LR-HF
 Correlation:  1.0000 wB97X-V
 Using Euler-Maclaurin-Lebedev (99,590) quadrature formula
 Nonlocal Correlation:  VV10 with C = 0.0100 and b = 6.00 and scale = 1.00000
 Grid used for NLC:  SG-1 standard quadrature
Energy prior to optimization (guess energy) = -244.722639532056
Begin Timing: Total SCF Calculation
begin iterations for algorithm: DIIS         
the SCF tolerance is set to 1.00e-08
    1    -244.7226395321      7.93e-03     00000 
    2    -244.9638205591      6.22e-03     00000 
    3    -245.2028121828      3.24e-04     00000 
    4    -245.2037549704      1.67e-04     00000 
    5    -245.2039765355      4.57e-05     00000 
    6    -245.2039948123      1.92e-05     00000 
    7    -245.2039978641      3.34e-06     00000 
    8    -245.2039980564      9.08e-07     00000 
    9    -245.2039980687      3.81e-07     00000 
   10    -245.2039980710      9.40e-08     00000 
   11    -245.2039980712      4.29e-08     00000 
   12    -245.2039980713      1.58e-08     00000 
   13    -245.2039980713      2.23e-09     00000 Convergence criterion met
Timing for Total SCF: 751.00s (wall), 1491.54s (cpu)
(3)  G-ENP(liq) elect-nuc-pol free energy of system     -245.203998071 a.u.
(4)  G-CDS(liq) cavity-dispersion-solvent structure 
     free energy                                                2.8202 kcal/mol
(6)  G-S(liq) free energy of system                     -245.199503820 a.u.
E_pcm = -0.1087106601
E_cds = 0.0044942511
Multipole orders to be included
        2
        3
computing dipole RHS
computing quadrupole RHS
total number of RHS in solve_reponses: 8
RHS batch sizes
        8
Beginning Block Conjugate Gradient Iterations. Batch Number: 0
computing hessian-vector products by finite difference
              1      4.90e-01     00000 Conjugate Gradient Iteration
computing hessian-vector products by finite difference
              2      1.89e-01     00000 Conjugate Gradient Iteration
computing hessian-vector products by finite difference
              3      5.09e-02     00000 Conjugate Gradient Iteration
computing hessian-vector products by finite difference
              4      1.35e-02     00000 Conjugate Gradient Iteration
computing hessian-vector products by finite difference
              5      1.92e-03     00000 Conjugate Gradient Iteration
computing hessian-vector products by finite difference
              6      3.29e-04     00000 Conjugate Gradient Iteration
computing hessian-vector products by finite difference
              7      4.61e-05     00000 Conjugate Gradient Iteration
computing hessian-vector products by finite difference
              8      5.82e-06     00000 Conjugate Gradient Iteration
computing hessian-vector products by finite difference
              9      8.12e-07     00000 Conjugate Gradient Iteration
computing hessian-vector products by finite difference
             10      9.10e-08     00000 Conjugate Gradient Iteration
computing hessian-vector products by finite difference
             11      1.14e-08     00000 Conjugate Gradient Iteration
computing hessian-vector products by finite difference
             12      1.91e-09     00000 CG Converged
batch 0 complete
Done Calculating Responses
TESTING ORTHOGONALIZATION OF MULTIPOLE BASIS
Multipole virts passed orthogonality test
Virts Per Order
           60
          100
 
 --------------------------------------------------------------
 
                    Orbital Energies (a.u.)
 --------------------------------------------------------------
 
 Alpha MOs
 -- Occupied --
-14.4547 -14.4458 -14.4457 -10.4209 -10.3065  -1.1744  -1.0549  -1.0429
 -0.8535  -0.7651  -0.7247  -0.6888  -0.6149  -0.6126  -0.5946  -0.5701
 -0.5267  -0.5092  -0.3992  -0.3748
 -- Virtual --
  0.0587   0.0853   0.0987   0.1067   0.1230   0.1291   0.1389   0.1514
  0.1729   0.1830   0.1913   0.2016   0.2036   0.2139   0.2200   0.2359
  0.2414   0.2467   0.2494   0.2695   0.2844   0.2884   0.3052   0.3061
  0.3132   0.3198   0.3210   0.3244   0.3332   0.3493   0.3542   0.3611
  0.3633   0.3690   0.3781   0.3882   0.4139   0.4149   0.4258   0.4306
  0.4406   0.4451   0.4606   0.4737   0.4792   0.4862   0.4914   0.5005
  0.5148   0.5182   0.5213   0.5285   0.5364   0.5435   0.5474   0.5583
  0.5619   0.5792   0.5907   0.5918   0.6162   0.6246   0.6310   0.6570
  0.6593   0.6805   0.6956   0.7000   0.7091   0.7228   0.7473   0.7648
  0.8011   0.8043   0.8093   0.8244   0.8415   0.8472   0.8565   0.8743
  0.8828   0.8893   0.9101   0.9319   0.9487   0.9760   0.9987   1.0017
  1.0474   1.0640   1.0872   1.1018   1.1082   1.1205   1.1365   1.1494
  1.1704   1.1900   1.2225   1.2410   1.2789   1.3484   1.3917   1.4262
  1.4377   1.4499   1.4897   1.5035   1.5540   1.5731   1.6568   1.6735
  1.6878   1.6989   1.7442   1.7835   1.8069   1.8383   1.8825   1.8948
  1.9015   1.9166   1.9490   1.9911   1.9978   2.0190   2.0395   2.0573
  2.1049   2.1225   2.1896   2.2259   2.2408   2.2482   2.2653   2.2959
  2.3045   2.3712   2.3762   2.4053   2.4434   2.4789   2.5059   2.5540
  2.5740   2.5905   2.6168   2.6462   2.6663   2.6864   2.7082   2.7338
  2.7585   2.8233   2.8430   2.8772   2.8994   2.9291   2.9410   2.9881
  3.0547   3.1434   3.1527   3.1536   3.1883   3.1937   3.2311   3.2530
  3.2843   3.2967   3.3036   3.3249   3.3641   3.3832   3.4369   3.4477
  3.5192   3.5344   3.5637   3.5773   3.5914   3.6759   3.7393   3.7403
  3.8170   3.8762   3.9218   3.9994   4.0671   4.1507   4.2006   4.2228
  4.2892   4.3009   4.3298   4.3619   4.4217   4.5149   4.5947   4.6231
  4.6706   4.8279   4.8599   4.8707   4.9268   4.9953   5.0329   5.0465
  5.1224   5.1238   5.1420   5.1851   5.2137   5.2287   5.2791   5.3660
  5.4022   5.4146   5.4549   5.4583   5.5009   5.5169   5.5883   5.6507
  5.7164   5.7888   5.8163   5.9013   6.1587   6.1986   6.3898   6.4972
 22.6463  23.6716  32.3406  32.4513  32.8343
 --------------------------------------------------------------
 
          Ground-State Mulliken Net Atomic Charges

     Atom                 Charge (a.u.)
  ----------------------------------------
      1 C                    -0.768766
      2 C                     0.500718
      3 N                    -0.304812
      4 N                    -0.114432
      5 N                    -0.263683
      6 H                     0.251866
      7 H                     0.243439
      8 H                     0.262463
      9 H                     0.145692
     10 H                     0.242886
     11 H                     0.305151
     12 H                     0.260672
     13 H                     0.238807
  ----------------------------------------
  Sum of atomic charges =     1.000000

 -----------------------------------------------------------------
                    Cartesian Multipole Moments
 -----------------------------------------------------------------
    Charge (ESU x 10^10)
                 4.8032
    Dipole Moment (Debye)
         X      -7.2291      Y       1.4702      Z       6.2300
       Tot       9.6557
    Quadrupole Moments (Debye-Ang)
        XX      -4.4594     XY       0.0190     YY     -31.0097
        XZ     -10.7854     YZ       5.2262     ZZ      -8.1494
    Octopole Moments (Debye-Ang^2)
       XXX      85.0155    XXY      -5.4863    XYY      57.7906
       YYY     -19.2247    XXZ      -7.4665    XYZ      -4.8048
       YYZ     -43.4197    XZZ      19.8540    YZZ       8.0208
       ZZZ     -75.0546
    Hexadecapole Moments (Debye-Ang^3)
      XXXX    -633.8130   XXXY      25.3841   XXYY    -164.5520
      XYYY      23.6125   YYYY     -55.4232   XXXZ     178.0179
      XXYZ      -0.1911   XYYZ      97.0998   YYYZ     -38.6347
      XXZZ    -148.1801   XYZZ      -5.4950   YYZZ    -101.1631
      XZZZ     198.6443   YZZZ       4.2573   ZZZZ    -428.2639
 -----------------------------------------------------------------
Archival summary:
1\1\nid00556\SP\ProcedureUnspecified\BasisUnspecified\328(1+,1)\meili\SunSep2619:14:082021SunSep2619:14:082021\0\\#,ProcedureUnspecified,BasisUnspecified,\\1,1\C\N,1,1.31472\H,2,1.01045,1,119.972\H,2,1.0144,1,119.977,3,179.65,0\N,1,1.31846,2,119.895,3,0.906733,0\H,5,1.00571,1,120.36,2,-176.511,0\H,5,1.00729,1,119.712,2,-2.60004,0\N,1,1.32249,2,119.725,3,-178.806,0\H,8,1.00967,1,117.398,2,5.24475,0\C,8,1.4684,1,124.794,2,-179.94,0\H,10,1.09081,8,113.919,1,-8.60614,0\H,10,1.0921,8,107.265,1,-126.167,0\H,10,1.1,8,110.98,1,116.52,0\\\@

 Total job time:  12655.90s(wall), 25109.80s(cpu) 
 Sun Sep 26 19:14:08 2021

        *************************************************************
        *                                                           *
        *  Thank you very much for using Q-Chem.  Have a nice day.  *
        *                                                           *
        *************************************************************


Done Job For Fragment 1
calling putenv with: QCSCRATCH=/global/cscratch1/sd/meili 
calling putenv with: QCLOCALSCR=/tmp 
calling putenv with: QCTHREADS=32 
Doing General SCFMI
 Exchange:     0.1670 Hartree-Fock + 1.0000 wB97X-V + LR-HF
 Correlation:  1.0000 wB97X-V
 Using Euler-Maclaurin-Lebedev (99,590) quadrature formula
 Nonlocal Correlation:  VV10 with C = 0.0100 and b = 6.00 and scale = 1.00000
 Grid used for NLC:  SG-1 standard quadrature
performing fock build before subrot guess so that all methods have access
Printing subrot_rss_gen Method Specification:
Occupied Subspace Method is 0
Virtual Subspace Method is 0
Energy of the unrelaxed supersystem initial determinant -454.354322169794
performing fock build before subrot guess so that all methods have access
Printing subrot_rss_gen Method Specification:
Occupied Subspace Method is 0
Virtual Subspace Method is 0
Energy of the unrelaxed supersystem initial determinant w/ solvent -454.454639265819
write pseudocanon occs and virts to disk
write pseudocanon orbital energies to disk
Tolerance of ortho_decomp_scf: 1.00e-06
GDM subspace size: 20
Beginning the Orthogonal Decomposition of the Initial Supersystem Wavefunction
    1    -454.2530666944      1.11e-01     ortho_decomp Preconditoned Steepest Descent
    2    -454.2670675582      2.17e-03     ortho_decomp BFGS Step
    3    -454.2671009666      2.06e-04     ortho_decomp BFGS Step
    4    -454.2671011021      9.47e-06     ortho_decomp BFGS Step
    5    -454.2671011026      3.48e-07     ortho_decomp 00000 Convergence criterion met
 Hartree-Fock
 Hartree-Fock
 Hartree-Fock
Doing General SCFMI
 Exchange:     0.1670 Hartree-Fock + 1.0000 wB97X-V + LR-HF
 Correlation:  1.0000 wB97X-V
 Using Euler-Maclaurin-Lebedev (99,590) quadrature formula
 Nonlocal Correlation:  VV10 with C = 0.0100 and b = 6.00 and scale = 1.00000
 Grid used for NLC:  SG-1 standard quadrature
performing fock build at end of subrot_r(subrot) constructor so that all methods have access
<S^2> of initial wavefunction before polarization iterations 0.0000000000
Beginning iterations for the determination of the polarized wavefunction
Energy prior to optimization (guess energy) = -454.454639265819
Begin Timing: Total SCF Calculation
begin iterations for algorithm: DIIS         
the SCF tolerance is set to 1.00e-08
    1    -454.4546392658      2.20e-04     00000 
    2    -454.4569654590      8.03e-05     00000 
    3    -454.4572257917      4.67e-05     00000 
    4    -454.4573072626      1.53e-05     00000 
    5    -454.4573216215      7.33e-06     00000 
    6    -454.4573251236      2.48e-06     00000 
    7    -454.4573255619      7.42e-07     00000 
    8    -454.4573255851      3.47e-07     00000 
    9    -454.4573255888      8.54e-08     00000 
   10    -454.4573255892      4.65e-08     00000 
   11    -454.4573255893      1.50e-08     00000 
   12    -454.4573255893      5.19e-09     00000 Convergence criterion met
write pseudocanon occs and virts to disk
write pseudocanon orbital energies to disk
Timing for Total SCF: 2804.00s (wall), 5577.87s (cpu)
<S^2> of polarized wavefunction after polarization iterations 0.0000000000
relaxing scfmi constraint to allow all rotations in the entire AO span
Doing General SCFMI
 Exchange:     0.1670 Hartree-Fock + 1.0000 wB97X-V + LR-HF
 Correlation:  1.0000 wB97X-V
 Using Euler-Maclaurin-Lebedev (99,590) quadrature formula
 Nonlocal Correlation:  VV10 with C = 0.0100 and b = 6.00 and scale = 1.00000
 Grid used for NLC:  SG-1 standard quadrature
performing fock build at end of subrot_r(subrot) constructor so that all methods have access
<S^2> of polarized wavefunction before ct-allowed iterations 0.0000000000
Beginning iterations for the determination of the CT-Allowed wavefunction
Energy prior to optimization (guess energy) = -454.457325589269
Begin Timing: Total SCF Calculation
begin iterations for algorithm: DIIS         
the SCF tolerance is set to 1.00e-08
    1    -454.4573255893      2.42e-04     00000 
    2    -454.4638660268      3.76e-05     00000 
    3    -454.4640924650      1.72e-05     00000 
    4    -454.4641106201      7.52e-06     00000 
    5    -454.4641153400      1.34e-06     00000 
    6    -454.4641155145      4.35e-07     00000 
    7    -454.4641155416      1.41e-07     00000 
    8    -454.4641155444      4.93e-08     00000 
    9    -454.4641155449      1.45e-08     00000 
   10    -454.4641155450      6.84e-09     00000 Convergence criterion met
write pseudocanon occs and virts to disk
write pseudocanon orbital energies to disk
Timing for Total SCF: 2240.00s (wall), 4459.21s (cpu)
<S^2> of ct_allowed wavefunction after ct-allowed iterations 0.0000000000

================================
        Results of EDA2         
================================
Basic EDA Quantities
--------------------
Fragment Energies (Ha):
1 -209.2528960142
2 -245.1995038202
--------------------
  E_prp (kJ/mol) = 0.0000
  E_sol (kJ/mol) = 96.6788
  E_frz (kJ/mol) = -80.2467
  E_pol (kJ/mol) = -7.0530
  E_vct (kJ/mol) = -17.8272
  E_int (kJ/mol) = -8.4482
--------------------


Initial Wavefunction Decomposition
--------------------
  --------------------
  Orthogonal Fragment Subspace Decomposition:
  --------------------
     E_elec   (ELEC)   (kJ/mol) = -189.0909
     E_pauli  (PAULI)  (kJ/mol) = 123.7734
     E_disp   (DISP)   (kJ/mol) = -14.9292
     --------------------
     Terms summing to E_pauli:
     --------------------
        E_kep_pauli       (kJ/mol) = 148.7549
        E_disp_free_pauli (kJ/mol) = -24.9815
  --------------------
  Classical Frozen Decomposition:
  --------------------
     E_cls_elec  (CLS ELEC)  (kJ/mol) = -148.3111
     E_cls_pauli (CLS PAULI) (kJ/mol) = 68.0644
    [E_mod_pauli (MOD PAULI) (kJ/mol) = 82.9936 (CLS PAULI - DISP from orthogonal decomposition) ]
  --------------------
--------------------

Simplified EDA Summary (kJ/mol)
--------------------
 PREPARATION     0.0000
 SOLVATION       96.6788
 FROZEN          -65.3175      (does not include dispersion)
[PAULI           123.7734]     (if this is negligible, then frozen describes electrostatics)
 DISPERSION      -14.9292
 POLARIZATION    -7.0530
 CHARGE TRANSFER -17.8272
 TOTAL           -8.4482     (PRP + SOL + FRZ + DISP + POL + CT)
--------------------
 
 --------------------------------------------------------------
 
                    Orbital Energies (a.u.)
 --------------------------------------------------------------
 
 Alpha MOs
 -- Occupied --
-19.1919 -14.4504 -14.4420 -14.4329 -14.4277 -10.4140 -10.3857 -10.3048
-10.2660  -1.1897  -1.1679  -1.0515  -1.0479  -1.0348  -0.8676  -0.8501
 -0.7610  -0.7207  -0.7189  -0.6864  -0.6563  -0.6234  -0.6083  -0.5903
 -0.5891  -0.5734  -0.5642  -0.5238  -0.5190  -0.5066  -0.4979  -0.4851
 -0.3952  -0.3916  -0.3856  -0.3683
 -- Virtual --
  0.0560   0.0721   0.0860   0.0925   0.0942   0.1061   0.1099   0.1190
  0.1248   0.1298   0.1349   0.1446   0.1525   0.1555   0.1645   0.1737
  0.1826   0.1876   0.1950   0.2008   0.2052   0.2093   0.2154   0.2214
  0.2227   0.2364   0.2387   0.2433   0.2509   0.2531   0.2563   0.2668
  0.2717   0.2813   0.2842   0.2879   0.2935   0.3060   0.3094   0.3117
  0.3150   0.3176   0.3216   0.3297   0.3332   0.3348   0.3357   0.3414
  0.3448   0.3518   0.3545   0.3595   0.3641   0.3655   0.3688   0.3746
  0.3800   0.3830   0.3866   0.3950   0.3991   0.4063   0.4082   0.4162
  0.4170   0.4198   0.4297   0.4402   0.4440   0.4551   0.4626   0.4629
  0.4688   0.4773   0.4816   0.4843   0.4863   0.4946   0.4981   0.5007
  0.5015   0.5083   0.5137   0.5204   0.5230   0.5289   0.5322   0.5357
  0.5436   0.5470   0.5518   0.5565   0.5625   0.5673   0.5745   0.5828
  0.5875   0.5894   0.6018   0.6103   0.6129   0.6218   0.6254   0.6366
  0.6434   0.6487   0.6561   0.6609   0.6658   0.6704   0.6835   0.6886
  0.6931   0.7020   0.7069   0.7104   0.7269   0.7362   0.7440   0.7540
  0.7592   0.7645   0.7699   0.7820   0.7865   0.7930   0.8022   0.8063
  0.8161   0.8291   0.8309   0.8390   0.8458   0.8536   0.8546   0.8582
  0.8785   0.8853   0.8891   0.8945   0.9028   0.9216   0.9237   0.9308
  0.9416   0.9464   0.9606   0.9766   0.9864   1.0041   1.0088   1.0242
  1.0285   1.0450   1.0545   1.0718   1.0909   1.1100   1.1168   1.1288
  1.1363   1.1432   1.1553   1.1648   1.1713   1.1849   1.1910   1.2029
  1.2139   1.2199   1.2362   1.2405   1.2593   1.2698   1.2759   1.3209
  1.3441   1.3506   1.3643   1.3906   1.4084   1.4412   1.4547   1.4576
  1.4755   1.4991   1.5091   1.5179   1.5316   1.5489   1.5863   1.6201
  1.6375   1.6620   1.6762   1.7022   1.7132   1.7353   1.7399   1.7519
  1.7904   1.8081   1.8255   1.8335   1.8588   1.8797   1.8898   1.8966
  1.8987   1.9142   1.9201   1.9286   1.9540   1.9699   1.9768   1.9871
  2.0086   2.0127   2.0148   2.0372   2.0499   2.0684   2.0888   2.0970
  2.1087   2.1254   2.1340   2.1407   2.1487   2.2154   2.2244   2.2397
  2.2420   2.2696   2.2760   2.2922   2.3219   2.3327   2.3715   2.3879
  2.4193   2.4239   2.4366   2.4476   2.4521   2.4752   2.4927   2.4995
  2.5077   2.5150   2.5461   2.5745   2.5848   2.6149   2.6159   2.6200
  2.6441   2.6557   2.6617   2.6752   2.6950   2.7003   2.7166   2.7284
  2.7497   2.7865   2.8027   2.8174   2.8370   2.8515   2.8707   2.8959
  2.8998   2.9232   2.9291   2.9641   2.9821   2.9896   3.0045   3.0141
  3.0902   3.1126   3.1310   3.1448   3.1606   3.1785   3.1868   3.2027
  3.2202   3.2293   3.2491   3.2589   3.2784   3.2933   3.3006   3.3025
  3.3097   3.3206   3.3329   3.3403   3.3494   3.3752   3.3827   3.4074
  3.4204   3.4453   3.4615   3.4681   3.4943   3.5197   3.5308   3.5537
  3.5551   3.5812   3.6019   3.6074   3.6366   3.7033   3.7046   3.7181
  3.7496   3.7555   3.7918   3.8249   3.8451   3.8709   3.8983   3.9355
  3.9605   4.0246   4.0394   4.0473   4.0940   4.0986   4.1683   4.2181
  4.2304   4.2532   4.3135   4.3200   4.3627   4.3648   4.3770   4.4269
  4.4365   4.4592   4.5264   4.6028   4.6307   4.6387   4.6646   4.6807
  4.7116   4.8396   4.8624   4.8797   4.9031   4.9047   4.9097   4.9539
  4.9624   5.0462   5.0556   5.0704   5.1359   5.1487   5.1674   5.1782
  5.1843   5.2057   5.2233   5.2605   5.2615   5.3428   5.3681   5.3936
  5.3981   5.4138   5.4284   5.4382   5.4528   5.4705   5.4941   5.5097
  5.5195   5.5495   5.5795   5.6089   5.7030   5.7428   5.7685   5.8109
  5.8338   5.9222   5.9432   6.1691   6.1878   6.2037   6.3356   6.4429
  6.5158   6.6645   6.7124   6.7708   6.8638   7.0075   7.2328   7.5247
 22.6220  22.6534  23.6512  23.7062  32.3989  32.4291  32.5601  32.9247
 44.4610
 --------------------------------------------------------------
 
          Ground-State Mulliken Net Atomic Charges

     Atom                 Charge (a.u.)
  ----------------------------------------
      1 C                    -0.633855
      2 C                     0.381712
      3 O                    -0.746785
      4 N                    -0.300582
      5 H                     0.209993
      6 H                     0.248930
      7 H                     0.242562
      8 H                     0.249586
      9 H                     0.255267
     10 C                    -0.794789
     11 C                     0.536477
     12 N                    -0.217896
     13 N                    -0.119227
     14 N                    -0.237691
     15 H                     0.223685
     16 H                     0.286490
     17 H                     0.269867
     18 H                     0.126945
     19 H                     0.195453
     20 H                     0.315055
     21 H                     0.266043
     22 H                     0.242761
  ----------------------------------------
  Sum of atomic charges =     1.000000

 -----------------------------------------------------------------
                    Cartesian Multipole Moments
 -----------------------------------------------------------------
    Charge (ESU x 10^10)
                 4.8032
    Dipole Moment (Debye)
         X      -2.6888      Y       1.1843      Z       0.9116
       Tot       3.0762
    Quadrupole Moments (Debye-Ang)
        XX     -12.6890     XY      -2.3837     YY     -53.1992
        XZ     -26.2400     YZ       3.4311     ZZ     -13.6967
    Octopole Moments (Debye-Ang^2)
       XXX     -25.1686    XXY      -7.5336    XYY       5.4508
       YYY       2.0134    XXZ     -13.6425    XYZ      -3.0016
       YYZ      -4.1659    XZZ      19.6460    YZZ      25.9940
       ZZZ     -12.4478
    Hexadecapole Moments (Debye-Ang^3)
      XXXX   -1376.5001   XXXY      77.3373   XXYY    -330.1651
      XYYY     100.5184   YYYY    -160.4868   XXXZ     351.8122
      XXYZ       6.3120   XYYZ     197.7564   YYYZ     -62.9958
      XXZZ    -241.9711   XYZZ      30.8164   YYZZ    -210.4405
      XZZZ     332.9959   YZZZ     -65.8175   ZZZZ    -806.7541
 -----------------------------------------------------------------
Archival summary:
1\1\nid00556\SP\ProcedureUnspecified\BasisUnspecified\14413(1+,1)\meili\SunSep2621:41:072021SunSep2621:41:072021\0\\#,ProcedureUnspecified,BasisUnspecified,\\1,1\O\C,1,1.22497\N,2,1.32248,1,121.874\H,3,1.00941,2,118.393,1,-0.614717,0\H,3,1.01037,2,120.797,1,-178.95,0\C,2,1.51635,1,121.098,3,179.649,0\H,6,1.08557,2,105.646,1,-62.5194,0\H,6,1.09211,2,110.185,1,-178.68,0\H,6,1.1,2,112.957,1,59.4595,0\H,1,1.65254,2,166.144,3,-125.93,0\N,10,1.01045,1,171.26,2,-55.5734,0\H,11,1.0144,10,120.049,1,62.5642,0\C,11,1.31472,10,119.972,1,-117.786,0\N,13,1.31846,11,119.895,10,0.906733,0\H,14,1.00571,13,120.36,11,-176.511,0\H,14,1.00729,13,119.712,11,-2.60004,0\N,13,1.32249,11,119.725,10,-178.806,0\H,17,1.00967,13,117.398,11,5.24475,0\C,17,1.4684,13,124.794,11,-179.94,0\H,19,1.09081,17,113.919,13,-8.60614,0\H,19,1.0921,17,107.265,13,-126.167,0\H,19,1.1,17,110.98,13,116.52,0\\\@

 Total job time:  27455.13s(wall), 17564.83s(cpu) 
 Sun Sep 26 21:41:08 2021

        *************************************************************
        *                                                           *
        *  Thank you very much for using Q-Chem.  Have a nice day.  *
        *                                                           *
        *************************************************************


