                  Welcome to Q-Chem
     A Quantum Leap Into The Future Of Chemistry


 Q-Chem 5.2 (devel), Q-Chem, Inc., Pleasanton, CA (2019)

 Yihan Shao,  Zhengting Gan,  E. Epifanovsky,  A. T. B. Gilbert,  M. Wormit,  
 J. Kussmann,  A. W. Lange,  A. Behn,  Jia Deng,  Xintian Feng,  D. Ghosh,  
 M. Goldey,  P. R. Horn,  L. D. Jacobson,  I. Kaliman,  T. Kus,  A. Landau,  
 Jie Liu,  E. I. Proynov,  R. M. Richard,  R. P. Steele,  E. J. Sundstrom,  
 H. L. Woodcock III,  P. M. Zimmerman,  D. Zuev,  B. Albrecht,  E. Alguire,  
 S. A. Baeppler,  D. Barton,  Z. Benda,  Y. A. Bernard,  E. J. Berquist,  
 K. B. Bravaya,  H. Burton,  D. Casanova,  Chun-Min Chang,  Yunqing Chen,  
 A. Chien,  K. D. Closser,  M. P. Coons,  S. Coriani,  S. Dasgupta,  
 A. L. Dempwolff,  M. Diedenhofen,  Hainam Do,  R. G. Edgar,  Po-Tung Fang,  
 S. Faraji,  S. Fatehi,  Qingguo Feng,  K. D. Fenk,  J. Fosso-Tande,  
 J. Gayvert,  Qinghui Ge,  A. Ghysels,  G. Gidofalvi,  J. Gomes,  
 J. Gonthier,  A. Gunina,  D. Hait,  M. W. D. Hanson-Heine,  
 P. H. P. Harbach,  A. W. Hauser,  M. F. Herbst,  J. E. Herr,  
 E. G. Hohenstein,  Z. C. Holden,  Kerwin Hui,  B. C. Huynh,  T.-C. Jagau,  
 Hyunjun Ji,  B. Kaduk,  K. Khistyaev,  Jaehoon Kim,  P. Klunzinger,  K. Koh,  
 D. Kosenkov,  L. Koulias,  T. Kowalczyk,  C. M. Krauter,  A. Kunitsa,  
 Ka Un Lao,  A. Laurent,  K. V. Lawler,  Joonho Lee,  D. Lefrancois,  
 S. Lehtola,  D. S. Levine,  Yi-Pei Li,  You-Sheng Lin,  Fenglai Liu,  
 E. Livshits,  A. Luenser,  P. Manohar,  E. Mansoor,  S. F. Manzer,  
 Shan-Ping Mao,  Yuezhi Mao,  N. Mardirossian,  A. V. Marenich,  
 T. Markovich,  L. A. Martinez-Martinez,  S. A. Maurer,  N. J. Mayhall,  
 S. C. McKenzie,  J.-M. Mewes,  P. Morgante,  A. F. Morrison,  
 J. W. Mullinax,  K. Nanda,  T. S. Nguyen-Beck,  R. Olivares-Amaya,  
 J. A. Parkhill,  Zheng Pei,  T. M. Perrine,  F. Plasser,  P. Pokhilko,  
 S. Prager,  A. Prociuk,  E. Ramos,  D. R. Rehn,  F. Rob,  M. Scheurer,  
 M. Schneider,  N. Sergueev,  S. M. Sharada,  S. Sharma,  D. W. Small,  
 T. Stauch,  T. Stein,  Yu-Chuan Su,  A. J. W. Thom,  A. Tkatchenko,  
 T. Tsuchimochi,  N. M. Tubman,  L. Vogt,  M. L. Vidal,  O. Vydrov,  
 M. A. Watson,  J. Wenzel,  M. de Wergifosse,  T. A. Wesolowski,  A. White,  
 J. Witte,  A. Yamada,  Jun Yang,  K. Yao,  S. Yeganeh,  S. R. Yost,  
 Zhi-Qiang You,  A. Zech,  Igor Ying Zhang,  Xing Zhang,  Yan Zhao,  
 Ying Zhu,  B. R. Brooks,  G. K. L. Chan,  C. J. Cramer,  M. S. Gordon,  
 W. J. Hehre,  A. Klamt,  M. W. Schmidt,  C. D. Sherrill,  D. G. Truhlar,  
 A. Aspuru-Guzik,  R. Baer,  A. T. Bell,  N. A. Besley,  Jeng-Da Chai,  
 A. E. DePrince, III,  R. A. DiStasio Jr.,  A. Dreuw,  B. D. Dunietz,  
 T. R. Furlani,  Chao-Ping Hsu,  Yousung Jung,  Jing Kong,  D. S. Lambrecht,  
 WanZhen Liang,  C. Ochsenfeld,  V. A. Rassolov,  L. V. Slipchenko,  
 J. E. Subotnik,  T. Van Voorhis,  J. M. Herbert,  A. I. Krylov,  
 P. M. W. Gill,  M. Head-Gordon

 Contributors to earlier versions of Q-Chem not listed above: 
 R. D. Adamson,  B. Austin,  J. Baker,  G. J. O. Beran,  K. Brandhorst,  
 S. T. Brown,  E. F. C. Byrd,  A. K. Chakraborty,  C.-L. Cheng,  
 Siu Hung Chien,  D. M. Chipman,  D. L. Crittenden,  H. Dachsel,  
 R. J. Doerksen,  A. D. Dutoi,  L. Fusti-Molnar,  W. A. Goddard III,  
 A. Golubeva-Zadorozhnaya,  S. R. Gwaltney,  G. Hawkins,  A. Heyden,  
 S. Hirata,  G. Kedziora,  F. J. Keil,  C. Kelley,  Jihan Kim,  R. A. King,  
 R. Z. Khaliullin,  P. P. Korambath,  W. Kurlancheek,  A. M. Lee,  M. S. Lee,  
 S. V. Levchenko,  Ching Yeh Lin,  D. Liotard,  R. C. Lochan,  I. Lotan,  
 P. E. Maslen,  N. Nair,  D. P. O'Neill,  D. Neuhauser,  E. Neuscamman,  
 C. M. Oana,  R. Olson,  B. Peters,  R. Peverati,  P. A. Pieniazek,  
 Y. M. Rhee,  J. Ritchie,  M. A. Rohrdanz,  E. Rosta,  N. J. Russ,  
 H. F. Schaefer III,  N. E. Schultz,  N. Shenvi,  A. C. Simmonett,  A. Sodt,  
 D. Stuck,  K. S. Thanthiriwatte,  V. Vanovschi,  Tao Wang,  A. Warshel,  
 C. F. Williams,  Q. Wu,  X. Xu,  W. Zhang

 Please cite Q-Chem as follows:
 Y. Shao et al., Mol. Phys. 113, 184-215 (2015)
 DOI: 10.1080/00268976.2014.952696

 Q-Chem 5.2.1 for Intel X86 EM64T Linux

 Parts of Q-Chem use Armadillo 8.300.2 (Tropical Shenanigans).
 http://arma.sourceforge.net/

 Q-Chem begins on Wed Sep 29 20:44:15 2021  

compute-0-5.local
Host: 0

     Scratch files written to /home/meili/scratch/qchem18554//
NAlpha2: 116
NElect   116
Mult     1
Symmetry turned off for PCM/SM12/SMD calculation

 Q-Chem warning in module libgen/rem_setup.C, line 2813:

 Neither GIA nor STOLL is specified by user. Use STOLL as the default


Checking the input file for inconsistencies... 	...done.

--------------------------------------------------------------
User input:
--------------------------------------------------------------
$comment
SSI-083TYR-094TYR-1.pdb
$end

$molecule
0 1
--
0 1
C    3.852501632569    1.900218618048    1.201725044281
C    1.549501632569    0.322218618048   -1.394274955719
C    2.348501632569    0.500218618048   -0.265274955719
C    1.381501632569    1.371218618048   -2.298274955719
C    3.008501632569    1.708218618048   -0.035274955719
C    2.029501632569    2.587218618048   -2.081274955719
C    2.829501632569    2.753218618048   -0.944274955719
O    0.589501632569    1.193218618048   -3.394274955719
H    1.078501632569   -0.630781381952   -1.575274955719
H    2.449501632569   -0.314781381952    0.437725044281
H    0.158501632569    0.332218618048   -3.396274955719
H    1.902501632569    3.396218618048   -2.786274955719
H    3.346501632569    1.398218618048    2.022725044281
H    3.907501632569    2.956218618048    1.448725044281
H    3.323501632569    3.700218618048   -0.780274955719
H    4.877124932569    1.505191618048    1.137685044281
--
0 1
C   -0.812498367431   -1.093781381952    3.745725044281
C   -1.472498367431   -1.287781381952    0.000725044281
C   -2.794498367431   -1.726781381952   -0.026274955719
C   -0.835498367431   -1.082781381952    1.224725044281
C   -1.511498367431   -1.306781381952    2.428725044281
C   -3.479498367431   -1.966781381952    1.166725044281
C   -2.836498367431   -1.757781381952    2.387725044281
O   -3.420498367431   -1.944781381952   -1.221274955719
H   -0.961498367431   -1.107781381952   -0.930274955719
H    0.193501632569   -0.749781381952    1.243725044281
H   -4.505498367431   -2.305781381952    1.147725044281
H   -4.337498367431   -2.217781381952   -1.104274955719
H   -1.521498367431   -0.694781381952    4.473725044281
H   -0.032498367431   -0.344781381952    3.602725044281
H   -3.372498367431   -1.935781381952    3.310725044281
H   -0.356988367431   -2.013410381952    4.141696044281
$end

$rem
JOBTYPE			EDA
EDA2			1
method			wB97X-V
BASIS			def2-TZVPD
XC_GRID			000099000590
NL_GRID			1
UNRESTRICTED		FALSE
MAX_SCF_CYCLES		200
SYMMETRY		FALSE
SYM_IGNORE		TRUE
MEM_STATIC		2000
BASIS_LIN_DEP_THRESH 	6
THRESH 			14
SCF_CONVERGENCE 	8
SCF_PRINT_FRGM 		TRUE
SOLVENT_METHOD          PCM
$end

$PCM
THEORY                  CPCM
METHOD                  SWIG
SOLVER                  INVERSION
RADII                   UFF
HPOINTS                 302
HEAVYPOINTS             302
PRINTLEVEL              0
$END

$SOLVENT
DIELECTRIC              78.390000 ! water
$END
--------------------------------------------------------------
 ----------------------------------------------------------------
             Standard Nuclear Orientation (Angstroms)
    I     Atom           X                Y                Z
 ----------------------------------------------------------------
    1      C       3.8525016326     1.9002186180     1.2017250443
    2      C       1.5495016326     0.3222186180    -1.3942749557
    3      C       2.3485016326     0.5002186180    -0.2652749557
    4      C       1.3815016326     1.3712186180    -2.2982749557
    5      C       3.0085016326     1.7082186180    -0.0352749557
    6      C       2.0295016326     2.5872186180    -2.0812749557
    7      C       2.8295016326     2.7532186180    -0.9442749557
    8      O       0.5895016326     1.1932186180    -3.3942749557
    9      H       1.0785016326    -0.6307813820    -1.5752749557
   10      H       2.4495016326    -0.3147813820     0.4377250443
   11      H       0.1585016326     0.3322186180    -3.3962749557
   12      H       1.9025016326     3.3962186180    -2.7862749557
   13      H       3.3465016326     1.3982186180     2.0227250443
   14      H       3.9075016326     2.9562186180     1.4487250443
   15      H       3.3235016326     3.7002186180    -0.7802749557
   16      H       4.8771249326     1.5051916180     1.1376850443
   17      C      -0.8124983674    -1.0937813820     3.7457250443
   18      C      -1.4724983674    -1.2877813820     0.0007250443
   19      C      -2.7944983674    -1.7267813820    -0.0262749557
   20      C      -0.8354983674    -1.0827813820     1.2247250443
   21      C      -1.5114983674    -1.3067813820     2.4287250443
   22      C      -3.4794983674    -1.9667813820     1.1667250443
   23      C      -2.8364983674    -1.7577813820     2.3877250443
   24      O      -3.4204983674    -1.9447813820    -1.2212749557
   25      H      -0.9614983674    -1.1077813820    -0.9302749557
   26      H       0.1935016326    -0.7497813820     1.2437250443
   27      H      -4.5054983674    -2.3057813820     1.1477250443
   28      H      -4.3374983674    -2.2177813820    -1.1042749557
   29      H      -1.5214983674    -0.6947813820     4.4737250443
   30      H      -0.0324983674    -0.3447813820     3.6027250443
   31      H      -3.3724983674    -1.9357813820     3.3107250443
   32      H      -0.3569883674    -2.0134103820     4.1416960443
 ----------------------------------------------------------------
 Nuclear Repulsion Energy =         977.53250505 hartrees
 There are       58 alpha and       58 beta electrons
 Requested basis set is def2-TZVPD
 There are 290 shells and 742 basis functions

 Total QAlloc Memory Limit   2000 MB
 Mega-Array Size      1956 MB
 MEM_STATIC part      2000 MB
 Discretize the solute cavity surface with Lebedev spheres
	Using 302 Lebedev grid points for each H atom
	Using 302 Lebedev grid points for other atoms
	Atomic van der Waals radii will be scaled by 1.20
 Remove points where switching function is < 1.0e-08
 Keep 3489 surface tesserae and discard 6175 interior tesserae
 Molecular Surface Area = 349.946 Angst**2
 A cutoff of  1.0D-14 yielded  34434 shell pairs
 There are    224244 function pairs (    282889 Cartesian)
 Smallest overlap matrix eigenvalue = 3.82E-07
 Linear dependence detected in AO basis
 Tighter screening thresholds may be required for diffuse basis sets
 Use S2THRESH > 14 and THRESH = 14 in case of SCF convergence issues
 Number of orthogonalized atomic orbitals = 738
 Maximum deviation from orthogonality = 2.472E-10

 Scale SEOQF with 1.000000e-01/1.000000e-01/1.000000e-01

 Standard Electronic Orientation quadrupole field applied

 -----------------------------------------------------------------------
  General SCF calculation program by
  Eric Jon Sundstrom, Paul Horn, Yuezhi Mao, Dmitri Zuev, Alec White,
  David Stuck, Shaama M.S., Shane Yost, Joonho Lee, David Small,
  Daniel Levine, Susi Lehtola, Hugh Burton, Evgeny Epifanovsky,
  Bang C. Huynh
 -----------------------------------------------------------------------
================================================================
                 ALMO-EDA with the EDA2 driver                  
================================================================
 The second-generation ALMO-EDA (for DFT):                      
 P. R. Horn, Y. Mao and M. Head-Gordon, PCCP, 18, 23067 (2016)  
 Decomposition of the frozen energy:                            
 P. R. Horn, Y. Mao and M. Head-Gordon, JCP, 144, 114107 (2016) 
 FERF model for polarization:                                   
 P. R. Horn and M. Head-Gordon, JCP, 143, 114111 (2015)         
Using eda2 option set 1
Option set summary: Frozen orbital wavefunction, initial wavefunction decomposition, and nDQ polarization.
--------------------------------
Printing EDA Options
--------------------------------
eda_child_super_basis      0
fragmo_guess_mode          0
child_mp                   1
child_mp_orders            232
cls_elec                   1
cls_disp                   0
scfmi_mode                 1
scfmi_occs                 0
scfmi_virts                0
frz_relax                  0
frz_relax_method           0
dc_pen_start               0
dc_pen_conv                0
dc_pen_increment           0
dc_pen_steps               0
dc_pen_thresh_factor       0
dc_pen_pre_newton_thresh   0
frz_ortho_decomp           1
frz_ortho_decomp_conv      6
frgm_method                2
scfmi_freeze_ss            0
separate_rehyb             0
plot_diff_den              0
eda_nocv                   0
eda_vct_relax              1
disp_free_x                0
disp_free_c                0
eda_bsse                   0
eda_pct_a                  0
eda_covp                   0
--------------------------------
Attempting to make child job directory: /home/meili/scratch/qchem18554//Frg1/
Attempting to make child job directory: /home/meili/scratch/qchem18554//Frg2/
Creating input file /home/meili/scratch/qchem18554/Frg1.input
using default PutDataFrgm: nothing
calling putenv with: QCSCRATCH=/home/meili/scratch/qchem18554/ 
Spawning Job For Fragment 0
                  Welcome to Q-Chem
     A Quantum Leap Into The Future Of Chemistry


 Q-Chem 5.2 (devel), Q-Chem, Inc., Pleasanton, CA (2019)

 Yihan Shao,  Zhengting Gan,  E. Epifanovsky,  A. T. B. Gilbert,  M. Wormit,  
 J. Kussmann,  A. W. Lange,  A. Behn,  Jia Deng,  Xintian Feng,  D. Ghosh,  
 M. Goldey,  P. R. Horn,  L. D. Jacobson,  I. Kaliman,  T. Kus,  A. Landau,  
 Jie Liu,  E. I. Proynov,  R. M. Richard,  R. P. Steele,  E. J. Sundstrom,  
 H. L. Woodcock III,  P. M. Zimmerman,  D. Zuev,  B. Albrecht,  E. Alguire,  
 S. A. Baeppler,  D. Barton,  Z. Benda,  Y. A. Bernard,  E. J. Berquist,  
 K. B. Bravaya,  H. Burton,  D. Casanova,  Chun-Min Chang,  Yunqing Chen,  
 A. Chien,  K. D. Closser,  M. P. Coons,  S. Coriani,  S. Dasgupta,  
 A. L. Dempwolff,  M. Diedenhofen,  Hainam Do,  R. G. Edgar,  Po-Tung Fang,  
 S. Faraji,  S. Fatehi,  Qingguo Feng,  K. D. Fenk,  J. Fosso-Tande,  
 J. Gayvert,  Qinghui Ge,  A. Ghysels,  G. Gidofalvi,  J. Gomes,  
 J. Gonthier,  A. Gunina,  D. Hait,  M. W. D. Hanson-Heine,  
 P. H. P. Harbach,  A. W. Hauser,  M. F. Herbst,  J. E. Herr,  
 E. G. Hohenstein,  Z. C. Holden,  Kerwin Hui,  B. C. Huynh,  T.-C. Jagau,  
 Hyunjun Ji,  B. Kaduk,  K. Khistyaev,  Jaehoon Kim,  P. Klunzinger,  K. Koh,  
 D. Kosenkov,  L. Koulias,  T. Kowalczyk,  C. M. Krauter,  A. Kunitsa,  
 Ka Un Lao,  A. Laurent,  K. V. Lawler,  Joonho Lee,  D. Lefrancois,  
 S. Lehtola,  D. S. Levine,  Yi-Pei Li,  You-Sheng Lin,  Fenglai Liu,  
 E. Livshits,  A. Luenser,  P. Manohar,  E. Mansoor,  S. F. Manzer,  
 Shan-Ping Mao,  Yuezhi Mao,  N. Mardirossian,  A. V. Marenich,  
 T. Markovich,  L. A. Martinez-Martinez,  S. A. Maurer,  N. J. Mayhall,  
 S. C. McKenzie,  J.-M. Mewes,  P. Morgante,  A. F. Morrison,  
 J. W. Mullinax,  K. Nanda,  T. S. Nguyen-Beck,  R. Olivares-Amaya,  
 J. A. Parkhill,  Zheng Pei,  T. M. Perrine,  F. Plasser,  P. Pokhilko,  
 S. Prager,  A. Prociuk,  E. Ramos,  D. R. Rehn,  F. Rob,  M. Scheurer,  
 M. Schneider,  N. Sergueev,  S. M. Sharada,  S. Sharma,  D. W. Small,  
 T. Stauch,  T. Stein,  Yu-Chuan Su,  A. J. W. Thom,  A. Tkatchenko,  
 T. Tsuchimochi,  N. M. Tubman,  L. Vogt,  M. L. Vidal,  O. Vydrov,  
 M. A. Watson,  J. Wenzel,  M. de Wergifosse,  T. A. Wesolowski,  A. White,  
 J. Witte,  A. Yamada,  Jun Yang,  K. Yao,  S. Yeganeh,  S. R. Yost,  
 Zhi-Qiang You,  A. Zech,  Igor Ying Zhang,  Xing Zhang,  Yan Zhao,  
 Ying Zhu,  B. R. Brooks,  G. K. L. Chan,  C. J. Cramer,  M. S. Gordon,  
 W. J. Hehre,  A. Klamt,  M. W. Schmidt,  C. D. Sherrill,  D. G. Truhlar,  
 A. Aspuru-Guzik,  R. Baer,  A. T. Bell,  N. A. Besley,  Jeng-Da Chai,  
 A. E. DePrince, III,  R. A. DiStasio Jr.,  A. Dreuw,  B. D. Dunietz,  
 T. R. Furlani,  Chao-Ping Hsu,  Yousung Jung,  Jing Kong,  D. S. Lambrecht,  
 WanZhen Liang,  C. Ochsenfeld,  V. A. Rassolov,  L. V. Slipchenko,  
 J. E. Subotnik,  T. Van Voorhis,  J. M. Herbert,  A. I. Krylov,  
 P. M. W. Gill,  M. Head-Gordon

 Contributors to earlier versions of Q-Chem not listed above: 
 R. D. Adamson,  B. Austin,  J. Baker,  G. J. O. Beran,  K. Brandhorst,  
 S. T. Brown,  E. F. C. Byrd,  A. K. Chakraborty,  C.-L. Cheng,  
 Siu Hung Chien,  D. M. Chipman,  D. L. Crittenden,  H. Dachsel,  
 R. J. Doerksen,  A. D. Dutoi,  L. Fusti-Molnar,  W. A. Goddard III,  
 A. Golubeva-Zadorozhnaya,  S. R. Gwaltney,  G. Hawkins,  A. Heyden,  
 S. Hirata,  G. Kedziora,  F. J. Keil,  C. Kelley,  Jihan Kim,  R. A. King,  
 R. Z. Khaliullin,  P. P. Korambath,  W. Kurlancheek,  A. M. Lee,  M. S. Lee,  
 S. V. Levchenko,  Ching Yeh Lin,  D. Liotard,  R. C. Lochan,  I. Lotan,  
 P. E. Maslen,  N. Nair,  D. P. O'Neill,  D. Neuhauser,  E. Neuscamman,  
 C. M. Oana,  R. Olson,  B. Peters,  R. Peverati,  P. A. Pieniazek,  
 Y. M. Rhee,  J. Ritchie,  M. A. Rohrdanz,  E. Rosta,  N. J. Russ,  
 H. F. Schaefer III,  N. E. Schultz,  N. Shenvi,  A. C. Simmonett,  A. Sodt,  
 D. Stuck,  K. S. Thanthiriwatte,  V. Vanovschi,  Tao Wang,  A. Warshel,  
 C. F. Williams,  Q. Wu,  X. Xu,  W. Zhang

 Please cite Q-Chem as follows:
 Y. Shao et al., Mol. Phys. 113, 184-215 (2015)
 DOI: 10.1080/00268976.2014.952696

 Q-Chem 5.2.1 for Intel X86 EM64T Linux

 Parts of Q-Chem use Armadillo 8.300.2 (Tropical Shenanigans).
 http://arma.sourceforge.net/

 Q-Chem begins on Wed Sep 29 20:44:23 2021  

compute-0-5.local
Host: 0

     Scratch files written to /home/meili/scratch/qchem18554//Frg1//
NAlpha2: 58
NElect   58
Mult     1
Symmetry turned off for PCM/SM12/SMD calculation

Checking the input file for inconsistencies... 	...done.

--------------------------------------------------------------
User input:
--------------------------------------------------------------
$molecule
0 1
 6	3.8525016326	1.9002186180	1.2017250443
 6	1.5495016326	0.3222186180	-1.3942749557
 6	2.3485016326	0.5002186180	-0.2652749557
 6	1.3815016326	1.3712186180	-2.2982749557
 6	3.0085016326	1.7082186180	-0.0352749557
 6	2.0295016326	2.5872186180	-2.0812749557
 6	2.8295016326	2.7532186180	-0.9442749557
 8	0.5895016326	1.1932186180	-3.3942749557
 1	1.0785016326	-0.6307813820	-1.5752749557
 1	2.4495016326	-0.3147813820	0.4377250443
 1	0.1585016326	0.3322186180	-3.3962749557
 1	1.9025016326	3.3962186180	-2.7862749557
 1	3.3465016326	1.3982186180	2.0227250443
 1	3.9075016326	2.9562186180	1.4487250443
 1	3.3235016326	3.7002186180	-0.7802749557
 1	4.8771249326	1.5051916180	1.1376850443
$end
$rem
EDA2		1
METHOD		WB97X-V
BASIS		DEF2-TZVPD
XC_GRID		000099000590
NL_GRID		1
UNRESTRICTED		FALSE
MAX_SCF_CYCLES		200
SYMMETRY		FALSE
SYM_IGNORE		TRUE
BASIS_LIN_DEP_THRESH		6
THRESH		14
SCF_CONVERGENCE		8
SCF_PRINT_FRGM		TRUE
SOLVENT_METHOD		PCM
!required keywords
JOBTYPE		SP
SYM_IGNORE		TRUE
SUBSYSTEM		TRUE
GEN_SCFMAN		TRUE
CHILD_INSTRUCTION		2
SYM_IGNORE		TRUE
SCFMI		0
RI_K 0		
PARI_K 0		
MIN_PARI_K 0		
IARI_K 0		
OCC_RI_K 0		
PURECART		1111
MEM_STATIC		2000
MEM_TOTAL		2000
GUI		0
CHILD_MP		1
CHILD_MP_ORDERS		232
FRZ_RELAX		0
FRZ_RELAX_METHOD		0
EDA_CLS_ELEC		1
EDA_CLS_DISP		0
FRZ_ORTHO_DECOMP		1
EDA2		FALSE
FRGM_METHOD		FALSE
CIS_N_ROOTS  0
LOCAL_CIS    0
CIS_RLX_DNS  1
$end
$pcm
THEORY                  CPCM
METHOD                  SWIG
SOLVER                  INVERSION
RADII                   UFF
HPOINTS                 302
HEAVYPOINTS             302
PRINTLEVEL              0
$end
$solvent
DIELECTRIC              78.390000 ! water
$end
--------------------------------------------------------------
 ----------------------------------------------------------------
             Standard Nuclear Orientation (Angstroms)
    I     Atom           X                Y                Z
 ----------------------------------------------------------------
    1      C       3.8525016326     1.9002186180     1.2017250443
    2      C       1.5495016326     0.3222186180    -1.3942749557
    3      C       2.3485016326     0.5002186180    -0.2652749557
    4      C       1.3815016326     1.3712186180    -2.2982749557
    5      C       3.0085016326     1.7082186180    -0.0352749557
    6      C       2.0295016326     2.5872186180    -2.0812749557
    7      C       2.8295016326     2.7532186180    -0.9442749557
    8      O       0.5895016326     1.1932186180    -3.3942749557
    9      H       1.0785016326    -0.6307813820    -1.5752749557
   10      H       2.4495016326    -0.3147813820     0.4377250443
   11      H       0.1585016326     0.3322186180    -3.3962749557
   12      H       1.9025016326     3.3962186180    -2.7862749557
   13      H       3.3465016326     1.3982186180     2.0227250443
   14      H       3.9075016326     2.9562186180     1.4487250443
   15      H       3.3235016326     3.7002186180    -0.7802749557
   16      H       4.8771249326     1.5051916180     1.1376850443
 ----------------------------------------------------------------
 Nuclear Repulsion Energy =         342.53115869 hartrees
 There are       29 alpha and       29 beta electrons
 Requested basis set is def2-TZVPD
 There are 145 shells and 371 basis functions

 Total QAlloc Memory Limit   2000 MB
 Mega-Array Size      1956 MB
 MEM_STATIC part      2000 MB
 Discretize the solute cavity surface with Lebedev spheres
	Using 302 Lebedev grid points for each H atom
	Using 302 Lebedev grid points for other atoms
	Atomic van der Waals radii will be scaled by 1.20
 Remove points where switching function is < 1.0e-08
 Keep 1860 surface tesserae and discard 2972 interior tesserae
 Molecular Surface Area = 190.615 Angst**2
 A cutoff of  1.0D-14 yielded  10043 shell pairs
 There are     67085 function pairs (     85784 Cartesian)
 Smallest overlap matrix eigenvalue = 5.81E-07
 Linear dependence detected in AO basis
 Tighter screening thresholds may be required for diffuse basis sets
 Use S2THRESH > 14 and THRESH = 14 in case of SCF convergence issues
 Number of orthogonalized atomic orbitals = 370
 Maximum deviation from orthogonality = 2.701E-10

 Scale SEOQF with 1.000000e-01/1.000000e-01/1.000000e-01

 Standard Electronic Orientation quadrupole field applied
 Nucleus-field energy     =     0.0000000039 hartrees
 Guess from superposition of atomic densities
 Warning:  Energy on first SCF cycle will be non-variational
 SAD guess density has 58.000000 electrons

 -----------------------------------------------------------------------
  General SCF calculation program by
  Eric Jon Sundstrom, Paul Horn, Yuezhi Mao, Dmitri Zuev, Alec White,
  David Stuck, Shaama M.S., Shane Yost, Joonho Lee, David Small,
  Daniel Levine, Susi Lehtola, Hugh Burton, Evgeny Epifanovsky,
  Bang C. Huynh
 -----------------------------------------------------------------------
 Exchange:     0.1670 Hartree-Fock + 1.0000 wB97X-V + LR-HF
 Correlation:  1.0000 wB97X-V
 Using Euler-Maclaurin-Lebedev (99,590) quadrature formula
 Nonlocal Correlation:  VV10 with C = 0.0100 and b = 6.00 and scale = 1.00000
 Grid used for NLC:  SG-1 standard quadrature
Energy prior to optimization (guess energy) = -346.732485285062
Begin Timing: Total SCF Calculation
begin iterations for algorithm: DIIS         
the SCF tolerance is set to 1.00e-08
    1    -346.7324852851      2.19e-03     00000 
    2    -346.7786257782      1.70e-03     00000 
    3    -346.8150481849      2.81e-04     00000 
    4    -346.8161661381      1.28e-04     00000 
    5    -346.8164414234      2.36e-05     00000 
    6    -346.8164532750      8.51e-06     00000 
    7    -346.8164549008      3.73e-06     00000 
    8    -346.8164552226      8.83e-07     00000 
    9    -346.8164552546      4.29e-07     00000 
   10    -346.8164552614      1.50e-07     00000 
   11    -346.8164552629      5.25e-08     00000 
   12    -346.8164552630      2.17e-08     00000 
   13    -346.8164552631      6.32e-09     00000 Convergence criterion met
Timing for Total SCF: 797.00s (wall), 5473.58s (cpu)

************** Final PCM Free Energy Summary **************
 G_electrostatic  =      -0.00565228 hartree =      -3.54685790 kcal/mol
 G_cavitation     =       0.00000000 hartree =       0.00000000 kcal/mol
 G_dispersion     =       0.00000000 hartree =       0.00000000 kcal/mol
 G_repulsion      =       0.00000000 hartree =       0.00000000 kcal/mol
 --------------------------------------------------
 Non-electrostatic Free Energy =       0.00000000 hartree =       0.00000000 kcal/mol
 Total                         =      -0.00565228 hartree =      -3.54685790 kcal/mol
 --------------------------------------------------
 SCF Energy (H0 + V/2)                       =    -346.81645526 
 Solute Internal Energy (H0)                 =    -346.81080299 
 Total Free Energy (H0 + V/2 + non-elec)     =    -346.81645526 hartree
                                             = -217630.61037623 kcal/mol
***********************************************************

E_pcm = -0.0056522779
Multipole orders to be included
        2
        3
computing dipole RHS
computing quadrupole RHS
total number of RHS in solve_reponses: 8
RHS batch sizes
        8
Beginning Block Conjugate Gradient Iterations. Batch Number: 0
computing hessian-vector products by finite difference
              1      5.95e-01     00000 Conjugate Gradient Iteration
computing hessian-vector products by finite difference
              2      1.91e-01     00000 Conjugate Gradient Iteration
computing hessian-vector products by finite difference
              3      4.91e-02     00000 Conjugate Gradient Iteration
computing hessian-vector products by finite difference
              4      1.42e-02     00000 Conjugate Gradient Iteration
computing hessian-vector products by finite difference
              5      4.40e-03     00000 Conjugate Gradient Iteration
computing hessian-vector products by finite difference
              6      1.65e-03     00000 Conjugate Gradient Iteration
computing hessian-vector products by finite difference
              7      4.09e-04     00000 Conjugate Gradient Iteration
computing hessian-vector products by finite difference
              8      7.84e-05     00000 Conjugate Gradient Iteration
computing hessian-vector products by finite difference
              9      1.44e-05     00000 Conjugate Gradient Iteration
computing hessian-vector products by finite difference
             10      1.88e-06     00000 Conjugate Gradient Iteration
computing hessian-vector products by finite difference
             11      3.04e-07     00000 Conjugate Gradient Iteration
computing hessian-vector products by finite difference
             12      5.88e-08     00000 Conjugate Gradient Iteration
computing hessian-vector products by finite difference
             13      9.08e-09     00000 CG Converged
batch 0 complete
Done Calculating Responses
TESTING ORTHOGONALIZATION OF MULTIPOLE BASIS
Multipole virts passed orthogonality test
Virts Per Order
           87
          145

 --------------------------------------------------------------

                    Orbital Energies (a.u.)
 --------------------------------------------------------------

 Alpha MOs
 -- Occupied --
-19.2455 -10.3371 -10.2774 -10.2761 -10.2752 -10.2732 -10.2728 -10.2609
 -1.1953  -0.9945  -0.9017  -0.8837  -0.8112  -0.7486  -0.7157  -0.6670
 -0.6033  -0.5816  -0.5518  -0.5398  -0.5341  -0.5213  -0.5114  -0.4772
 -0.4572  -0.4443  -0.4401  -0.3524  -0.3136
 -- Virtual --
  0.0576   0.0582   0.0682   0.0772   0.0831   0.0941   0.1087   0.1101
  0.1135   0.1312   0.1442   0.1499   0.1583   0.1700   0.1739   0.1919
  0.1989   0.2030   0.2132   0.2223   0.2359   0.2406   0.2498   0.2519
  0.2598   0.2661   0.2701   0.2788   0.2790   0.2935   0.2953   0.3037
  0.3044   0.3073   0.3100   0.3247   0.3326   0.3385   0.3432   0.3466
  0.3523   0.3553   0.3613   0.3729   0.3751   0.3784   0.3809   0.3908
  0.3943   0.3949   0.3982   0.4069   0.4130   0.4179   0.4239   0.4317
  0.4361   0.4493   0.4542   0.4595   0.4707   0.4713   0.4758   0.4824
  0.4842   0.4898   0.4977   0.5018   0.5121   0.5138   0.5239   0.5386
  0.5409   0.5456   0.5475   0.5527   0.5614   0.5667   0.5831   0.5931
  0.6038   0.6043   0.6166   0.6322   0.6391   0.6559   0.6601   0.6728
  0.6779   0.6813   0.6853   0.6914   0.6998   0.7011   0.7194   0.7274
  0.7286   0.7381   0.7460   0.7487   0.7581   0.7692   0.7786   0.7834
  0.7875   0.7895   0.7958   0.7974   0.8060   0.8147   0.8263   0.8352
  0.8367   0.8476   0.8508   0.8533   0.8652   0.8741   0.8796   0.8917
  0.9027   0.9091   0.9267   0.9452   0.9627   0.9747   0.9871   1.0137
  1.0200   1.0330   1.0381   1.0470   1.0548   1.0711   1.0739   1.0860
  1.0980   1.1179   1.1338   1.1720   1.1918   1.2347   1.2686   1.2957
  1.3061   1.3090   1.3289   1.3534   1.3649   1.3817   1.3918   1.4322
  1.4548   1.4651   1.4744   1.4847   1.5271   1.5595   1.6035   1.6196
  1.6254   1.6282   1.6821   1.6929   1.7028   1.7227   1.7808   1.8016
  1.8118   1.8280   1.8294   1.8606   1.8722   1.8782   1.9171   1.9187
  1.9382   1.9452   1.9674   1.9803   2.0025   2.0263   2.0334   2.0496
  2.0551   2.0747   2.0886   2.1034   2.1191   2.1515   2.1948   2.2014
  2.2161   2.2339   2.2693   2.2828   2.3001   2.3161   2.3400   2.3679
  2.3949   2.4005   2.4257   2.4635   2.4893   2.4949   2.5217   2.5511
  2.5727   2.5933   2.6290   2.6400   2.6505   2.6677   2.6843   2.7440
  2.7521   2.7561   2.7734   2.7921   2.8145   2.8270   2.8647   2.8736
  2.9056   2.9155   2.9357   2.9482   2.9619   2.9702   2.9733   3.0037
  3.0148   3.0409   3.0689   3.0745   3.0953   3.1174   3.1460   3.1592
  3.1873   3.2036   3.2103   3.2247   3.2462   3.2520   3.2799   3.2908
  3.3186   3.3381   3.3774   3.3866   3.3922   3.4109   3.4519   3.4536
  3.4620   3.4698   3.4886   3.5084   3.5199   3.5228   3.5371   3.5416
  3.5492   3.5672   3.5825   3.5883   3.5972   3.6220   3.6421   3.6575
  3.6850   3.7033   3.7342   3.7556   3.7998   3.8189   3.8397   3.8863
  3.9221   3.9526   3.9723   3.9926   4.0349   4.0792   4.1311   4.1559
  4.2437   4.2681   4.2816   4.3088   4.3170   4.3270   4.3416   4.3574
  4.3711   4.3817   4.4276   4.4473   4.4865   4.5280   4.5819   4.6253
  4.7167   4.7252   4.7819   4.8085   4.8741   4.9172   5.0209   5.0524
  5.0880   5.1207   5.1568   5.2949   5.3225   5.3930   5.4408   5.5304
  5.6108   5.6418   5.7041   5.7618   5.9435   6.2083   6.4819   6.5898
  6.6329   6.8720   7.0076   7.3007   7.4523  22.6620  22.6764  22.9300
 22.9772  23.0206  23.1701  23.4895  44.4153
 --------------------------------------------------------------

          Ground-State Mulliken Net Atomic Charges

     Atom                 Charge (a.u.)
  ----------------------------------------
      1 C                    -1.048067
      2 C                    -0.390562
      3 C                    -0.628731
      4 C                     0.808217
      5 C                     0.611736
      6 C                    -0.756317
      7 C                    -0.413647
      8 O                    -0.485021
      9 H                     0.274974
     10 H                     0.322080
     11 H                     0.294242
     12 H                     0.331700
     13 H                     0.269170
     14 H                     0.281932
     15 H                     0.312370
     16 H                     0.215923
  ----------------------------------------
  Sum of atomic charges =     0.000000

 -----------------------------------------------------------------
                    Cartesian Multipole Moments
 -----------------------------------------------------------------
    Charge (ESU x 10^10)
                -0.0000
    Dipole Moment (Debye)
         X      -0.1027      Y      -1.4511      Z       1.0034
       Tot       1.7672
    Quadrupole Moments (Debye-Ang)
        XX     -47.6064     XY       2.3121     YY     -45.7985
        XZ       5.2742     YZ       5.1367     ZZ     -51.0814
    Octopole Moments (Debye-Ang^2)
       XXX    -322.7169    XXY     -64.3075    XYY     -91.5202
       YYY    -205.0961    XXZ      67.1460    XYZ       1.5913
       YYZ      51.4716    XZZ    -119.4729    YZZ     -92.7615
       ZZZ     172.2901
    Hexadecapole Moments (Debye-Ang^3)
      XXXX   -1816.9086   XXXY    -529.3987   XXYY    -418.5469
      XYYY    -484.8654   YYYY    -908.4924   XXXZ     203.0793
      XXYZ      85.0967   XYYZ      36.1300   YYYZ     199.4260
      XXZZ    -495.6547   XYZZ    -190.5551   YYZZ    -337.7604
      XZZZ     186.9923   YZZZ     297.9753   ZZZZ   -1086.9526
 -----------------------------------------------------------------
Archival summary:
1\1\compute-0-5.local\SP\ProcedureUnspecified\BasisUnspecified\178\meili\ThuSep3000:49:342021ThuSep3000:49:342021\0\\#,ProcedureUnspecified,BasisUnspecified,\\0,1\C\O,1,1.36388\H,2,0.962853,1,112.229\C,1,1.39487,2,120.568,3,-176.365,0\H,4,1.08057,1,119.774,2,0.0829407,0\C,1,1.39493,2,119.509,3,4.08946,0\H,6,1.07834,1,120.213,2,1.68368,0\C,6,1.39453,1,119.847,2,-179.45,0\H,8,1.08103,6,118.933,1,178.554,0\C,8,1.39562,6,120.988,1,-1.27139,0\C,10,1.39655,8,118.672,6,1.48159,0\H,11,1.08062,10,119.892,8,179.408,0\C,10,1.50976,8,120.629,6,178.946,0\H,13,1.0859,10,109.777,8,-154.489,0\H,13,1.08724,10,107.446,8,-37.8683,0\H,13,1.1,10,115.3,8,82.7888,0\\\@

 Total job time:  14710.71s(wall), 101988.82s(cpu) 
 Thu Sep 30 00:49:34 2021

        *************************************************************
        *                                                           *
        *  Thank you very much for using Q-Chem.  Have a nice day.  *
        *                                                           *
        *************************************************************


Done Job For Fragment 0
calling putenv with: QCSCRATCH=/home/meili/scratch 
calling putenv with: QCTHREADS=8 
Creating input file /home/meili/scratch/qchem18554/Frg2.input
using default PutDataFrgm: nothing
calling putenv with: QCSCRATCH=/home/meili/scratch/qchem18554/ 
Spawning Job For Fragment 1
                  Welcome to Q-Chem
     A Quantum Leap Into The Future Of Chemistry


 Q-Chem 5.2 (devel), Q-Chem, Inc., Pleasanton, CA (2019)

 Yihan Shao,  Zhengting Gan,  E. Epifanovsky,  A. T. B. Gilbert,  M. Wormit,  
 J. Kussmann,  A. W. Lange,  A. Behn,  Jia Deng,  Xintian Feng,  D. Ghosh,  
 M. Goldey,  P. R. Horn,  L. D. Jacobson,  I. Kaliman,  T. Kus,  A. Landau,  
 Jie Liu,  E. I. Proynov,  R. M. Richard,  R. P. Steele,  E. J. Sundstrom,  
 H. L. Woodcock III,  P. M. Zimmerman,  D. Zuev,  B. Albrecht,  E. Alguire,  
 S. A. Baeppler,  D. Barton,  Z. Benda,  Y. A. Bernard,  E. J. Berquist,  
 K. B. Bravaya,  H. Burton,  D. Casanova,  Chun-Min Chang,  Yunqing Chen,  
 A. Chien,  K. D. Closser,  M. P. Coons,  S. Coriani,  S. Dasgupta,  
 A. L. Dempwolff,  M. Diedenhofen,  Hainam Do,  R. G. Edgar,  Po-Tung Fang,  
 S. Faraji,  S. Fatehi,  Qingguo Feng,  K. D. Fenk,  J. Fosso-Tande,  
 J. Gayvert,  Qinghui Ge,  A. Ghysels,  G. Gidofalvi,  J. Gomes,  
 J. Gonthier,  A. Gunina,  D. Hait,  M. W. D. Hanson-Heine,  
 P. H. P. Harbach,  A. W. Hauser,  M. F. Herbst,  J. E. Herr,  
 E. G. Hohenstein,  Z. C. Holden,  Kerwin Hui,  B. C. Huynh,  T.-C. Jagau,  
 Hyunjun Ji,  B. Kaduk,  K. Khistyaev,  Jaehoon Kim,  P. Klunzinger,  K. Koh,  
 D. Kosenkov,  L. Koulias,  T. Kowalczyk,  C. M. Krauter,  A. Kunitsa,  
 Ka Un Lao,  A. Laurent,  K. V. Lawler,  Joonho Lee,  D. Lefrancois,  
 S. Lehtola,  D. S. Levine,  Yi-Pei Li,  You-Sheng Lin,  Fenglai Liu,  
 E. Livshits,  A. Luenser,  P. Manohar,  E. Mansoor,  S. F. Manzer,  
 Shan-Ping Mao,  Yuezhi Mao,  N. Mardirossian,  A. V. Marenich,  
 T. Markovich,  L. A. Martinez-Martinez,  S. A. Maurer,  N. J. Mayhall,  
 S. C. McKenzie,  J.-M. Mewes,  P. Morgante,  A. F. Morrison,  
 J. W. Mullinax,  K. Nanda,  T. S. Nguyen-Beck,  R. Olivares-Amaya,  
 J. A. Parkhill,  Zheng Pei,  T. M. Perrine,  F. Plasser,  P. Pokhilko,  
 S. Prager,  A. Prociuk,  E. Ramos,  D. R. Rehn,  F. Rob,  M. Scheurer,  
 M. Schneider,  N. Sergueev,  S. M. Sharada,  S. Sharma,  D. W. Small,  
 T. Stauch,  T. Stein,  Yu-Chuan Su,  A. J. W. Thom,  A. Tkatchenko,  
 T. Tsuchimochi,  N. M. Tubman,  L. Vogt,  M. L. Vidal,  O. Vydrov,  
 M. A. Watson,  J. Wenzel,  M. de Wergifosse,  T. A. Wesolowski,  A. White,  
 J. Witte,  A. Yamada,  Jun Yang,  K. Yao,  S. Yeganeh,  S. R. Yost,  
 Zhi-Qiang You,  A. Zech,  Igor Ying Zhang,  Xing Zhang,  Yan Zhao,  
 Ying Zhu,  B. R. Brooks,  G. K. L. Chan,  C. J. Cramer,  M. S. Gordon,  
 W. J. Hehre,  A. Klamt,  M. W. Schmidt,  C. D. Sherrill,  D. G. Truhlar,  
 A. Aspuru-Guzik,  R. Baer,  A. T. Bell,  N. A. Besley,  Jeng-Da Chai,  
 A. E. DePrince, III,  R. A. DiStasio Jr.,  A. Dreuw,  B. D. Dunietz,  
 T. R. Furlani,  Chao-Ping Hsu,  Yousung Jung,  Jing Kong,  D. S. Lambrecht,  
 WanZhen Liang,  C. Ochsenfeld,  V. A. Rassolov,  L. V. Slipchenko,  
 J. E. Subotnik,  T. Van Voorhis,  J. M. Herbert,  A. I. Krylov,  
 P. M. W. Gill,  M. Head-Gordon

 Contributors to earlier versions of Q-Chem not listed above: 
 R. D. Adamson,  B. Austin,  J. Baker,  G. J. O. Beran,  K. Brandhorst,  
 S. T. Brown,  E. F. C. Byrd,  A. K. Chakraborty,  C.-L. Cheng,  
 Siu Hung Chien,  D. M. Chipman,  D. L. Crittenden,  H. Dachsel,  
 R. J. Doerksen,  A. D. Dutoi,  L. Fusti-Molnar,  W. A. Goddard III,  
 A. Golubeva-Zadorozhnaya,  S. R. Gwaltney,  G. Hawkins,  A. Heyden,  
 S. Hirata,  G. Kedziora,  F. J. Keil,  C. Kelley,  Jihan Kim,  R. A. King,  
 R. Z. Khaliullin,  P. P. Korambath,  W. Kurlancheek,  A. M. Lee,  M. S. Lee,  
 S. V. Levchenko,  Ching Yeh Lin,  D. Liotard,  R. C. Lochan,  I. Lotan,  
 P. E. Maslen,  N. Nair,  D. P. O'Neill,  D. Neuhauser,  E. Neuscamman,  
 C. M. Oana,  R. Olson,  B. Peters,  R. Peverati,  P. A. Pieniazek,  
 Y. M. Rhee,  J. Ritchie,  M. A. Rohrdanz,  E. Rosta,  N. J. Russ,  
 H. F. Schaefer III,  N. E. Schultz,  N. Shenvi,  A. C. Simmonett,  A. Sodt,  
 D. Stuck,  K. S. Thanthiriwatte,  V. Vanovschi,  Tao Wang,  A. Warshel,  
 C. F. Williams,  Q. Wu,  X. Xu,  W. Zhang

 Please cite Q-Chem as follows:
 Y. Shao et al., Mol. Phys. 113, 184-215 (2015)
 DOI: 10.1080/00268976.2014.952696

 Q-Chem 5.2.1 for Intel X86 EM64T Linux

 Parts of Q-Chem use Armadillo 8.300.2 (Tropical Shenanigans).
 http://arma.sourceforge.net/

 Q-Chem begins on Thu Sep 30 00:49:34 2021  

compute-0-5.local
Host: 0

     Scratch files written to /home/meili/scratch/qchem18554//Frg2//
NAlpha2: 58
NElect   58
Mult     1
Symmetry turned off for PCM/SM12/SMD calculation

Checking the input file for inconsistencies... 	...done.

--------------------------------------------------------------
User input:
--------------------------------------------------------------
$molecule
0 1
 6	-0.8124983674	-1.0937813820	3.7457250443
 6	-1.4724983674	-1.2877813820	0.0007250443
 6	-2.7944983674	-1.7267813820	-0.0262749557
 6	-0.8354983674	-1.0827813820	1.2247250443
 6	-1.5114983674	-1.3067813820	2.4287250443
 6	-3.4794983674	-1.9667813820	1.1667250443
 6	-2.8364983674	-1.7577813820	2.3877250443
 8	-3.4204983674	-1.9447813820	-1.2212749557
 1	-0.9614983674	-1.1077813820	-0.9302749557
 1	0.1935016326	-0.7497813820	1.2437250443
 1	-4.5054983674	-2.3057813820	1.1477250443
 1	-4.3374983674	-2.2177813820	-1.1042749557
 1	-1.5214983674	-0.6947813820	4.4737250443
 1	-0.0324983674	-0.3447813820	3.6027250443
 1	-3.3724983674	-1.9357813820	3.3107250443
 1	-0.3569883674	-2.0134103820	4.1416960443
$end
$rem
EDA2		1
METHOD		WB97X-V
BASIS		DEF2-TZVPD
XC_GRID		000099000590
NL_GRID		1
UNRESTRICTED		FALSE
MAX_SCF_CYCLES		200
SYMMETRY		FALSE
SYM_IGNORE		TRUE
BASIS_LIN_DEP_THRESH		6
THRESH		14
SCF_CONVERGENCE		8
SCF_PRINT_FRGM		TRUE
SOLVENT_METHOD		PCM
!required keywords
JOBTYPE		SP
SYM_IGNORE		TRUE
SUBSYSTEM		TRUE
GEN_SCFMAN		TRUE
CHILD_INSTRUCTION		2
SYM_IGNORE		TRUE
SCFMI		0
RI_K 0		
PARI_K 0		
MIN_PARI_K 0		
IARI_K 0		
OCC_RI_K 0		
PURECART		1111
MEM_STATIC		2000
MEM_TOTAL		2000
GUI		0
CHILD_MP		1
CHILD_MP_ORDERS		232
FRZ_RELAX		0
FRZ_RELAX_METHOD		0
EDA_CLS_ELEC		1
EDA_CLS_DISP		0
FRZ_ORTHO_DECOMP		1
EDA2		FALSE
FRGM_METHOD		FALSE
CIS_N_ROOTS  0
LOCAL_CIS    0
CIS_RLX_DNS  1
$end
$pcm
THEORY                  CPCM
METHOD                  SWIG
SOLVER                  INVERSION
RADII                   UFF
HPOINTS                 302
HEAVYPOINTS             302
PRINTLEVEL              0
$end
$solvent
DIELECTRIC              78.390000 ! water
$end
--------------------------------------------------------------
 ----------------------------------------------------------------
             Standard Nuclear Orientation (Angstroms)
    I     Atom           X                Y                Z
 ----------------------------------------------------------------
    1      C      -0.8124983674    -1.0937813820     3.7457250443
    2      C      -1.4724983674    -1.2877813820     0.0007250443
    3      C      -2.7944983674    -1.7267813820    -0.0262749557
    4      C      -0.8354983674    -1.0827813820     1.2247250443
    5      C      -1.5114983674    -1.3067813820     2.4287250443
    6      C      -3.4794983674    -1.9667813820     1.1667250443
    7      C      -2.8364983674    -1.7577813820     2.3877250443
    8      O      -3.4204983674    -1.9447813820    -1.2212749557
    9      H      -0.9614983674    -1.1077813820    -0.9302749557
   10      H       0.1935016326    -0.7497813820     1.2437250443
   11      H      -4.5054983674    -2.3057813820     1.1477250443
   12      H      -4.3374983674    -2.2177813820    -1.1042749557
   13      H      -1.5214983674    -0.6947813820     4.4737250443
   14      H      -0.0324983674    -0.3447813820     3.6027250443
   15      H      -3.3724983674    -1.9357813820     3.3107250443
   16      H      -0.3569883674    -2.0134103820     4.1416960443
 ----------------------------------------------------------------
 Nuclear Repulsion Energy =         342.52186967 hartrees
 There are       29 alpha and       29 beta electrons
 Requested basis set is def2-TZVPD
 There are 145 shells and 371 basis functions

 Total QAlloc Memory Limit   2000 MB
 Mega-Array Size      1956 MB
 MEM_STATIC part      2000 MB
 Discretize the solute cavity surface with Lebedev spheres
	Using 302 Lebedev grid points for each H atom
	Using 302 Lebedev grid points for other atoms
	Atomic van der Waals radii will be scaled by 1.20
 Remove points where switching function is < 1.0e-08
 Keep 1877 surface tesserae and discard 2955 interior tesserae
 Molecular Surface Area = 190.505 Angst**2
 A cutoff of  1.0D-14 yielded  10042 shell pairs
 There are     67090 function pairs (     85792 Cartesian)
 Smallest overlap matrix eigenvalue = 5.69E-07
 Linear dependence detected in AO basis
 Tighter screening thresholds may be required for diffuse basis sets
 Use S2THRESH > 14 and THRESH = 14 in case of SCF convergence issues
 Number of orthogonalized atomic orbitals = 370
 Maximum deviation from orthogonality = 1.096E-10

 Scale SEOQF with 1.000000e-01/1.000000e-01/1.000000e-01

 Standard Electronic Orientation quadrupole field applied
 Nucleus-field energy     =    -0.0000000038 hartrees
 Guess from superposition of atomic densities
 Warning:  Energy on first SCF cycle will be non-variational
 SAD guess density has 58.000000 electrons

 -----------------------------------------------------------------------
  General SCF calculation program by
  Eric Jon Sundstrom, Paul Horn, Yuezhi Mao, Dmitri Zuev, Alec White,
  David Stuck, Shaama M.S., Shane Yost, Joonho Lee, David Small,
  Daniel Levine, Susi Lehtola, Hugh Burton, Evgeny Epifanovsky,
  Bang C. Huynh
 -----------------------------------------------------------------------
 Exchange:     0.1670 Hartree-Fock + 1.0000 wB97X-V + LR-HF
 Correlation:  1.0000 wB97X-V
 Using Euler-Maclaurin-Lebedev (99,590) quadrature formula
 Nonlocal Correlation:  VV10 with C = 0.0100 and b = 6.00 and scale = 1.00000
 Grid used for NLC:  SG-1 standard quadrature
Energy prior to optimization (guess energy) = -346.733121700232
Begin Timing: Total SCF Calculation
begin iterations for algorithm: DIIS         
the SCF tolerance is set to 1.00e-08
    1    -346.7331217002      2.19e-03     00000 
    2    -346.7790861234      1.71e-03     00000 
    3    -346.8156753129      2.82e-04     00000 
    4    -346.8167989138      1.28e-04     00000 
    5    -346.8170749302      2.37e-05     00000 
    6    -346.8170868309      8.52e-06     00000 
    7    -346.8170884636      3.76e-06     00000 
    8    -346.8170887883      8.87e-07     00000 
    9    -346.8170888204      4.31e-07     00000 
   10    -346.8170888271      1.51e-07     00000 
   11    -346.8170888285      5.19e-08     00000 
   12    -346.8170888287      2.06e-08     00000 
   13    -346.8170888287      5.97e-09     00000 Convergence criterion met
Timing for Total SCF: 833.00s (wall), 5485.43s (cpu)

************** Final PCM Free Energy Summary **************
 G_electrostatic  =      -0.00562650 hartree =      -3.53068177 kcal/mol
 G_cavitation     =       0.00000000 hartree =       0.00000000 kcal/mol
 G_dispersion     =       0.00000000 hartree =       0.00000000 kcal/mol
 G_repulsion      =       0.00000000 hartree =       0.00000000 kcal/mol
 --------------------------------------------------
 Non-electrostatic Free Energy =       0.00000000 hartree =       0.00000000 kcal/mol
 Total                         =      -0.00562650 hartree =      -3.53068177 kcal/mol
 --------------------------------------------------
 SCF Energy (H0 + V/2)                       =    -346.81708883 
 Solute Internal Energy (H0)                 =    -346.81146233 
 Total Free Energy (H0 + V/2 + non-elec)     =    -346.81708883 hartree
                                             = -217631.00794466 kcal/mol
***********************************************************

E_pcm = -0.0056264996
Multipole orders to be included
        2
        3
computing dipole RHS
computing quadrupole RHS
total number of RHS in solve_reponses: 8
RHS batch sizes
        8
Beginning Block Conjugate Gradient Iterations. Batch Number: 0
computing hessian-vector products by finite difference
              1      6.34e-01     00000 Conjugate Gradient Iteration
computing hessian-vector products by finite difference
              2      1.99e-01     00000 Conjugate Gradient Iteration
computing hessian-vector products by finite difference
              3      4.94e-02     00000 Conjugate Gradient Iteration
computing hessian-vector products by finite difference
              4      1.45e-02     00000 Conjugate Gradient Iteration
computing hessian-vector products by finite difference
              5      5.02e-03     00000 Conjugate Gradient Iteration
computing hessian-vector products by finite difference
              6      1.58e-03     00000 Conjugate Gradient Iteration
computing hessian-vector products by finite difference
              7      4.03e-04     00000 Conjugate Gradient Iteration
computing hessian-vector products by finite difference
              8      7.61e-05     00000 Conjugate Gradient Iteration
computing hessian-vector products by finite difference
              9      1.33e-05     00000 Conjugate Gradient Iteration
computing hessian-vector products by finite difference
             10      1.64e-06     00000 Conjugate Gradient Iteration
computing hessian-vector products by finite difference
             11      2.77e-07     00000 Conjugate Gradient Iteration
computing hessian-vector products by finite difference
             12      5.25e-08     00000 Conjugate Gradient Iteration
computing hessian-vector products by finite difference
             13      9.24e-09     00000 CG Converged
batch 0 complete
Done Calculating Responses
TESTING ORTHOGONALIZATION OF MULTIPOLE BASIS
Multipole virts passed orthogonality test
Virts Per Order
           87
          145

 --------------------------------------------------------------

                    Orbital Energies (a.u.)
 --------------------------------------------------------------

 Alpha MOs
 -- Occupied --
-19.2453 -10.3368 -10.2774 -10.2759 -10.2758 -10.2736 -10.2723 -10.2617
 -1.1940  -0.9942  -0.9017  -0.8841  -0.8102  -0.7485  -0.7144  -0.6661
 -0.6022  -0.5818  -0.5510  -0.5408  -0.5349  -0.5219  -0.5104  -0.4776
 -0.4559  -0.4433  -0.4408  -0.3531  -0.3129
 -- Virtual --
  0.0577   0.0581   0.0682   0.0768   0.0830   0.0942   0.1086   0.1099
  0.1138   0.1311   0.1443   0.1514   0.1536   0.1702   0.1733   0.1921
  0.1990   0.2055   0.2157   0.2226   0.2345   0.2398   0.2503   0.2508
  0.2627   0.2658   0.2711   0.2717   0.2823   0.2949   0.2950   0.3019
  0.3038   0.3080   0.3100   0.3229   0.3325   0.3395   0.3429   0.3462
  0.3531   0.3555   0.3611   0.3720   0.3756   0.3779   0.3808   0.3910
  0.3932   0.3949   0.3985   0.4079   0.4119   0.4186   0.4228   0.4315
  0.4372   0.4497   0.4543   0.4580   0.4701   0.4705   0.4768   0.4810
  0.4853   0.4916   0.4969   0.5021   0.5105   0.5141   0.5230   0.5375
  0.5385   0.5451   0.5476   0.5547   0.5618   0.5687   0.5842   0.5941
  0.6016   0.6038   0.6210   0.6275   0.6416   0.6541   0.6603   0.6714
  0.6787   0.6833   0.6860   0.6900   0.6973   0.6996   0.7181   0.7275
  0.7301   0.7387   0.7443   0.7494   0.7563   0.7749   0.7789   0.7848
  0.7873   0.7910   0.7950   0.7978   0.8070   0.8121   0.8282   0.8335
  0.8397   0.8461   0.8517   0.8550   0.8640   0.8742   0.8810   0.8890
  0.9010   0.9091   0.9247   0.9477   0.9659   0.9702   0.9897   1.0087
  1.0187   1.0352   1.0393   1.0456   1.0536   1.0709   1.0741   1.0837
  1.0979   1.1184   1.1363   1.1724   1.1920   1.2380   1.2630   1.2902
  1.3018   1.3115   1.3277   1.3526   1.3596   1.3801   1.3919   1.4307
  1.4553   1.4655   1.4728   1.4794   1.5261   1.5615   1.6006   1.6157
  1.6255   1.6346   1.6831   1.6868   1.7015   1.7208   1.7846   1.7995
  1.8176   1.8247   1.8281   1.8592   1.8655   1.8811   1.9177   1.9245
  1.9406   1.9515   1.9681   1.9836   2.0001   2.0283   2.0347   2.0504
  2.0545   2.0744   2.0908   2.0975   2.1144   2.1502   2.1918   2.2021
  2.2190   2.2346   2.2683   2.2768   2.2976   2.3161   2.3449   2.3682
  2.3956   2.4054   2.4246   2.4628   2.4871   2.4957   2.5200   2.5543
  2.5833   2.5923   2.6154   2.6387   2.6444   2.6643   2.6842   2.7394
  2.7455   2.7592   2.7737   2.7939   2.8192   2.8296   2.8615   2.8729
  2.9058   2.9116   2.9339   2.9463   2.9600   2.9717   2.9767   3.0044
  3.0128   3.0399   3.0676   3.0766   3.0974   3.1267   3.1447   3.1630
  3.1814   3.2014   3.2160   3.2243   3.2462   3.2589   3.2693   3.2909
  3.3326   3.3444   3.3826   3.3871   3.3899   3.4124   3.4503   3.4539
  3.4649   3.4694   3.4901   3.5097   3.5184   3.5213   3.5315   3.5404
  3.5546   3.5671   3.5759   3.5941   3.5955   3.6204   3.6454   3.6598
  3.6799   3.6987   3.7361   3.7565   3.8024   3.8177   3.8300   3.8849
  3.9290   3.9544   3.9808   3.9865   4.0348   4.0820   4.1272   4.1519
  4.2465   4.2647   4.2818   4.3015   4.3095   4.3190   4.3322   4.3562
  4.3705   4.3798   4.4266   4.4415   4.4873   4.5337   4.5921   4.6142
  4.7246   4.7300   4.7794   4.8054   4.8739   4.9163   5.0221   5.0545
  5.0882   5.1218   5.1563   5.2963   5.3234   5.3903   5.4418   5.5357
  5.6099   5.6383   5.7030   5.7579   5.9380   6.2057   6.4724   6.5909
  6.6286   6.8700   7.0069   7.3022   7.4517  22.6562  22.6768  22.9248
 22.9825  23.0194  23.1637  23.4866  44.4143
 --------------------------------------------------------------

          Ground-State Mulliken Net Atomic Charges

     Atom                 Charge (a.u.)
  ----------------------------------------
      1 C                    -1.037411
      2 C                    -0.765162
      3 C                     0.824863
      4 C                    -0.402529
      5 C                     0.595703
      6 C                    -0.395046
      7 C                    -0.642840
      8 O                    -0.485417
      9 H                     0.337149
     10 H                     0.315581
     11 H                     0.272872
     12 H                     0.293211
     13 H                     0.275925
     14 H                     0.277708
     15 H                     0.324066
     16 H                     0.211327
  ----------------------------------------
  Sum of atomic charges =     0.000000

 -----------------------------------------------------------------
                    Cartesian Multipole Moments
 -----------------------------------------------------------------
    Charge (ESU x 10^10)
                -0.0000
    Dipole Moment (Debye)
         X      -1.1190      Y      -0.3287      Z       1.3050
       Tot       1.7502
    Quadrupole Moments (Debye-Ang)
        XX     -33.8800     XY       6.5106     YY     -49.3201
        XZ      -2.4153     YZ      -2.0196     ZZ     -45.2171
    Octopole Moments (Debye-Ang^2)
       XXX     212.5306    XXY      26.6866    XYY      88.4151
       YYY     225.2101    XXZ     -57.8512    XYZ       4.4502
       YYZ     -61.8306    XZZ      95.6056    YZZ      68.2029
       ZZZ    -164.9929
    Hexadecapole Moments (Debye-Ang^3)
      XXXX   -1214.6879   XXXY    -260.1703   XXYY    -308.6760
      XYYY    -503.4789   YYYY    -790.5828   XXXZ     273.7606
      XXYZ      74.2874   XYYZ      90.3303   YYYZ     247.9055
      XXZZ    -470.9712   XYZZ    -159.9767   YYZZ    -338.6602
      XZZZ     205.8997   YZZZ     203.5213   ZZZZ   -1227.3666
 -----------------------------------------------------------------
Archival summary:
1\1\compute-0-5.local\SP\ProcedureUnspecified\BasisUnspecified\178\meili\ThuSep3005:12:222021ThuSep3005:12:222021\0\\#,ProcedureUnspecified,BasisUnspecified,\\0,1\C\O,1,1.36654\H,2,0.963902,1,112.014\C,1,1.39325,2,120.124,3,-178.153,0\H,4,1.07716,1,119.081,2,1.06128,0\C,4,1.39498,1,119.775,2,-179.241,0\H,6,1.08171,4,119.672,1,179.496,0\C,1,1.39645,2,119.666,3,2.87174,0\H,8,1.08072,1,120.304,2,-1.12614,0\C,8,1.3957,1,119.713,2,179.334,0\H,10,1.08209,8,119.563,1,179.439,0\C,6,1.39885,4,120.731,1,-0.31872,0\C,12,1.50614,6,120.378,4,179.496,0\H,13,1.0908,12,108.321,6,27.3684,0\H,13,1.09173,12,109.474,6,144.32,0\H,13,1.1,12,112.875,6,-93.391,0\\\@

 Total job time:  15768.46s(wall), 104886.31s(cpu) 
 Thu Sep 30 05:12:22 2021

        *************************************************************
        *                                                           *
        *  Thank you very much for using Q-Chem.  Have a nice day.  *
        *                                                           *
        *************************************************************


Done Job For Fragment 1
calling putenv with: QCSCRATCH=/home/meili/scratch 
calling putenv with: QCTHREADS=8 
Doing General SCFMI
 Exchange:     0.1670 Hartree-Fock + 1.0000 wB97X-V + LR-HF
 Correlation:  1.0000 wB97X-V
 Using Euler-Maclaurin-Lebedev (99,590) quadrature formula
 Nonlocal Correlation:  VV10 with C = 0.0100 and b = 6.00 and scale = 1.00000
 Grid used for NLC:  SG-1 standard quadrature
performing fock build before subrot guess so that all methods have access
Printing subrot_rss_gen Method Specification:
Occupied Subspace Method is 0
Virtual Subspace Method is 0
Energy of the unrelaxed supersystem initial determinant -693.622952851998
performing fock build before subrot guess so that all methods have access
Printing subrot_rss_gen Method Specification:
Occupied Subspace Method is 0
Virtual Subspace Method is 0
Energy of the unrelaxed supersystem initial determinant w/ solvent -693.634021959247
write pseudocanon occs and virts to disk
write pseudocanon orbital energies to disk
Tolerance of ortho_decomp_scf: 1.00e-06
GDM subspace size: 20
Beginning the Orthogonal Decomposition of the Initial Supersystem Wavefunction
    1    -693.6101768928      1.42e-02     ortho_decomp Preconditoned Steepest Descent
    2    -693.6113595497      3.42e-04     ortho_decomp BFGS Step
    3    -693.6113628673      2.44e-05     ortho_decomp BFGS Step
    4    -693.6113628735      9.99e-07     ortho_decomp 00000 Convergence criterion met
 Hartree-Fock
 Hartree-Fock
 Hartree-Fock
Doing General SCFMI
 Exchange:     0.1670 Hartree-Fock + 1.0000 wB97X-V + LR-HF
 Correlation:  1.0000 wB97X-V
 Using Euler-Maclaurin-Lebedev (99,590) quadrature formula
 Nonlocal Correlation:  VV10 with C = 0.0100 and b = 6.00 and scale = 1.00000
 Grid used for NLC:  SG-1 standard quadrature
performing fock build at end of subrot_r(subrot) constructor so that all methods have access
<S^2> of initial wavefunction before polarization iterations 0.0000000000
Beginning iterations for the determination of the polarized wavefunction
Energy prior to optimization (guess energy) = -693.634021959247
Begin Timing: Total SCF Calculation
begin iterations for algorithm: DIIS         
the SCF tolerance is set to 1.00e-08
    1    -693.6340219592      3.98e-05     00000 
    2    -693.6342771767      1.45e-05     00000 
    3    -693.6343018617      7.38e-06     00000 
    4    -693.6343083862      2.72e-06     00000 
    5    -693.6343094771      1.34e-06     00000 
    6    -693.6343097213      4.83e-07     00000 
    7    -693.6343097483      1.69e-07     00000 
    8    -693.6343097510      8.68e-08     00000 
    9    -693.6343097516      3.18e-08     00000 
   10    -693.6343097517      1.33e-08     00000 
   11    -693.6343097517      5.13e-09     00000 Convergence criterion met
write pseudocanon occs and virts to disk
write pseudocanon orbital energies to disk
Timing for Total SCF: 4785.00s (wall), 33773.19s (cpu)
<S^2> of polarized wavefunction after polarization iterations 0.0000000000
relaxing scfmi constraint to allow all rotations in the entire AO span
Doing General SCFMI
 Exchange:     0.1670 Hartree-Fock + 1.0000 wB97X-V + LR-HF
 Correlation:  1.0000 wB97X-V
 Using Euler-Maclaurin-Lebedev (99,590) quadrature formula
 Nonlocal Correlation:  VV10 with C = 0.0100 and b = 6.00 and scale = 1.00000
 Grid used for NLC:  SG-1 standard quadrature
performing fock build at end of subrot_r(subrot) constructor so that all methods have access
<S^2> of polarized wavefunction before ct-allowed iterations 0.0000000000
Beginning iterations for the determination of the CT-Allowed wavefunction
Energy prior to optimization (guess energy) = -693.634309751661
Begin Timing: Total SCF Calculation
begin iterations for algorithm: DIIS         
the SCF tolerance is set to 1.00e-08
    1    -693.6343097517      5.26e-05     00000 
    2    -693.6350569309      5.51e-06     00000 
    3    -693.6350772436      7.95e-07     00000 
    4    -693.6350777616      2.78e-07     00000 
    5    -693.6350777858      1.09e-07     00000 
    6    -693.6350777908      1.90e-08     00000 
    7    -693.6350777910      9.27e-09     00000 Convergence criterion met
write pseudocanon occs and virts to disk
write pseudocanon orbital energies to disk
Timing for Total SCF: 2847.00s (wall), 19873.30s (cpu)
<S^2> of ct_allowed wavefunction after ct-allowed iterations 0.0000000000

================================
        Results of EDA2         
================================
Basic EDA Quantities
--------------------
Fragment Energies (Ha):
1 -346.8164552631
2 -346.8170888287
--------------------
  E_prp (kJ/mol) = 0.0000
  E_sol (kJ/mol) = 0.5505
  E_frz (kJ/mol) = -1.8052
  E_pol (kJ/mol) = -0.7556
  E_vct (kJ/mol) = -2.0165
  E_int (kJ/mol) = -4.0268
--------------------


Initial Wavefunction Decomposition
--------------------
  --------------------
  Orthogonal Fragment Subspace Decomposition:
  --------------------
     E_elec   (ELEC)   (kJ/mol) = -11.4281
     E_pauli  (PAULI)  (kJ/mol) = 22.1269
     E_disp   (DISP)   (kJ/mol) = -12.5039
     --------------------
     Terms summing to E_pauli:
     --------------------
        E_kep_pauli       (kJ/mol) = 28.6247
        E_disp_free_pauli (kJ/mol) = -6.4978
  --------------------
  Classical Frozen Decomposition:
  --------------------
     E_cls_elec  (CLS ELEC)  (kJ/mol) = -2.8361
     E_cls_pauli (CLS PAULI) (kJ/mol) = 1.0309
    [E_mod_pauli (MOD PAULI) (kJ/mol) = 13.5349 (CLS PAULI - DISP from orthogonal decomposition) ]
  --------------------
--------------------

Simplified EDA Summary (kJ/mol)
--------------------
 PREPARATION     0.0000
 SOLVATION       0.5505
 FROZEN          10.6988      (does not include dispersion)
[PAULI           22.1269]     (if this is negligible, then frozen describes electrostatics)
 DISPERSION      -12.5039
 POLARIZATION    -0.7556
 CHARGE TRANSFER -2.0165
 TOTAL           -4.0268     (PRP + SOL + FRZ + DISP + POL + CT)
--------------------

 --------------------------------------------------------------

                    Orbital Energies (a.u.)
 --------------------------------------------------------------

 Alpha MOs
 -- Occupied --
-19.2469 -19.2458 -10.3388 -10.3376 -10.2789 -10.2780 -10.2773 -10.2772
-10.2766 -10.2764 -10.2751 -10.2745 -10.2741 -10.2736 -10.2620 -10.2616
 -1.1966  -1.1945  -0.9962  -0.9948  -0.9030  -0.9022  -0.8869  -0.8838
 -0.8123  -0.8107  -0.7512  -0.7487  -0.7180  -0.7147  -0.6704  -0.6653
 -0.6055  -0.6029  -0.5856  -0.5808  -0.5554  -0.5500  -0.5432  -0.5415
 -0.5398  -0.5298  -0.5224  -0.5220  -0.5128  -0.5106  -0.4783  -0.4780
 -0.4589  -0.4566  -0.4471  -0.4439  -0.4421  -0.4388  -0.3558  -0.3519
 -0.3150  -0.3134
 -- Virtual --
  0.0501   0.0531   0.0585   0.0607   0.0650   0.0699   0.0761   0.0781
  0.0828   0.0914   0.0956   0.1001   0.1047   0.1089   0.1132   0.1219
  0.1223   0.1294   0.1368   0.1414   0.1442   0.1474   0.1545   0.1603
  0.1634   0.1683   0.1743   0.1842   0.1868   0.1912   0.1983   0.2003
  0.2054   0.2074   0.2139   0.2196   0.2244   0.2253   0.2272   0.2333
  0.2370   0.2446   0.2492   0.2521   0.2534   0.2577   0.2604   0.2612
  0.2663   0.2672   0.2781   0.2806   0.2824   0.2851   0.2877   0.2933
  0.2952   0.3009   0.3016   0.3029   0.3079   0.3085   0.3117   0.3196
  0.3200   0.3214   0.3245   0.3264   0.3317   0.3351   0.3408   0.3430
  0.3461   0.3493   0.3496   0.3534   0.3556   0.3577   0.3606   0.3623
  0.3667   0.3695   0.3728   0.3779   0.3786   0.3824   0.3834   0.3877
  0.3928   0.3941   0.3953   0.3981   0.4019   0.4044   0.4082   0.4097
  0.4121   0.4154   0.4188   0.4226   0.4274   0.4308   0.4318   0.4351
  0.4398   0.4421   0.4452   0.4482   0.4501   0.4521   0.4554   0.4588
  0.4654   0.4704   0.4716   0.4763   0.4787   0.4804   0.4855   0.4889
  0.4913   0.4936   0.4950   0.4994   0.5012   0.5040   0.5074   0.5129
  0.5165   0.5220   0.5262   0.5304   0.5319   0.5376   0.5411   0.5444
  0.5462   0.5503   0.5546   0.5578   0.5610   0.5675   0.5729   0.5746
  0.5812   0.5814   0.5861   0.5896   0.5980   0.5993   0.6046   0.6123
  0.6166   0.6183   0.6238   0.6274   0.6307   0.6371   0.6440   0.6461
  0.6508   0.6516   0.6573   0.6628   0.6647   0.6691   0.6753   0.6795
  0.6814   0.6874   0.6929   0.6932   0.7010   0.7033   0.7072   0.7108
  0.7149   0.7188   0.7250   0.7282   0.7312   0.7348   0.7375   0.7391
  0.7444   0.7457   0.7496   0.7541   0.7567   0.7588   0.7646   0.7679
  0.7697   0.7705   0.7755   0.7773   0.7780   0.7813   0.7880   0.7898
  0.7962   0.7996   0.8040   0.8086   0.8103   0.8136   0.8183   0.8207
  0.8242   0.8252   0.8327   0.8331   0.8379   0.8417   0.8493   0.8524
  0.8560   0.8587   0.8605   0.8645   0.8682   0.8727   0.8756   0.8810
  0.8841   0.8904   0.8920   0.9000   0.9064   0.9081   0.9121   0.9164
  0.9264   0.9318   0.9346   0.9413   0.9453   0.9498   0.9529   0.9549
  0.9641   0.9712   0.9780   0.9881   0.9947   1.0005   1.0070   1.0120
  1.0158   1.0164   1.0238   1.0326   1.0409   1.0460   1.0472   1.0500
  1.0558   1.0639   1.0742   1.0788   1.0831   1.0869   1.0956   1.0966
  1.1024   1.1079   1.1177   1.1284   1.1402   1.1492   1.1533   1.1567
  1.1719   1.1764   1.1945   1.2018   1.2115   1.2177   1.2399   1.2468
  1.2549   1.2731   1.2925   1.2965   1.3086   1.3225   1.3269   1.3314
  1.3433   1.3503   1.3635   1.3714   1.3741   1.3803   1.3909   1.3978
  1.4074   1.4132   1.4231   1.4389   1.4547   1.4673   1.4752   1.4803
  1.4857   1.4936   1.5001   1.5054   1.5069   1.5369   1.5510   1.5527
  1.5703   1.5849   1.6028   1.6127   1.6192   1.6360   1.6462   1.6506
  1.6533   1.6755   1.6974   1.7017   1.7067   1.7120   1.7283   1.7332
  1.7390   1.7795   1.7958   1.8030   1.8046   1.8181   1.8325   1.8402
  1.8438   1.8535   1.8578   1.8715   1.8751   1.8856   1.8967   1.9033
  1.9127   1.9198   1.9264   1.9439   1.9482   1.9576   1.9685   1.9739
  1.9835   1.9853   1.9971   1.9999   2.0177   2.0207   2.0264   2.0301
  2.0463   2.0545   2.0649   2.0661   2.0774   2.0823   2.0903   2.1035
  2.1145   2.1192   2.1314   2.1349   2.1443   2.1492   2.1715   2.1798
  2.1831   2.2030   2.2117   2.2144   2.2281   2.2352   2.2447   2.2532
  2.2678   2.2803   2.2838   2.2919   2.3017   2.3100   2.3157   2.3259
  2.3295   2.3501   2.3562   2.3584   2.3835   2.3917   2.4115   2.4149
  2.4222   2.4323   2.4477   2.4603   2.4742   2.4841   2.5034   2.5187
  2.5247   2.5288   2.5370   2.5526   2.5711   2.5753   2.5817   2.6034
  2.6072   2.6154   2.6304   2.6420   2.6498   2.6586   2.6658   2.6717
  2.6813   2.6957   2.7166   2.7237   2.7399   2.7463   2.7570   2.7617
  2.7672   2.7830   2.7967   2.7988   2.8044   2.8055   2.8301   2.8370
  2.8453   2.8618   2.8784   2.8809   2.8844   2.8993   2.9152   2.9233
  2.9305   2.9375   2.9395   2.9496   2.9532   2.9665   2.9745   2.9790
  2.9840   2.9894   2.9921   3.0093   3.0140   3.0269   3.0292   3.0317
  3.0610   3.0678   3.0806   3.0900   3.0941   3.1039   3.1083   3.1194
  3.1298   3.1470   3.1572   3.1707   3.1738   3.1818   3.1957   3.2063
  3.2130   3.2197   3.2329   3.2364   3.2461   3.2492   3.2560   3.2678
  3.2703   3.2768   3.2879   3.3020   3.3084   3.3322   3.3365   3.3480
  3.3492   3.3641   3.3894   3.3939   3.3991   3.3998   3.4104   3.4208
  3.4229   3.4381   3.4584   3.4639   3.4656   3.4689   3.4711   3.4856
  3.4918   3.4945   3.5004   3.5127   3.5182   3.5203   3.5241   3.5308
  3.5343   3.5425   3.5492   3.5545   3.5599   3.5670   3.5729   3.5805
  3.5842   3.5855   3.5920   3.6075   3.6110   3.6167   3.6244   3.6282
  3.6324   3.6466   3.6564   3.6597   3.6655   3.6816   3.6886   3.6956
  3.7086   3.7281   3.7352   3.7378   3.7699   3.7717   3.7979   3.8117
  3.8258   3.8311   3.8416   3.8475   3.8922   3.9003   3.9293   3.9361
  3.9580   3.9644   3.9791   3.9951   4.0031   4.0093   4.0437   4.0504
  4.0847   4.0903   4.1384   4.1420   4.1588   4.1660   4.2492   4.2549
  4.2803   4.2835   4.2932   4.3006   4.3096   4.3114   4.3222   4.3291
  4.3336   4.3379   4.3424   4.3509   4.3611   4.3718   4.3751   4.3822
  4.3938   4.3955   4.4318   4.4537   4.4580   4.4617   4.4896   4.4957
  4.5322   4.5472   4.6054   4.6075   4.6232   4.6349   4.7223   4.7283
  4.7378   4.7471   4.7863   4.7964   4.8122   4.8140   4.8794   4.8861
  4.9314   4.9543   5.0267   5.0422   5.0555   5.0651   5.0941   5.1037
  5.1316   5.1517   5.1638   5.1771   5.2984   5.3042   5.3223   5.3305
  5.3932   5.3961   5.4434   5.4519   5.5307   5.5434   5.6114   5.6132
  5.6440   5.6558   5.7120   5.7170   5.7556   5.7561   5.9393   5.9502
  6.2088   6.2142   6.4712   6.4773   6.5926   6.6027   6.6366   6.6440
  6.8739   6.8882   7.0113   7.0139   7.3009   7.3187   7.4599   7.4634
 22.6769  22.6866  22.7006  22.7355  22.9569  22.9688  22.9894  23.0011
 23.0279  23.0511  23.1856  23.1934  23.5029  23.5120  44.4262  44.4524
 --------------------------------------------------------------

          Ground-State Mulliken Net Atomic Charges

     Atom                 Charge (a.u.)
  ----------------------------------------
      1 C                    -1.033916
      2 C                    -0.360065
      3 C                    -0.767759
      4 C                     0.686329
      5 C                     0.488883
      6 C                    -0.724398
      7 C                    -0.378633
      8 O                    -0.511973
      9 H                     0.453423
     10 H                     0.409532
     11 H                     0.310374
     12 H                     0.340718
     13 H                     0.236397
     14 H                     0.286706
     15 H                     0.345370
     16 H                     0.210613
     17 C                    -1.044434
     18 C                    -0.215679
     19 C                     0.474773
     20 C                    -0.056939
     21 C                     0.258439
     22 C                    -0.401001
     23 C                    -0.631900
     24 O                    -0.479000
     25 H                     0.217690
     26 H                     0.176461
     27 H                     0.319148
     28 H                     0.290916
     29 H                     0.279242
     30 H                     0.244711
     31 H                     0.363461
     32 H                     0.212512
  ----------------------------------------
  Sum of atomic charges =     0.000000

 -----------------------------------------------------------------
                    Cartesian Multipole Moments
 -----------------------------------------------------------------
    Charge (ESU x 10^10)
                 0.0000
    Dipole Moment (Debye)
         X      -1.1856      Y      -1.6597      Z       2.3332
       Tot       3.0990
    Quadrupole Moments (Debye-Ang)
        XX     -80.8728     XY       9.2441     YY     -94.7608
        XZ       2.6525     YZ       2.8703     ZZ     -96.0091
    Octopole Moments (Debye-Ang^2)
       XXX    -109.3603    XXY     -37.0206    XYY      -2.4855
       YYY      21.1224    XXZ       9.3642    XYZ       5.9459
       YYZ     -10.6309    XZZ     -23.6985    YZZ     -24.1383
       ZZZ       7.1555
    Hexadecapole Moments (Debye-Ang^3)
      XXXX   -3021.0146   XXXY    -784.1328   XXYY    -723.3397
      XYYY    -984.6270   YYYY   -1694.6513   XXXZ     475.8460
      XXYZ     158.4855   XYYZ     125.3629   YYYZ     445.5191
      XXZZ    -964.3535   XYZZ    -348.9305   YYZZ    -674.5410
      XZZZ     391.0824   YZZZ     499.2252   ZZZZ   -2309.3418
 -----------------------------------------------------------------
Archival summary:
1\1\compute-0-5.local\SP\ProcedureUnspecified\BasisUnspecified\21416\meili\ThuSep3009:01:022021ThuSep3009:01:022021\0\\#,ProcedureUnspecified,BasisUnspecified,\\0,1\O\H,1,0.962853\C,1,1.36388,2,112.229\C,3,1.39487,1,120.568,2,-176.365,0\H,4,1.08057,3,119.774,1,0.0829407,0\C,3,1.39493,1,119.509,2,4.08946,0\H,6,1.07834,3,120.213,1,1.68368,0\C,6,1.39453,3,119.847,1,-179.45,0\H,8,1.08103,6,118.933,3,178.554,0\C,8,1.39562,6,120.988,3,-1.27139,0\C,10,1.39655,8,118.672,6,1.48159,0\H,11,1.08062,10,119.892,8,179.408,0\C,10,1.50976,8,120.629,6,178.946,0\H,13,1.0859,10,109.777,8,-154.489,0\H,13,1.08724,10,107.446,8,-37.8683,0\H,13,1.1,10,115.3,8,82.7888,0\H,7,2.19207,6,123.326,3,-87.2831,0\C,17,1.07716,7,137.068,6,-70.2368,0\C,18,1.39325,17,119.081,7,-172.405,0\O,19,1.36654,18,120.124,17,1.06128,0\H,20,0.963902,19,112.014,18,-178.153,0\C,18,1.39498,17,121.144,7,7.90114,0\H,22,1.08171,18,119.672,17,-0.81282,0\C,19,1.39645,18,120.201,17,-179.969,0\H,24,1.08072,19,120.304,18,179.899,0\C,24,1.3957,19,119.713,18,0.359571,0\H,26,1.08209,24,119.563,19,179.439,0\C,22,1.39885,18,120.731,17,179.373,0\C,28,1.50614,22,120.378,18,179.496,0\H,29,1.0908,28,108.321,22,27.3684,0\H,29,1.09173,28,109.474,22,144.32,0\H,29,1.1,28,112.875,22,-93.391,0\\\@

 Total job time:  44206.91s(wall), 100063.68s(cpu) 
 Thu Sep 30 09:01:02 2021

        *************************************************************
        *                                                           *
        *  Thank you very much for using Q-Chem.  Have a nice day.  *
        *                                                           *
        *************************************************************


