
Running Job 1 of 1 SSI-048ASN-052ASN-1_SMD_TZVPD.in
qchem SSI-048ASN-052ASN-1_SMD_TZVPD.in_17932.0 /tmp/qchem17932/ 0
/global/common/cori/software/qchem/5.2/exe/qcprog.exe_s SSI-048ASN-052ASN-1_SMD_TZVPD.in_17932.0 /tmp/qchem17932/
                  Welcome to Q-Chem
     A Quantum Leap Into The Future Of Chemistry


 Q-Chem 5.2, Q-Chem, Inc., Pleasanton, CA (2019)

 License issued to: National Energy Research Scientific Computing Center

 Yihan Shao,  Zhengting Gan,  E. Epifanovsky,  A. T. B. Gilbert,  M. Wormit,  
 J. Kussmann,  A. W. Lange,  A. Behn,  Jia Deng,  Xintian Feng,  D. Ghosh,  
 M. Goldey,  P. R. Horn,  L. D. Jacobson,  I. Kaliman,  T. Kus,  A. Landau,  
 Jie Liu,  E. I. Proynov,  R. M. Richard,  R. P. Steele,  E. J. Sundstrom,  
 H. L. Woodcock III,  P. M. Zimmerman,  D. Zuev,  B. Albrecht,  E. Alguire,  
 S. A. Baeppler,  D. Barton,  Z. Benda,  Y. A. Bernard,  E. J. Berquist,  
 K. B. Bravaya,  H. Burton,  D. Casanova,  Chun-Min Chang,  Yunqing Chen,  
 A. Chien,  K. D. Closser,  M. P. Coons,  S. Coriani,  S. Dasgupta,  
 A. L. Dempwolff,  M. Diedenhofen,  Hainam Do,  R. G. Edgar,  Po-Tung Fang,  
 S. Faraji,  S. Fatehi,  Qingguo Feng,  K. D. Fenk,  J. Fosso-Tande,  
 J. Gayvert,  Qinghui Ge,  A. Ghysels,  G. Gidofalvi,  J. Gomes,  
 J. Gonthier,  A. Gunina,  D. Hait,  M. W. D. Hanson-Heine,  
 P. H. P. Harbach,  A. W. Hauser,  M. F. Herbst,  J. E. Herr,  
 E. G. Hohenstein,  Z. C. Holden,  Kerwin Hui,  B. C. Huynh,  T.-C. Jagau,  
 Hyunjun Ji,  B. Kaduk,  K. Khistyaev,  Jaehoon Kim,  P. Klunzinger,  K. Koh,  
 D. Kosenkov,  L. Koulias,  T. Kowalczyk,  C. M. Krauter,  A. Kunitsa,  
 Ka Un Lao,  A. Laurent,  K. V. Lawler,  Joonho Lee,  D. Lefrancois,  
 S. Lehtola,  D. S. Levine,  Yi-Pei Li,  You-Sheng Lin,  Fenglai Liu,  
 E. Livshits,  A. Luenser,  P. Manohar,  E. Mansoor,  S. F. Manzer,  
 Shan-Ping Mao,  Yuezhi Mao,  N. Mardirossian,  A. V. Marenich,  
 T. Markovich,  L. A. Martinez-Martinez,  S. A. Maurer,  N. J. Mayhall,  
 S. C. McKenzie,  J.-M. Mewes,  P. Morgante,  A. F. Morrison,  
 J. W. Mullinax,  K. Nanda,  T. S. Nguyen-Beck,  R. Olivares-Amaya,  
 J. A. Parkhill,  Zheng Pei,  T. M. Perrine,  F. Plasser,  P. Pokhilko,  
 S. Prager,  A. Prociuk,  E. Ramos,  D. R. Rehn,  F. Rob,  M. Scheurer,  
 M. Schneider,  N. Sergueev,  S. M. Sharada,  S. Sharma,  D. W. Small,  
 T. Stauch,  T. Stein,  Yu-Chuan Su,  A. J. W. Thom,  A. Tkatchenko,  
 T. Tsuchimochi,  N. M. Tubman,  L. Vogt,  M. L. Vidal,  O. Vydrov,  
 M. A. Watson,  J. Wenzel,  M. de Wergifosse,  T. A. Wesolowski,  A. White,  
 J. Witte,  A. Yamada,  Jun Yang,  K. Yao,  S. Yeganeh,  S. R. Yost,  
 Zhi-Qiang You,  A. Zech,  Igor Ying Zhang,  Xing Zhang,  Yan Zhao,  
 Ying Zhu,  B. R. Brooks,  G. K. L. Chan,  C. J. Cramer,  M. S. Gordon,  
 W. J. Hehre,  A. Klamt,  M. W. Schmidt,  C. D. Sherrill,  D. G. Truhlar,  
 A. Aspuru-Guzik,  R. Baer,  A. T. Bell,  N. A. Besley,  Jeng-Da Chai,  
 A. E. DePrince, III,  R. A. DiStasio Jr.,  A. Dreuw,  B. D. Dunietz,  
 T. R. Furlani,  Chao-Ping Hsu,  Yousung Jung,  Jing Kong,  D. S. Lambrecht,  
 WanZhen Liang,  C. Ochsenfeld,  V. A. Rassolov,  L. V. Slipchenko,  
 J. E. Subotnik,  T. Van Voorhis,  J. M. Herbert,  A. I. Krylov,  
 P. M. W. Gill,  M. Head-Gordon

 Contributors to earlier versions of Q-Chem not listed above: 
 R. D. Adamson,  B. Austin,  J. Baker,  G. J. O. Beran,  K. Brandhorst,  
 S. T. Brown,  E. F. C. Byrd,  A. K. Chakraborty,  C.-L. Cheng,  
 Siu Hung Chien,  D. M. Chipman,  D. L. Crittenden,  H. Dachsel,  
 R. J. Doerksen,  A. D. Dutoi,  L. Fusti-Molnar,  W. A. Goddard III,  
 A. Golubeva-Zadorozhnaya,  S. R. Gwaltney,  G. Hawkins,  A. Heyden,  
 S. Hirata,  G. Kedziora,  F. J. Keil,  C. Kelley,  Jihan Kim,  R. A. King,  
 R. Z. Khaliullin,  P. P. Korambath,  W. Kurlancheek,  A. M. Lee,  M. S. Lee,  
 S. V. Levchenko,  Ching Yeh Lin,  D. Liotard,  R. C. Lochan,  I. Lotan,  
 P. E. Maslen,  N. Nair,  D. P. O'Neill,  D. Neuhauser,  E. Neuscamman,  
 C. M. Oana,  R. Olson,  B. Peters,  R. Peverati,  P. A. Pieniazek,  
 Y. M. Rhee,  J. Ritchie,  M. A. Rohrdanz,  E. Rosta,  N. J. Russ,  
 H. F. Schaefer III,  N. E. Schultz,  N. Shenvi,  A. C. Simmonett,  A. Sodt,  
 D. Stuck,  K. S. Thanthiriwatte,  V. Vanovschi,  Tao Wang,  A. Warshel,  
 C. F. Williams,  Q. Wu,  X. Xu,  W. Zhang

 Please cite Q-Chem as follows:
 Y. Shao et al., Mol. Phys. 113, 184-215 (2015)
 DOI: 10.1080/00268976.2014.952696

 Q-Chem 5.2.0 for Intel X86 EM64T Linux

 Parts of Q-Chem use Armadillo 8.300.2 (Tropical Shenanigans).
 http://arma.sourceforge.net/

 Q-Chem begins on Sun Sep 26 08:19:30 2021  

Host: cori01
0

     Scratch files written to /tmp/qchem17932//
 May1019 |scratch|qcdevops|jenkins|workspace|build_RNUM -1
Processing $rem in /global/common/cori/software/qchem/5.2/config/preferences:
	 MEM_TOTAL  96000 
NAlpha2: 72
NElect   72
Mult     1
Symmetry turned off for PCM/SM12/SMD calculation

 Q-Chem warning in module libgen/rem_setup.C, line 2803:

 Neither GIA nor STOLL is specified by user. Use STOLL as the default


Checking the input file for inconsistencies... 	...done.

--------------------------------------------------------------
User input:
--------------------------------------------------------------
$comment
SSI-048ASN-052ASN-1.pdb
$end

$molecule
0 1
--
0 1
C   -1.101733730988    0.957803785675   -0.453667687172
C   -2.437733730988    1.699803785675   -0.166667687172
C   -1.122733730988    0.037803785675   -1.679667687172
O   -0.402733730988   -0.975196214325   -1.738667687172
N   -1.902733730988    0.389803785675   -2.678667687172
H   -0.316733730988    1.698803785675   -0.606667687172
H   -0.828733730988    0.341803785675    0.399332312828
H   -2.688733730988    2.346803785675   -1.009667687172
H   -1.921733730988   -0.208196214325   -3.492667687172
H   -2.442733730988    1.237803785675   -2.664667687172
H   -2.290611530988    2.344589485675    0.712312312828
H   -3.284773730988    1.016314785675   -0.007397687172
--
0 1
C    2.030266269012   -1.567196214325    2.661332312828
C    1.720266269012   -0.449196214325    1.684332312828
O    1.510266269012    0.701803785675    2.087332312828
N    1.708266269012   -0.768196214325    0.393332312828
H    1.765266269012   -1.250196214325    3.655332312828
H    3.101266269012   -1.729196214325    2.633332312828
H    1.500266269012   -0.050196214325   -0.280667687172
H    1.855266269012   -1.716196214325    0.091332312828
H    1.531725269012   -2.520647214325    2.432442312828
$end

$rem
JOBTYPE			EDA
EDA2			1
method			wB97X-V
BASIS			def2-TZVPD
XC_GRID			000099000590
NL_GRID			1
UNRESTRICTED		FALSE
MAX_SCF_CYCLES		200
SYMMETRY		FALSE
SYM_IGNORE		TRUE
MEM_STATIC		2000
BASIS_LIN_DEP_THRESH 	6
THRESH 			14
SCF_CONVERGENCE 	8
SCF_PRINT_FRGM 		TRUE
SOLVENT_METHOD          SMD
$end

$SMX
SOLVENT			WATER
$END
--------------------------------------------------------------
 ----------------------------------------------------------------
             Standard Nuclear Orientation (Angstroms)
    I     Atom           X                Y                Z
 ----------------------------------------------------------------
    1      C      -1.1017337310     0.9578037857    -0.4536676872
    2      C      -2.4377337310     1.6998037857    -0.1666676872
    3      C      -1.1227337310     0.0378037857    -1.6796676872
    4      O      -0.4027337310    -0.9751962143    -1.7386676872
    5      N      -1.9027337310     0.3898037857    -2.6786676872
    6      H      -0.3167337310     1.6988037857    -0.6066676872
    7      H      -0.8287337310     0.3418037857     0.3993323128
    8      H      -2.6887337310     2.3468037857    -1.0096676872
    9      H      -1.9217337310    -0.2081962143    -3.4926676872
   10      H      -2.4427337310     1.2378037857    -2.6646676872
   11      H      -2.2906115310     2.3445894857     0.7123123128
   12      H      -3.2847737310     1.0163147857    -0.0073976872
   13      C       2.0302662690    -1.5671962143     2.6613323128
   14      C       1.7202662690    -0.4491962143     1.6843323128
   15      O       1.5102662690     0.7018037857     2.0873323128
   16      N       1.7082662690    -0.7681962143     0.3933323128
   17      H       1.7652662690    -1.2501962143     3.6553323128
   18      H       3.1012662690    -1.7291962143     2.6333323128
   19      H       1.5002662690    -0.0501962143    -0.2806676872
   20      H       1.8552662690    -1.7161962143     0.0913323128
   21      H       1.5317252690    -2.5206472143     2.4324423128
 ----------------------------------------------------------------
 Nuclear Repulsion Energy =         447.92252711 hartrees
 There are       36 alpha and       36 beta electrons
 Requested basis set is def2-TZVPD
 There are 179 shells and 447 basis functions

 Total QAlloc Memory Limit  96000 MB
 Mega-Array Size      1956 MB
 MEM_STATIC part      2000 MB
 
 Citation of the SMD model:
 Marenich, A.V.; Cramer, C.J.; Truhlar, D.G.
 J. Phys. Chem. B 2009, 113, 6378-6396.
 iSolventCode=           1
 Solvent: water                                                           
 
 vradii
            1           2           3           4           5           6
    1   1.8500000   1.8500000   1.8500000   1.5200000   1.8900000   1.2000000
            7           8           9          10          11          12
    1   1.2000000   1.2000000   1.2000000   1.2000000   1.2000000   1.2000000
           13          14          15          16          17          18
    1   1.8500000   1.8500000   1.5200000   1.8900000   1.2000000   1.2000000
           19          20          21
    1   1.2000000   1.2000000   1.2000000
 Changing PCM_VDW_RADII to SMD_RADIUS
 Discretize the solute cavity surface with Lebedev spheres
	Using 110 Lebedev grid points for each H atom
	Using 194 Lebedev grid points for other atoms
	Atomic van der Waals radii will be scaled by 1.20
 Remove points where switching function is < 1.0e-08
 Keep 1625 surface tesserae and discard 1441 interior tesserae
 Molecular Surface Area = 189.070 Angst**2
 A cutoff of  1.0D-14 yielded  14304 shell pairs
 There are     89692 function pairs (    112065 Cartesian)
 Smallest overlap matrix eigenvalue = 3.76E-06

 Scale SEOQF with 1.000000e-01/1.000000e-01/1.000000e-01

 Standard Electronic Orientation quadrupole field applied
 Nucleus-field energy     =    -0.0000000115 hartrees

 -----------------------------------------------------------------------
  General SCF calculation program by
  Eric Jon Sundstrom, Paul Horn, Yuezhi Mao, Dmitri Zuev, Alec White,
  David Stuck, Shaama M.S., Shane Yost, Joonho Lee, David Small,
  Daniel Levine, Susi Lehtola, Hugh Burton, Evgeny Epifanovsky
 -----------------------------------------------------------------------
================================================================
                 ALMO-EDA with the EDA2 driver                  
================================================================
 The second-generation ALMO-EDA (for DFT):                      
 P. R. Horn, Y. Mao and M. Head-Gordon, PCCP, 18, 23067 (2016)  
 Decomposition of the frozen energy:                            
 P. R. Horn, Y. Mao and M. Head-Gordon, JCP, 144, 114107 (2016) 
 FERF model for polarization:                                   
 P. R. Horn and M. Head-Gordon, JCP, 143, 114111 (2015)         
Using eda2 option set 1
Option set summary: Frozen orbital wavefunction, initial wavefunction decomposition, and nDQ polarization.
--------------------------------
Printing EDA Options
--------------------------------
eda_child_super_basis      0
fragmo_guess_mode          0
child_mp                   1
child_mp_orders            232
cls_elec                   1
cls_disp                   0
scfmi_mode                 1
scfmi_occs                 0
scfmi_virts                0
frz_relax                  0
frz_relax_method           0
dc_pen_start               0
dc_pen_conv                0
dc_pen_increment           0
dc_pen_steps               0
dc_pen_thresh_factor       0
dc_pen_pre_newton_thresh   0
frz_ortho_decomp           1
frz_ortho_decomp_conv      6
frgm_method                2
scfmi_freeze_ss            0
separate_rehyb             0
plot_diff_den              0
eda_nocv                   0
eda_vct_relax              1
disp_free_x                0
disp_free_c                0
eda_bsse                   0
eda_pct_a                  0
eda_covp                   0
--------------------------------
Attempting to make child job directory: /tmp/qchem17932//Frg1/
Attempting to make child job directory: /tmp/qchem17932//Frg2/
Creating input file /tmp/qchem17932/Frg1.input
using default PutDataFrgm: nothing
calling putenv with: QCSCRATCH=/tmp/qchem17932/ 
calling putenv with: QCLOCALSCR=/tmp/qchem17932/ 
Spawning Job For Fragment 0
                  Welcome to Q-Chem
     A Quantum Leap Into The Future Of Chemistry


 Q-Chem 5.2, Q-Chem, Inc., Pleasanton, CA (2019)

 License issued to: National Energy Research Scientific Computing Center

 Yihan Shao,  Zhengting Gan,  E. Epifanovsky,  A. T. B. Gilbert,  M. Wormit,  
 J. Kussmann,  A. W. Lange,  A. Behn,  Jia Deng,  Xintian Feng,  D. Ghosh,  
 M. Goldey,  P. R. Horn,  L. D. Jacobson,  I. Kaliman,  T. Kus,  A. Landau,  
 Jie Liu,  E. I. Proynov,  R. M. Richard,  R. P. Steele,  E. J. Sundstrom,  
 H. L. Woodcock III,  P. M. Zimmerman,  D. Zuev,  B. Albrecht,  E. Alguire,  
 S. A. Baeppler,  D. Barton,  Z. Benda,  Y. A. Bernard,  E. J. Berquist,  
 K. B. Bravaya,  H. Burton,  D. Casanova,  Chun-Min Chang,  Yunqing Chen,  
 A. Chien,  K. D. Closser,  M. P. Coons,  S. Coriani,  S. Dasgupta,  
 A. L. Dempwolff,  M. Diedenhofen,  Hainam Do,  R. G. Edgar,  Po-Tung Fang,  
 S. Faraji,  S. Fatehi,  Qingguo Feng,  K. D. Fenk,  J. Fosso-Tande,  
 J. Gayvert,  Qinghui Ge,  A. Ghysels,  G. Gidofalvi,  J. Gomes,  
 J. Gonthier,  A. Gunina,  D. Hait,  M. W. D. Hanson-Heine,  
 P. H. P. Harbach,  A. W. Hauser,  M. F. Herbst,  J. E. Herr,  
 E. G. Hohenstein,  Z. C. Holden,  Kerwin Hui,  B. C. Huynh,  T.-C. Jagau,  
 Hyunjun Ji,  B. Kaduk,  K. Khistyaev,  Jaehoon Kim,  P. Klunzinger,  K. Koh,  
 D. Kosenkov,  L. Koulias,  T. Kowalczyk,  C. M. Krauter,  A. Kunitsa,  
 Ka Un Lao,  A. Laurent,  K. V. Lawler,  Joonho Lee,  D. Lefrancois,  
 S. Lehtola,  D. S. Levine,  Yi-Pei Li,  You-Sheng Lin,  Fenglai Liu,  
 E. Livshits,  A. Luenser,  P. Manohar,  E. Mansoor,  S. F. Manzer,  
 Shan-Ping Mao,  Yuezhi Mao,  N. Mardirossian,  A. V. Marenich,  
 T. Markovich,  L. A. Martinez-Martinez,  S. A. Maurer,  N. J. Mayhall,  
 S. C. McKenzie,  J.-M. Mewes,  P. Morgante,  A. F. Morrison,  
 J. W. Mullinax,  K. Nanda,  T. S. Nguyen-Beck,  R. Olivares-Amaya,  
 J. A. Parkhill,  Zheng Pei,  T. M. Perrine,  F. Plasser,  P. Pokhilko,  
 S. Prager,  A. Prociuk,  E. Ramos,  D. R. Rehn,  F. Rob,  M. Scheurer,  
 M. Schneider,  N. Sergueev,  S. M. Sharada,  S. Sharma,  D. W. Small,  
 T. Stauch,  T. Stein,  Yu-Chuan Su,  A. J. W. Thom,  A. Tkatchenko,  
 T. Tsuchimochi,  N. M. Tubman,  L. Vogt,  M. L. Vidal,  O. Vydrov,  
 M. A. Watson,  J. Wenzel,  M. de Wergifosse,  T. A. Wesolowski,  A. White,  
 J. Witte,  A. Yamada,  Jun Yang,  K. Yao,  S. Yeganeh,  S. R. Yost,  
 Zhi-Qiang You,  A. Zech,  Igor Ying Zhang,  Xing Zhang,  Yan Zhao,  
 Ying Zhu,  B. R. Brooks,  G. K. L. Chan,  C. J. Cramer,  M. S. Gordon,  
 W. J. Hehre,  A. Klamt,  M. W. Schmidt,  C. D. Sherrill,  D. G. Truhlar,  
 A. Aspuru-Guzik,  R. Baer,  A. T. Bell,  N. A. Besley,  Jeng-Da Chai,  
 A. E. DePrince, III,  R. A. DiStasio Jr.,  A. Dreuw,  B. D. Dunietz,  
 T. R. Furlani,  Chao-Ping Hsu,  Yousung Jung,  Jing Kong,  D. S. Lambrecht,  
 WanZhen Liang,  C. Ochsenfeld,  V. A. Rassolov,  L. V. Slipchenko,  
 J. E. Subotnik,  T. Van Voorhis,  J. M. Herbert,  A. I. Krylov,  
 P. M. W. Gill,  M. Head-Gordon

 Contributors to earlier versions of Q-Chem not listed above: 
 R. D. Adamson,  B. Austin,  J. Baker,  G. J. O. Beran,  K. Brandhorst,  
 S. T. Brown,  E. F. C. Byrd,  A. K. Chakraborty,  C.-L. Cheng,  
 Siu Hung Chien,  D. M. Chipman,  D. L. Crittenden,  H. Dachsel,  
 R. J. Doerksen,  A. D. Dutoi,  L. Fusti-Molnar,  W. A. Goddard III,  
 A. Golubeva-Zadorozhnaya,  S. R. Gwaltney,  G. Hawkins,  A. Heyden,  
 S. Hirata,  G. Kedziora,  F. J. Keil,  C. Kelley,  Jihan Kim,  R. A. King,  
 R. Z. Khaliullin,  P. P. Korambath,  W. Kurlancheek,  A. M. Lee,  M. S. Lee,  
 S. V. Levchenko,  Ching Yeh Lin,  D. Liotard,  R. C. Lochan,  I. Lotan,  
 P. E. Maslen,  N. Nair,  D. P. O'Neill,  D. Neuhauser,  E. Neuscamman,  
 C. M. Oana,  R. Olson,  B. Peters,  R. Peverati,  P. A. Pieniazek,  
 Y. M. Rhee,  J. Ritchie,  M. A. Rohrdanz,  E. Rosta,  N. J. Russ,  
 H. F. Schaefer III,  N. E. Schultz,  N. Shenvi,  A. C. Simmonett,  A. Sodt,  
 D. Stuck,  K. S. Thanthiriwatte,  V. Vanovschi,  Tao Wang,  A. Warshel,  
 C. F. Williams,  Q. Wu,  X. Xu,  W. Zhang

 Please cite Q-Chem as follows:
 Y. Shao et al., Mol. Phys. 113, 184-215 (2015)
 DOI: 10.1080/00268976.2014.952696

 Q-Chem 5.2.0 for Intel X86 EM64T Linux

 Parts of Q-Chem use Armadillo 8.300.2 (Tropical Shenanigans).
 http://arma.sourceforge.net/

 Q-Chem begins on Sun Sep 26 08:19:34 2021  

Host: cori01
0

     Scratch files written to /tmp/qchem17932//Frg1//
 May1019 |scratch|qcdevops|jenkins|workspace|build_RNUM -1
Processing $rem in /global/common/cori/software/qchem/5.2/config/preferences:
	 MEM_TOTAL  96000 
NAlpha2: 40
NElect   40
Mult     1
Symmetry turned off for PCM/SM12/SMD calculation

Checking the input file for inconsistencies... 	...done.

--------------------------------------------------------------
User input:
--------------------------------------------------------------
$molecule
0 1
 6	-1.1017337310	0.9578037857	-0.4536676872
 6	-2.4377337310	1.6998037857	-0.1666676872
 6	-1.1227337310	0.0378037857	-1.6796676872
 8	-0.4027337310	-0.9751962143	-1.7386676872
 7	-1.9027337310	0.3898037857	-2.6786676872
 1	-0.3167337310	1.6988037857	-0.6066676872
 1	-0.8287337310	0.3418037857	0.3993323128
 1	-2.6887337310	2.3468037857	-1.0096676872
 1	-1.9217337310	-0.2081962143	-3.4926676872
 1	-2.4427337310	1.2378037857	-2.6646676872
 1	-2.2906115310	2.3445894857	0.7123123128
 1	-3.2847737310	1.0163147857	-0.0073976872
$end
$rem
EDA2		1
METHOD		WB97X-V
BASIS		DEF2-TZVPD
XC_GRID		000099000590
NL_GRID		1
UNRESTRICTED		FALSE
MAX_SCF_CYCLES		200
SYMMETRY		FALSE
SYM_IGNORE		TRUE
BASIS_LIN_DEP_THRESH		6
THRESH		14
SCF_CONVERGENCE		8
SCF_PRINT_FRGM		TRUE
SOLVENT_METHOD		SMD
!required keywords
JOBTYPE		SP
SYM_IGNORE		TRUE
SUBSYSTEM		TRUE
GEN_SCFMAN		TRUE
CHILD_INSTRUCTION		2
SYM_IGNORE		TRUE
SCFMI		0
RI_K 0		
PARI_K 0		
MIN_PARI_K 0		
IARI_K 0		
OCC_RI_K 0		
PURECART		1111
MEM_STATIC		2000
MEM_TOTAL		96000
GUI		0
CHILD_MP		1
CHILD_MP_ORDERS		232
FRZ_RELAX		0
FRZ_RELAX_METHOD		0
EDA_CLS_ELEC		1
EDA_CLS_DISP		0
FRZ_ORTHO_DECOMP		1
EDA2		FALSE
FRGM_METHOD		FALSE
CIS_N_ROOTS  0
LOCAL_CIS    0
CIS_RLX_DNS  1
$end
$smx
SOLVENT			WATER
$end
--------------------------------------------------------------
 ----------------------------------------------------------------
             Standard Nuclear Orientation (Angstroms)
    I     Atom           X                Y                Z
 ----------------------------------------------------------------
    1      C      -1.1017337310     0.9578037857    -0.4536676872
    2      C      -2.4377337310     1.6998037857    -0.1666676872
    3      C      -1.1227337310     0.0378037857    -1.6796676872
    4      O      -0.4027337310    -0.9751962143    -1.7386676872
    5      N      -1.9027337310     0.3898037857    -2.6786676872
    6      H      -0.3167337310     1.6988037857    -0.6066676872
    7      H      -0.8287337310     0.3418037857     0.3993323128
    8      H      -2.6887337310     2.3468037857    -1.0096676872
    9      H      -1.9217337310    -0.2081962143    -3.4926676872
   10      H      -2.4427337310     1.2378037857    -2.6646676872
   11      H      -2.2906115310     2.3445894857     0.7123123128
   12      H      -3.2847737310     1.0163147857    -0.0073976872
 ----------------------------------------------------------------
 Nuclear Repulsion Energy =         178.77453921 hartrees
 There are       20 alpha and       20 beta electrons
 Requested basis set is def2-TZVPD
 There are 101 shells and 251 basis functions

 Total QAlloc Memory Limit  96000 MB
 Mega-Array Size      1956 MB
 MEM_STATIC part      2000 MB
 
 Citation of the SMD model:
 Marenich, A.V.; Cramer, C.J.; Truhlar, D.G.
 J. Phys. Chem. B 2009, 113, 6378-6396.
 iSolventCode=           1
 Solvent: water                                                           
 
 vradii
            1           2           3           4           5           6
    1   1.8500000   1.8500000   1.8500000   1.5200000   1.8900000   1.2000000
            7           8           9          10          11          12
    1   1.2000000   1.2000000   1.2000000   1.2000000   1.2000000   1.2000000
 Changing PCM_VDW_RADII to SMD_RADIUS
 Discretize the solute cavity surface with Lebedev spheres
	Using 110 Lebedev grid points for each H atom
	Using 194 Lebedev grid points for other atoms
	Atomic van der Waals radii will be scaled by 1.20
 Remove points where switching function is < 1.0e-08
 Keep 909 surface tesserae and discard 831 interior tesserae
 Molecular Surface Area = 108.613 Angst**2

                       Distance Matrix (Angstroms)
             C (  1)   C (  2)   C (  3)   O (  4)   N (  5)   H (  6)
   C (  2)  1.554937
   C (  3)  1.532944  2.603966
   O (  4)  2.424111  3.710530  1.244207
   N (  5)  2.432046  2.883135  1.315411  2.235358
   H (  6)  1.090282  2.166158  2.135389  2.905012  2.919257
   H (  7)  1.087011  2.180230  2.121578  2.546961  3.260347  1.765114
   H (  8)  2.181061  1.091906  2.869275  4.097917  2.689462  2.491726
   H (  9)  3.356706  3.868979  1.996468  2.443802  1.010228  3.813354
   H ( 10)  2.601000  2.540369  2.037799  3.149039  1.005435  2.994622
   H ( 11)  2.167052  1.100000  3.522324  4.537881  3.933241  2.460273
   H ( 12)  2.228956  1.100000  2.903169  3.907629  3.072171  3.103897
             H (  7)   H (  8)   H (  9)   H ( 10)   H ( 11)
   H (  8)  3.076509
   H (  9)  4.079806  3.644393
   H ( 10)  3.577137  2.007342  1.745835
   H ( 11)  2.499239  1.767405  4.933016  3.556980
   H ( 12)  2.579249  1.769183  3.937564  2.796278  1.808495
 
 A cutoff of  1.0D-14 yielded   5048 shell pairs
 There are     31650 function pairs (     39782 Cartesian)
 Smallest overlap matrix eigenvalue = 7.40E-06

 Scale SEOQF with 1.000000e-01/1.000000e-01/1.000000e-01

 Standard Electronic Orientation quadrupole field applied
 Nucleus-field energy     =    -0.0000000048 hartrees
 Guess from superposition of atomic densities
 Warning:  Energy on first SCF cycle will be non-variational
 SAD guess density has 39.592240 electrons

 -----------------------------------------------------------------------
  General SCF calculation program by
  Eric Jon Sundstrom, Paul Horn, Yuezhi Mao, Dmitri Zuev, Alec White,
  David Stuck, Shaama M.S., Shane Yost, Joonho Lee, David Small,
  Daniel Levine, Susi Lehtola, Hugh Burton, Evgeny Epifanovsky
 -----------------------------------------------------------------------
 Exchange:     0.1670 Hartree-Fock + 1.0000 wB97X-V + LR-HF
 Correlation:  1.0000 wB97X-V
 Using Euler-Maclaurin-Lebedev (99,590) quadrature formula
 Nonlocal Correlation:  VV10 with C = 0.0100 and b = 6.00 and scale = 1.00000
 Grid used for NLC:  SG-1 standard quadrature
Energy prior to optimization (guess energy) = -248.010329797303
Begin Timing: Total SCF Calculation
begin iterations for algorithm: DIIS         
the SCF tolerance is set to 1.00e-08
    1    -248.0103297973      9.85e-03     00000 
    2    -247.5713620298      1.23e-02     00000 
    3    -248.5482515265      2.01e-03     00000 
    4    -248.5701049027      6.50e-04     00000 
    5    -248.5736166759      1.55e-04     00000 
    6    -248.5738958047      5.26e-05     00000 
    7    -248.5739372400      1.68e-05     00000 
    8    -248.5739427010      4.97e-06     00000 
    9    -248.5739435461      1.78e-06     00000 
   10    -248.5739436049      5.49e-07     00000 
   11    -248.5739436087      1.24e-07     00000 
   12    -248.5739436090      1.83e-08     00000 
   13    -248.5739436090      4.58e-09     00000 Convergence criterion met
Timing for Total SCF: 649.00s (wall), 1260.12s (cpu)
(3)  G-ENP(liq) elect-nuc-pol free energy of system     -248.573943609 a.u.
(4)  G-CDS(liq) cavity-dispersion-solvent structure 
     free energy                                                3.6212 kcal/mol
(6)  G-S(liq) free energy of system                     -248.568172822 a.u.
E_pcm = -0.0311979822
E_cds = 0.0057707874
Multipole orders to be included
        2
        3
computing dipole RHS
computing quadrupole RHS
total number of RHS in solve_reponses: 8
RHS batch sizes
        8
Beginning Block Conjugate Gradient Iterations. Batch Number: 0
computing hessian-vector products by finite difference
              1      5.84e-01     00000 Conjugate Gradient Iteration
computing hessian-vector products by finite difference
              2      1.76e-01     00000 Conjugate Gradient Iteration
computing hessian-vector products by finite difference
              3      4.58e-02     00000 Conjugate Gradient Iteration
computing hessian-vector products by finite difference
              4      1.23e-02     00000 Conjugate Gradient Iteration
computing hessian-vector products by finite difference
              5      1.81e-03     00000 Conjugate Gradient Iteration
computing hessian-vector products by finite difference
              6      3.58e-04     00000 Conjugate Gradient Iteration
computing hessian-vector products by finite difference
              7      6.08e-05     00000 Conjugate Gradient Iteration
computing hessian-vector products by finite difference
              8      9.85e-06     00000 Conjugate Gradient Iteration
computing hessian-vector products by finite difference
              9      1.48e-06     00000 Conjugate Gradient Iteration
computing hessian-vector products by finite difference
             10      2.07e-07     00000 Conjugate Gradient Iteration
computing hessian-vector products by finite difference
             11      2.81e-08     00000 Conjugate Gradient Iteration
computing hessian-vector products by finite difference
             12      3.79e-09     00000 CG Converged
batch 0 complete
Done Calculating Responses
TESTING ORTHOGONALIZATION OF MULTIPOLE BASIS
Multipole virts passed orthogonality test
Virts Per Order
           60
          100
 
 --------------------------------------------------------------
 
                    Orbital Energies (a.u.)
 --------------------------------------------------------------
 
 Alpha MOs
 -- Occupied --
-19.1829 -14.4284 -10.3773 -10.2720 -10.2594  -1.1704  -1.0445  -0.8995
 -0.7753  -0.7049  -0.6599  -0.5877  -0.5677  -0.5292  -0.5165  -0.4842
 -0.4621  -0.4481  -0.3839  -0.3715
 -- Virtual --
  0.0648   0.0847   0.0937   0.0999   0.1159   0.1279   0.1342   0.1429
  0.1528   0.1725   0.1827   0.1923   0.1998   0.2140   0.2269   0.2409
  0.2439   0.2446   0.2506   0.2619   0.2849   0.2891   0.3070   0.3133
  0.3201   0.3294   0.3421   0.3502   0.3510   0.3560   0.3636   0.3683
  0.3731   0.3883   0.3930   0.3957   0.4031   0.4112   0.4164   0.4266
  0.4404   0.4497   0.4605   0.4720   0.4833   0.4892   0.4915   0.4982
  0.5085   0.5162   0.5313   0.5352   0.5383   0.5544   0.5614   0.5707
  0.5874   0.5901   0.5971   0.6187   0.6310   0.6449   0.6640   0.6780
  0.6858   0.7094   0.7120   0.7208   0.7415   0.7492   0.7630   0.7648
  0.7833   0.7914   0.7931   0.8005   0.8092   0.8199   0.8389   0.8408
  0.8706   0.8767   0.8885   0.9036   0.9383   0.9720   0.9917   1.0074
  1.0284   1.0457   1.0704   1.0870   1.1017   1.1154   1.1565   1.1672
  1.2038   1.2703   1.2888   1.3229   1.3284   1.3647   1.3786   1.4062
  1.4213   1.4668   1.5041   1.5623   1.5806   1.6471   1.7035   1.7592
  1.7753   1.8379   1.8631   1.8751   1.9086   1.9342   1.9422   1.9480
  1.9605   1.9731   1.9803   2.0238   2.0447   2.0765   2.0912   2.1587
  2.1746   2.2103   2.2212   2.2531   2.2650   2.3150   2.3448   2.3625
  2.4362   2.4883   2.5034   2.5258   2.5658   2.5940   2.5973   2.6398
  2.6564   2.6804   2.7066   2.7213   2.7423   2.7843   2.8084   2.8479
  2.8701   2.9284   2.9464   2.9927   3.0225   3.0451   3.1051   3.1305
  3.1604   3.1653   3.2300   3.2405   3.2890   3.2983   3.3289   3.3471
  3.3755   3.3983   3.4042   3.4398   3.4527   3.4979   3.5342   3.5626
  3.5734   3.5866   3.6206   3.6508   3.6751   3.6965   3.7219   3.8027
  3.8907   3.9291   4.0021   4.0453   4.0836   4.1259   4.1467   4.1787
  4.3173   4.3253   4.4325   4.5238   4.5676   4.6220   4.6814   4.7024
  4.7343   4.8485   4.8897   4.9270   4.9663   5.0645   5.1887   5.2000
  5.2785   5.3786   5.4083   5.4151   5.4206   5.5413   5.5589   5.7482
  5.9111   6.1750   6.2218   6.5067   6.6401   6.7247   6.8191   6.9792
  7.2178   7.3139  22.6049  22.7460  23.5997  32.4666  44.3294
 --------------------------------------------------------------
 
          Ground-State Mulliken Net Atomic Charges

     Atom                 Charge (a.u.)
  ----------------------------------------
      1 C                     0.013005
      2 C                    -0.995324
      3 C                     0.274542
      4 O                    -0.725937
      5 N                    -0.223764
      6 H                     0.194437
      7 H                     0.216594
      8 H                     0.304002
      9 H                     0.260461
     10 H                     0.190812
     11 H                     0.226787
     12 H                     0.264385
  ----------------------------------------
  Sum of atomic charges =     0.000000

 -----------------------------------------------------------------
                    Cartesian Multipole Moments
 -----------------------------------------------------------------
    Charge (ESU x 10^10)
                -0.0000
    Dipole Moment (Debye)
         X      -3.8499      Y       4.8282      Z      -0.8631
       Tot       6.2352
    Quadrupole Moments (Debye-Ang)
        XX     -22.8654     XY      -4.3334     YY     -31.6390
        XZ       9.9107     YZ      -7.4630     ZZ     -23.1047
    Octopole Moments (Debye-Ang^2)
       XXX     119.0695    XXY      -7.3054    XYY      40.5889
       YYY     -38.3692    XXZ      16.5815    XYZ       8.3445
       YYZ      41.0752    XZZ      12.2035    YZZ      -3.0650
       ZZZ      81.6709
    Hexadecapole Moments (Debye-Ang^3)
      XXXX    -515.8011   XXXY     105.9070   XXYY    -121.8718
      XYYY     114.0717   YYYY    -258.5819   XXXZ    -108.0640
      XXYZ     -20.7164   XYYZ     -40.6790   YYYZ     -11.1976
      XXZZ    -105.0789   XYZZ      23.4761   YYZZ    -129.4788
      XZZZ     -43.0065   YZZZ     -13.4031   ZZZZ    -376.5425
 -----------------------------------------------------------------
Archival summary:
1\1\nid00507\SP\ProcedureUnspecified\BasisUnspecified\1137\meili\SunSep2611:31:502021SunSep2611:31:502021\0\\#,ProcedureUnspecified,BasisUnspecified,\\0,1\C\O,1,1.24421\N,1,1.31541,2,121.668\H,3,1.00544,1,122.249,2,-175.944,0\H,3,1.01023,1,117.69,2,1.85792,0\C,1,1.53294,2,121.24,3,-177.873,0\H,6,1.08701,1,106.914,2,-28.278,0\H,6,1.09028,1,107.789,2,88.0003,0\C,6,1.55494,1,114.976,2,-150.639,0\H,9,1.09191,6,109.741,1,-61.4629,0\H,9,1.1,6,108.197,1,-178.454,0\H,9,1.1,6,113.069,1,58.7143,0\\\@

 Total job time:  11540.04s(wall), 22661.51s(cpu) 
 Sun Sep 26 11:31:54 2021

        *************************************************************
        *                                                           *
        *  Thank you very much for using Q-Chem.  Have a nice day.  *
        *                                                           *
        *************************************************************


Done Job For Fragment 0
calling putenv with: QCSCRATCH=/global/cscratch1/sd/meili 
calling putenv with: QCLOCALSCR=/tmp 
calling putenv with: QCTHREADS=32 
Creating input file /tmp/qchem17932/Frg2.input
using default PutDataFrgm: nothing
calling putenv with: QCSCRATCH=/tmp/qchem17932/ 
calling putenv with: QCLOCALSCR=/tmp/qchem17932/ 
Spawning Job For Fragment 1
                  Welcome to Q-Chem
     A Quantum Leap Into The Future Of Chemistry


 Q-Chem 5.2, Q-Chem, Inc., Pleasanton, CA (2019)

 License issued to: National Energy Research Scientific Computing Center

 Yihan Shao,  Zhengting Gan,  E. Epifanovsky,  A. T. B. Gilbert,  M. Wormit,  
 J. Kussmann,  A. W. Lange,  A. Behn,  Jia Deng,  Xintian Feng,  D. Ghosh,  
 M. Goldey,  P. R. Horn,  L. D. Jacobson,  I. Kaliman,  T. Kus,  A. Landau,  
 Jie Liu,  E. I. Proynov,  R. M. Richard,  R. P. Steele,  E. J. Sundstrom,  
 H. L. Woodcock III,  P. M. Zimmerman,  D. Zuev,  B. Albrecht,  E. Alguire,  
 S. A. Baeppler,  D. Barton,  Z. Benda,  Y. A. Bernard,  E. J. Berquist,  
 K. B. Bravaya,  H. Burton,  D. Casanova,  Chun-Min Chang,  Yunqing Chen,  
 A. Chien,  K. D. Closser,  M. P. Coons,  S. Coriani,  S. Dasgupta,  
 A. L. Dempwolff,  M. Diedenhofen,  Hainam Do,  R. G. Edgar,  Po-Tung Fang,  
 S. Faraji,  S. Fatehi,  Qingguo Feng,  K. D. Fenk,  J. Fosso-Tande,  
 J. Gayvert,  Qinghui Ge,  A. Ghysels,  G. Gidofalvi,  J. Gomes,  
 J. Gonthier,  A. Gunina,  D. Hait,  M. W. D. Hanson-Heine,  
 P. H. P. Harbach,  A. W. Hauser,  M. F. Herbst,  J. E. Herr,  
 E. G. Hohenstein,  Z. C. Holden,  Kerwin Hui,  B. C. Huynh,  T.-C. Jagau,  
 Hyunjun Ji,  B. Kaduk,  K. Khistyaev,  Jaehoon Kim,  P. Klunzinger,  K. Koh,  
 D. Kosenkov,  L. Koulias,  T. Kowalczyk,  C. M. Krauter,  A. Kunitsa,  
 Ka Un Lao,  A. Laurent,  K. V. Lawler,  Joonho Lee,  D. Lefrancois,  
 S. Lehtola,  D. S. Levine,  Yi-Pei Li,  You-Sheng Lin,  Fenglai Liu,  
 E. Livshits,  A. Luenser,  P. Manohar,  E. Mansoor,  S. F. Manzer,  
 Shan-Ping Mao,  Yuezhi Mao,  N. Mardirossian,  A. V. Marenich,  
 T. Markovich,  L. A. Martinez-Martinez,  S. A. Maurer,  N. J. Mayhall,  
 S. C. McKenzie,  J.-M. Mewes,  P. Morgante,  A. F. Morrison,  
 J. W. Mullinax,  K. Nanda,  T. S. Nguyen-Beck,  R. Olivares-Amaya,  
 J. A. Parkhill,  Zheng Pei,  T. M. Perrine,  F. Plasser,  P. Pokhilko,  
 S. Prager,  A. Prociuk,  E. Ramos,  D. R. Rehn,  F. Rob,  M. Scheurer,  
 M. Schneider,  N. Sergueev,  S. M. Sharada,  S. Sharma,  D. W. Small,  
 T. Stauch,  T. Stein,  Yu-Chuan Su,  A. J. W. Thom,  A. Tkatchenko,  
 T. Tsuchimochi,  N. M. Tubman,  L. Vogt,  M. L. Vidal,  O. Vydrov,  
 M. A. Watson,  J. Wenzel,  M. de Wergifosse,  T. A. Wesolowski,  A. White,  
 J. Witte,  A. Yamada,  Jun Yang,  K. Yao,  S. Yeganeh,  S. R. Yost,  
 Zhi-Qiang You,  A. Zech,  Igor Ying Zhang,  Xing Zhang,  Yan Zhao,  
 Ying Zhu,  B. R. Brooks,  G. K. L. Chan,  C. J. Cramer,  M. S. Gordon,  
 W. J. Hehre,  A. Klamt,  M. W. Schmidt,  C. D. Sherrill,  D. G. Truhlar,  
 A. Aspuru-Guzik,  R. Baer,  A. T. Bell,  N. A. Besley,  Jeng-Da Chai,  
 A. E. DePrince, III,  R. A. DiStasio Jr.,  A. Dreuw,  B. D. Dunietz,  
 T. R. Furlani,  Chao-Ping Hsu,  Yousung Jung,  Jing Kong,  D. S. Lambrecht,  
 WanZhen Liang,  C. Ochsenfeld,  V. A. Rassolov,  L. V. Slipchenko,  
 J. E. Subotnik,  T. Van Voorhis,  J. M. Herbert,  A. I. Krylov,  
 P. M. W. Gill,  M. Head-Gordon

 Contributors to earlier versions of Q-Chem not listed above: 
 R. D. Adamson,  B. Austin,  J. Baker,  G. J. O. Beran,  K. Brandhorst,  
 S. T. Brown,  E. F. C. Byrd,  A. K. Chakraborty,  C.-L. Cheng,  
 Siu Hung Chien,  D. M. Chipman,  D. L. Crittenden,  H. Dachsel,  
 R. J. Doerksen,  A. D. Dutoi,  L. Fusti-Molnar,  W. A. Goddard III,  
 A. Golubeva-Zadorozhnaya,  S. R. Gwaltney,  G. Hawkins,  A. Heyden,  
 S. Hirata,  G. Kedziora,  F. J. Keil,  C. Kelley,  Jihan Kim,  R. A. King,  
 R. Z. Khaliullin,  P. P. Korambath,  W. Kurlancheek,  A. M. Lee,  M. S. Lee,  
 S. V. Levchenko,  Ching Yeh Lin,  D. Liotard,  R. C. Lochan,  I. Lotan,  
 P. E. Maslen,  N. Nair,  D. P. O'Neill,  D. Neuhauser,  E. Neuscamman,  
 C. M. Oana,  R. Olson,  B. Peters,  R. Peverati,  P. A. Pieniazek,  
 Y. M. Rhee,  J. Ritchie,  M. A. Rohrdanz,  E. Rosta,  N. J. Russ,  
 H. F. Schaefer III,  N. E. Schultz,  N. Shenvi,  A. C. Simmonett,  A. Sodt,  
 D. Stuck,  K. S. Thanthiriwatte,  V. Vanovschi,  Tao Wang,  A. Warshel,  
 C. F. Williams,  Q. Wu,  X. Xu,  W. Zhang

 Please cite Q-Chem as follows:
 Y. Shao et al., Mol. Phys. 113, 184-215 (2015)
 DOI: 10.1080/00268976.2014.952696

 Q-Chem 5.2.0 for Intel X86 EM64T Linux

 Parts of Q-Chem use Armadillo 8.300.2 (Tropical Shenanigans).
 http://arma.sourceforge.net/

 Q-Chem begins on Sun Sep 26 11:32:00 2021  

Host: cori01
0

     Scratch files written to /tmp/qchem17932//Frg2//
 May1019 |scratch|qcdevops|jenkins|workspace|build_RNUM -1
Processing $rem in /global/common/cori/software/qchem/5.2/config/preferences:
	 MEM_TOTAL  96000 
NAlpha2: 32
NElect   32
Mult     1
Symmetry turned off for PCM/SM12/SMD calculation

Checking the input file for inconsistencies... 	...done.

--------------------------------------------------------------
User input:
--------------------------------------------------------------
$molecule
0 1
 6	2.0302662690	-1.5671962143	2.6613323128
 6	1.7202662690	-0.4491962143	1.6843323128
 8	1.5102662690	0.7018037857	2.0873323128
 7	1.7082662690	-0.7681962143	0.3933323128
 1	1.7652662690	-1.2501962143	3.6553323128
 1	3.1012662690	-1.7291962143	2.6333323128
 1	1.5002662690	-0.0501962143	-0.2806676872
 1	1.8552662690	-1.7161962143	0.0913323128
 1	1.5317252690	-2.5206472143	2.4324423128
$end
$rem
EDA2		1
METHOD		WB97X-V
BASIS		DEF2-TZVPD
XC_GRID		000099000590
NL_GRID		1
UNRESTRICTED		FALSE
MAX_SCF_CYCLES		200
SYMMETRY		FALSE
SYM_IGNORE		TRUE
BASIS_LIN_DEP_THRESH		6
THRESH		14
SCF_CONVERGENCE		8
SCF_PRINT_FRGM		TRUE
SOLVENT_METHOD		SMD
!required keywords
JOBTYPE		SP
SYM_IGNORE		TRUE
SUBSYSTEM		TRUE
GEN_SCFMAN		TRUE
CHILD_INSTRUCTION		2
SYM_IGNORE		TRUE
SCFMI		0
RI_K 0		
PARI_K 0		
MIN_PARI_K 0		
IARI_K 0		
OCC_RI_K 0		
PURECART		1111
MEM_STATIC		2000
MEM_TOTAL		96000
GUI		0
CHILD_MP		1
CHILD_MP_ORDERS		232
FRZ_RELAX		0
FRZ_RELAX_METHOD		0
EDA_CLS_ELEC		1
EDA_CLS_DISP		0
FRZ_ORTHO_DECOMP		1
EDA2		FALSE
FRGM_METHOD		FALSE
CIS_N_ROOTS  0
LOCAL_CIS    0
CIS_RLX_DNS  1
$end
$smx
SOLVENT			WATER
$end
--------------------------------------------------------------
 ----------------------------------------------------------------
             Standard Nuclear Orientation (Angstroms)
    I     Atom           X                Y                Z
 ----------------------------------------------------------------
    1      C       2.0302662690    -1.5671962143     2.6613323128
    2      C       1.7202662690    -0.4491962143     1.6843323128
    3      O       1.5102662690     0.7018037857     2.0873323128
    4      N       1.7082662690    -0.7681962143     0.3933323128
    5      H       1.7652662690    -1.2501962143     3.6553323128
    6      H       3.1012662690    -1.7291962143     2.6333323128
    7      H       1.5002662690    -0.0501962143    -0.2806676872
    8      H       1.8552662690    -1.7161962143     0.0913323128
    9      H       1.5317252690    -2.5206472143     2.4324423128
 ----------------------------------------------------------------
 Nuclear Repulsion Energy =         122.03432053 hartrees
 There are       16 alpha and       16 beta electrons
 Requested basis set is def2-TZVPD
 There are 78 shells and 196 basis functions

 Total QAlloc Memory Limit  96000 MB
 Mega-Array Size      1956 MB
 MEM_STATIC part      2000 MB
 
 Citation of the SMD model:
 Marenich, A.V.; Cramer, C.J.; Truhlar, D.G.
 J. Phys. Chem. B 2009, 113, 6378-6396.
 iSolventCode=           1
 Solvent: water                                                           
 
 vradii
            1           2           3           4           5           6
    1   1.8500000   1.8500000   1.5200000   1.8900000   1.2000000   1.2000000
            7           8           9
    1   1.2000000   1.2000000   1.2000000
 Changing PCM_VDW_RADII to SMD_RADIUS
 Discretize the solute cavity surface with Lebedev spheres
	Using 110 Lebedev grid points for each H atom
	Using 194 Lebedev grid points for other atoms
	Atomic van der Waals radii will be scaled by 1.20
 Remove points where switching function is < 1.0e-08
 Keep 730 surface tesserae and discard 596 interior tesserae
 Molecular Surface Area = 90.327 Angst**2

                       Distance Matrix (Angstroms)
             C (  1)   C (  2)   O (  3)   N (  4)   H (  5)   H (  6)
   C (  2)  1.516757
   O (  3)  2.397548  1.237461
   N (  4)  2.426089  1.329882  2.251608
   H (  5)  1.076453  2.128020  2.516735  3.297911
   H (  6)  1.083545  2.108592  2.956207  2.807413  1.748949
   H (  7)  3.352246  2.017133  2.484558  1.006511  4.123387  3.724733
   H (  8)  2.580257  2.039893  3.154325  1.005742  3.595463  2.830980
   H (  9)  1.100001  2.210458  3.240949  2.694480  1.778777  1.769240
             H (  7)   H (  8)
   H (  8)  1.743550
   H (  9)  3.669480  2.496521
 
 A cutoff of  1.0D-14 yielded   3054 shell pairs
 There are     19544 function pairs (     24702 Cartesian)
 Smallest overlap matrix eigenvalue = 1.07E-05

 Scale SEOQF with 1.000000e-01/1.000000e-01/1.000000e-01

 Standard Electronic Orientation quadrupole field applied
 Nucleus-field energy     =    -0.0000000067 hartrees
 Guess from superposition of atomic densities
 Warning:  Energy on first SCF cycle will be non-variational
 SAD guess density has 31.604610 electrons

 -----------------------------------------------------------------------
  General SCF calculation program by
  Eric Jon Sundstrom, Paul Horn, Yuezhi Mao, Dmitri Zuev, Alec White,
  David Stuck, Shaama M.S., Shane Yost, Joonho Lee, David Small,
  Daniel Levine, Susi Lehtola, Hugh Burton, Evgeny Epifanovsky
 -----------------------------------------------------------------------
 Exchange:     0.1670 Hartree-Fock + 1.0000 wB97X-V + LR-HF
 Correlation:  1.0000 wB97X-V
 Using Euler-Maclaurin-Lebedev (99,590) quadrature formula
 Nonlocal Correlation:  VV10 with C = 0.0100 and b = 6.00 and scale = 1.00000
 Grid used for NLC:  SG-1 standard quadrature
Energy prior to optimization (guess energy) = -208.703252025312
Begin Timing: Total SCF Calculation
begin iterations for algorithm: DIIS         
the SCF tolerance is set to 1.00e-08
    1    -208.7032520253      1.26e-02     00000 
    2    -208.3102735322      1.55e-02     00000 
    3    -209.2362340585      2.40e-03     00000 
    4    -209.2555652884      7.74e-04     00000 
    5    -209.2586989772      2.05e-04     00000 
    6    -209.2589858708      6.85e-05     00000 
    7    -209.2590292901      2.09e-05     00000 
    8    -209.2590347239      6.12e-06     00000 
    9    -209.2590355402      2.09e-06     00000 
   10    -209.2590355939      3.97e-07     00000 
   11    -209.2590355954      1.55e-07     00000 
   12    -209.2590355956      2.02e-08     00000 
   13    -209.2590355956      4.78e-09     00000 Convergence criterion met
Timing for Total SCF: 348.00s (wall), 673.09s (cpu)
(3)  G-ENP(liq) elect-nuc-pol free energy of system     -209.259035596 a.u.
(4)  G-CDS(liq) cavity-dispersion-solvent structure 
     free energy                                                3.5025 kcal/mol
(6)  G-S(liq) free energy of system                     -209.253453943 a.u.
E_pcm = -0.0298243413
E_cds = 0.0055816524
Multipole orders to be included
        2
        3
computing dipole RHS
computing quadrupole RHS
total number of RHS in solve_reponses: 8
RHS batch sizes
        8
Beginning Block Conjugate Gradient Iterations. Batch Number: 0
computing hessian-vector products by finite difference
              1      6.52e-01     00000 Conjugate Gradient Iteration
computing hessian-vector products by finite difference
              2      2.07e-01     00000 Conjugate Gradient Iteration
computing hessian-vector products by finite difference
              3      5.29e-02     00000 Conjugate Gradient Iteration
computing hessian-vector products by finite difference
              4      1.31e-02     00000 Conjugate Gradient Iteration
computing hessian-vector products by finite difference
              5      1.92e-03     00000 Conjugate Gradient Iteration
computing hessian-vector products by finite difference
              6      4.29e-04     00000 Conjugate Gradient Iteration
computing hessian-vector products by finite difference
              7      6.03e-05     00000 Conjugate Gradient Iteration
computing hessian-vector products by finite difference
              8      6.77e-06     00000 Conjugate Gradient Iteration
computing hessian-vector products by finite difference
              9      9.73e-07     00000 Conjugate Gradient Iteration
computing hessian-vector products by finite difference
             10      1.10e-07     00000 Conjugate Gradient Iteration
computing hessian-vector products by finite difference
             11      1.28e-08     00000 Conjugate Gradient Iteration
computing hessian-vector products by finite difference
             12      1.97e-09     00000 CG Converged
batch 0 complete
Done Calculating Responses
TESTING ORTHOGONALIZATION OF MULTIPOLE BASIS
Multipole virts passed orthogonality test
Virts Per Order
        48
        80
 
 --------------------------------------------------------------
 
                    Orbital Energies (a.u.)
 --------------------------------------------------------------
 
 Alpha MOs
 -- Occupied --
-19.1851 -14.4270 -10.3804 -10.2606  -1.1730  -1.0415  -0.8639  -0.7099
 -0.6520  -0.5920  -0.5635  -0.5201  -0.4998  -0.4766  -0.3840  -0.3764
 -- Virtual --
  0.0643   0.0958   0.0960   0.1033   0.1286   0.1339   0.1409   0.1488
  0.1745   0.1919   0.2051   0.2138   0.2308   0.2449   0.2498   0.2608
  0.2613   0.2803   0.3080   0.3133   0.3315   0.3388   0.3468   0.3540
  0.3599   0.3729   0.3801   0.3843   0.3936   0.4056   0.4178   0.4255
  0.4311   0.4545   0.4572   0.4807   0.4840   0.4864   0.4907   0.5049
  0.5255   0.5340   0.5384   0.5723   0.5841   0.5905   0.6296   0.6349
  0.6464   0.6541   0.6698   0.6947   0.7018   0.7157   0.7247   0.7668
  0.7785   0.7895   0.8044   0.8120   0.8126   0.8403   0.8571   0.8755
  0.9278   0.9546   0.9804   0.9827   1.0072   1.0383   1.0620   1.0966
  1.1052   1.1802   1.2259   1.2531   1.2877   1.3170   1.3317   1.3922
  1.4802   1.4967   1.5064   1.6147   1.6779   1.7278   1.7582   1.8050
  1.8442   1.8709   1.8885   1.9211   1.9313   1.9483   2.0097   2.0296
  2.0616   2.0889   2.1460   2.1894   2.2273   2.2687   2.3047   2.3462
  2.3596   2.4041   2.4420   2.4795   2.5368   2.6018   2.6051   2.6411
  2.6949   2.7128   2.7563   2.8158   2.8617   2.9343   2.9483   2.9735
  3.0465   3.1239   3.1367   3.1538   3.2044   3.2371   3.2653   3.2946
  3.3129   3.3254   3.3625   3.4146   3.4578   3.5166   3.5365   3.5710
  3.6082   3.6512   3.7168   3.7673   3.8788   3.9338   4.0301   4.0602
  4.0739   4.1981   4.3170   4.3822   4.5583   4.6099   4.6240   4.6495
  4.7994   4.8872   4.8936   4.9302   5.1564   5.1734   5.2630   5.3515
  5.3813   5.3956   5.4078   5.4875   5.5322   5.7515   5.8977   6.1566
  6.2314   6.5043   6.6297   6.7189   6.7980   6.9660   7.2172   7.3063
 22.6196  23.5341  32.4157  44.2976
 --------------------------------------------------------------
 
          Ground-State Mulliken Net Atomic Charges

     Atom                 Charge (a.u.)
  ----------------------------------------
      1 C                    -0.657726
      2 C                     0.457110
      3 O                    -0.696327
      4 N                    -0.301354
      5 H                     0.228347
      6 H                     0.216612
      7 H                     0.253099
      8 H                     0.234644
      9 H                     0.265595
  ----------------------------------------
  Sum of atomic charges =     0.000000

 -----------------------------------------------------------------
                    Cartesian Multipole Moments
 -----------------------------------------------------------------
    Charge (ESU x 10^10)
                 0.0000
    Dipole Moment (Debye)
         X       0.8488      Y      -5.1302      Z      -3.0445
       Tot       6.0257
    Quadrupole Moments (Debye-Ang)
        XX     -22.1977     XY      -9.0971     YY     -21.3959
        XZ      -2.9218     YZ      -8.7751     ZZ     -29.4412
    Octopole Moments (Debye-Ang^2)
       XXX    -123.8088    XXY      -1.8230    XYY     -36.4970
       YYY      30.9405    XXZ     -43.2757    XYZ     -14.8970
       YYZ     -42.1924    XZZ     -47.2698    YZZ      -5.3104
       ZZZ    -137.9786
    Hexadecapole Moments (Debye-Ang^3)
      XXXX    -476.9131   XXXY      57.6576   XXYY    -101.5287
      XYYY      68.5499   YYYY    -176.0782   XXXZ    -220.9421
      XXYZ       0.5330   XYYZ     -75.3998   YYYZ      72.6760
      XXZZ    -181.2975   XYZZ      -4.0154   YYZZ    -131.7161
      XZZZ    -240.4931   YZZZ      38.4257   ZZZZ    -614.5921
 -----------------------------------------------------------------
Archival summary:
1\1\nid00507\SP\ProcedureUnspecified\BasisUnspecified\1125\meili\SunSep2613:08:172021SunSep2613:08:172021\0\\#,ProcedureUnspecified,BasisUnspecified,\\0,1\C\O,1,1.23746\N,1,1.32988,2,122.529\H,3,1.00574,1,121.083,2,-178.194,0\H,3,1.00651,1,118.739,2,-1.39197,0\C,1,1.51676,2,120.698,3,178.944,0\H,6,1.07645,1,109.112,2,15.3323,0\H,6,1.08354,1,107.192,2,-101.539,0\H,6,1.1,1,114.345,2,138.486,0\\\@

 Total job time:  5780.73s(wall), 11242.86s(cpu) 
 Sun Sep 26 13:08:21 2021

        *************************************************************
        *                                                           *
        *  Thank you very much for using Q-Chem.  Have a nice day.  *
        *                                                           *
        *************************************************************


Done Job For Fragment 1
calling putenv with: QCSCRATCH=/global/cscratch1/sd/meili 
calling putenv with: QCLOCALSCR=/tmp 
calling putenv with: QCTHREADS=32 
Doing General SCFMI
 Exchange:     0.1670 Hartree-Fock + 1.0000 wB97X-V + LR-HF
 Correlation:  1.0000 wB97X-V
 Using Euler-Maclaurin-Lebedev (99,590) quadrature formula
 Nonlocal Correlation:  VV10 with C = 0.0100 and b = 6.00 and scale = 1.00000
 Grid used for NLC:  SG-1 standard quadrature
performing fock build before subrot guess so that all methods have access
Printing subrot_rss_gen Method Specification:
Occupied Subspace Method is 0
Virtual Subspace Method is 0
Energy of the unrelaxed supersystem initial determinant -457.783137533319
performing fock build before subrot guess so that all methods have access
Printing subrot_rss_gen Method Specification:
Occupied Subspace Method is 0
Virtual Subspace Method is 0
Energy of the unrelaxed supersystem initial determinant w/ solvent -457.832085972240
write pseudocanon occs and virts to disk
write pseudocanon orbital energies to disk
Tolerance of ortho_decomp_scf: 1.00e-06
GDM subspace size: 20
Beginning the Orthogonal Decomposition of the Initial Supersystem Wavefunction
    1    -457.7419451155      5.01e-02     ortho_decomp Preconditoned Steepest Descent
    2    -457.7465551060      1.34e-03     ortho_decomp BFGS Step
    3    -457.7465714885      9.05e-05     ortho_decomp BFGS Step
    4    -457.7465715069      3.32e-06     ortho_decomp BFGS Step
    5    -457.7465715070      1.14e-07     ortho_decomp 00000 Convergence criterion met
 Hartree-Fock
 Hartree-Fock
 Hartree-Fock
Doing General SCFMI
 Exchange:     0.1670 Hartree-Fock + 1.0000 wB97X-V + LR-HF
 Correlation:  1.0000 wB97X-V
 Using Euler-Maclaurin-Lebedev (99,590) quadrature formula
 Nonlocal Correlation:  VV10 with C = 0.0100 and b = 6.00 and scale = 1.00000
 Grid used for NLC:  SG-1 standard quadrature
performing fock build at end of subrot_r(subrot) constructor so that all methods have access
<S^2> of initial wavefunction before polarization iterations 0.0000000000
Beginning iterations for the determination of the polarized wavefunction
Energy prior to optimization (guess energy) = -457.832085972240
Begin Timing: Total SCF Calculation
begin iterations for algorithm: DIIS         
the SCF tolerance is set to 1.00e-08
    1    -457.8320859722      7.43e-05     00000 
    2    -457.8323014251      5.40e-05     00000 
    3    -457.8323597424      1.74e-05     00000 
    4    -457.8323724565      7.72e-06     00000 
    5    -457.8323748875      3.20e-06     00000 
    6    -457.8323756947      1.26e-06     00000 
    7    -457.8323758092      4.57e-07     00000 
    8    -457.8323758227      1.42e-07     00000 
    9    -457.8323758235      6.72e-08     00000 
   10    -457.8323758236      4.01e-08     00000 
   11    -457.8323758236      1.34e-08     00000 
   12    -457.8323758236      5.54e-09     00000 Convergence criterion met
write pseudocanon occs and virts to disk
write pseudocanon orbital energies to disk
Timing for Total SCF: 2791.00s (wall), 5530.24s (cpu)
<S^2> of polarized wavefunction after polarization iterations 0.0000000000
relaxing scfmi constraint to allow all rotations in the entire AO span
Doing General SCFMI
 Exchange:     0.1670 Hartree-Fock + 1.0000 wB97X-V + LR-HF
 Correlation:  1.0000 wB97X-V
 Using Euler-Maclaurin-Lebedev (99,590) quadrature formula
 Nonlocal Correlation:  VV10 with C = 0.0100 and b = 6.00 and scale = 1.00000
 Grid used for NLC:  SG-1 standard quadrature
performing fock build at end of subrot_r(subrot) constructor so that all methods have access
<S^2> of polarized wavefunction before ct-allowed iterations 0.0000000000
Beginning iterations for the determination of the CT-Allowed wavefunction
Energy prior to optimization (guess energy) = -457.832375823616
Begin Timing: Total SCF Calculation
begin iterations for algorithm: DIIS         
the SCF tolerance is set to 1.00e-08
    1    -457.8323758236      9.39e-05     00000 
    2    -457.8332579863      1.01e-05     00000 
    3    -457.8332844708      2.44e-06     00000 
    4    -457.8332851661      2.44e-06     00000 
    5    -457.8332855848      2.24e-07     00000 
    6    -457.8332855955      1.09e-07     00000 
    7    -457.8332855970      3.09e-08     00000 
    8    -457.8332855972      9.64e-09     00000 Convergence criterion met
write pseudocanon occs and virts to disk
write pseudocanon orbital energies to disk
Timing for Total SCF: 1793.00s (wall), 3556.95s (cpu)
<S^2> of ct_allowed wavefunction after ct-allowed iterations 0.0000000000

================================
        Results of EDA2         
================================
Basic EDA Quantities
--------------------
Fragment Energies (Ha):
1 -248.5681728216
2 -209.2534539432
--------------------
  E_prp (kJ/mol) = 0.0000
  E_sol (kJ/mol) = 28.7696
  E_frz (kJ/mol) = -29.3552
  E_pol (kJ/mol) = -0.7610
  E_vct (kJ/mol) = -2.3886
  E_int (kJ/mol) = -3.7352
--------------------


Initial Wavefunction Decomposition
--------------------
  --------------------
  Orthogonal Fragment Subspace Decomposition:
  --------------------
     E_elec   (ELEC)   (kJ/mol) = -66.1464
     E_pauli  (PAULI)  (kJ/mol) = 53.1955
     E_disp   (DISP)   (kJ/mol) = -16.4042
     --------------------
     Terms summing to E_pauli:
     --------------------
        E_kep_pauli       (kJ/mol) = 66.6501
        E_disp_free_pauli (kJ/mol) = -13.4546
  --------------------
  Classical Frozen Decomposition:
  --------------------
     E_cls_elec  (CLS ELEC)  (kJ/mol) = -40.8468
     E_cls_pauli (CLS PAULI) (kJ/mol) = 11.4917
    [E_mod_pauli (MOD PAULI) (kJ/mol) = 27.8959 (CLS PAULI - DISP from orthogonal decomposition) ]
  --------------------
--------------------

Simplified EDA Summary (kJ/mol)
--------------------
 PREPARATION     0.0000
 SOLVATION       28.7696
 FROZEN          -12.9510      (does not include dispersion)
[PAULI           53.1955]     (if this is negligible, then frozen describes electrostatics)
 DISPERSION      -16.4042
 POLARIZATION    -0.7610
 CHARGE TRANSFER -2.3886
 TOTAL           -3.7352     (PRP + SOL + FRZ + DISP + POL + CT)
--------------------
 
 --------------------------------------------------------------
 
                    Orbital Energies (a.u.)
 --------------------------------------------------------------
 
 Alpha MOs
 -- Occupied --
-19.1836 -19.1810 -14.4279 -14.4233 -10.3780 -10.3766 -10.2713 -10.2597
-10.2592  -1.1715  -1.1692  -1.0441  -1.0385  -0.8994  -0.8627  -0.7751
 -0.7101  -0.7024  -0.6598  -0.6492  -0.5909  -0.5871  -0.5685  -0.5615
 -0.5287  -0.5194  -0.5154  -0.4989  -0.4839  -0.4767  -0.4603  -0.4472
 -0.3856  -0.3825  -0.3751  -0.3649
 -- Virtual --
  0.0587   0.0773   0.0809   0.0865   0.1019   0.1031   0.1091   0.1166
  0.1237   0.1287   0.1323   0.1384   0.1435   0.1536   0.1647   0.1686
  0.1782   0.1838   0.1896   0.1962   0.2037   0.2070   0.2114   0.2195
  0.2304   0.2362   0.2414   0.2440   0.2498   0.2584   0.2651   0.2678
  0.2694   0.2765   0.2846   0.2916   0.2958   0.3089   0.3156   0.3218
  0.3246   0.3274   0.3285   0.3329   0.3436   0.3471   0.3503   0.3523
  0.3554   0.3605   0.3612   0.3644   0.3680   0.3764   0.3802   0.3838
  0.3914   0.4001   0.4051   0.4099   0.4125   0.4168   0.4212   0.4240
  0.4302   0.4375   0.4403   0.4479   0.4535   0.4606   0.4655   0.4685
  0.4721   0.4762   0.4794   0.4857   0.4923   0.4960   0.4981   0.5012
  0.5050   0.5192   0.5249   0.5284   0.5332   0.5357   0.5436   0.5492
  0.5564   0.5610   0.5667   0.5710   0.5759   0.5817   0.5918   0.5960
  0.6027   0.6067   0.6141   0.6285   0.6351   0.6400   0.6457   0.6589
  0.6638   0.6702   0.6785   0.6797   0.6830   0.6895   0.6965   0.7097
  0.7155   0.7185   0.7341   0.7430   0.7434   0.7485   0.7601   0.7630
  0.7731   0.7806   0.7858   0.7929   0.7979   0.8050   0.8066   0.8119
  0.8151   0.8276   0.8324   0.8449   0.8512   0.8593   0.8597   0.8625
  0.8712   0.8876   0.8910   0.8937   0.9069   0.9101   0.9315   0.9387
  0.9426   0.9615   0.9654   0.9734   0.9794   0.9867   1.0124   1.0164
  1.0247   1.0378   1.0549   1.0583   1.0729   1.0852   1.0930   1.1085
  1.1171   1.1329   1.1373   1.1584   1.1699   1.1720   1.1826   1.2080
  1.2168   1.2498   1.2701   1.2807   1.2948   1.3076   1.3191   1.3418
  1.3524   1.3697   1.3781   1.3828   1.3978   1.4191   1.4280   1.4425
  1.4854   1.5174   1.5291   1.5392   1.5545   1.5733   1.5989   1.6209
  1.6669   1.6927   1.7210   1.7422   1.7610   1.7763   1.7847   1.8003
  1.8648   1.8849   1.8856   1.9007   1.9132   1.9208   1.9368   1.9438
  1.9541   1.9620   1.9695   1.9744   1.9758   1.9899   2.0044   2.0246
  2.0303   2.0414   2.0700   2.0848   2.0926   2.1089   2.1163   2.1268
  2.1601   2.2013   2.2079   2.2274   2.2308   2.2476   2.2642   2.2738
  2.2995   2.3080   2.3265   2.3375   2.3466   2.3575   2.3859   2.3923
  2.4044   2.4554   2.4635   2.4893   2.5112   2.5271   2.5338   2.5435
  2.5826   2.5967   2.6164   2.6226   2.6336   2.6493   2.6683   2.6988
  2.7031   2.7113   2.7232   2.7319   2.7451   2.7514   2.7827   2.8057
  2.8310   2.8402   2.8585   2.8825   2.8924   2.9183   2.9513   2.9610
  2.9725   2.9977   3.0205   3.0407   3.0505   3.0749   3.0969   3.1273
  3.1453   3.1592   3.1651   3.1843   3.1973   3.2168   3.2333   3.2493
  3.2586   3.2852   3.2942   3.3082   3.3173   3.3295   3.3346   3.3490
  3.3644   3.3762   3.3859   3.4159   3.4231   3.4294   3.4411   3.4578
  3.4774   3.4856   3.5237   3.5385   3.5626   3.5698   3.5881   3.5933
  3.6180   3.6414   3.6447   3.6562   3.6703   3.6838   3.7076   3.7176
  3.7399   3.7486   3.8066   3.8181   3.8910   3.9086   3.9409   3.9622
  4.0184   4.0487   4.0626   4.0768   4.0885   4.1008   4.1642   4.1699
  4.2003   4.2194   4.3313   4.3418   4.3504   4.4213   4.4409   4.5420
  4.5710   4.5847   4.6225   4.6344   4.6513   4.6646   4.6933   4.7239
  4.7518   4.8148   4.8706   4.8994   4.9233   4.9397   4.9431   4.9911
  5.0032   5.0902   5.1777   5.2006   5.2085   5.2276   5.2771   5.2977
  5.3672   5.3878   5.4020   5.4144   5.4210   5.4227   5.4316   5.4723
  5.5354   5.5587   5.5697   5.5877   5.7534   5.7623   5.9081   5.9195
  6.1762   6.1912   6.2305   6.2472   6.5160   6.5243   6.6744   6.6884
  6.7349   6.7473   6.8077   6.8401   6.9936   6.9995   7.2378   7.2631
  7.3182   7.3360  22.6232  22.6426  22.8376  23.5617  23.6195  32.4978
 32.5267  44.3678  44.3827
 --------------------------------------------------------------
 
          Ground-State Mulliken Net Atomic Charges

     Atom                 Charge (a.u.)
  ----------------------------------------
      1 C                     0.259575
      2 C                    -1.278502
      3 C                     0.233937
      4 O                    -0.718392
      5 N                    -0.225657
      6 H                     0.233922
      7 H                     0.124347
      8 H                     0.349327
      9 H                     0.281618
     10 H                     0.174331
     11 H                     0.260176
     12 H                     0.283376
     13 C                    -0.853132
     14 C                     0.633112
     15 O                    -0.716008
     16 N                    -0.235253
     17 H                     0.249838
     18 H                     0.256343
     19 H                     0.212668
     20 H                     0.206094
     21 H                     0.268283
  ----------------------------------------
  Sum of atomic charges =     0.000000

 -----------------------------------------------------------------
                    Cartesian Multipole Moments
 -----------------------------------------------------------------
    Charge (ESU x 10^10)
                 0.0000
    Dipole Moment (Debye)
         X      -3.0233      Y      -0.3599      Z      -3.9915
       Tot       5.0201
    Quadrupole Moments (Debye-Ang)
        XX     -45.4256     XY     -13.4071     YY     -53.1263
        XZ       6.6549     YZ     -16.1890     ZZ     -53.0430
    Octopole Moments (Debye-Ang^2)
       XXX      -5.3544    XXY      -9.0418    XYY       3.9849
       YYY      -7.4184    XXZ     -27.0299    XYZ      -6.4101
       YYZ      -1.3191    XZZ     -35.3460    YZZ      -8.2104
       ZZZ     -56.7336
    Hexadecapole Moments (Debye-Ang^3)
      XXXX    -996.3059   XXXY     164.3619   XXYY    -224.2264
      XYYY     182.9733   YYYY    -435.3893   XXXZ    -330.8041
      XXYZ     -19.7963   XYYZ    -116.7679   YYYZ      61.8268
      XXZZ    -288.2565   XYZZ      19.8143   YYZZ    -262.2932
      XZZZ    -286.0332   YZZZ      25.3805   ZZZZ    -996.5546
 -----------------------------------------------------------------
Archival summary:
1\1\nid00507\SP\ProcedureUnspecified\BasisUnspecified\22512\meili\SunSep2615:27:142021SunSep2615:27:142021\0\\#,ProcedureUnspecified,BasisUnspecified,\\0,1\O\C,1,1.24421\N,2,1.31541,1,121.668\H,3,1.00544,2,122.249,1,-175.944,0\H,3,1.01023,2,117.69,1,1.85792,0\C,2,1.53294,1,121.24,3,-177.873,0\H,6,1.08701,2,106.914,1,-28.278,0\H,6,1.09028,2,107.789,1,88.0003,0\C,6,1.55494,2,114.976,1,-150.639,0\H,9,1.09191,6,109.741,2,-61.4629,0\H,9,1.1,6,108.197,2,-178.454,0\H,9,1.1,6,113.069,2,58.7143,0\H,7,2.4577,6,96.3882,2,69.2801,0\N,13,1.00651,7,97.1424,6,-168.95,0\H,14,1.00574,13,120.101,7,111.139,0\C,14,1.32988,13,118.739,7,-65.6959,0\O,16,1.23746,14,122.529,13,-1.39197,0\C,16,1.51676,14,116.766,13,179.625,0\H,18,1.07645,16,109.112,14,-165.664,0\H,18,1.08354,16,107.192,14,77.464,0\H,18,1.1,16,114.345,14,-42.5105,0\\\@

 Total job time:  25668.41s(wall), 16534.10s(cpu) 
 Sun Sep 26 15:27:18 2021

        *************************************************************
        *                                                           *
        *  Thank you very much for using Q-Chem.  Have a nice day.  *
        *                                                           *
        *************************************************************


