
Running Job 1 of 1 SSI-037PHE-048HIE-1_PCM_TZVPD.in
qchem SSI-037PHE-048HIE-1_PCM_TZVPD.in_28945.0 /tmp/qchem28945/ 0
/global/common/cori/software/qchem/5.2/exe/qcprog.exe_s SSI-037PHE-048HIE-1_PCM_TZVPD.in_28945.0 /tmp/qchem28945/
                  Welcome to Q-Chem
     A Quantum Leap Into The Future Of Chemistry


 Q-Chem 5.2, Q-Chem, Inc., Pleasanton, CA (2019)

 License issued to: National Energy Research Scientific Computing Center

 Yihan Shao,  Zhengting Gan,  E. Epifanovsky,  A. T. B. Gilbert,  M. Wormit,  
 J. Kussmann,  A. W. Lange,  A. Behn,  Jia Deng,  Xintian Feng,  D. Ghosh,  
 M. Goldey,  P. R. Horn,  L. D. Jacobson,  I. Kaliman,  T. Kus,  A. Landau,  
 Jie Liu,  E. I. Proynov,  R. M. Richard,  R. P. Steele,  E. J. Sundstrom,  
 H. L. Woodcock III,  P. M. Zimmerman,  D. Zuev,  B. Albrecht,  E. Alguire,  
 S. A. Baeppler,  D. Barton,  Z. Benda,  Y. A. Bernard,  E. J. Berquist,  
 K. B. Bravaya,  H. Burton,  D. Casanova,  Chun-Min Chang,  Yunqing Chen,  
 A. Chien,  K. D. Closser,  M. P. Coons,  S. Coriani,  S. Dasgupta,  
 A. L. Dempwolff,  M. Diedenhofen,  Hainam Do,  R. G. Edgar,  Po-Tung Fang,  
 S. Faraji,  S. Fatehi,  Qingguo Feng,  K. D. Fenk,  J. Fosso-Tande,  
 J. Gayvert,  Qinghui Ge,  A. Ghysels,  G. Gidofalvi,  J. Gomes,  
 J. Gonthier,  A. Gunina,  D. Hait,  M. W. D. Hanson-Heine,  
 P. H. P. Harbach,  A. W. Hauser,  M. F. Herbst,  J. E. Herr,  
 E. G. Hohenstein,  Z. C. Holden,  Kerwin Hui,  B. C. Huynh,  T.-C. Jagau,  
 Hyunjun Ji,  B. Kaduk,  K. Khistyaev,  Jaehoon Kim,  P. Klunzinger,  K. Koh,  
 D. Kosenkov,  L. Koulias,  T. Kowalczyk,  C. M. Krauter,  A. Kunitsa,  
 Ka Un Lao,  A. Laurent,  K. V. Lawler,  Joonho Lee,  D. Lefrancois,  
 S. Lehtola,  D. S. Levine,  Yi-Pei Li,  You-Sheng Lin,  Fenglai Liu,  
 E. Livshits,  A. Luenser,  P. Manohar,  E. Mansoor,  S. F. Manzer,  
 Shan-Ping Mao,  Yuezhi Mao,  N. Mardirossian,  A. V. Marenich,  
 T. Markovich,  L. A. Martinez-Martinez,  S. A. Maurer,  N. J. Mayhall,  
 S. C. McKenzie,  J.-M. Mewes,  P. Morgante,  A. F. Morrison,  
 J. W. Mullinax,  K. Nanda,  T. S. Nguyen-Beck,  R. Olivares-Amaya,  
 J. A. Parkhill,  Zheng Pei,  T. M. Perrine,  F. Plasser,  P. Pokhilko,  
 S. Prager,  A. Prociuk,  E. Ramos,  D. R. Rehn,  F. Rob,  M. Scheurer,  
 M. Schneider,  N. Sergueev,  S. M. Sharada,  S. Sharma,  D. W. Small,  
 T. Stauch,  T. Stein,  Yu-Chuan Su,  A. J. W. Thom,  A. Tkatchenko,  
 T. Tsuchimochi,  N. M. Tubman,  L. Vogt,  M. L. Vidal,  O. Vydrov,  
 M. A. Watson,  J. Wenzel,  M. de Wergifosse,  T. A. Wesolowski,  A. White,  
 J. Witte,  A. Yamada,  Jun Yang,  K. Yao,  S. Yeganeh,  S. R. Yost,  
 Zhi-Qiang You,  A. Zech,  Igor Ying Zhang,  Xing Zhang,  Yan Zhao,  
 Ying Zhu,  B. R. Brooks,  G. K. L. Chan,  C. J. Cramer,  M. S. Gordon,  
 W. J. Hehre,  A. Klamt,  M. W. Schmidt,  C. D. Sherrill,  D. G. Truhlar,  
 A. Aspuru-Guzik,  R. Baer,  A. T. Bell,  N. A. Besley,  Jeng-Da Chai,  
 A. E. DePrince, III,  R. A. DiStasio Jr.,  A. Dreuw,  B. D. Dunietz,  
 T. R. Furlani,  Chao-Ping Hsu,  Yousung Jung,  Jing Kong,  D. S. Lambrecht,  
 WanZhen Liang,  C. Ochsenfeld,  V. A. Rassolov,  L. V. Slipchenko,  
 J. E. Subotnik,  T. Van Voorhis,  J. M. Herbert,  A. I. Krylov,  
 P. M. W. Gill,  M. Head-Gordon

 Contributors to earlier versions of Q-Chem not listed above: 
 R. D. Adamson,  B. Austin,  J. Baker,  G. J. O. Beran,  K. Brandhorst,  
 S. T. Brown,  E. F. C. Byrd,  A. K. Chakraborty,  C.-L. Cheng,  
 Siu Hung Chien,  D. M. Chipman,  D. L. Crittenden,  H. Dachsel,  
 R. J. Doerksen,  A. D. Dutoi,  L. Fusti-Molnar,  W. A. Goddard III,  
 A. Golubeva-Zadorozhnaya,  S. R. Gwaltney,  G. Hawkins,  A. Heyden,  
 S. Hirata,  G. Kedziora,  F. J. Keil,  C. Kelley,  Jihan Kim,  R. A. King,  
 R. Z. Khaliullin,  P. P. Korambath,  W. Kurlancheek,  A. M. Lee,  M. S. Lee,  
 S. V. Levchenko,  Ching Yeh Lin,  D. Liotard,  R. C. Lochan,  I. Lotan,  
 P. E. Maslen,  N. Nair,  D. P. O'Neill,  D. Neuhauser,  E. Neuscamman,  
 C. M. Oana,  R. Olson,  B. Peters,  R. Peverati,  P. A. Pieniazek,  
 Y. M. Rhee,  J. Ritchie,  M. A. Rohrdanz,  E. Rosta,  N. J. Russ,  
 H. F. Schaefer III,  N. E. Schultz,  N. Shenvi,  A. C. Simmonett,  A. Sodt,  
 D. Stuck,  K. S. Thanthiriwatte,  V. Vanovschi,  Tao Wang,  A. Warshel,  
 C. F. Williams,  Q. Wu,  X. Xu,  W. Zhang

 Please cite Q-Chem as follows:
 Y. Shao et al., Mol. Phys. 113, 184-215 (2015)
 DOI: 10.1080/00268976.2014.952696

 Q-Chem 5.2.0 for Intel X86 EM64T Linux

 Parts of Q-Chem use Armadillo 8.300.2 (Tropical Shenanigans).
 http://arma.sourceforge.net/

 Q-Chem begins on Sun Sep 26 05:58:20 2021  

Host: cori01
0

     Scratch files written to /tmp/qchem28945//
 May1019 |scratch|qcdevops|jenkins|workspace|build_RNUM -1
Processing $rem in /global/common/cori/software/qchem/5.2/config/preferences:
	 MEM_TOTAL  96000 
NAlpha2: 102
NElect   102
Mult     1
Symmetry turned off for PCM/SM12/SMD calculation

 Q-Chem warning in module libgen/rem_setup.C, line 2803:

 Neither GIA nor STOLL is specified by user. Use STOLL as the default


Checking the input file for inconsistencies... 	...done.

--------------------------------------------------------------
User input:
--------------------------------------------------------------
$comment
SSI-037PHE-048HIE-1.pdb
$end

$molecule
0 1
--
0 1
C    1.321836683026   -0.763827485411   -0.440833080370
C    2.063836683026   -2.093827485411   -0.355833080370
C    2.052836683026    0.371172514589    0.219166919630
C    2.704836683026    1.324172514589   -0.563833080370
C    2.136836683026    0.451172514589    1.621166919630
C    3.444836683026    2.349172514589    0.031166919630
C    2.873836683026    1.472172514589    2.229166919630
C    3.535836683026    2.428172514589    1.434166919630
H    1.113836683026   -0.523827485411   -1.484833080370
H    0.365836683026   -0.859827485411    0.072166919630
H    2.256836683026   -2.247827485411    0.702166919630
H    2.587836683026    1.281172514589   -1.632833080370
H    1.642836683026   -0.288827485411    2.230166919630
H    3.933836683026    3.091172514589   -0.584833080370
H    2.939836683026    1.520172514589    3.308166919630
H    4.107836683026    3.221172514589    1.898166919630
H    3.010406683026   -2.050557485411   -0.914513080370
H    1.430516683026   -2.934397485411   -0.675743080370
--
0 1
C   -4.244163316974   -2.783827485411   -0.465833080370
C   -2.238163316974   -1.196827485411   -0.982833080370
C   -3.498163316974   -1.470827485411   -0.550833080370
C   -3.234163316974    0.719172514589   -0.558833080370
N   -2.098163316974    0.176172514589   -0.976833080370
N   -4.102163316974   -0.254827485411   -0.291833080370
H   -1.525163316974   -1.909827485411   -1.361833080370
H   -1.285163316974    0.718172514589   -1.267833080370
H   -4.702163316974   -2.943827485411   -1.443833080370
H   -5.056163316974   -2.690827485411    0.257166919630
H   -3.429163316974    1.783172514589   -0.488833080370
H   -3.638023316974   -3.670167485411   -0.227093080370
$end

$rem
JOBTYPE			EDA
EDA2			1
method			wB97X-V
BASIS			def2-TZVPD
XC_GRID			000099000590
NL_GRID			1
UNRESTRICTED		FALSE
MAX_SCF_CYCLES		200
SYMMETRY		FALSE
SYM_IGNORE		TRUE
MEM_STATIC		2000
BASIS_LIN_DEP_THRESH 	6
THRESH 			14
SCF_CONVERGENCE 	8
SCF_PRINT_FRGM 		TRUE
SOLVENT_METHOD          PCM
$end

$PCM
THEORY                  CPCM
METHOD                  SWIG
SOLVER                  INVERSION
RADII                   UFF
HPOINTS                 302
HEAVYPOINTS             302
PRINTLEVEL              0
$END

$SOLVENT
DIELECTRIC              78.390000 ! water
$END
--------------------------------------------------------------
 ----------------------------------------------------------------
             Standard Nuclear Orientation (Angstroms)
    I     Atom           X                Y                Z
 ----------------------------------------------------------------
    1      C       1.3218366830    -0.7638274854    -0.4408330804
    2      C       2.0638366830    -2.0938274854    -0.3558330804
    3      C       2.0528366830     0.3711725146     0.2191669196
    4      C       2.7048366830     1.3241725146    -0.5638330804
    5      C       2.1368366830     0.4511725146     1.6211669196
    6      C       3.4448366830     2.3491725146     0.0311669196
    7      C       2.8738366830     1.4721725146     2.2291669196
    8      C       3.5358366830     2.4281725146     1.4341669196
    9      H       1.1138366830    -0.5238274854    -1.4848330804
   10      H       0.3658366830    -0.8598274854     0.0721669196
   11      H       2.2568366830    -2.2478274854     0.7021669196
   12      H       2.5878366830     1.2811725146    -1.6328330804
   13      H       1.6428366830    -0.2888274854     2.2301669196
   14      H       3.9338366830     3.0911725146    -0.5848330804
   15      H       2.9398366830     1.5201725146     3.3081669196
   16      H       4.1078366830     3.2211725146     1.8981669196
   17      H       3.0104066830    -2.0505574854    -0.9145130804
   18      H       1.4305166830    -2.9343974854    -0.6757430804
   19      C      -4.2441633170    -2.7838274854    -0.4658330804
   20      C      -2.2381633170    -1.1968274854    -0.9828330804
   21      C      -3.4981633170    -1.4708274854    -0.5508330804
   22      C      -3.2341633170     0.7191725146    -0.5588330804
   23      N      -2.0981633170     0.1761725146    -0.9768330804
   24      N      -4.1021633170    -0.2548274854    -0.2918330804
   25      H      -1.5251633170    -1.9098274854    -1.3618330804
   26      H      -1.2851633170     0.7181725146    -1.2678330804
   27      H      -4.7021633170    -2.9438274854    -1.4438330804
   28      H      -5.0561633170    -2.6908274854     0.2571669196
   29      H      -3.4291633170     1.7831725146    -0.4888330804
   30      H      -3.6380233170    -3.6701674854    -0.2270930804
 ----------------------------------------------------------------
 Nuclear Repulsion Energy =         788.43679086 hartrees
 There are       51 alpha and       51 beta electrons
 Requested basis set is def2-TZVPD
 There are 262 shells and 662 basis functions

 Total QAlloc Memory Limit  96000 MB
 Mega-Array Size      1956 MB
 MEM_STATIC part      2000 MB
 Discretize the solute cavity surface with Lebedev spheres
	Using 302 Lebedev grid points for each H atom
	Using 302 Lebedev grid points for other atoms
	Atomic van der Waals radii will be scaled by 1.20
 Remove points where switching function is < 1.0e-08
 Keep 3392 surface tesserae and discard 5668 interior tesserae
 Molecular Surface Area = 331.807 Angst**2
 A cutoff of  1.0D-14 yielded  28413 shell pairs
 There are    180635 function pairs (    227142 Cartesian)
 Smallest overlap matrix eigenvalue = 5.43E-07
 Linear dependence detected in AO basis
 Tighter screening thresholds may be required for diffuse basis sets
 Use S2THRESH > 14 and THRESH = 14 in case of SCF convergence issues
 Number of orthogonalized atomic orbitals = 660
 Maximum deviation from orthogonality = 2.201E-10

 Scale SEOQF with 1.000000e-01/1.000000e-01/1.000000e-01

 Standard Electronic Orientation quadrupole field applied
 Nucleus-field energy     =     0.0000000396 hartrees

 -----------------------------------------------------------------------
  General SCF calculation program by
  Eric Jon Sundstrom, Paul Horn, Yuezhi Mao, Dmitri Zuev, Alec White,
  David Stuck, Shaama M.S., Shane Yost, Joonho Lee, David Small,
  Daniel Levine, Susi Lehtola, Hugh Burton, Evgeny Epifanovsky
 -----------------------------------------------------------------------
================================================================
                 ALMO-EDA with the EDA2 driver                  
================================================================
 The second-generation ALMO-EDA (for DFT):                      
 P. R. Horn, Y. Mao and M. Head-Gordon, PCCP, 18, 23067 (2016)  
 Decomposition of the frozen energy:                            
 P. R. Horn, Y. Mao and M. Head-Gordon, JCP, 144, 114107 (2016) 
 FERF model for polarization:                                   
 P. R. Horn and M. Head-Gordon, JCP, 143, 114111 (2015)         
Using eda2 option set 1
Option set summary: Frozen orbital wavefunction, initial wavefunction decomposition, and nDQ polarization.
--------------------------------
Printing EDA Options
--------------------------------
eda_child_super_basis      0
fragmo_guess_mode          0
child_mp                   1
child_mp_orders            232
cls_elec                   1
cls_disp                   0
scfmi_mode                 1
scfmi_occs                 0
scfmi_virts                0
frz_relax                  0
frz_relax_method           0
dc_pen_start               0
dc_pen_conv                0
dc_pen_increment           0
dc_pen_steps               0
dc_pen_thresh_factor       0
dc_pen_pre_newton_thresh   0
frz_ortho_decomp           1
frz_ortho_decomp_conv      6
frgm_method                2
scfmi_freeze_ss            0
separate_rehyb             0
plot_diff_den              0
eda_nocv                   0
eda_vct_relax              1
disp_free_x                0
disp_free_c                0
eda_bsse                   0
eda_pct_a                  0
eda_covp                   0
--------------------------------
Attempting to make child job directory: /tmp/qchem28945//Frg1/
Attempting to make child job directory: /tmp/qchem28945//Frg2/
Creating input file /tmp/qchem28945/Frg1.input
using default PutDataFrgm: nothing
calling putenv with: QCSCRATCH=/tmp/qchem28945/ 
calling putenv with: QCLOCALSCR=/tmp/qchem28945/ 
Spawning Job For Fragment 0
                  Welcome to Q-Chem
     A Quantum Leap Into The Future Of Chemistry


 Q-Chem 5.2, Q-Chem, Inc., Pleasanton, CA (2019)

 License issued to: National Energy Research Scientific Computing Center

 Yihan Shao,  Zhengting Gan,  E. Epifanovsky,  A. T. B. Gilbert,  M. Wormit,  
 J. Kussmann,  A. W. Lange,  A. Behn,  Jia Deng,  Xintian Feng,  D. Ghosh,  
 M. Goldey,  P. R. Horn,  L. D. Jacobson,  I. Kaliman,  T. Kus,  A. Landau,  
 Jie Liu,  E. I. Proynov,  R. M. Richard,  R. P. Steele,  E. J. Sundstrom,  
 H. L. Woodcock III,  P. M. Zimmerman,  D. Zuev,  B. Albrecht,  E. Alguire,  
 S. A. Baeppler,  D. Barton,  Z. Benda,  Y. A. Bernard,  E. J. Berquist,  
 K. B. Bravaya,  H. Burton,  D. Casanova,  Chun-Min Chang,  Yunqing Chen,  
 A. Chien,  K. D. Closser,  M. P. Coons,  S. Coriani,  S. Dasgupta,  
 A. L. Dempwolff,  M. Diedenhofen,  Hainam Do,  R. G. Edgar,  Po-Tung Fang,  
 S. Faraji,  S. Fatehi,  Qingguo Feng,  K. D. Fenk,  J. Fosso-Tande,  
 J. Gayvert,  Qinghui Ge,  A. Ghysels,  G. Gidofalvi,  J. Gomes,  
 J. Gonthier,  A. Gunina,  D. Hait,  M. W. D. Hanson-Heine,  
 P. H. P. Harbach,  A. W. Hauser,  M. F. Herbst,  J. E. Herr,  
 E. G. Hohenstein,  Z. C. Holden,  Kerwin Hui,  B. C. Huynh,  T.-C. Jagau,  
 Hyunjun Ji,  B. Kaduk,  K. Khistyaev,  Jaehoon Kim,  P. Klunzinger,  K. Koh,  
 D. Kosenkov,  L. Koulias,  T. Kowalczyk,  C. M. Krauter,  A. Kunitsa,  
 Ka Un Lao,  A. Laurent,  K. V. Lawler,  Joonho Lee,  D. Lefrancois,  
 S. Lehtola,  D. S. Levine,  Yi-Pei Li,  You-Sheng Lin,  Fenglai Liu,  
 E. Livshits,  A. Luenser,  P. Manohar,  E. Mansoor,  S. F. Manzer,  
 Shan-Ping Mao,  Yuezhi Mao,  N. Mardirossian,  A. V. Marenich,  
 T. Markovich,  L. A. Martinez-Martinez,  S. A. Maurer,  N. J. Mayhall,  
 S. C. McKenzie,  J.-M. Mewes,  P. Morgante,  A. F. Morrison,  
 J. W. Mullinax,  K. Nanda,  T. S. Nguyen-Beck,  R. Olivares-Amaya,  
 J. A. Parkhill,  Zheng Pei,  T. M. Perrine,  F. Plasser,  P. Pokhilko,  
 S. Prager,  A. Prociuk,  E. Ramos,  D. R. Rehn,  F. Rob,  M. Scheurer,  
 M. Schneider,  N. Sergueev,  S. M. Sharada,  S. Sharma,  D. W. Small,  
 T. Stauch,  T. Stein,  Yu-Chuan Su,  A. J. W. Thom,  A. Tkatchenko,  
 T. Tsuchimochi,  N. M. Tubman,  L. Vogt,  M. L. Vidal,  O. Vydrov,  
 M. A. Watson,  J. Wenzel,  M. de Wergifosse,  T. A. Wesolowski,  A. White,  
 J. Witte,  A. Yamada,  Jun Yang,  K. Yao,  S. Yeganeh,  S. R. Yost,  
 Zhi-Qiang You,  A. Zech,  Igor Ying Zhang,  Xing Zhang,  Yan Zhao,  
 Ying Zhu,  B. R. Brooks,  G. K. L. Chan,  C. J. Cramer,  M. S. Gordon,  
 W. J. Hehre,  A. Klamt,  M. W. Schmidt,  C. D. Sherrill,  D. G. Truhlar,  
 A. Aspuru-Guzik,  R. Baer,  A. T. Bell,  N. A. Besley,  Jeng-Da Chai,  
 A. E. DePrince, III,  R. A. DiStasio Jr.,  A. Dreuw,  B. D. Dunietz,  
 T. R. Furlani,  Chao-Ping Hsu,  Yousung Jung,  Jing Kong,  D. S. Lambrecht,  
 WanZhen Liang,  C. Ochsenfeld,  V. A. Rassolov,  L. V. Slipchenko,  
 J. E. Subotnik,  T. Van Voorhis,  J. M. Herbert,  A. I. Krylov,  
 P. M. W. Gill,  M. Head-Gordon

 Contributors to earlier versions of Q-Chem not listed above: 
 R. D. Adamson,  B. Austin,  J. Baker,  G. J. O. Beran,  K. Brandhorst,  
 S. T. Brown,  E. F. C. Byrd,  A. K. Chakraborty,  C.-L. Cheng,  
 Siu Hung Chien,  D. M. Chipman,  D. L. Crittenden,  H. Dachsel,  
 R. J. Doerksen,  A. D. Dutoi,  L. Fusti-Molnar,  W. A. Goddard III,  
 A. Golubeva-Zadorozhnaya,  S. R. Gwaltney,  G. Hawkins,  A. Heyden,  
 S. Hirata,  G. Kedziora,  F. J. Keil,  C. Kelley,  Jihan Kim,  R. A. King,  
 R. Z. Khaliullin,  P. P. Korambath,  W. Kurlancheek,  A. M. Lee,  M. S. Lee,  
 S. V. Levchenko,  Ching Yeh Lin,  D. Liotard,  R. C. Lochan,  I. Lotan,  
 P. E. Maslen,  N. Nair,  D. P. O'Neill,  D. Neuhauser,  E. Neuscamman,  
 C. M. Oana,  R. Olson,  B. Peters,  R. Peverati,  P. A. Pieniazek,  
 Y. M. Rhee,  J. Ritchie,  M. A. Rohrdanz,  E. Rosta,  N. J. Russ,  
 H. F. Schaefer III,  N. E. Schultz,  N. Shenvi,  A. C. Simmonett,  A. Sodt,  
 D. Stuck,  K. S. Thanthiriwatte,  V. Vanovschi,  Tao Wang,  A. Warshel,  
 C. F. Williams,  Q. Wu,  X. Xu,  W. Zhang

 Please cite Q-Chem as follows:
 Y. Shao et al., Mol. Phys. 113, 184-215 (2015)
 DOI: 10.1080/00268976.2014.952696

 Q-Chem 5.2.0 for Intel X86 EM64T Linux

 Parts of Q-Chem use Armadillo 8.300.2 (Tropical Shenanigans).
 http://arma.sourceforge.net/

 Q-Chem begins on Sun Sep 26 05:58:27 2021  

Host: cori01
0

     Scratch files written to /tmp/qchem28945//Frg1//
 May1019 |scratch|qcdevops|jenkins|workspace|build_RNUM -1
Processing $rem in /global/common/cori/software/qchem/5.2/config/preferences:
	 MEM_TOTAL  96000 
NAlpha2: 58
NElect   58
Mult     1
Symmetry turned off for PCM/SM12/SMD calculation

Checking the input file for inconsistencies... 	...done.

--------------------------------------------------------------
User input:
--------------------------------------------------------------
$molecule
0 1
 6	1.3218366830	-0.7638274854	-0.4408330804
 6	2.0638366830	-2.0938274854	-0.3558330804
 6	2.0528366830	0.3711725146	0.2191669196
 6	2.7048366830	1.3241725146	-0.5638330804
 6	2.1368366830	0.4511725146	1.6211669196
 6	3.4448366830	2.3491725146	0.0311669196
 6	2.8738366830	1.4721725146	2.2291669196
 6	3.5358366830	2.4281725146	1.4341669196
 1	1.1138366830	-0.5238274854	-1.4848330804
 1	0.3658366830	-0.8598274854	0.0721669196
 1	2.2568366830	-2.2478274854	0.7021669196
 1	2.5878366830	1.2811725146	-1.6328330804
 1	1.6428366830	-0.2888274854	2.2301669196
 1	3.9338366830	3.0911725146	-0.5848330804
 1	2.9398366830	1.5201725146	3.3081669196
 1	4.1078366830	3.2211725146	1.8981669196
 1	3.0104066830	-2.0505574854	-0.9145130804
 1	1.4305166830	-2.9343974854	-0.6757430804
$end
$rem
EDA2		1
METHOD		WB97X-V
BASIS		DEF2-TZVPD
XC_GRID		000099000590
NL_GRID		1
UNRESTRICTED		FALSE
MAX_SCF_CYCLES		200
SYMMETRY		FALSE
SYM_IGNORE		TRUE
BASIS_LIN_DEP_THRESH		6
THRESH		14
SCF_CONVERGENCE		8
SCF_PRINT_FRGM		TRUE
SOLVENT_METHOD		PCM
!required keywords
JOBTYPE		SP
SYM_IGNORE		TRUE
SUBSYSTEM		TRUE
GEN_SCFMAN		TRUE
CHILD_INSTRUCTION		2
SYM_IGNORE		TRUE
SCFMI		0
RI_K 0		
PARI_K 0		
MIN_PARI_K 0		
IARI_K 0		
OCC_RI_K 0		
PURECART		1111
MEM_STATIC		2000
MEM_TOTAL		96000
GUI		0
CHILD_MP		1
CHILD_MP_ORDERS		232
FRZ_RELAX		0
FRZ_RELAX_METHOD		0
EDA_CLS_ELEC		1
EDA_CLS_DISP		0
FRZ_ORTHO_DECOMP		1
EDA2		FALSE
FRGM_METHOD		FALSE
CIS_N_ROOTS  0
LOCAL_CIS    0
CIS_RLX_DNS  1
$end
$pcm
THEORY                  CPCM
METHOD                  SWIG
SOLVER                  INVERSION
RADII                   UFF
HPOINTS                 302
HEAVYPOINTS             302
PRINTLEVEL              0
$end
$solvent
DIELECTRIC              78.390000 ! water
$end
--------------------------------------------------------------
 ----------------------------------------------------------------
             Standard Nuclear Orientation (Angstroms)
    I     Atom           X                Y                Z
 ----------------------------------------------------------------
    1      C       1.3218366830    -0.7638274854    -0.4408330804
    2      C       2.0638366830    -2.0938274854    -0.3558330804
    3      C       2.0528366830     0.3711725146     0.2191669196
    4      C       2.7048366830     1.3241725146    -0.5638330804
    5      C       2.1368366830     0.4511725146     1.6211669196
    6      C       3.4448366830     2.3491725146     0.0311669196
    7      C       2.8738366830     1.4721725146     2.2291669196
    8      C       3.5358366830     2.4281725146     1.4341669196
    9      H       1.1138366830    -0.5238274854    -1.4848330804
   10      H       0.3658366830    -0.8598274854     0.0721669196
   11      H       2.2568366830    -2.2478274854     0.7021669196
   12      H       2.5878366830     1.2811725146    -1.6328330804
   13      H       1.6428366830    -0.2888274854     2.2301669196
   14      H       3.9338366830     3.0911725146    -0.5848330804
   15      H       2.9398366830     1.5201725146     3.3081669196
   16      H       4.1078366830     3.2211725146     1.8981669196
   17      H       3.0104066830    -2.0505574854    -0.9145130804
   18      H       1.4305166830    -2.9343974854    -0.6757430804
 ----------------------------------------------------------------
 Nuclear Repulsion Energy =         340.02744640 hartrees
 There are       29 alpha and       29 beta electrons
 Requested basis set is def2-TZVPD
 There are 154 shells and 386 basis functions

 Total QAlloc Memory Limit  96000 MB
 Mega-Array Size      1956 MB
 MEM_STATIC part      2000 MB
 Discretize the solute cavity surface with Lebedev spheres
	Using 302 Lebedev grid points for each H atom
	Using 302 Lebedev grid points for other atoms
	Atomic van der Waals radii will be scaled by 1.20
 Remove points where switching function is < 1.0e-08
 Keep 2072 surface tesserae and discard 3364 interior tesserae
 Molecular Surface Area = 201.405 Angst**2
 A cutoff of  1.0D-14 yielded  11360 shell pairs
 There are     72800 function pairs (     92269 Cartesian)
 Smallest overlap matrix eigenvalue = 5.78E-07
 Linear dependence detected in AO basis
 Tighter screening thresholds may be required for diffuse basis sets
 Use S2THRESH > 14 and THRESH = 14 in case of SCF convergence issues
 Number of orthogonalized atomic orbitals = 385
 Maximum deviation from orthogonality = 2.282E-10

 Scale SEOQF with 1.000000e-01/1.000000e-01/1.000000e-01

 Standard Electronic Orientation quadrupole field applied
 Nucleus-field energy     =     0.0000000166 hartrees
 Guess from superposition of atomic densities
 Warning:  Energy on first SCF cycle will be non-variational
 SAD guess density has 57.901037 electrons

 -----------------------------------------------------------------------
  General SCF calculation program by
  Eric Jon Sundstrom, Paul Horn, Yuezhi Mao, Dmitri Zuev, Alec White,
  David Stuck, Shaama M.S., Shane Yost, Joonho Lee, David Small,
  Daniel Levine, Susi Lehtola, Hugh Burton, Evgeny Epifanovsky
 -----------------------------------------------------------------------
 Exchange:     0.1670 Hartree-Fock + 1.0000 wB97X-V + LR-HF
 Correlation:  1.0000 wB97X-V
 Using Euler-Maclaurin-Lebedev (99,590) quadrature formula
 Nonlocal Correlation:  VV10 with C = 0.0100 and b = 6.00 and scale = 1.00000
 Grid used for NLC:  SG-1 standard quadrature
Energy prior to optimization (guess energy) = -310.828907115464
Begin Timing: Total SCF Calculation
begin iterations for algorithm: DIIS         
the SCF tolerance is set to 1.00e-08
    1    -310.8289071155      1.76e-03     00000 
    2    -310.8719809416      1.13e-03     00000 
    3    -310.8961886555      1.28e-04     00000 
    4    -310.8966547067      5.47e-05     00000 
    5    -310.8967090541      2.12e-05     00000 
    6    -310.8967190732      4.06e-06     00000 
    7    -310.8967195789      1.56e-06     00000 
    8    -310.8967196411      3.46e-07     00000 
    9    -310.8967196464      1.02e-07     00000 
   10    -310.8967196471      5.46e-08     00000 
   11    -310.8967196472      1.92e-08     00000 
   12    -310.8967196472      6.78e-09     00000 Convergence criterion met
Timing for Total SCF: 2320.00s (wall), 4607.43s (cpu)

************** Final PCM Free Energy Summary **************
 G_electrostatic  =      -0.00269669 hartree =      -1.69220163 kcal/mol
 G_cavitation     =       0.00000000 hartree =       0.00000000 kcal/mol
 G_dispersion     =       0.00000000 hartree =       0.00000000 kcal/mol
 G_repulsion      =       0.00000000 hartree =       0.00000000 kcal/mol
 --------------------------------------------------
 Non-electrostatic Free Energy =       0.00000000 hartree =       0.00000000 kcal/mol
 Total                         =      -0.00269669 hartree =      -1.69220163 kcal/mol
 --------------------------------------------------
 SCF Energy (H0 + V/2)                       =    -310.89671965 
 Solute Internal Energy (H0)                 =    -310.89402295 
 Total Free Energy (H0 + V/2 + non-elec)     =    -310.89671965 hartree
                                             = -195090.63608148 kcal/mol
***********************************************************

E_pcm = -0.0026966950
Multipole orders to be included
        2
        3
computing dipole RHS
computing quadrupole RHS
total number of RHS in solve_reponses: 8
RHS batch sizes
        8
Beginning Block Conjugate Gradient Iterations. Batch Number: 0
computing hessian-vector products by finite difference
              1      5.64e-01     00000 Conjugate Gradient Iteration
computing hessian-vector products by finite difference
              2      1.89e-01     00000 Conjugate Gradient Iteration
computing hessian-vector products by finite difference
              3      4.55e-02     00000 Conjugate Gradient Iteration
computing hessian-vector products by finite difference
              4      1.03e-02     00000 Conjugate Gradient Iteration
computing hessian-vector products by finite difference
              5      2.79e-03     00000 Conjugate Gradient Iteration
computing hessian-vector products by finite difference
              6      6.09e-04     00000 Conjugate Gradient Iteration
computing hessian-vector products by finite difference
              7      1.82e-04     00000 Conjugate Gradient Iteration
computing hessian-vector products by finite difference
              8      3.20e-05     00000 Conjugate Gradient Iteration
computing hessian-vector products by finite difference
              9      4.93e-06     00000 Conjugate Gradient Iteration
computing hessian-vector products by finite difference
             10      7.74e-07     00000 Conjugate Gradient Iteration
computing hessian-vector products by finite difference
             11      1.25e-07     00000 Conjugate Gradient Iteration
computing hessian-vector products by finite difference
             12      2.38e-08     00000 Conjugate Gradient Iteration
computing hessian-vector products by finite difference
             13      4.15e-09     00000 CG Converged
batch 0 complete
Done Calculating Responses
TESTING ORTHOGONALIZATION OF MULTIPOLE BASIS
Multipole virts passed orthogonality test
Virts Per Order
           87
          145
 
 --------------------------------------------------------------
 
                    Orbital Energies (a.u.)
 --------------------------------------------------------------
 
 Alpha MOs
 -- Occupied --
-10.2811 -10.2777 -10.2768 -10.2757 -10.2733 -10.2708 -10.2661 -10.2585
 -0.9953  -0.9231  -0.8789  -0.8530  -0.7585  -0.7305  -0.6976  -0.6288
 -0.5830  -0.5746  -0.5430  -0.5350  -0.5270  -0.5050  -0.4798  -0.4608
 -0.4566  -0.4356  -0.4308  -0.3493  -0.3362
 -- Virtual --
  0.0583   0.0631   0.0664   0.0808   0.0829   0.0910   0.1041   0.1085
  0.1138   0.1314   0.1570   0.1610   0.1652   0.1742   0.1853   0.1896
  0.1941   0.1998   0.2085   0.2152   0.2261   0.2310   0.2408   0.2501
  0.2609   0.2652   0.2674   0.2714   0.2741   0.2799   0.2881   0.2944
  0.2950   0.3017   0.3025   0.3084   0.3185   0.3248   0.3301   0.3353
  0.3439   0.3519   0.3535   0.3562   0.3620   0.3695   0.3705   0.3739
  0.3807   0.3851   0.3874   0.3922   0.4021   0.4027   0.4130   0.4167
  0.4238   0.4315   0.4323   0.4393   0.4418   0.4497   0.4531   0.4601
  0.4635   0.4687   0.4732   0.4771   0.4871   0.4917   0.4953   0.5065
  0.5079   0.5190   0.5248   0.5257   0.5331   0.5351   0.5429   0.5488
  0.5514   0.5570   0.5661   0.5772   0.5833   0.5873   0.5934   0.6086
  0.6147   0.6207   0.6330   0.6415   0.6488   0.6617   0.6690   0.6732
  0.6855   0.6897   0.6971   0.7035   0.7195   0.7243   0.7250   0.7316
  0.7334   0.7487   0.7509   0.7555   0.7645   0.7686   0.7771   0.7790
  0.7906   0.7931   0.7958   0.7972   0.8066   0.8113   0.8163   0.8244
  0.8282   0.8344   0.8418   0.8432   0.8498   0.8522   0.8648   0.8718
  0.8810   0.8824   0.9119   0.9166   0.9312   0.9361   0.9488   0.9717
  0.9985   1.0165   1.0204   1.0402   1.0500   1.0659   1.0671   1.0854
  1.0959   1.1005   1.1072   1.1133   1.1543   1.1709   1.1958   1.2089
  1.2242   1.2836   1.3027   1.3219   1.3399   1.3696   1.3864   1.3943
  1.4081   1.4182   1.4389   1.4612   1.4671   1.4896   1.5151   1.5276
  1.5485   1.5643   1.6155   1.6256   1.6270   1.6523   1.6839   1.7370
  1.7633   1.7777   1.7926   1.8030   1.8152   1.8373   1.8433   1.8826
  1.8927   1.9029   1.9201   1.9248   1.9335   1.9522   1.9762   1.9834
  1.9933   2.0033   2.0179   2.0271   2.0352   2.0461   2.0645   2.0742
  2.0823   2.1022   2.1373   2.1452   2.1751   2.1952   2.2066   2.2376
  2.2453   2.2752   2.2959   2.3129   2.3273   2.3799   2.3943   2.4025
  2.4249   2.4680   2.5015   2.5306   2.5420   2.5513   2.5876   2.5931
  2.6120   2.6263   2.6376   2.6700   2.6746   2.6928   2.7239   2.7408
  2.7491   2.7702   2.7777   2.7950   2.8112   2.8276   2.8433   2.8503
  2.8899   2.9017   2.9135   2.9233   2.9270   2.9340   2.9576   2.9853
  2.9948   3.0011   3.0257   3.0346   3.0369   3.0536   3.0717   3.0863
  3.0975   3.1505   3.1675   3.1975   3.2132   3.2380   3.2562   3.2619
  3.2976   3.3064   3.3416   3.3471   3.3613   3.3829   3.3982   3.4087
  3.4249   3.4305   3.4489   3.4768   3.4825   3.4875   3.4934   3.4958
  3.5043   3.5214   3.5343   3.5449   3.5594   3.5662   3.5712   3.5924
  3.6133   3.6263   3.6388   3.6608   3.6763   3.6916   3.7082   3.7201
  3.7382   3.7759   3.7896   3.8081   3.8693   3.8714   3.9230   3.9534
  3.9709   3.9852   4.0408   4.0606   4.1077   4.1270   4.1816   4.1934
  4.2168   4.2611   4.2732   4.3009   4.3132   4.3183   4.3317   4.3601
  4.3739   4.3967   4.4169   4.4335   4.4518   4.4897   4.5464   4.5684
  4.6246   4.6824   4.7473   4.7696   4.8259   4.8581   4.9048   4.9192
  4.9589   5.0081   5.0156   5.1200   5.1783   5.2861   5.3378   5.3584
  5.4943   5.5393   5.6727   5.8500  22.6357  22.6655  22.7861  22.8597
 22.9145  23.0070  23.0432  23.4043
 --------------------------------------------------------------
 
          Ground-State Mulliken Net Atomic Charges

     Atom                 Charge (a.u.)
  ----------------------------------------
      1 C                    -0.508625
      2 C                    -0.771020
      3 C                     0.832403
      4 C                    -0.424582
      5 C                    -0.260200
      6 C                    -0.561347
      7 C                    -0.597609
      8 C                    -0.499071
      9 H                     0.252913
     10 H                     0.233510
     11 H                     0.229129
     12 H                     0.302645
     13 H                     0.343576
     14 H                     0.320093
     15 H                     0.324981
     16 H                     0.339032
     17 H                     0.230283
     18 H                     0.213890
  ----------------------------------------
  Sum of atomic charges =     0.000000

 -----------------------------------------------------------------
                    Cartesian Multipole Moments
 -----------------------------------------------------------------
    Charge (ESU x 10^10)
                 0.0000
    Dipole Moment (Debye)
         X      -0.3003      Y      -0.4308      Z      -0.1640
       Tot       0.5501
    Quadrupole Moments (Debye-Ang)
        XX     -52.0501     XY       3.0985     YY     -48.3754
        XZ      -0.4801     YZ      -0.4451     ZZ     -44.9158
    Octopole Moments (Debye-Ang^2)
       XXX    -386.4526    XXY     -11.5982    XYY    -110.5361
       YYY     -82.3310    XXZ     -26.6613    XYZ       2.5926
       YYZ     -24.1820    XZZ    -110.8116    YZZ     -23.8877
       ZZZ     -61.9627
    Hexadecapole Moments (Debye-Ang^3)
      XXXX   -2183.2892   XXXY    -293.7275   XXYY    -427.5290
      XYYY    -305.3880   YYYY    -884.6355   XXXZ    -239.6614
      XXYZ     -32.5240   XYYZ     -64.4364   YYYZ    -145.0082
      XXZZ    -398.4514   XYZZ     -95.2855   YYZZ    -220.0329
      XZZZ    -192.4297   YZZZ    -134.8485   ZZZZ    -445.3109
 -----------------------------------------------------------------
Archival summary:
1\1\nid00532\SP\ProcedureUnspecified\BasisUnspecified\810\meili\SunSep2619:17:412021SunSep2619:17:412021\0\\#,ProcedureUnspecified,BasisUnspecified,\\0,1\C\C,1,1.39514\H,2,1.07624,1,118.644\C,2,1.39723,1,120.639,3,177.135,0\H,4,1.08127,2,120.022,1,-179.077,0\C,1,1.40679,2,119.51,3,-176.741,0\H,6,1.0782,1,119.77,2,-179.386,0\C,6,1.39831,1,120.419,2,-0.374557,0\H,8,1.08208,6,119.875,1,-179.453,0\C,4,1.40817,2,119.978,1,-0.100422,0\H,10,1.08228,4,120.16,2,-179.97,0\C,1,1.50273,2,119.787,3,6.03963,0\H,12,1.08918,1,106.659,2,-135.43,0\H,12,1.09124,1,110.292,2,-18.8472,0\C,12,1.52535,1,113.419,2,104.701,0\H,15,1.08643,12,105.324,1,54.6444,0\H,15,1.1,12,110.855,1,-64.6796,0\H,15,1.1,12,111.717,1,169.384,0\\\@

 Total job time:  47957.41s(wall), 95263.04s(cpu) 
 Sun Sep 26 19:17:45 2021

        *************************************************************
        *                                                           *
        *  Thank you very much for using Q-Chem.  Have a nice day.  *
        *                                                           *
        *************************************************************


Done Job For Fragment 0
calling putenv with: QCSCRATCH=/global/cscratch1/sd/meili 
calling putenv with: QCLOCALSCR=/tmp 
calling putenv with: QCTHREADS=32 
Creating input file /tmp/qchem28945/Frg2.input
using default PutDataFrgm: nothing
calling putenv with: QCSCRATCH=/tmp/qchem28945/ 
calling putenv with: QCLOCALSCR=/tmp/qchem28945/ 
Spawning Job For Fragment 1
                  Welcome to Q-Chem
     A Quantum Leap Into The Future Of Chemistry


 Q-Chem 5.2, Q-Chem, Inc., Pleasanton, CA (2019)

 License issued to: National Energy Research Scientific Computing Center

 Yihan Shao,  Zhengting Gan,  E. Epifanovsky,  A. T. B. Gilbert,  M. Wormit,  
 J. Kussmann,  A. W. Lange,  A. Behn,  Jia Deng,  Xintian Feng,  D. Ghosh,  
 M. Goldey,  P. R. Horn,  L. D. Jacobson,  I. Kaliman,  T. Kus,  A. Landau,  
 Jie Liu,  E. I. Proynov,  R. M. Richard,  R. P. Steele,  E. J. Sundstrom,  
 H. L. Woodcock III,  P. M. Zimmerman,  D. Zuev,  B. Albrecht,  E. Alguire,  
 S. A. Baeppler,  D. Barton,  Z. Benda,  Y. A. Bernard,  E. J. Berquist,  
 K. B. Bravaya,  H. Burton,  D. Casanova,  Chun-Min Chang,  Yunqing Chen,  
 A. Chien,  K. D. Closser,  M. P. Coons,  S. Coriani,  S. Dasgupta,  
 A. L. Dempwolff,  M. Diedenhofen,  Hainam Do,  R. G. Edgar,  Po-Tung Fang,  
 S. Faraji,  S. Fatehi,  Qingguo Feng,  K. D. Fenk,  J. Fosso-Tande,  
 J. Gayvert,  Qinghui Ge,  A. Ghysels,  G. Gidofalvi,  J. Gomes,  
 J. Gonthier,  A. Gunina,  D. Hait,  M. W. D. Hanson-Heine,  
 P. H. P. Harbach,  A. W. Hauser,  M. F. Herbst,  J. E. Herr,  
 E. G. Hohenstein,  Z. C. Holden,  Kerwin Hui,  B. C. Huynh,  T.-C. Jagau,  
 Hyunjun Ji,  B. Kaduk,  K. Khistyaev,  Jaehoon Kim,  P. Klunzinger,  K. Koh,  
 D. Kosenkov,  L. Koulias,  T. Kowalczyk,  C. M. Krauter,  A. Kunitsa,  
 Ka Un Lao,  A. Laurent,  K. V. Lawler,  Joonho Lee,  D. Lefrancois,  
 S. Lehtola,  D. S. Levine,  Yi-Pei Li,  You-Sheng Lin,  Fenglai Liu,  
 E. Livshits,  A. Luenser,  P. Manohar,  E. Mansoor,  S. F. Manzer,  
 Shan-Ping Mao,  Yuezhi Mao,  N. Mardirossian,  A. V. Marenich,  
 T. Markovich,  L. A. Martinez-Martinez,  S. A. Maurer,  N. J. Mayhall,  
 S. C. McKenzie,  J.-M. Mewes,  P. Morgante,  A. F. Morrison,  
 J. W. Mullinax,  K. Nanda,  T. S. Nguyen-Beck,  R. Olivares-Amaya,  
 J. A. Parkhill,  Zheng Pei,  T. M. Perrine,  F. Plasser,  P. Pokhilko,  
 S. Prager,  A. Prociuk,  E. Ramos,  D. R. Rehn,  F. Rob,  M. Scheurer,  
 M. Schneider,  N. Sergueev,  S. M. Sharada,  S. Sharma,  D. W. Small,  
 T. Stauch,  T. Stein,  Yu-Chuan Su,  A. J. W. Thom,  A. Tkatchenko,  
 T. Tsuchimochi,  N. M. Tubman,  L. Vogt,  M. L. Vidal,  O. Vydrov,  
 M. A. Watson,  J. Wenzel,  M. de Wergifosse,  T. A. Wesolowski,  A. White,  
 J. Witte,  A. Yamada,  Jun Yang,  K. Yao,  S. Yeganeh,  S. R. Yost,  
 Zhi-Qiang You,  A. Zech,  Igor Ying Zhang,  Xing Zhang,  Yan Zhao,  
 Ying Zhu,  B. R. Brooks,  G. K. L. Chan,  C. J. Cramer,  M. S. Gordon,  
 W. J. Hehre,  A. Klamt,  M. W. Schmidt,  C. D. Sherrill,  D. G. Truhlar,  
 A. Aspuru-Guzik,  R. Baer,  A. T. Bell,  N. A. Besley,  Jeng-Da Chai,  
 A. E. DePrince, III,  R. A. DiStasio Jr.,  A. Dreuw,  B. D. Dunietz,  
 T. R. Furlani,  Chao-Ping Hsu,  Yousung Jung,  Jing Kong,  D. S. Lambrecht,  
 WanZhen Liang,  C. Ochsenfeld,  V. A. Rassolov,  L. V. Slipchenko,  
 J. E. Subotnik,  T. Van Voorhis,  J. M. Herbert,  A. I. Krylov,  
 P. M. W. Gill,  M. Head-Gordon

 Contributors to earlier versions of Q-Chem not listed above: 
 R. D. Adamson,  B. Austin,  J. Baker,  G. J. O. Beran,  K. Brandhorst,  
 S. T. Brown,  E. F. C. Byrd,  A. K. Chakraborty,  C.-L. Cheng,  
 Siu Hung Chien,  D. M. Chipman,  D. L. Crittenden,  H. Dachsel,  
 R. J. Doerksen,  A. D. Dutoi,  L. Fusti-Molnar,  W. A. Goddard III,  
 A. Golubeva-Zadorozhnaya,  S. R. Gwaltney,  G. Hawkins,  A. Heyden,  
 S. Hirata,  G. Kedziora,  F. J. Keil,  C. Kelley,  Jihan Kim,  R. A. King,  
 R. Z. Khaliullin,  P. P. Korambath,  W. Kurlancheek,  A. M. Lee,  M. S. Lee,  
 S. V. Levchenko,  Ching Yeh Lin,  D. Liotard,  R. C. Lochan,  I. Lotan,  
 P. E. Maslen,  N. Nair,  D. P. O'Neill,  D. Neuhauser,  E. Neuscamman,  
 C. M. Oana,  R. Olson,  B. Peters,  R. Peverati,  P. A. Pieniazek,  
 Y. M. Rhee,  J. Ritchie,  M. A. Rohrdanz,  E. Rosta,  N. J. Russ,  
 H. F. Schaefer III,  N. E. Schultz,  N. Shenvi,  A. C. Simmonett,  A. Sodt,  
 D. Stuck,  K. S. Thanthiriwatte,  V. Vanovschi,  Tao Wang,  A. Warshel,  
 C. F. Williams,  Q. Wu,  X. Xu,  W. Zhang

 Please cite Q-Chem as follows:
 Y. Shao et al., Mol. Phys. 113, 184-215 (2015)
 DOI: 10.1080/00268976.2014.952696

 Q-Chem 5.2.0 for Intel X86 EM64T Linux

 Parts of Q-Chem use Armadillo 8.300.2 (Tropical Shenanigans).
 http://arma.sourceforge.net/

 Q-Chem begins on Sun Sep 26 19:17:50 2021  

Host: cori01
0

     Scratch files written to /tmp/qchem28945//Frg2//
 May1019 |scratch|qcdevops|jenkins|workspace|build_RNUM -1
Processing $rem in /global/common/cori/software/qchem/5.2/config/preferences:
	 MEM_TOTAL  96000 
NAlpha2: 44
NElect   44
Mult     1
Symmetry turned off for PCM/SM12/SMD calculation

Checking the input file for inconsistencies... 	...done.

--------------------------------------------------------------
User input:
--------------------------------------------------------------
$molecule
0 1
 6	-4.2441633170	-2.7838274854	-0.4658330804
 6	-2.2381633170	-1.1968274854	-0.9828330804
 6	-3.4981633170	-1.4708274854	-0.5508330804
 6	-3.2341633170	0.7191725146	-0.5588330804
 7	-2.0981633170	0.1761725146	-0.9768330804
 7	-4.1021633170	-0.2548274854	-0.2918330804
 1	-1.5251633170	-1.9098274854	-1.3618330804
 1	-1.2851633170	0.7181725146	-1.2678330804
 1	-4.7021633170	-2.9438274854	-1.4438330804
 1	-5.0561633170	-2.6908274854	0.2571669196
 1	-3.4291633170	1.7831725146	-0.4888330804
 1	-3.6380233170	-3.6701674854	-0.2270930804
$end
$rem
EDA2		1
METHOD		WB97X-V
BASIS		DEF2-TZVPD
XC_GRID		000099000590
NL_GRID		1
UNRESTRICTED		FALSE
MAX_SCF_CYCLES		200
SYMMETRY		FALSE
SYM_IGNORE		TRUE
BASIS_LIN_DEP_THRESH		6
THRESH		14
SCF_CONVERGENCE		8
SCF_PRINT_FRGM		TRUE
SOLVENT_METHOD		PCM
!required keywords
JOBTYPE		SP
SYM_IGNORE		TRUE
SUBSYSTEM		TRUE
GEN_SCFMAN		TRUE
CHILD_INSTRUCTION		2
SYM_IGNORE		TRUE
SCFMI		0
RI_K 0		
PARI_K 0		
MIN_PARI_K 0		
IARI_K 0		
OCC_RI_K 0		
PURECART		1111
MEM_STATIC		2000
MEM_TOTAL		96000
GUI		0
CHILD_MP		1
CHILD_MP_ORDERS		232
FRZ_RELAX		0
FRZ_RELAX_METHOD		0
EDA_CLS_ELEC		1
EDA_CLS_DISP		0
FRZ_ORTHO_DECOMP		1
EDA2		FALSE
FRGM_METHOD		FALSE
CIS_N_ROOTS  0
LOCAL_CIS    0
CIS_RLX_DNS  1
$end
$pcm
THEORY                  CPCM
METHOD                  SWIG
SOLVER                  INVERSION
RADII                   UFF
HPOINTS                 302
HEAVYPOINTS             302
PRINTLEVEL              0
$end
$solvent
DIELECTRIC              78.390000 ! water
$end
--------------------------------------------------------------
 ----------------------------------------------------------------
             Standard Nuclear Orientation (Angstroms)
    I     Atom           X                Y                Z
 ----------------------------------------------------------------
    1      C      -4.2441633170    -2.7838274854    -0.4658330804
    2      C      -2.2381633170    -1.1968274854    -0.9828330804
    3      C      -3.4981633170    -1.4708274854    -0.5508330804
    4      C      -3.2341633170     0.7191725146    -0.5588330804
    5      N      -2.0981633170     0.1761725146    -0.9768330804
    6      N      -4.1021633170    -0.2548274854    -0.2918330804
    7      H      -1.5251633170    -1.9098274854    -1.3618330804
    8      H      -1.2851633170     0.7181725146    -1.2678330804
    9      H      -4.7021633170    -2.9438274854    -1.4438330804
   10      H      -5.0561633170    -2.6908274854     0.2571669196
   11      H      -3.4291633170     1.7831725146    -0.4888330804
   12      H      -3.6380233170    -3.6701674854    -0.2270930804
 ----------------------------------------------------------------
 Nuclear Repulsion Energy =         224.14055558 hartrees
 There are       22 alpha and       22 beta electrons
 Requested basis set is def2-TZVPD
 There are 108 shells and 276 basis functions

 Total QAlloc Memory Limit  96000 MB
 Mega-Array Size      1956 MB
 MEM_STATIC part      2000 MB
 Discretize the solute cavity surface with Lebedev spheres
	Using 302 Lebedev grid points for each H atom
	Using 302 Lebedev grid points for other atoms
	Atomic van der Waals radii will be scaled by 1.20
 Remove points where switching function is < 1.0e-08
 Keep 1543 surface tesserae and discard 2081 interior tesserae
 Molecular Surface Area = 157.588 Angst**2

                       Distance Matrix (Angstroms)
             C (  1)   C (  2)   C (  3)   C (  4)   N (  5)   N (  6)
   C (  2)  2.609577
   C (  3)  1.512518  1.359890
   C (  4)  3.646883  2.200647  2.205869
   N (  5)  3.691617  1.380132  2.203199  1.326676
   N (  6)  2.538953  2.199850  1.382228  1.331687  2.161250
   H (  7)  2.993268  1.077209  2.177882  3.236840  2.197260  3.244203
   H (  8)  4.654341  2.157929  3.194242  2.073953  1.019517  3.136048
   H (  9)  1.091718  3.055458  2.101617  4.044233  4.090636  2.986273
   H ( 10)  1.091202  3.422099  2.137435  3.951410  4.300257  2.673128
   H ( 11)  4.639207  3.246986  3.255322  1.083984  2.142931  2.155268
   H ( 12)  1.100000  2.940776  2.227435  4.420346  4.210417  3.447342
             H (  7)   H (  8)   H (  9)   H ( 10)   H ( 11)
   H (  8)  2.640610
   H (  9)  3.342037  5.011697
   H ( 10)  3.962207  5.307292  1.755769
   H ( 11)  4.245656  2.517499  4.987693  4.818747
   H ( 12)  2.974997  5.086907  1.772123  1.790178  5.463611
 
 A cutoff of  1.0D-14 yielded   5732 shell pairs
 There are     38158 function pairs (     48934 Cartesian)
 Smallest overlap matrix eigenvalue = 1.94E-06

 Scale SEOQF with 1.000000e-01/1.000000e-01/1.000000e-01

 Standard Electronic Orientation quadrupole field applied
 Nucleus-field energy     =     0.0000000230 hartrees
 Guess from superposition of atomic densities
 Warning:  Energy on first SCF cycle will be non-variational
 SAD guess density has 43.559167 electrons

 -----------------------------------------------------------------------
  General SCF calculation program by
  Eric Jon Sundstrom, Paul Horn, Yuezhi Mao, Dmitri Zuev, Alec White,
  David Stuck, Shaama M.S., Shane Yost, Joonho Lee, David Small,
  Daniel Levine, Susi Lehtola, Hugh Burton, Evgeny Epifanovsky
 -----------------------------------------------------------------------
 Exchange:     0.1670 Hartree-Fock + 1.0000 wB97X-V + LR-HF
 Correlation:  1.0000 wB97X-V
 Using Euler-Maclaurin-Lebedev (99,590) quadrature formula
 Nonlocal Correlation:  VV10 with C = 0.0100 and b = 6.00 and scale = 1.00000
 Grid used for NLC:  SG-1 standard quadrature
Energy prior to optimization (guess energy) = -265.141892619783
Begin Timing: Total SCF Calculation
begin iterations for algorithm: DIIS         
the SCF tolerance is set to 1.00e-08
    1    -265.1418926198      7.21e-03     00000 
    2    -265.0939460459      7.42e-03     00000 
    3    -265.5573417111      7.27e-04     00000 
    4    -265.5609317133      4.20e-04     00000 
    5    -265.5623798409      8.52e-05     00000 
    6    -265.5624653652      3.04e-05     00000 
    7    -265.5624783491      9.34e-06     00000 
    8    -265.5624797465      3.15e-06     00000 
    9    -265.5624799298      1.29e-06     00000 
   10    -265.5624799707      3.54e-07     00000 
   11    -265.5624799752      8.29e-08     00000 
   12    -265.5624799754      5.16e-08     00000 
   13    -265.5624799755      1.02e-08     00000 
   14    -265.5624799755      3.44e-09     00000 Convergence criterion met
Timing for Total SCF: 999.00s (wall), 1978.47s (cpu)

************** Final PCM Free Energy Summary **************
 G_electrostatic  =      -0.01071856 hartree =      -6.72599696 kcal/mol
 G_cavitation     =       0.00000000 hartree =       0.00000000 kcal/mol
 G_dispersion     =       0.00000000 hartree =       0.00000000 kcal/mol
 G_repulsion      =       0.00000000 hartree =       0.00000000 kcal/mol
 --------------------------------------------------
 Non-electrostatic Free Energy =       0.00000000 hartree =       0.00000000 kcal/mol
 Total                         =      -0.01071856 hartree =      -6.72599696 kcal/mol
 --------------------------------------------------
 SCF Energy (H0 + V/2)                       =    -265.56247998 
 Solute Internal Energy (H0)                 =    -265.55176142 
 Total Free Energy (H0 + V/2 + non-elec)     =    -265.56247998 hartree
                                             = -166642.97132686 kcal/mol
***********************************************************

E_pcm = -0.0107185585
Multipole orders to be included
        2
        3
computing dipole RHS
computing quadrupole RHS
total number of RHS in solve_reponses: 8
RHS batch sizes
        8
Beginning Block Conjugate Gradient Iterations. Batch Number: 0
computing hessian-vector products by finite difference
              1      6.14e-01     00000 Conjugate Gradient Iteration
computing hessian-vector products by finite difference
              2      2.06e-01     00000 Conjugate Gradient Iteration
computing hessian-vector products by finite difference
              3      4.79e-02     00000 Conjugate Gradient Iteration
computing hessian-vector products by finite difference
              4      1.35e-02     00000 Conjugate Gradient Iteration
computing hessian-vector products by finite difference
              5      2.88e-03     00000 Conjugate Gradient Iteration
computing hessian-vector products by finite difference
              6      6.05e-04     00000 Conjugate Gradient Iteration
computing hessian-vector products by finite difference
              7      1.08e-04     00000 Conjugate Gradient Iteration
computing hessian-vector products by finite difference
              8      1.75e-05     00000 Conjugate Gradient Iteration
computing hessian-vector products by finite difference
              9      2.56e-06     00000 Conjugate Gradient Iteration
computing hessian-vector products by finite difference
             10      3.75e-07     00000 Conjugate Gradient Iteration
computing hessian-vector products by finite difference
             11      6.29e-08     00000 Conjugate Gradient Iteration
computing hessian-vector products by finite difference
             12      9.66e-09     00000 CG Converged
batch 0 complete
Done Calculating Responses
TESTING ORTHOGONALIZATION OF MULTIPOLE BASIS
Multipole virts passed orthogonality test
Virts Per Order
           66
          110
 
 --------------------------------------------------------------
 
                    Orbital Energies (a.u.)
 --------------------------------------------------------------
 
 Alpha MOs
 -- Occupied --
-14.4680 -14.3885 -10.3231 -10.2901 -10.2893 -10.2667  -1.1564  -0.9971
 -0.8985  -0.8297  -0.7280  -0.6872  -0.6721  -0.5658  -0.5599  -0.5442
 -0.5132  -0.4997  -0.4861  -0.3789  -0.3748  -0.3250
 -- Virtual --
  0.0641   0.0814   0.0930   0.1009   0.1130   0.1246   0.1321   0.1412
  0.1631   0.1700   0.1735   0.1830   0.1924   0.2013   0.2207   0.2372
  0.2413   0.2488   0.2546   0.2578   0.2635   0.2844   0.2918   0.2977
  0.3073   0.3099   0.3192   0.3229   0.3275   0.3364   0.3451   0.3502
  0.3529   0.3613   0.3746   0.3808   0.3884   0.3921   0.4083   0.4125
  0.4182   0.4233   0.4293   0.4485   0.4564   0.4649   0.4690   0.4805
  0.4829   0.4866   0.4937   0.5113   0.5133   0.5349   0.5479   0.5546
  0.5628   0.5736   0.5804   0.5911   0.5998   0.6046   0.6247   0.6289
  0.6478   0.6592   0.6655   0.6740   0.6904   0.6948   0.7023   0.7153
  0.7284   0.7379   0.7655   0.7700   0.7805   0.7856   0.7925   0.7953
  0.8021   0.8168   0.8251   0.8538   0.8579   0.8743   0.8760   0.8888
  0.9150   0.9287   0.9596   0.9713   0.9954   1.0079   1.0156   1.0477
  1.0553   1.0720   1.0773   1.1021   1.1251   1.1612   1.1656   1.2061
  1.2266   1.2334   1.2716   1.3234   1.3340   1.3543   1.3683   1.4262
  1.4424   1.4604   1.5266   1.5331   1.6018   1.6279   1.6429   1.6759
  1.6930   1.7404   1.7987   1.8238   1.8443   1.8506   1.8680   1.8775
  1.9026   1.9225   1.9357   1.9504   1.9686   1.9774   1.9943   2.0210
  2.0316   2.0755   2.0801   2.1180   2.1676   2.2203   2.2450   2.2691
  2.3001   2.3322   2.3798   2.4027   2.4222   2.4477   2.4538   2.5042
  2.5305   2.5584   2.5986   2.6106   2.6386   2.6748   2.6789   2.7132
  2.7548   2.7598   2.7889   2.8299   2.8495   2.8720   2.8978   2.9761
  2.9988   3.0122   3.0452   3.0641   3.0817   3.1007   3.1409   3.1597
  3.1793   3.2095   3.2185   3.2443   3.2688   3.2767   3.3169   3.3218
  3.3440   3.3651   3.3774   3.4022   3.4053   3.4243   3.4733   3.4890
  3.5043   3.5131   3.5548   3.6090   3.6156   3.6549   3.6667   3.7129
  3.7383   3.7746   3.8211   3.8548   3.8881   3.9392   3.9603   4.0327
  4.0792   4.0982   4.1125   4.2323   4.2965   4.3580   4.4215   4.4644
  4.5072   4.5577   4.5985   4.7324   4.7700   4.8066   4.8253   4.8617
  4.8997   4.9586   5.0256   5.0348   5.0439   5.0648   5.1583   5.1880
  5.2306   5.3004   5.3717   5.4332   5.4778   5.5277   5.5735   5.5986
  5.6611   5.6884   5.7452   5.7883   5.8691   6.0302   6.1956   6.2805
 22.6007  22.8546  23.1132  23.3520  32.6386  32.7640
 --------------------------------------------------------------
 
          Ground-State Mulliken Net Atomic Charges

     Atom                 Charge (a.u.)
  ----------------------------------------
      1 C                    -0.778564
      2 C                    -0.539558
      3 C                     0.543864
      4 C                    -0.212803
      5 N                     0.091532
      6 N                    -0.484715
      7 H                     0.261517
      8 H                     0.178091
      9 H                     0.177293
     10 H                     0.223382
     11 H                     0.289840
     12 H                     0.250121
  ----------------------------------------
  Sum of atomic charges =     0.000000

 -----------------------------------------------------------------
                    Cartesian Multipole Moments
 -----------------------------------------------------------------
    Charge (ESU x 10^10)
                 0.0000
    Dipole Moment (Debye)
         X       4.0390      Y       0.7417      Z      -1.7530
       Tot       4.4650
    Quadrupole Moments (Debye-Ang)
        XX     -60.8311     XY      -0.8771     YY     -28.8154
        XZ       1.7677     YZ      -0.2214     ZZ     -35.7681
    Octopole Moments (Debye-Ang^2)
       XXX     484.5277    XXY      30.7746    XYY      95.6867
       YYY      88.5174    XXZ      22.2123    XYZ       0.0459
       YYZ      17.4389    XZZ     121.5412    YZZ      32.3603
       ZZZ      69.7439
    Hexadecapole Moments (Debye-Ang^3)
      XXXX   -3208.7274   XXXY    -347.1474   XXYY    -439.8122
      XYYY    -346.3179   YYYY    -526.9500   XXXZ    -208.4458
      XXYZ     -17.2085   XYYZ     -54.4289   YYYZ     -51.0535
      XXZZ    -463.7586   XYZZ    -120.8543   YYZZ    -117.1704
      XZZZ    -205.3484   YZZZ     -56.0005   ZZZZ    -156.5433
 -----------------------------------------------------------------
Archival summary:
1\1\nid00532\SP\ProcedureUnspecified\BasisUnspecified\246\meili\SunSep2623:57:172021SunSep2623:57:172021\0\\#,ProcedureUnspecified,BasisUnspecified,\\0,1\N\C,1,1.33169\H,2,1.08398,1,125.995\N,2,1.32668,1,108.78,3,-177.635,0\H,4,1.01952,2,123.722,1,178.282,0\C,4,1.38013,2,108.765,1,0.132443,0\H,6,1.07721,4,126.36,2,173.644,0\C,6,1.35989,4,107.041,2,-0.140277,0\C,8,1.51252,6,130.523,4,174.142,0\H,9,1.0912,8,109.285,6,158.636,0\H,9,1.09172,8,106.487,6,-86.008,0\H,9,1.1,8,116.097,6,34.1293,0\\\@

 Total job time:  16771.04s(wall), 33183.14s(cpu) 
 Sun Sep 26 23:57:21 2021

        *************************************************************
        *                                                           *
        *  Thank you very much for using Q-Chem.  Have a nice day.  *
        *                                                           *
        *************************************************************


Done Job For Fragment 1
calling putenv with: QCSCRATCH=/global/cscratch1/sd/meili 
calling putenv with: QCLOCALSCR=/tmp 
calling putenv with: QCTHREADS=32 
Doing General SCFMI
 Exchange:     0.1670 Hartree-Fock + 1.0000 wB97X-V + LR-HF
 Correlation:  1.0000 wB97X-V
 Using Euler-Maclaurin-Lebedev (99,590) quadrature formula
 Nonlocal Correlation:  VV10 with C = 0.0100 and b = 6.00 and scale = 1.00000
 Grid used for NLC:  SG-1 standard quadrature
performing fock build before subrot guess so that all methods have access
Printing subrot_rss_gen Method Specification:
Occupied Subspace Method is 0
Virtual Subspace Method is 0
Energy of the unrelaxed supersystem initial determinant -576.447625166421
performing fock build before subrot guess so that all methods have access
Printing subrot_rss_gen Method Specification:
Occupied Subspace Method is 0
Virtual Subspace Method is 0
Energy of the unrelaxed supersystem initial determinant w/ solvent -576.460349342687
write pseudocanon occs and virts to disk
write pseudocanon orbital energies to disk
Tolerance of ortho_decomp_scf: 1.00e-06
GDM subspace size: 20
Beginning the Orthogonal Decomposition of the Initial Supersystem Wavefunction
    1    -576.4357486309      1.55e-02     ortho_decomp Preconditoned Steepest Descent
    2    -576.4368626502      4.06e-04     ortho_decomp BFGS Step
    3    -576.4368661736      2.68e-05     ortho_decomp BFGS Step
    4    -576.4368661783      1.06e-06     ortho_decomp BFGS Step
    5    -576.4368661783      3.61e-08     ortho_decomp 00000 Convergence criterion met
 Hartree-Fock
 Hartree-Fock
 Hartree-Fock
Doing General SCFMI
 Exchange:     0.1670 Hartree-Fock + 1.0000 wB97X-V + LR-HF
 Correlation:  1.0000 wB97X-V
 Using Euler-Maclaurin-Lebedev (99,590) quadrature formula
 Nonlocal Correlation:  VV10 with C = 0.0100 and b = 6.00 and scale = 1.00000
 Grid used for NLC:  SG-1 standard quadrature
performing fock build at end of subrot_r(subrot) constructor so that all methods have access
<S^2> of initial wavefunction before polarization iterations 0.0000000000
Beginning iterations for the determination of the polarized wavefunction
Energy prior to optimization (guess energy) = -576.460349342687
Begin Timing: Total SCF Calculation
begin iterations for algorithm: DIIS         
the SCF tolerance is set to 1.00e-08
    1    -576.4603493427      4.31e-05     00000 
    2    -576.4605825620      1.45e-05     00000 
    3    -576.4606018013      7.28e-06     00000 
    4    -576.4606060217      2.77e-06     00000 
    5    -576.4606066888      1.45e-06     00000 
    6    -576.4606068799      6.68e-07     00000 
    7    -576.4606069194      2.17e-07     00000 
    8    -576.4606069229      9.10e-08     00000 
    9    -576.4606069234      2.90e-08     00000 
   10    -576.4606069234      1.28e-08     00000 
   11    -576.4606069234      5.80e-09     00000 Convergence criterion met
write pseudocanon occs and virts to disk
write pseudocanon orbital energies to disk
Timing for Total SCF: 8812.00s (wall), 17545.60s (cpu)
<S^2> of polarized wavefunction after polarization iterations 0.0000000000
relaxing scfmi constraint to allow all rotations in the entire AO span
Doing General SCFMI
 Exchange:     0.1670 Hartree-Fock + 1.0000 wB97X-V + LR-HF
 Correlation:  1.0000 wB97X-V
 Using Euler-Maclaurin-Lebedev (99,590) quadrature formula
 Nonlocal Correlation:  VV10 with C = 0.0100 and b = 6.00 and scale = 1.00000
 Grid used for NLC:  SG-1 standard quadrature
performing fock build at end of subrot_r(subrot) constructor so that all methods have access
<S^2> of polarized wavefunction before ct-allowed iterations 0.0000000000
Beginning iterations for the determination of the CT-Allowed wavefunction
Energy prior to optimization (guess energy) = -576.460606923440
Begin Timing: Total SCF Calculation
begin iterations for algorithm: DIIS         
the SCF tolerance is set to 1.00e-08
    1    -576.4606069234      5.08e-05     00000 
    2    -576.4610676486      4.45e-06     00000 
    3    -576.4610783518      6.93e-07     00000 
    4    -576.4610786587      2.99e-07     00000 
    5    -576.4610786800      7.95e-08     00000 
    6    -576.4610786827      3.02e-08     00000 
    7    -576.4610786830      7.76e-09     00000 Convergence criterion met
write pseudocanon occs and virts to disk
write pseudocanon orbital energies to disk
Timing for Total SCF: 5329.00s (wall), 10609.25s (cpu)
<S^2> of ct_allowed wavefunction after ct-allowed iterations 0.0000000000

================================
        Results of EDA2         
================================
Basic EDA Quantities
--------------------
Fragment Energies (Ha):
1 -310.8967196472
2 -265.5624799755
--------------------
  E_prp (kJ/mol) = 0.0000
  E_sol (kJ/mol) = 1.8144
  E_frz (kJ/mol) = -4.8331
  E_pol (kJ/mol) = -0.6763
  E_vct (kJ/mol) = -1.2386
  E_int (kJ/mol) = -4.9335
--------------------


Initial Wavefunction Decomposition
--------------------
  --------------------
  Orthogonal Fragment Subspace Decomposition:
  --------------------
     E_elec   (ELEC)   (kJ/mol) = -12.4114
     E_pauli  (PAULI)  (kJ/mol) = 18.0897
     E_disp   (DISP)   (kJ/mol) = -10.5114
     --------------------
     Terms summing to E_pauli:
     --------------------
        E_kep_pauli       (kJ/mol) = 23.4150
        E_disp_free_pauli (kJ/mol) = -5.3253
  --------------------
  Classical Frozen Decomposition:
  --------------------
     E_cls_elec  (CLS ELEC)  (kJ/mol) = -5.1729
     E_cls_pauli (CLS PAULI) (kJ/mol) = 0.3398
    [E_mod_pauli (MOD PAULI) (kJ/mol) = 10.8512 (CLS PAULI - DISP from orthogonal decomposition) ]
  --------------------
--------------------

Simplified EDA Summary (kJ/mol)
--------------------
 PREPARATION     0.0000
 SOLVATION       1.8144
 FROZEN          5.6783      (does not include dispersion)
[PAULI           18.0897]     (if this is negligible, then frozen describes electrostatics)
 DISPERSION      -10.5114
 POLARIZATION    -0.6763
 CHARGE TRANSFER -1.2386
 TOTAL           -4.9335     (PRP + SOL + FRZ + DISP + POL + CT)
--------------------
 
 --------------------------------------------------------------
 
                    Orbital Energies (a.u.)
 --------------------------------------------------------------
 
 Alpha MOs
 -- Occupied --
-14.4690 -14.3892 -10.3240 -10.2910 -10.2902 -10.2824 -10.2784 -10.2775
-10.2764 -10.2742 -10.2718 -10.2690 -10.2671 -10.2602  -1.1574  -0.9982
 -0.9963  -0.9250  -0.8993  -0.8796  -0.8544  -0.8303  -0.7606  -0.7314
 -0.7292  -0.7000  -0.6877  -0.6729  -0.6299  -0.5848  -0.5763  -0.5666
 -0.5607  -0.5473  -0.5423  -0.5361  -0.5280  -0.5138  -0.5064  -0.5002
 -0.4866  -0.4809  -0.4626  -0.4583  -0.4374  -0.4324  -0.3795  -0.3753
 -0.3500  -0.3375  -0.3255
 -- Virtual --
  0.0534   0.0597   0.0644   0.0699   0.0751   0.0791   0.0843   0.0943
  0.0974   0.1023   0.1045   0.1127   0.1186   0.1217   0.1299   0.1361
  0.1395   0.1512   0.1560   0.1654   0.1677   0.1693   0.1726   0.1782
  0.1822   0.1839   0.1919   0.1955   0.1990   0.2094   0.2130   0.2173
  0.2220   0.2279   0.2322   0.2350   0.2397   0.2416   0.2442   0.2541
  0.2572   0.2604   0.2630   0.2673   0.2705   0.2726   0.2776   0.2783
  0.2832   0.2878   0.2914   0.2936   0.2969   0.2976   0.3034   0.3086
  0.3111   0.3135   0.3175   0.3188   0.3241   0.3283   0.3301   0.3331
  0.3349   0.3397   0.3448   0.3473   0.3512   0.3570   0.3593   0.3619
  0.3676   0.3679   0.3708   0.3717   0.3753   0.3805   0.3838   0.3854
  0.3917   0.3944   0.3965   0.3993   0.4016   0.4055   0.4117   0.4154
  0.4170   0.4197   0.4215   0.4288   0.4317   0.4344   0.4360   0.4381
  0.4408   0.4468   0.4477   0.4502   0.4533   0.4572   0.4588   0.4626
  0.4663   0.4713   0.4750   0.4762   0.4833   0.4851   0.4892   0.4931
  0.4942   0.4979   0.5035   0.5068   0.5094   0.5134   0.5212   0.5274
  0.5312   0.5344   0.5369   0.5393   0.5411   0.5491   0.5513   0.5521
  0.5603   0.5657   0.5669   0.5742   0.5773   0.5822   0.5851   0.5868
  0.5955   0.6022   0.6033   0.6084   0.6100   0.6153   0.6207   0.6249
  0.6302   0.6363   0.6405   0.6442   0.6474   0.6544   0.6566   0.6610
  0.6635   0.6697   0.6750   0.6765   0.6806   0.6860   0.6889   0.6976
  0.7047   0.7070   0.7117   0.7186   0.7197   0.7213   0.7264   0.7282
  0.7316   0.7333   0.7427   0.7453   0.7490   0.7497   0.7595   0.7622
  0.7695   0.7743   0.7762   0.7774   0.7810   0.7857   0.7873   0.7902
  0.7935   0.7962   0.7994   0.8047   0.8104   0.8129   0.8171   0.8228
  0.8253   0.8265   0.8315   0.8355   0.8393   0.8453   0.8498   0.8528
  0.8560   0.8603   0.8648   0.8740   0.8756   0.8802   0.8820   0.8932
  0.8957   0.9029   0.9048   0.9111   0.9139   0.9214   0.9366   0.9381
  0.9451   0.9538   0.9593   0.9650   0.9709   0.9744   0.9853   0.9966
  1.0090   1.0167   1.0259   1.0313   1.0380   1.0400   1.0475   1.0608
  1.0651   1.0778   1.0859   1.0885   1.0943   1.0984   1.1032   1.1123
  1.1156   1.1201   1.1309   1.1342   1.1386   1.1607   1.1705   1.1815
  1.1949   1.2127   1.2165   1.2271   1.2452   1.2503   1.2630   1.2750
  1.2894   1.2968   1.3088   1.3235   1.3274   1.3443   1.3487   1.3596
  1.3683   1.3802   1.3827   1.4027   1.4111   1.4255   1.4329   1.4467
  1.4593   1.4625   1.4743   1.4825   1.4957   1.5083   1.5226   1.5304
  1.5524   1.5615   1.5723   1.5866   1.6092   1.6247   1.6313   1.6440
  1.6523   1.6556   1.6716   1.6744   1.7031   1.7125   1.7310   1.7468
  1.7572   1.7638   1.7909   1.8022   1.8157   1.8209   1.8234   1.8382
  1.8511   1.8653   1.8711   1.8820   1.8968   1.9008   1.9105   1.9158
  1.9223   1.9296   1.9353   1.9474   1.9494   1.9574   1.9632   1.9685
  1.9761   1.9831   1.9939   2.0065   2.0120   2.0213   2.0242   2.0327
  2.0377   2.0420   2.0444   2.0716   2.0755   2.0827   2.0905   2.0928
  2.1093   2.1193   2.1301   2.1392   2.1515   2.1572   2.1732   2.1786
  2.1899   2.2103   2.2332   2.2490   2.2556   2.2818   2.2846   2.3031
  2.3047   2.3258   2.3317   2.3377   2.3496   2.3705   2.3964   2.3981
  2.4134   2.4231   2.4376   2.4464   2.4581   2.4672   2.4840   2.5027
  2.5219   2.5474   2.5520   2.5571   2.5651   2.5734   2.5850   2.6022
  2.6102   2.6245   2.6283   2.6402   2.6555   2.6596   2.6675   2.6813
  2.6931   2.7019   2.7158   2.7277   2.7319   2.7397   2.7547   2.7645
  2.7848   2.7850   2.7886   2.7917   2.8004   2.8089   2.8155   2.8380
  2.8533   2.8708   2.8836   2.8934   2.8937   2.9032   2.9070   2.9213
  2.9324   2.9355   2.9379   2.9638   2.9717   2.9977   3.0057   3.0117
  3.0156   3.0240   3.0282   3.0361   3.0437   3.0596   3.0685   3.0698
  3.0779   3.0932   3.1021   3.1078   3.1084   3.1378   3.1570   3.1699
  3.1739   3.1902   3.2032   3.2055   3.2274   3.2313   3.2466   3.2469
  3.2552   3.2658   3.2682   3.2847   3.2972   3.3140   3.3202   3.3315
  3.3407   3.3538   3.3628   3.3674   3.3738   3.3882   3.4042   3.4065
  3.4090   3.4169   3.4251   3.4285   3.4367   3.4389   3.4556   3.4605
  3.4773   3.4806   3.4871   3.4956   3.5008   3.5054   3.5136   3.5197
  3.5308   3.5380   3.5406   3.5567   3.5576   3.5617   3.5692   3.5745
  3.5936   3.6039   3.6199   3.6230   3.6363   3.6403   3.6517   3.6649
  3.6782   3.6819   3.6946   3.7168   3.7233   3.7253   3.7291   3.7444
  3.7511   3.7817   3.7954   3.8028   3.8198   3.8298   3.8612   3.8763
  3.8846   3.8961   3.9309   3.9470   3.9609   3.9714   3.9832   3.9911
  4.0445   4.0493   4.0700   4.0892   4.1046   4.1161   4.1270   4.1549
  4.1909   4.2130   4.2251   4.2447   4.2628   4.2786   4.2986   4.3073
  4.3223   4.3241   4.3379   4.3602   4.3688   4.3801   4.4055   4.4268
  4.4332   4.4420   4.4569   4.4746   4.4985   4.5192   4.5613   4.5662
  4.5821   4.6114   4.6400   4.6964   4.7430   4.7540   4.7708   4.7773
  4.8262   4.8328   4.8383   4.8734   4.8866   4.9215   4.9223   4.9351
  4.9783   5.0021   5.0131   5.0206   5.0350   5.0421   5.0543   5.0788
  5.1532   5.1768   5.1813   5.2199   5.2380   5.2939   5.3136   5.3427
  5.3614   5.3882   5.4482   5.4793   5.5055   5.5377   5.5421   5.5890
  5.6078   5.6838   5.6901   5.7073   5.7780   5.8010   5.8445   5.8805
  6.0369   6.2101   6.2930  22.6138  22.6633  22.6938  22.8500  22.8640
 22.9080  22.9641  23.0241  23.0590  23.1426  23.3715  23.4189  32.7139
 32.8022
 --------------------------------------------------------------
 
          Ground-State Mulliken Net Atomic Charges

     Atom                 Charge (a.u.)
  ----------------------------------------
      1 C                    -0.148741
      2 C                    -0.956712
      3 C                     0.592224
      4 C                    -0.403178
      5 C                    -0.167388
      6 C                    -0.549112
      7 C                    -0.622278
      8 C                    -0.466772
      9 H                     0.294797
     10 H                     0.002819
     11 H                     0.255949
     12 H                     0.328171
     13 H                     0.354392
     14 H                     0.322316
     15 H                     0.331319
     16 H                     0.352141
     17 H                     0.244089
     18 H                     0.221240
     19 C                    -0.759262
     20 C                    -0.444705
     21 C                     0.336566
     22 C                    -0.195443
     23 N                     0.168812
     24 N                    -0.507556
     25 H                     0.321873
     26 H                     0.138612
     27 H                     0.176576
     28 H                     0.223279
     29 H                     0.291739
     30 H                     0.264234
  ----------------------------------------
  Sum of atomic charges =     0.000000

 -----------------------------------------------------------------
                    Cartesian Multipole Moments
 -----------------------------------------------------------------
    Charge (ESU x 10^10)
                -0.0000
    Dipole Moment (Debye)
         X       3.7837      Y       0.2978      Z      -1.8366
       Tot       4.2165
    Quadrupole Moments (Debye-Ang)
        XX    -112.0942     XY       2.3055     YY     -76.9046
        XZ       1.4197     YZ      -0.6287     ZZ     -80.6151
    Octopole Moments (Debye-Ang^2)
       XXX      98.0974    XXY      19.1273    XYY     -14.4058
       YYY       6.0497    XXZ      -4.3801    XYZ       2.7963
       YYZ      -6.6139    XZZ      11.0296    YZZ       8.5763
       ZZZ       8.1763
    Hexadecapole Moments (Debye-Ang^3)
      XXXX   -5378.2443   XXXY    -637.7448   XXYY    -863.1898
      XYYY    -650.4616   YYYY   -1408.4254   XXXZ    -446.1940
      XXYZ     -48.8746   XYYZ    -118.2744   YYYZ    -195.5853
      XXZZ    -860.4706   XYZZ    -215.6330   YYZZ    -336.6162
      XZZZ    -396.9982   YZZZ    -190.4873   ZZZZ    -601.1766
 -----------------------------------------------------------------
Archival summary:
1\1\nid00532\SP\ProcedureUnspecified\BasisUnspecified\21216\meili\MonSep2707:27:142021MonSep2707:27:142021\0\\#,ProcedureUnspecified,BasisUnspecified,\\0,1\N\H,1,1.01952\C,1,1.32668,2,123.722\H,3,1.08398,1,125.179,2,0.623102,0\N,3,1.33169,1,108.78,2,178.282,0\C,1,1.38013,2,127.483,3,177.792,0\H,6,1.07721,1,126.36,2,-4.41615,0\C,6,1.35989,1,107.041,2,-178.201,0\C,8,1.51252,6,130.523,1,174.142,0\H,9,1.0912,8,109.285,6,158.636,0\H,9,1.09172,8,106.487,6,-86.008,0\H,9,1.1,8,116.097,6,34.1293,0\H,7,2.59514,6,91.1508,1,52.4463,0\C,13,1.08918,7,114.518,6,-138.378,0\H,14,1.09124,13,107.619,7,35.704,0\C,14,1.50273,13,106.659,7,154.053,0\C,16,1.39514,14,119.787,13,-135.43,0\H,17,1.07624,16,118.644,14,6.03963,0\C,17,1.39723,16,120.639,14,-176.825,0\H,19,1.08127,17,120.022,16,-179.077,0\C,16,1.40679,14,120.644,13,47.3828,0\H,21,1.0782,16,119.77,14,-2.19107,0\C,21,1.39831,16,120.419,14,176.82,0\H,23,1.08208,21,119.875,16,-179.453,0\C,19,1.40817,17,119.978,16,-0.100422,0\H,25,1.08228,19,120.16,17,-179.97,0\C,14,1.52535,13,108.897,7,-83.1994,0\H,27,1.08643,14,105.324,13,-63.9419,0\H,27,1.1,14,110.855,13,176.734,0\H,27,1.1,14,111.717,13,50.7974,0\\\@

 Total job time:  91737.63s(wall), 53790.16s(cpu) 
 Mon Sep 27 07:27:18 2021

        *************************************************************
        *                                                           *
        *  Thank you very much for using Q-Chem.  Have a nice day.  *
        *                                                           *
        *************************************************************


