
Running Job 1 of 1 SSI-114GLU-146ARG-1_SMD_TZVPD.in
qchem SSI-114GLU-146ARG-1_SMD_TZVPD.in_6027.0 /tmp/qchem6027/ 0
/global/common/cori/software/qchem/5.2/exe/qcprog.exe_s SSI-114GLU-146ARG-1_SMD_TZVPD.in_6027.0 /tmp/qchem6027/
                  Welcome to Q-Chem
     A Quantum Leap Into The Future Of Chemistry


 Q-Chem 5.2, Q-Chem, Inc., Pleasanton, CA (2019)

 License issued to: National Energy Research Scientific Computing Center

 Yihan Shao,  Zhengting Gan,  E. Epifanovsky,  A. T. B. Gilbert,  M. Wormit,  
 J. Kussmann,  A. W. Lange,  A. Behn,  Jia Deng,  Xintian Feng,  D. Ghosh,  
 M. Goldey,  P. R. Horn,  L. D. Jacobson,  I. Kaliman,  T. Kus,  A. Landau,  
 Jie Liu,  E. I. Proynov,  R. M. Richard,  R. P. Steele,  E. J. Sundstrom,  
 H. L. Woodcock III,  P. M. Zimmerman,  D. Zuev,  B. Albrecht,  E. Alguire,  
 S. A. Baeppler,  D. Barton,  Z. Benda,  Y. A. Bernard,  E. J. Berquist,  
 K. B. Bravaya,  H. Burton,  D. Casanova,  Chun-Min Chang,  Yunqing Chen,  
 A. Chien,  K. D. Closser,  M. P. Coons,  S. Coriani,  S. Dasgupta,  
 A. L. Dempwolff,  M. Diedenhofen,  Hainam Do,  R. G. Edgar,  Po-Tung Fang,  
 S. Faraji,  S. Fatehi,  Qingguo Feng,  K. D. Fenk,  J. Fosso-Tande,  
 J. Gayvert,  Qinghui Ge,  A. Ghysels,  G. Gidofalvi,  J. Gomes,  
 J. Gonthier,  A. Gunina,  D. Hait,  M. W. D. Hanson-Heine,  
 P. H. P. Harbach,  A. W. Hauser,  M. F. Herbst,  J. E. Herr,  
 E. G. Hohenstein,  Z. C. Holden,  Kerwin Hui,  B. C. Huynh,  T.-C. Jagau,  
 Hyunjun Ji,  B. Kaduk,  K. Khistyaev,  Jaehoon Kim,  P. Klunzinger,  K. Koh,  
 D. Kosenkov,  L. Koulias,  T. Kowalczyk,  C. M. Krauter,  A. Kunitsa,  
 Ka Un Lao,  A. Laurent,  K. V. Lawler,  Joonho Lee,  D. Lefrancois,  
 S. Lehtola,  D. S. Levine,  Yi-Pei Li,  You-Sheng Lin,  Fenglai Liu,  
 E. Livshits,  A. Luenser,  P. Manohar,  E. Mansoor,  S. F. Manzer,  
 Shan-Ping Mao,  Yuezhi Mao,  N. Mardirossian,  A. V. Marenich,  
 T. Markovich,  L. A. Martinez-Martinez,  S. A. Maurer,  N. J. Mayhall,  
 S. C. McKenzie,  J.-M. Mewes,  P. Morgante,  A. F. Morrison,  
 J. W. Mullinax,  K. Nanda,  T. S. Nguyen-Beck,  R. Olivares-Amaya,  
 J. A. Parkhill,  Zheng Pei,  T. M. Perrine,  F. Plasser,  P. Pokhilko,  
 S. Prager,  A. Prociuk,  E. Ramos,  D. R. Rehn,  F. Rob,  M. Scheurer,  
 M. Schneider,  N. Sergueev,  S. M. Sharada,  S. Sharma,  D. W. Small,  
 T. Stauch,  T. Stein,  Yu-Chuan Su,  A. J. W. Thom,  A. Tkatchenko,  
 T. Tsuchimochi,  N. M. Tubman,  L. Vogt,  M. L. Vidal,  O. Vydrov,  
 M. A. Watson,  J. Wenzel,  M. de Wergifosse,  T. A. Wesolowski,  A. White,  
 J. Witte,  A. Yamada,  Jun Yang,  K. Yao,  S. Yeganeh,  S. R. Yost,  
 Zhi-Qiang You,  A. Zech,  Igor Ying Zhang,  Xing Zhang,  Yan Zhao,  
 Ying Zhu,  B. R. Brooks,  G. K. L. Chan,  C. J. Cramer,  M. S. Gordon,  
 W. J. Hehre,  A. Klamt,  M. W. Schmidt,  C. D. Sherrill,  D. G. Truhlar,  
 A. Aspuru-Guzik,  R. Baer,  A. T. Bell,  N. A. Besley,  Jeng-Da Chai,  
 A. E. DePrince, III,  R. A. DiStasio Jr.,  A. Dreuw,  B. D. Dunietz,  
 T. R. Furlani,  Chao-Ping Hsu,  Yousung Jung,  Jing Kong,  D. S. Lambrecht,  
 WanZhen Liang,  C. Ochsenfeld,  V. A. Rassolov,  L. V. Slipchenko,  
 J. E. Subotnik,  T. Van Voorhis,  J. M. Herbert,  A. I. Krylov,  
 P. M. W. Gill,  M. Head-Gordon

 Contributors to earlier versions of Q-Chem not listed above: 
 R. D. Adamson,  B. Austin,  J. Baker,  G. J. O. Beran,  K. Brandhorst,  
 S. T. Brown,  E. F. C. Byrd,  A. K. Chakraborty,  C.-L. Cheng,  
 Siu Hung Chien,  D. M. Chipman,  D. L. Crittenden,  H. Dachsel,  
 R. J. Doerksen,  A. D. Dutoi,  L. Fusti-Molnar,  W. A. Goddard III,  
 A. Golubeva-Zadorozhnaya,  S. R. Gwaltney,  G. Hawkins,  A. Heyden,  
 S. Hirata,  G. Kedziora,  F. J. Keil,  C. Kelley,  Jihan Kim,  R. A. King,  
 R. Z. Khaliullin,  P. P. Korambath,  W. Kurlancheek,  A. M. Lee,  M. S. Lee,  
 S. V. Levchenko,  Ching Yeh Lin,  D. Liotard,  R. C. Lochan,  I. Lotan,  
 P. E. Maslen,  N. Nair,  D. P. O'Neill,  D. Neuhauser,  E. Neuscamman,  
 C. M. Oana,  R. Olson,  B. Peters,  R. Peverati,  P. A. Pieniazek,  
 Y. M. Rhee,  J. Ritchie,  M. A. Rohrdanz,  E. Rosta,  N. J. Russ,  
 H. F. Schaefer III,  N. E. Schultz,  N. Shenvi,  A. C. Simmonett,  A. Sodt,  
 D. Stuck,  K. S. Thanthiriwatte,  V. Vanovschi,  Tao Wang,  A. Warshel,  
 C. F. Williams,  Q. Wu,  X. Xu,  W. Zhang

 Please cite Q-Chem as follows:
 Y. Shao et al., Mol. Phys. 113, 184-215 (2015)
 DOI: 10.1080/00268976.2014.952696

 Q-Chem 5.2.0 for Intel X86 EM64T Linux

 Parts of Q-Chem use Armadillo 8.300.2 (Tropical Shenanigans).
 http://arma.sourceforge.net/

 Q-Chem begins on Sun Sep 26 13:49:39 2021  

Host: cori01
0

     Scratch files written to /tmp/qchem6027//
 May1019 |scratch|qcdevops|jenkins|workspace|build_RNUM -1
Processing $rem in /global/common/cori/software/qchem/5.2/config/preferences:
	 MEM_TOTAL  96000 
NAlpha2: 72
NElect   72
Mult     1
Symmetry turned off for PCM/SM12/SMD calculation

 Q-Chem warning in module libgen/rem_setup.C, line 2803:

 Neither GIA nor STOLL is specified by user. Use STOLL as the default


Checking the input file for inconsistencies... 	...done.

--------------------------------------------------------------
User input:
--------------------------------------------------------------
$comment
SSI-114GLU-146ARG-1.pdb
$end

$molecule
0 1
--
-1 1
C   -2.276839366299   -1.659695843626   -2.232148842602
C   -1.143839366299   -1.006695843626   -1.469148842602
O   -0.621839366299    0.041304156374   -1.920148842602
O   -0.789839366299   -1.548695843626   -0.401148842602
H   -3.186839366299   -1.375695843626   -1.705148842602
H   -2.164839366299   -2.747695843626   -2.211148842602
H   -2.326099366299   -1.320680843626   -3.277448842602
--
1 1
C    0.660160633701   -0.683695843626    2.450851157398
C    1.027160633701    1.202304156374    0.884851157398
N    0.493160633701    0.037304156374    1.187851157398
N    1.793160633701    1.819304156374    1.761851157398
N    0.802160633701    1.752304156374   -0.290148842602
H   -0.054839366299   -0.409695843626    0.468851157398
H    1.636160633701   -0.491695843626    2.898851157398
H    0.610160633701   -1.754695843626    2.242851157398
H    1.985160633701    1.388304156374    2.650851157398
H    2.229160633701    2.698304156374    1.534851157398
H    0.282160633701    1.193304156374   -0.973148842602
H    1.255160633701    2.609304156374   -0.558148842602
H   -0.134639366299   -0.435861843626    3.169781157398
$end

$rem
JOBTYPE			EDA
EDA2			1
method			wB97X-V
BASIS			def2-TZVPD
XC_GRID			000099000590
NL_GRID			1
UNRESTRICTED		FALSE
MAX_SCF_CYCLES		200
SYMMETRY		FALSE
SYM_IGNORE		TRUE
MEM_STATIC		2000
BASIS_LIN_DEP_THRESH 	6
THRESH 			14
SCF_CONVERGENCE 	8
SCF_PRINT_FRGM 		TRUE
SOLVENT_METHOD          SMD
$end

$SMX
SOLVENT			WATER
$END
--------------------------------------------------------------
 ----------------------------------------------------------------
             Standard Nuclear Orientation (Angstroms)
    I     Atom           X                Y                Z
 ----------------------------------------------------------------
    1      C      -2.2768393663    -1.6596958436    -2.2321488426
    2      C      -1.1438393663    -1.0066958436    -1.4691488426
    3      O      -0.6218393663     0.0413041564    -1.9201488426
    4      O      -0.7898393663    -1.5486958436    -0.4011488426
    5      H      -3.1868393663    -1.3756958436    -1.7051488426
    6      H      -2.1648393663    -2.7476958436    -2.2111488426
    7      H      -2.3260993663    -1.3206808436    -3.2774488426
    8      C       0.6601606337    -0.6836958436     2.4508511574
    9      C       1.0271606337     1.2023041564     0.8848511574
   10      N       0.4931606337     0.0373041564     1.1878511574
   11      N       1.7931606337     1.8193041564     1.7618511574
   12      N       0.8021606337     1.7523041564    -0.2901488426
   13      H      -0.0548393663    -0.4096958436     0.4688511574
   14      H       1.6361606337    -0.4916958436     2.8988511574
   15      H       0.6101606337    -1.7546958436     2.2428511574
   16      H       1.9851606337     1.3883041564     2.6508511574
   17      H       2.2291606337     2.6983041564     1.5348511574
   18      H       0.2821606337     1.1933041564    -0.9731488426
   19      H       1.2551606337     2.6093041564    -0.5581488426
   20      H      -0.1346393663    -0.4358618436     3.1697811574
 ----------------------------------------------------------------
 Nuclear Repulsion Energy =         474.62737249 hartrees
 There are       36 alpha and       36 beta electrons
 Requested basis set is def2-TZVPD
 There are 174 shells and 438 basis functions

 Total QAlloc Memory Limit  96000 MB
 Mega-Array Size      1956 MB
 MEM_STATIC part      2000 MB
 
 Citation of the SMD model:
 Marenich, A.V.; Cramer, C.J.; Truhlar, D.G.
 J. Phys. Chem. B 2009, 113, 6378-6396.
 iSolventCode=           1
 Solvent: water                                                           
 
 vradii
            1           2           3           4           5           6
    1   1.8500000   1.8500000   1.5200000   1.5200000   1.2000000   1.2000000
            7           8           9          10          11          12
    1   1.2000000   1.8500000   1.8500000   1.8900000   1.8900000   1.8900000
           13          14          15          16          17          18
    1   1.2000000   1.2000000   1.2000000   1.2000000   1.2000000   1.2000000
           19          20
    1   1.2000000   1.2000000
 Changing PCM_VDW_RADII to SMD_RADIUS
 Discretize the solute cavity surface with Lebedev spheres
	Using 110 Lebedev grid points for each H atom
	Using 194 Lebedev grid points for other atoms
	Atomic van der Waals radii will be scaled by 1.20
 Remove points where switching function is < 1.0e-08
 Keep 1449 surface tesserae and discard 1507 interior tesserae
 Molecular Surface Area = 174.430 Angst**2
 A cutoff of  1.0D-14 yielded  13772 shell pairs
 There are     88520 function pairs (    111464 Cartesian)
 Smallest overlap matrix eigenvalue = 7.87E-06

 Scale SEOQF with 1.000000e-01/1.000000e-01/1.000000e-01

 Standard Electronic Orientation quadrupole field applied
 Nucleus-field energy     =    -0.0000000078 hartrees

 -----------------------------------------------------------------------
  General SCF calculation program by
  Eric Jon Sundstrom, Paul Horn, Yuezhi Mao, Dmitri Zuev, Alec White,
  David Stuck, Shaama M.S., Shane Yost, Joonho Lee, David Small,
  Daniel Levine, Susi Lehtola, Hugh Burton, Evgeny Epifanovsky
 -----------------------------------------------------------------------
================================================================
                 ALMO-EDA with the EDA2 driver                  
================================================================
 The second-generation ALMO-EDA (for DFT):                      
 P. R. Horn, Y. Mao and M. Head-Gordon, PCCP, 18, 23067 (2016)  
 Decomposition of the frozen energy:                            
 P. R. Horn, Y. Mao and M. Head-Gordon, JCP, 144, 114107 (2016) 
 FERF model for polarization:                                   
 P. R. Horn and M. Head-Gordon, JCP, 143, 114111 (2015)         
Using eda2 option set 1
Option set summary: Frozen orbital wavefunction, initial wavefunction decomposition, and nDQ polarization.
--------------------------------
Printing EDA Options
--------------------------------
eda_child_super_basis      0
fragmo_guess_mode          0
child_mp                   1
child_mp_orders            232
cls_elec                   1
cls_disp                   0
scfmi_mode                 1
scfmi_occs                 0
scfmi_virts                0
frz_relax                  0
frz_relax_method           0
dc_pen_start               0
dc_pen_conv                0
dc_pen_increment           0
dc_pen_steps               0
dc_pen_thresh_factor       0
dc_pen_pre_newton_thresh   0
frz_ortho_decomp           1
frz_ortho_decomp_conv      6
frgm_method                2
scfmi_freeze_ss            0
separate_rehyb             0
plot_diff_den              0
eda_nocv                   0
eda_vct_relax              1
disp_free_x                0
disp_free_c                0
eda_bsse                   0
eda_pct_a                  0
eda_covp                   0
--------------------------------
Attempting to make child job directory: /tmp/qchem6027//Frg1/
Attempting to make child job directory: /tmp/qchem6027//Frg2/
Creating input file /tmp/qchem6027/Frg1.input
using default PutDataFrgm: nothing
calling putenv with: QCSCRATCH=/tmp/qchem6027/ 
calling putenv with: QCLOCALSCR=/tmp/qchem6027/ 
Spawning Job For Fragment 0
                  Welcome to Q-Chem
     A Quantum Leap Into The Future Of Chemistry


 Q-Chem 5.2, Q-Chem, Inc., Pleasanton, CA (2019)

 License issued to: National Energy Research Scientific Computing Center

 Yihan Shao,  Zhengting Gan,  E. Epifanovsky,  A. T. B. Gilbert,  M. Wormit,  
 J. Kussmann,  A. W. Lange,  A. Behn,  Jia Deng,  Xintian Feng,  D. Ghosh,  
 M. Goldey,  P. R. Horn,  L. D. Jacobson,  I. Kaliman,  T. Kus,  A. Landau,  
 Jie Liu,  E. I. Proynov,  R. M. Richard,  R. P. Steele,  E. J. Sundstrom,  
 H. L. Woodcock III,  P. M. Zimmerman,  D. Zuev,  B. Albrecht,  E. Alguire,  
 S. A. Baeppler,  D. Barton,  Z. Benda,  Y. A. Bernard,  E. J. Berquist,  
 K. B. Bravaya,  H. Burton,  D. Casanova,  Chun-Min Chang,  Yunqing Chen,  
 A. Chien,  K. D. Closser,  M. P. Coons,  S. Coriani,  S. Dasgupta,  
 A. L. Dempwolff,  M. Diedenhofen,  Hainam Do,  R. G. Edgar,  Po-Tung Fang,  
 S. Faraji,  S. Fatehi,  Qingguo Feng,  K. D. Fenk,  J. Fosso-Tande,  
 J. Gayvert,  Qinghui Ge,  A. Ghysels,  G. Gidofalvi,  J. Gomes,  
 J. Gonthier,  A. Gunina,  D. Hait,  M. W. D. Hanson-Heine,  
 P. H. P. Harbach,  A. W. Hauser,  M. F. Herbst,  J. E. Herr,  
 E. G. Hohenstein,  Z. C. Holden,  Kerwin Hui,  B. C. Huynh,  T.-C. Jagau,  
 Hyunjun Ji,  B. Kaduk,  K. Khistyaev,  Jaehoon Kim,  P. Klunzinger,  K. Koh,  
 D. Kosenkov,  L. Koulias,  T. Kowalczyk,  C. M. Krauter,  A. Kunitsa,  
 Ka Un Lao,  A. Laurent,  K. V. Lawler,  Joonho Lee,  D. Lefrancois,  
 S. Lehtola,  D. S. Levine,  Yi-Pei Li,  You-Sheng Lin,  Fenglai Liu,  
 E. Livshits,  A. Luenser,  P. Manohar,  E. Mansoor,  S. F. Manzer,  
 Shan-Ping Mao,  Yuezhi Mao,  N. Mardirossian,  A. V. Marenich,  
 T. Markovich,  L. A. Martinez-Martinez,  S. A. Maurer,  N. J. Mayhall,  
 S. C. McKenzie,  J.-M. Mewes,  P. Morgante,  A. F. Morrison,  
 J. W. Mullinax,  K. Nanda,  T. S. Nguyen-Beck,  R. Olivares-Amaya,  
 J. A. Parkhill,  Zheng Pei,  T. M. Perrine,  F. Plasser,  P. Pokhilko,  
 S. Prager,  A. Prociuk,  E. Ramos,  D. R. Rehn,  F. Rob,  M. Scheurer,  
 M. Schneider,  N. Sergueev,  S. M. Sharada,  S. Sharma,  D. W. Small,  
 T. Stauch,  T. Stein,  Yu-Chuan Su,  A. J. W. Thom,  A. Tkatchenko,  
 T. Tsuchimochi,  N. M. Tubman,  L. Vogt,  M. L. Vidal,  O. Vydrov,  
 M. A. Watson,  J. Wenzel,  M. de Wergifosse,  T. A. Wesolowski,  A. White,  
 J. Witte,  A. Yamada,  Jun Yang,  K. Yao,  S. Yeganeh,  S. R. Yost,  
 Zhi-Qiang You,  A. Zech,  Igor Ying Zhang,  Xing Zhang,  Yan Zhao,  
 Ying Zhu,  B. R. Brooks,  G. K. L. Chan,  C. J. Cramer,  M. S. Gordon,  
 W. J. Hehre,  A. Klamt,  M. W. Schmidt,  C. D. Sherrill,  D. G. Truhlar,  
 A. Aspuru-Guzik,  R. Baer,  A. T. Bell,  N. A. Besley,  Jeng-Da Chai,  
 A. E. DePrince, III,  R. A. DiStasio Jr.,  A. Dreuw,  B. D. Dunietz,  
 T. R. Furlani,  Chao-Ping Hsu,  Yousung Jung,  Jing Kong,  D. S. Lambrecht,  
 WanZhen Liang,  C. Ochsenfeld,  V. A. Rassolov,  L. V. Slipchenko,  
 J. E. Subotnik,  T. Van Voorhis,  J. M. Herbert,  A. I. Krylov,  
 P. M. W. Gill,  M. Head-Gordon

 Contributors to earlier versions of Q-Chem not listed above: 
 R. D. Adamson,  B. Austin,  J. Baker,  G. J. O. Beran,  K. Brandhorst,  
 S. T. Brown,  E. F. C. Byrd,  A. K. Chakraborty,  C.-L. Cheng,  
 Siu Hung Chien,  D. M. Chipman,  D. L. Crittenden,  H. Dachsel,  
 R. J. Doerksen,  A. D. Dutoi,  L. Fusti-Molnar,  W. A. Goddard III,  
 A. Golubeva-Zadorozhnaya,  S. R. Gwaltney,  G. Hawkins,  A. Heyden,  
 S. Hirata,  G. Kedziora,  F. J. Keil,  C. Kelley,  Jihan Kim,  R. A. King,  
 R. Z. Khaliullin,  P. P. Korambath,  W. Kurlancheek,  A. M. Lee,  M. S. Lee,  
 S. V. Levchenko,  Ching Yeh Lin,  D. Liotard,  R. C. Lochan,  I. Lotan,  
 P. E. Maslen,  N. Nair,  D. P. O'Neill,  D. Neuhauser,  E. Neuscamman,  
 C. M. Oana,  R. Olson,  B. Peters,  R. Peverati,  P. A. Pieniazek,  
 Y. M. Rhee,  J. Ritchie,  M. A. Rohrdanz,  E. Rosta,  N. J. Russ,  
 H. F. Schaefer III,  N. E. Schultz,  N. Shenvi,  A. C. Simmonett,  A. Sodt,  
 D. Stuck,  K. S. Thanthiriwatte,  V. Vanovschi,  Tao Wang,  A. Warshel,  
 C. F. Williams,  Q. Wu,  X. Xu,  W. Zhang

 Please cite Q-Chem as follows:
 Y. Shao et al., Mol. Phys. 113, 184-215 (2015)
 DOI: 10.1080/00268976.2014.952696

 Q-Chem 5.2.0 for Intel X86 EM64T Linux

 Parts of Q-Chem use Armadillo 8.300.2 (Tropical Shenanigans).
 http://arma.sourceforge.net/

 Q-Chem begins on Sun Sep 26 13:49:44 2021  

Host: cori01
0

     Scratch files written to /tmp/qchem6027//Frg1//
 May1019 |scratch|qcdevops|jenkins|workspace|build_RNUM -1
Processing $rem in /global/common/cori/software/qchem/5.2/config/preferences:
	 MEM_TOTAL  96000 
NAlpha2: 32
NElect   32
Mult     1
Symmetry turned off for PCM/SM12/SMD calculation

Checking the input file for inconsistencies... 	...done.

--------------------------------------------------------------
User input:
--------------------------------------------------------------
$molecule
-1 1
 6	-2.2768393663	-1.6596958436	-2.2321488426
 6	-1.1438393663	-1.0066958436	-1.4691488426
 8	-0.6218393663	0.0413041564	-1.9201488426
 8	-0.7898393663	-1.5486958436	-0.4011488426
 1	-3.1868393663	-1.3756958436	-1.7051488426
 1	-2.1648393663	-2.7476958436	-2.2111488426
 1	-2.3260993663	-1.3206808436	-3.2774488426
$end
$rem
EDA2		1
METHOD		WB97X-V
BASIS		DEF2-TZVPD
XC_GRID		000099000590
NL_GRID		1
UNRESTRICTED		FALSE
MAX_SCF_CYCLES		200
SYMMETRY		FALSE
SYM_IGNORE		TRUE
BASIS_LIN_DEP_THRESH		6
THRESH		14
SCF_CONVERGENCE		8
SCF_PRINT_FRGM		TRUE
SOLVENT_METHOD		SMD
!required keywords
JOBTYPE		SP
SYM_IGNORE		TRUE
SUBSYSTEM		TRUE
GEN_SCFMAN		TRUE
CHILD_INSTRUCTION		2
SYM_IGNORE		TRUE
SCFMI		0
RI_K 0		
PARI_K 0		
MIN_PARI_K 0		
IARI_K 0		
OCC_RI_K 0		
PURECART		1111
MEM_STATIC		2000
MEM_TOTAL		96000
GUI		0
CHILD_MP		1
CHILD_MP_ORDERS		232
FRZ_RELAX		0
FRZ_RELAX_METHOD		0
EDA_CLS_ELEC		1
EDA_CLS_DISP		0
FRZ_ORTHO_DECOMP		1
EDA2		FALSE
FRGM_METHOD		FALSE
CIS_N_ROOTS  0
LOCAL_CIS    0
CIS_RLX_DNS  1
$end
$smx
SOLVENT			WATER
$end
--------------------------------------------------------------
 ----------------------------------------------------------------
             Standard Nuclear Orientation (Angstroms)
    I     Atom           X                Y                Z
 ----------------------------------------------------------------
    1      C      -2.2768393663    -1.6596958436    -2.2321488426
    2      C      -1.1438393663    -1.0066958436    -1.4691488426
    3      O      -0.6218393663     0.0413041564    -1.9201488426
    4      O      -0.7898393663    -1.5486958436    -0.4011488426
    5      H      -3.1868393663    -1.3756958436    -1.7051488426
    6      H      -2.1648393663    -2.7476958436    -2.2111488426
    7      H      -2.3260993663    -1.3206808436    -3.2774488426
 ----------------------------------------------------------------
 Nuclear Repulsion Energy =         112.83436932 hartrees
 There are       16 alpha and       16 beta electrons
 Requested basis set is def2-TZVPD
 There are 69 shells and 181 basis functions

 Total QAlloc Memory Limit  96000 MB
 Mega-Array Size      1956 MB
 MEM_STATIC part      2000 MB
 
 Citation of the SMD model:
 Marenich, A.V.; Cramer, C.J.; Truhlar, D.G.
 J. Phys. Chem. B 2009, 113, 6378-6396.
 iSolventCode=           1
 Solvent: water                                                           
 
 vradii
            1           2           3           4           5           6
    1   1.8500000   1.8500000   1.5200000   1.5200000   1.2000000   1.2000000
            7
    1   1.2000000
 Changing PCM_VDW_RADII to SMD_RADIUS
 Discretize the solute cavity surface with Lebedev spheres
	Using 110 Lebedev grid points for each H atom
	Using 194 Lebedev grid points for other atoms
	Atomic van der Waals radii will be scaled by 1.20
 Remove points where switching function is < 1.0e-08
 Keep 643 surface tesserae and discard 463 interior tesserae
 Molecular Surface Area = 79.863 Angst**2

                       Distance Matrix (Angstroms)
             C (  1)   C (  2)   O (  3)   O (  4)   H (  5)   H (  6)
   C (  2)  1.514023
   O (  3)  2.393694  1.254667
   O (  4)  2.361366  1.248881  2.205376
   H (  5)  1.089259  2.089427  2.938254  2.734219
   H (  6)  1.093951  2.150369  3.200633  2.569888  1.784070
   H (  7)  1.100004  2.183180  2.569391  3.268820  1.793329  1.788679

 
 A cutoff of  1.0D-14 yielded   2391 shell pairs
 There are     16695 function pairs (     21491 Cartesian)
 Smallest overlap matrix eigenvalue = 1.66E-05

 Scale SEOQF with 1.000000e-01/1.000000e-01/1.000000e-01

 Standard Electronic Orientation quadrupole field applied
 Nucleus-field energy     =    -0.0000000037 hartrees
 Guess from superposition of atomic densities
 Warning:  Energy on first SCF cycle will be non-variational
 SAD guess density has 30.625312 electrons

 -----------------------------------------------------------------------
  General SCF calculation program by
  Eric Jon Sundstrom, Paul Horn, Yuezhi Mao, Dmitri Zuev, Alec White,
  David Stuck, Shaama M.S., Shane Yost, Joonho Lee, David Small,
  Daniel Levine, Susi Lehtola, Hugh Burton, Evgeny Epifanovsky
 -----------------------------------------------------------------------
 Exchange:     0.1670 Hartree-Fock + 1.0000 wB97X-V + LR-HF
 Correlation:  1.0000 wB97X-V
 Using Euler-Maclaurin-Lebedev (99,590) quadrature formula
 Nonlocal Correlation:  VV10 with C = 0.0100 and b = 6.00 and scale = 1.00000
 Grid used for NLC:  SG-1 standard quadrature
Energy prior to optimization (guess energy) = -227.763708242042
Begin Timing: Total SCF Calculation
begin iterations for algorithm: DIIS         
the SCF tolerance is set to 1.00e-08
    1    -227.7637082420      1.66e-02     00000 
    2    -225.6285318474      2.49e-02     00000 
    3    -228.6067171425      4.07e-03     00000 
    4    -228.6593904984      1.40e-03     00000 
    5    -228.6653729811      3.18e-04     00000 
    6    -228.6656638525      2.20e-04     00000 
    7    -228.6657944259      4.79e-05     00000 
    8    -228.6658038452      1.31e-05     00000 
    9    -228.6658049503      3.69e-06     00000 
   10    -228.6658050557      1.09e-06     00000 
   11    -228.6658050653      2.18e-07     00000 
   12    -228.6658050656      4.81e-08     00000 
   13    -228.6658050657      1.18e-08     00000 
   14    -228.6658050657      3.06e-09     00000 Convergence criterion met
Timing for Total SCF: 287.00s (wall), 531.96s (cpu)
(3)  G-ENP(liq) elect-nuc-pol free energy of system     -228.665805066 a.u.
(4)  G-CDS(liq) cavity-dispersion-solvent structure 
     free energy                                                3.8986 kcal/mol
(6)  G-S(liq) free energy of system                     -228.659592191 a.u.
E_pcm = -0.1307523754
E_cds = 0.0062128743
Multipole orders to be included
        2
        3
computing dipole RHS
computing quadrupole RHS
total number of RHS in solve_reponses: 8
RHS batch sizes
        8
Beginning Block Conjugate Gradient Iterations. Batch Number: 0
computing hessian-vector products by finite difference
              1      6.65e-01     00000 Conjugate Gradient Iteration
computing hessian-vector products by finite difference
              2      2.04e-01     00000 Conjugate Gradient Iteration
computing hessian-vector products by finite difference
              3      5.46e-02     00000 Conjugate Gradient Iteration
computing hessian-vector products by finite difference
              4      1.44e-02     00000 Conjugate Gradient Iteration
computing hessian-vector products by finite difference
              5      2.12e-03     00000 Conjugate Gradient Iteration
computing hessian-vector products by finite difference
              6      5.48e-04     00000 Conjugate Gradient Iteration
computing hessian-vector products by finite difference
              7      7.78e-05     00000 Conjugate Gradient Iteration
computing hessian-vector products by finite difference
              8      9.57e-06     00000 Conjugate Gradient Iteration
computing hessian-vector products by finite difference
              9      1.48e-06     00000 Conjugate Gradient Iteration
computing hessian-vector products by finite difference
             10      1.50e-07     00000 Conjugate Gradient Iteration
computing hessian-vector products by finite difference
             11      1.92e-08     00000 Conjugate Gradient Iteration
computing hessian-vector products by finite difference
             12      2.53e-09     00000 CG Converged
batch 0 complete
Done Calculating Responses
TESTING ORTHOGONALIZATION OF MULTIPOLE BASIS
Multipole virts passed orthogonality test
Virts Per Order
        48
        80
 
 --------------------------------------------------------------
 
                    Orbital Energies (a.u.)
 --------------------------------------------------------------
 
 Alpha MOs
 -- Occupied --
-19.1533 -19.1525 -10.3533 -10.2460  -1.1650  -1.0660  -0.8414  -0.6163
 -0.5501  -0.5452  -0.5419  -0.4817  -0.4632  -0.3658  -0.3564  -0.3454
 -- Virtual --
  0.0670   0.1000   0.1011   0.1074   0.1353   0.1443   0.1457   0.1504
  0.1575   0.1909   0.2044   0.2223   0.2347   0.2396   0.2584   0.2666
  0.2996   0.3146   0.3327   0.3465   0.3548   0.3637   0.3727   0.3803
  0.3852   0.4027   0.4159   0.4241   0.4319   0.4548   0.4670   0.4727
  0.4819   0.4889   0.5012   0.5119   0.5461   0.5620   0.5765   0.5986
  0.6167   0.6270   0.6348   0.6397   0.6523   0.6733   0.6856   0.6935
  0.7096   0.7260   0.7758   0.7932   0.8051   0.8134   0.8334   0.8447
  0.8622   0.9565   0.9741   0.9828   0.9888   1.0254   1.0460   1.0935
  1.1374   1.2108   1.2378   1.2620   1.2690   1.2996   1.3378   1.3592
  1.4288   1.5404   1.5812   1.7303   1.8064   1.8527   1.8588   1.8936
  1.9191   1.9404   1.9461   1.9606   2.0093   2.0954   2.1032   2.1686
  2.1956   2.2141   2.2975   2.3231   2.4100   2.4343   2.4570   2.4769
  2.5564   2.5769   2.5996   2.6347   2.7775   2.8108   2.8540   2.9014
  2.9262   3.0051   3.0464   3.1657   3.1997   3.2348   3.2559   3.2846
  3.3322   3.3440   3.3726   3.4041   3.4218   3.5035   3.5568   3.5811
  3.5819   3.6523   3.6848   3.7096   3.7435   3.8382   3.9510   4.0484
  4.0781   4.1934   4.3498   4.5548   4.6048   4.6737   4.7771   4.8057
  4.9731   5.2966   5.3250   5.3330   5.3422   5.4732   5.6851   5.7304
  5.7863   5.9896   6.2190   6.3044   6.3239   6.5955   6.5985   6.6806
  6.7151   6.7275   6.9252   6.9441   7.0140   7.2110   7.3339   7.3495
  7.3839  22.5884  23.7163  44.1920  44.3328
 --------------------------------------------------------------
 
          Ground-State Mulliken Net Atomic Charges

     Atom                 Charge (a.u.)
  ----------------------------------------
      1 C                    -0.576166
      2 C                     0.489534
      3 O                    -0.775112
      4 O                    -0.771283
      5 H                     0.186837
      6 H                     0.223898
      7 H                     0.222291
  ----------------------------------------
  Sum of atomic charges =    -1.000000

 -----------------------------------------------------------------
                    Cartesian Multipole Moments
 -----------------------------------------------------------------
    Charge (ESU x 10^10)
                -4.8032
    Dipole Moment (Debye)
         X       1.6564      Y       2.6212      Z       4.4543
       Tot       5.4273
    Quadrupole Moments (Debye-Ang)
        XX     -24.5401     XY      -0.9432     YY     -31.8170
        XZ      -0.3851     YZ       3.5005     ZZ     -34.0231
    Octopole Moments (Debye-Ang^2)
       XXX      92.1142    XXY      26.9309    XYY      36.5152
       YYY      92.9513    XXZ      36.8172    XYZ      -4.6286
       YYZ      36.8136    XZZ      33.9652    YZZ      18.9565
       ZZZ     136.2520
    Hexadecapole Moments (Debye-Ang^3)
      XXXX    -345.1135   XXXY    -128.5529   XXYY    -112.1320
      XYYY    -136.7116   YYYY    -302.9182   XXXZ    -169.8940
      XXYZ     -34.1305   XYYZ     -54.2083   YYYZ    -112.4497
      XXZZ    -138.5644   XYZZ     -34.0413   YYZZ    -120.4719
      XZZZ    -177.5806   YZZZ    -102.1485   ZZZZ    -517.1645
 -----------------------------------------------------------------
Archival summary:
1\1\nid00535\SP\ProcedureUnspecified\BasisUnspecified\223(1-,1)\meili\SunSep2615:05:172021SunSep2615:05:172021\0\\#,ProcedureUnspecified,BasisUnspecified,\\-1,1\C\O,1,1.24888\O,1,1.25467,2,123.502\C,1,1.51402,2,117.123,3,-179.221,0\H,4,1.08926,1,105.599,2,77.4426,0\H,4,1.09395,1,110.039,2,-40.7654,0\H,4,1.1,1,112.301,2,-162.671,0\\\@

 Total job time:  4533.79s(wall), 8585.01s(cpu) 
 Sun Sep 26 15:05:18 2021

        *************************************************************
        *                                                           *
        *  Thank you very much for using Q-Chem.  Have a nice day.  *
        *                                                           *
        *************************************************************


Done Job For Fragment 0
calling putenv with: QCSCRATCH=/global/cscratch1/sd/meili 
calling putenv with: QCLOCALSCR=/tmp 
calling putenv with: QCTHREADS=32 
Creating input file /tmp/qchem6027/Frg2.input
using default PutDataFrgm: nothing
calling putenv with: QCSCRATCH=/tmp/qchem6027/ 
calling putenv with: QCLOCALSCR=/tmp/qchem6027/ 
Spawning Job For Fragment 1
                  Welcome to Q-Chem
     A Quantum Leap Into The Future Of Chemistry


 Q-Chem 5.2, Q-Chem, Inc., Pleasanton, CA (2019)

 License issued to: National Energy Research Scientific Computing Center

 Yihan Shao,  Zhengting Gan,  E. Epifanovsky,  A. T. B. Gilbert,  M. Wormit,  
 J. Kussmann,  A. W. Lange,  A. Behn,  Jia Deng,  Xintian Feng,  D. Ghosh,  
 M. Goldey,  P. R. Horn,  L. D. Jacobson,  I. Kaliman,  T. Kus,  A. Landau,  
 Jie Liu,  E. I. Proynov,  R. M. Richard,  R. P. Steele,  E. J. Sundstrom,  
 H. L. Woodcock III,  P. M. Zimmerman,  D. Zuev,  B. Albrecht,  E. Alguire,  
 S. A. Baeppler,  D. Barton,  Z. Benda,  Y. A. Bernard,  E. J. Berquist,  
 K. B. Bravaya,  H. Burton,  D. Casanova,  Chun-Min Chang,  Yunqing Chen,  
 A. Chien,  K. D. Closser,  M. P. Coons,  S. Coriani,  S. Dasgupta,  
 A. L. Dempwolff,  M. Diedenhofen,  Hainam Do,  R. G. Edgar,  Po-Tung Fang,  
 S. Faraji,  S. Fatehi,  Qingguo Feng,  K. D. Fenk,  J. Fosso-Tande,  
 J. Gayvert,  Qinghui Ge,  A. Ghysels,  G. Gidofalvi,  J. Gomes,  
 J. Gonthier,  A. Gunina,  D. Hait,  M. W. D. Hanson-Heine,  
 P. H. P. Harbach,  A. W. Hauser,  M. F. Herbst,  J. E. Herr,  
 E. G. Hohenstein,  Z. C. Holden,  Kerwin Hui,  B. C. Huynh,  T.-C. Jagau,  
 Hyunjun Ji,  B. Kaduk,  K. Khistyaev,  Jaehoon Kim,  P. Klunzinger,  K. Koh,  
 D. Kosenkov,  L. Koulias,  T. Kowalczyk,  C. M. Krauter,  A. Kunitsa,  
 Ka Un Lao,  A. Laurent,  K. V. Lawler,  Joonho Lee,  D. Lefrancois,  
 S. Lehtola,  D. S. Levine,  Yi-Pei Li,  You-Sheng Lin,  Fenglai Liu,  
 E. Livshits,  A. Luenser,  P. Manohar,  E. Mansoor,  S. F. Manzer,  
 Shan-Ping Mao,  Yuezhi Mao,  N. Mardirossian,  A. V. Marenich,  
 T. Markovich,  L. A. Martinez-Martinez,  S. A. Maurer,  N. J. Mayhall,  
 S. C. McKenzie,  J.-M. Mewes,  P. Morgante,  A. F. Morrison,  
 J. W. Mullinax,  K. Nanda,  T. S. Nguyen-Beck,  R. Olivares-Amaya,  
 J. A. Parkhill,  Zheng Pei,  T. M. Perrine,  F. Plasser,  P. Pokhilko,  
 S. Prager,  A. Prociuk,  E. Ramos,  D. R. Rehn,  F. Rob,  M. Scheurer,  
 M. Schneider,  N. Sergueev,  S. M. Sharada,  S. Sharma,  D. W. Small,  
 T. Stauch,  T. Stein,  Yu-Chuan Su,  A. J. W. Thom,  A. Tkatchenko,  
 T. Tsuchimochi,  N. M. Tubman,  L. Vogt,  M. L. Vidal,  O. Vydrov,  
 M. A. Watson,  J. Wenzel,  M. de Wergifosse,  T. A. Wesolowski,  A. White,  
 J. Witte,  A. Yamada,  Jun Yang,  K. Yao,  S. Yeganeh,  S. R. Yost,  
 Zhi-Qiang You,  A. Zech,  Igor Ying Zhang,  Xing Zhang,  Yan Zhao,  
 Ying Zhu,  B. R. Brooks,  G. K. L. Chan,  C. J. Cramer,  M. S. Gordon,  
 W. J. Hehre,  A. Klamt,  M. W. Schmidt,  C. D. Sherrill,  D. G. Truhlar,  
 A. Aspuru-Guzik,  R. Baer,  A. T. Bell,  N. A. Besley,  Jeng-Da Chai,  
 A. E. DePrince, III,  R. A. DiStasio Jr.,  A. Dreuw,  B. D. Dunietz,  
 T. R. Furlani,  Chao-Ping Hsu,  Yousung Jung,  Jing Kong,  D. S. Lambrecht,  
 WanZhen Liang,  C. Ochsenfeld,  V. A. Rassolov,  L. V. Slipchenko,  
 J. E. Subotnik,  T. Van Voorhis,  J. M. Herbert,  A. I. Krylov,  
 P. M. W. Gill,  M. Head-Gordon

 Contributors to earlier versions of Q-Chem not listed above: 
 R. D. Adamson,  B. Austin,  J. Baker,  G. J. O. Beran,  K. Brandhorst,  
 S. T. Brown,  E. F. C. Byrd,  A. K. Chakraborty,  C.-L. Cheng,  
 Siu Hung Chien,  D. M. Chipman,  D. L. Crittenden,  H. Dachsel,  
 R. J. Doerksen,  A. D. Dutoi,  L. Fusti-Molnar,  W. A. Goddard III,  
 A. Golubeva-Zadorozhnaya,  S. R. Gwaltney,  G. Hawkins,  A. Heyden,  
 S. Hirata,  G. Kedziora,  F. J. Keil,  C. Kelley,  Jihan Kim,  R. A. King,  
 R. Z. Khaliullin,  P. P. Korambath,  W. Kurlancheek,  A. M. Lee,  M. S. Lee,  
 S. V. Levchenko,  Ching Yeh Lin,  D. Liotard,  R. C. Lochan,  I. Lotan,  
 P. E. Maslen,  N. Nair,  D. P. O'Neill,  D. Neuhauser,  E. Neuscamman,  
 C. M. Oana,  R. Olson,  B. Peters,  R. Peverati,  P. A. Pieniazek,  
 Y. M. Rhee,  J. Ritchie,  M. A. Rohrdanz,  E. Rosta,  N. J. Russ,  
 H. F. Schaefer III,  N. E. Schultz,  N. Shenvi,  A. C. Simmonett,  A. Sodt,  
 D. Stuck,  K. S. Thanthiriwatte,  V. Vanovschi,  Tao Wang,  A. Warshel,  
 C. F. Williams,  Q. Wu,  X. Xu,  W. Zhang

 Please cite Q-Chem as follows:
 Y. Shao et al., Mol. Phys. 113, 184-215 (2015)
 DOI: 10.1080/00268976.2014.952696

 Q-Chem 5.2.0 for Intel X86 EM64T Linux

 Parts of Q-Chem use Armadillo 8.300.2 (Tropical Shenanigans).
 http://arma.sourceforge.net/

 Q-Chem begins on Sun Sep 26 15:05:19 2021  

Host: cori01
0

     Scratch files written to /tmp/qchem6027//Frg2//
 May1019 |scratch|qcdevops|jenkins|workspace|build_RNUM -1
Processing $rem in /global/common/cori/software/qchem/5.2/config/preferences:
	 MEM_TOTAL  96000 
NAlpha2: 40
NElect   40
Mult     1
Symmetry turned off for PCM/SM12/SMD calculation

Checking the input file for inconsistencies... 	...done.

--------------------------------------------------------------
User input:
--------------------------------------------------------------
$molecule
1 1
 6	0.6601606337	-0.6836958436	2.4508511574
 6	1.0271606337	1.2023041564	0.8848511574
 7	0.4931606337	0.0373041564	1.1878511574
 7	1.7931606337	1.8193041564	1.7618511574
 7	0.8021606337	1.7523041564	-0.2901488426
 1	-0.0548393663	-0.4096958436	0.4688511574
 1	1.6361606337	-0.4916958436	2.8988511574
 1	0.6101606337	-1.7546958436	2.2428511574
 1	1.9851606337	1.3883041564	2.6508511574
 1	2.2291606337	2.6983041564	1.5348511574
 1	0.2821606337	1.1933041564	-0.9731488426
 1	1.2551606337	2.6093041564	-0.5581488426
 1	-0.1346393663	-0.4358618436	3.1697811574
$end
$rem
EDA2		1
METHOD		WB97X-V
BASIS		DEF2-TZVPD
XC_GRID		000099000590
NL_GRID		1
UNRESTRICTED		FALSE
MAX_SCF_CYCLES		200
SYMMETRY		FALSE
SYM_IGNORE		TRUE
BASIS_LIN_DEP_THRESH		6
THRESH		14
SCF_CONVERGENCE		8
SCF_PRINT_FRGM		TRUE
SOLVENT_METHOD		SMD
!required keywords
JOBTYPE		SP
SYM_IGNORE		TRUE
SUBSYSTEM		TRUE
GEN_SCFMAN		TRUE
CHILD_INSTRUCTION		2
SYM_IGNORE		TRUE
SCFMI		0
RI_K 0		
PARI_K 0		
MIN_PARI_K 0		
IARI_K 0		
OCC_RI_K 0		
PURECART		1111
MEM_STATIC		2000
MEM_TOTAL		96000
GUI		0
CHILD_MP		1
CHILD_MP_ORDERS		232
FRZ_RELAX		0
FRZ_RELAX_METHOD		0
EDA_CLS_ELEC		1
EDA_CLS_DISP		0
FRZ_ORTHO_DECOMP		1
EDA2		FALSE
FRGM_METHOD		FALSE
CIS_N_ROOTS  0
LOCAL_CIS    0
CIS_RLX_DNS  1
$end
$smx
SOLVENT			WATER
$end
--------------------------------------------------------------
 ----------------------------------------------------------------
             Standard Nuclear Orientation (Angstroms)
    I     Atom           X                Y                Z
 ----------------------------------------------------------------
    1      C       0.6601606337    -0.6836958436     2.4508511574
    2      C       1.0271606337     1.2023041564     0.8848511574
    3      N       0.4931606337     0.0373041564     1.1878511574
    4      N       1.7931606337     1.8193041564     1.7618511574
    5      N       0.8021606337     1.7523041564    -0.2901488426
    6      H      -0.0548393663    -0.4096958436     0.4688511574
    7      H       1.6361606337    -0.4916958436     2.8988511574
    8      H       0.6101606337    -1.7546958436     2.2428511574
    9      H       1.9851606337     1.3883041564     2.6508511574
   10      H       2.2291606337     2.6983041564     1.5348511574
   11      H       0.2821606337     1.1933041564    -0.9731488426
   12      H       1.2551606337     2.6093041564    -0.5581488426
   13      H      -0.1346393663    -0.4358618436     3.1697811574
 ----------------------------------------------------------------
 Nuclear Repulsion Energy =         194.58723062 hartrees
 There are       20 alpha and       20 beta electrons
 Requested basis set is def2-TZVPD
 There are 105 shells and 257 basis functions

 Total QAlloc Memory Limit  96000 MB
 Mega-Array Size      1956 MB
 MEM_STATIC part      2000 MB
 
 Citation of the SMD model:
 Marenich, A.V.; Cramer, C.J.; Truhlar, D.G.
 J. Phys. Chem. B 2009, 113, 6378-6396.
 iSolventCode=           1
 Solvent: water                                                           
 
 vradii
            1           2           3           4           5           6
    1   1.8500000   1.8500000   1.8900000   1.8900000   1.8900000   1.2000000
            7           8           9          10          11          12
    1   1.2000000   1.2000000   1.2000000   1.2000000   1.2000000   1.2000000
           13
    1   1.2000000
 Changing PCM_VDW_RADII to SMD_RADIUS
 Discretize the solute cavity surface with Lebedev spheres
	Using 110 Lebedev grid points for each H atom
	Using 194 Lebedev grid points for other atoms
	Atomic van der Waals radii will be scaled by 1.20
 Remove points where switching function is < 1.0e-08
 Keep 903 surface tesserae and discard 947 interior tesserae
 Molecular Surface Area = 113.453 Angst**2

                       Distance Matrix (Angstroms)
             C (  1)   C (  2)   N (  3)   N (  4)   N (  5)   H (  6)
   C (  2)  2.478718
   N (  3)  1.463864  1.316886
   N (  4)  2.832564  1.317791  2.279254
   N (  5)  3.669788  1.316719  2.284992  2.279753
   H (  6)  2.124765  1.985529  1.008501  3.171024  2.446380
   H (  7)  1.090937  2.701243  2.124573  2.580337  3.987582  2.961605
   H (  8)  1.092156  3.280534  2.082781  3.795303  4.330358  2.323430
   H (  9)  2.467551  2.017701  2.488299  1.006452  3.190841  3.486478
   H ( 10)  3.839107  2.026159  3.196095  1.007108  2.502373  4.001584
   H ( 11)  3.922982  2.001817  2.459833  3.186726  1.024388  2.182325
   H ( 12)  4.500217  2.028271  3.200679  2.509172  1.005725  3.447490
   H ( 13)  1.099995  3.042084  2.132150  3.283969  4.199617  2.702235
             H (  7)   H (  8)   H (  9)   H ( 10)   H ( 11)   H ( 12)
   H (  8)  1.754475
   H (  9)  1.928135  3.454785
   H ( 10)  3.519694  4.790786  1.738129
   H ( 11)  4.434515  4.375036  4.008941  3.513673
   H ( 12)  4.659636  5.225526  3.510188  2.310248  1.767487
   H ( 13)  1.792276  1.775739  2.844367  4.252475  4.471216  5.010194

 
 A cutoff of  1.0D-14 yielded   5440 shell pairs
 There are     33162 function pairs (     41495 Cartesian)
 Smallest overlap matrix eigenvalue = 1.61E-05

 Scale SEOQF with 1.000000e-01/1.000000e-01/1.000000e-01

 Standard Electronic Orientation quadrupole field applied
 Nucleus-field energy     =    -0.0000000041 hartrees
 Guess from superposition of atomic densities
 Warning:  Energy on first SCF cycle will be non-variational
 SAD guess density has 40.388232 electrons

 -----------------------------------------------------------------------
  General SCF calculation program by
  Eric Jon Sundstrom, Paul Horn, Yuezhi Mao, Dmitri Zuev, Alec White,
  David Stuck, Shaama M.S., Shane Yost, Joonho Lee, David Small,
  Daniel Levine, Susi Lehtola, Hugh Burton, Evgeny Epifanovsky
 -----------------------------------------------------------------------
 Exchange:     0.1670 Hartree-Fock + 1.0000 wB97X-V + LR-HF
 Correlation:  1.0000 wB97X-V
 Using Euler-Maclaurin-Lebedev (99,590) quadrature formula
 Nonlocal Correlation:  VV10 with C = 0.0100 and b = 6.00 and scale = 1.00000
 Grid used for NLC:  SG-1 standard quadrature
Energy prior to optimization (guess energy) = -244.724930725701
Begin Timing: Total SCF Calculation
begin iterations for algorithm: DIIS         
the SCF tolerance is set to 1.00e-08
    1    -244.7249307257      7.93e-03     00000 
    2    -244.9655648663      6.22e-03     00000 
    3    -245.2044747643      3.17e-04     00000 
    4    -245.2053910467      1.62e-04     00000 
    5    -245.2055980515      4.49e-05     00000 
    6    -245.2056155575      1.85e-05     00000 
    7    -245.2056183477      3.35e-06     00000 
    8    -245.2056185282      8.77e-07     00000 
    9    -245.2056185396      3.66e-07     00000 
   10    -245.2056185417      9.25e-08     00000 
   11    -245.2056185418      4.24e-08     00000 
   12    -245.2056185419      1.50e-08     00000 
   13    -245.2056185419      2.11e-09     00000 Convergence criterion met
Timing for Total SCF: 718.00s (wall), 1415.83s (cpu)
(3)  G-ENP(liq) elect-nuc-pol free energy of system     -245.205618542 a.u.
(4)  G-CDS(liq) cavity-dispersion-solvent structure 
     free energy                                                2.7381 kcal/mol
(6)  G-S(liq) free energy of system                     -245.201255173 a.u.
E_pcm = -0.1084747238
E_cds = 0.0043633686
Multipole orders to be included
        2
        3
computing dipole RHS
computing quadrupole RHS
total number of RHS in solve_reponses: 8
RHS batch sizes
        8
Beginning Block Conjugate Gradient Iterations. Batch Number: 0
computing hessian-vector products by finite difference
              1      4.75e-01     00000 Conjugate Gradient Iteration
computing hessian-vector products by finite difference
              2      1.72e-01     00000 Conjugate Gradient Iteration
computing hessian-vector products by finite difference
              3      4.87e-02     00000 Conjugate Gradient Iteration
computing hessian-vector products by finite difference
              4      1.34e-02     00000 Conjugate Gradient Iteration
computing hessian-vector products by finite difference
              5      1.97e-03     00000 Conjugate Gradient Iteration
computing hessian-vector products by finite difference
              6      3.49e-04     00000 Conjugate Gradient Iteration
computing hessian-vector products by finite difference
              7      4.62e-05     00000 Conjugate Gradient Iteration
computing hessian-vector products by finite difference
              8      5.79e-06     00000 Conjugate Gradient Iteration
computing hessian-vector products by finite difference
              9      8.28e-07     00000 Conjugate Gradient Iteration
computing hessian-vector products by finite difference
             10      9.65e-08     00000 Conjugate Gradient Iteration
computing hessian-vector products by finite difference
             11      1.16e-08     00000 Conjugate Gradient Iteration
computing hessian-vector products by finite difference
             12      1.85e-09     00000 CG Converged
batch 0 complete
Done Calculating Responses
TESTING ORTHOGONALIZATION OF MULTIPOLE BASIS
Multipole virts passed orthogonality test
Virts Per Order
           60
          100
 
 --------------------------------------------------------------
 
                    Orbital Energies (a.u.)
 --------------------------------------------------------------
 
 Alpha MOs
 -- Occupied --
-14.4546 -14.4462 -14.4457 -10.4201 -10.3063  -1.1754  -1.0559  -1.0427
 -0.8549  -0.7644  -0.7220  -0.6904  -0.6154  -0.6085  -0.5968  -0.5729
 -0.5267  -0.5067  -0.3992  -0.3769
 -- Virtual --
  0.0588   0.0849   0.0985   0.1062   0.1239   0.1269   0.1387   0.1523
  0.1705   0.1775   0.1959   0.1978   0.2049   0.2142   0.2207   0.2406
  0.2422   0.2457   0.2474   0.2703   0.2805   0.2871   0.2984   0.3060
  0.3116   0.3201   0.3251   0.3272   0.3362   0.3464   0.3516   0.3632
  0.3715   0.3752   0.3804   0.3936   0.4082   0.4111   0.4205   0.4309
  0.4413   0.4505   0.4616   0.4668   0.4768   0.4820   0.4866   0.4999
  0.5019   0.5155   0.5180   0.5210   0.5349   0.5398   0.5477   0.5543
  0.5650   0.5777   0.5848   0.5862   0.6092   0.6203   0.6433   0.6501
  0.6661   0.6796   0.6853   0.7097   0.7220   0.7366   0.7464   0.7706
  0.8002   0.8029   0.8190   0.8254   0.8406   0.8499   0.8631   0.8679
  0.8812   0.8866   0.8991   0.9250   0.9403   0.9780   0.9881   0.9955
  1.0414   1.0658   1.0775   1.0938   1.1050   1.1207   1.1290   1.1489
  1.1502   1.1895   1.2104   1.2583   1.2769   1.3505   1.3605   1.4151
  1.4351   1.4480   1.4753   1.4997   1.5619   1.5757   1.6582   1.6764
  1.6885   1.7063   1.7616   1.7880   1.8330   1.8589   1.8810   1.8902
  1.9181   1.9288   1.9454   1.9514   2.0007   2.0133   2.0424   2.0705
  2.1112   2.1311   2.1681   2.2118   2.2188   2.2320   2.2888   2.3057
  2.3214   2.3583   2.3693   2.4081   2.4475   2.4821   2.5065   2.5154
  2.5615   2.5869   2.6206   2.6410   2.6598   2.6826   2.7051   2.7242
  2.7923   2.8072   2.8564   2.8749   2.8978   2.9138   2.9522   2.9683
  3.0541   3.1371   3.1497   3.1647   3.1978   3.2126   3.2347   3.2396
  3.2796   3.2993   3.3089   3.3269   3.3742   3.3957   3.4101   3.4333
  3.4533   3.5026   3.5382   3.6017   3.6221   3.6534   3.6866   3.7508
  3.8206   3.8867   3.9295   4.0019   4.0605   4.1364   4.1530   4.2316
  4.2892   4.3330   4.3458   4.3987   4.4152   4.4924   4.5826   4.6179
  4.6626   4.8437   4.8649   4.8756   4.9318   4.9992   5.0322   5.0559
  5.1203   5.1276   5.1322   5.1757   5.2050   5.2307   5.2789   5.3398
  5.4013   5.4364   5.4469   5.4752   5.4912   5.5134   5.5832   5.6715
  5.7201   5.7894   5.8163   5.9052   6.1363   6.2169   6.3841   6.5047
 22.6555  23.6893  32.3403  32.4567  32.8347
 --------------------------------------------------------------
 
          Ground-State Mulliken Net Atomic Charges

     Atom                 Charge (a.u.)
  ----------------------------------------
      1 C                    -0.801537
      2 C                     0.460541
      3 N                    -0.100583
      4 N                    -0.275510
      5 N                    -0.314414
      6 H                     0.269648
      7 H                     0.300954
      8 H                     0.277567
      9 H                     0.182733
     10 H                     0.239749
     11 H                     0.263573
     12 H                     0.245548
     13 H                     0.251731
  ----------------------------------------
  Sum of atomic charges =     1.000000

 -----------------------------------------------------------------
                    Cartesian Multipole Moments
 -----------------------------------------------------------------
    Charge (ESU x 10^10)
                 4.8032
    Dipole Moment (Debye)
         X       5.2115      Y       4.9351      Z       4.4064
       Tot       8.4221
    Quadrupole Moments (Debye-Ang)
        XX     -21.1587     XY      11.9710     YY     -13.3594
        XZ       9.0217     YZ       0.9590     ZZ     -13.8219
    Octopole Moments (Debye-Ang^2)
       XXX     -69.7239    XXY      -0.3139    XYY       4.8720
       YYY     -29.8590    XXZ     -19.0326    XYZ      11.5586
       YYZ     -28.9112    XZZ      -4.4650    YZZ     -14.2251
       ZZZ     -75.2412
    Hexadecapole Moments (Debye-Ang^3)
      XXXX    -216.1693   XXXY     -53.6032   XXYY     -34.5163
      XYYY      -6.5038   YYYY    -225.1554   XXXZ     -77.7290
      XXYZ      22.1845   XYYZ      -9.7630   YYYZ     -15.5761
      XXZZ     -75.2995   XYZZ      -4.3118   YYZZ    -113.8741
      XZZZ     -53.0602   YZZZ     -13.8995   ZZZZ    -394.1445
 -----------------------------------------------------------------
Archival summary:
1\1\nid00535\SP\ProcedureUnspecified\BasisUnspecified\328(1+,1)\meili\SunSep2618:30:502021SunSep2618:30:502021\0\\#,ProcedureUnspecified,BasisUnspecified,\\1,1\C\N,1,1.31672\H,2,1.00572,1,121.115\H,2,1.02439,1,116.987,3,169.639,0\N,1,1.31689,2,120.369,3,-175.663,0\H,5,1.0085,1,116.642,2,2.19975,0\N,1,1.31779,2,119.844,3,4.19499,0\H,7,1.00645,1,119.883,2,-178.397,0\H,7,1.00711,1,120.683,2,-1.5758,0\C,5,1.46386,1,126.014,2,179.99,0\H,10,1.09094,5,111.696,1,-31.4214,0\H,10,1.09216,5,108.267,1,-148.937,0\H,10,1.1,5,111.746,1,91.9994,0\\\@

 Total job time:  12333.01s(wall), 24265.88s(cpu) 
 Sun Sep 26 18:30:52 2021

        *************************************************************
        *                                                           *
        *  Thank you very much for using Q-Chem.  Have a nice day.  *
        *                                                           *
        *************************************************************


Done Job For Fragment 1
calling putenv with: QCSCRATCH=/global/cscratch1/sd/meili 
calling putenv with: QCLOCALSCR=/tmp 
calling putenv with: QCTHREADS=32 
Doing General SCFMI
 Exchange:     0.1670 Hartree-Fock + 1.0000 wB97X-V + LR-HF
 Correlation:  1.0000 wB97X-V
 Using Euler-Maclaurin-Lebedev (99,590) quadrature formula
 Nonlocal Correlation:  VV10 with C = 0.0100 and b = 6.00 and scale = 1.00000
 Grid used for NLC:  SG-1 standard quadrature
performing fock build before subrot guess so that all methods have access
Printing subrot_rss_gen Method Specification:
Occupied Subspace Method is 0
Virtual Subspace Method is 0
Energy of the unrelaxed supersystem initial determinant -473.785694003164
performing fock build before subrot guess so that all methods have access
Printing subrot_rss_gen Method Specification:
Occupied Subspace Method is 0
Virtual Subspace Method is 0
Energy of the unrelaxed supersystem initial determinant w/ solvent -473.854175566564
write pseudocanon occs and virts to disk
write pseudocanon orbital energies to disk
Tolerance of ortho_decomp_scf: 1.00e-06
GDM subspace size: 20
Beginning the Orthogonal Decomposition of the Initial Supersystem Wavefunction
    1    -473.4506752840      1.47e-01     ortho_decomp Preconditoned Steepest Descent
    2    -473.4853840650      4.36e-03     ortho_decomp BFGS Step
    3    -473.4855483596      4.07e-04     ortho_decomp BFGS Step
    4    -473.4855487421      1.97e-05     ortho_decomp BFGS Step
    5    -473.4855487434      8.13e-07     ortho_decomp 00000 Convergence criterion met
 Hartree-Fock
 Hartree-Fock
 Hartree-Fock
Doing General SCFMI
 Exchange:     0.1670 Hartree-Fock + 1.0000 wB97X-V + LR-HF
 Correlation:  1.0000 wB97X-V
 Using Euler-Maclaurin-Lebedev (99,590) quadrature formula
 Nonlocal Correlation:  VV10 with C = 0.0100 and b = 6.00 and scale = 1.00000
 Grid used for NLC:  SG-1 standard quadrature
performing fock build at end of subrot_r(subrot) constructor so that all methods have access
<S^2> of initial wavefunction before polarization iterations 0.0000000000
Beginning iterations for the determination of the polarized wavefunction
Energy prior to optimization (guess energy) = -473.854175566564
Begin Timing: Total SCF Calculation
begin iterations for algorithm: DIIS         
the SCF tolerance is set to 1.00e-08
    1    -473.8541755666      3.82e-04     00000 
    2    -473.8606910083      1.59e-04     00000 
    3    -473.8614404337      9.70e-05     00000 
    4    -473.8617255763      2.77e-05     00000 
    5    -473.8617713556      1.31e-05     00000 
    6    -473.8617847655      5.79e-06     00000 
    7    -473.8617869684      2.78e-06     00000 
    8    -473.8617873714      1.12e-06     00000 
    9    -473.8617874271      4.79e-07     00000 
   10    -473.8617874337      1.72e-07     00000 
   11    -473.8617874352      6.98e-08     00000 
   12    -473.8617874353      3.45e-08     00000 
   13    -473.8617874354      1.26e-08     00000 
   14    -473.8617874354      6.63e-09     00000 Convergence criterion met
write pseudocanon occs and virts to disk
write pseudocanon orbital energies to disk
Timing for Total SCF: 3202.00s (wall), 6352.64s (cpu)
<S^2> of polarized wavefunction after polarization iterations 0.0000000000
relaxing scfmi constraint to allow all rotations in the entire AO span
Doing General SCFMI
 Exchange:     0.1670 Hartree-Fock + 1.0000 wB97X-V + LR-HF
 Correlation:  1.0000 wB97X-V
 Using Euler-Maclaurin-Lebedev (99,590) quadrature formula
 Nonlocal Correlation:  VV10 with C = 0.0100 and b = 6.00 and scale = 1.00000
 Grid used for NLC:  SG-1 standard quadrature
performing fock build at end of subrot_r(subrot) constructor so that all methods have access
<S^2> of polarized wavefunction before ct-allowed iterations 0.0000000000
Beginning iterations for the determination of the CT-Allowed wavefunction
Energy prior to optimization (guess energy) = -473.861787435357
Begin Timing: Total SCF Calculation
begin iterations for algorithm: DIIS         
the SCF tolerance is set to 1.00e-08
    1    -473.8617874354      3.97e-04     00000 
    2    -473.8791425767      6.78e-05     00000 
    3    -473.8798706784      3.39e-05     00000 
    4    -473.8799486640      1.27e-05     00000 
    5    -473.8799642523      3.15e-06     00000 
    6    -473.8799652991      1.04e-06     00000 
    7    -473.8799654395      5.74e-07     00000 
    8    -473.8799654684      1.18e-07     00000 
    9    -473.8799654709      4.56e-08     00000 
   10    -473.8799654712      1.68e-08     00000 
   11    -473.8799654713      5.43e-09     00000 Convergence criterion met
write pseudocanon occs and virts to disk
write pseudocanon orbital energies to disk
Timing for Total SCF: 2468.00s (wall), 4904.71s (cpu)
<S^2> of ct_allowed wavefunction after ct-allowed iterations 0.0000000000

================================
        Results of EDA2         
================================
Basic EDA Quantities
--------------------
Fragment Energies (Ha):
1 -228.6595921914
2 -245.2012551732
--------------------
  E_prp (kJ/mol) = 0.0000
  E_sol (kJ/mol) = 441.3794
  E_frz (kJ/mol) = -403.0125
  E_pol (kJ/mol) = -19.9852
  E_vct (kJ/mol) = -47.7270
  E_int (kJ/mol) = -29.3453
--------------------


Initial Wavefunction Decomposition
--------------------
  --------------------
  Orthogonal Fragment Subspace Decomposition:
  --------------------
     E_elec   (ELEC)   (kJ/mol) = -692.9548
     E_pauli  (PAULI)  (kJ/mol) = 323.7452
     E_disp   (DISP)   (kJ/mol) = -33.8029
     --------------------
     Terms summing to E_pauli:
     --------------------
        E_kep_pauli       (kJ/mol) = 385.0283
        E_disp_free_pauli (kJ/mol) = -61.2831
  --------------------
  Classical Frozen Decomposition:
  --------------------
     E_cls_elec  (CLS ELEC)  (kJ/mol) = -597.4655
     E_cls_pauli (CLS PAULI) (kJ/mol) = 194.4531
    [E_mod_pauli (MOD PAULI) (kJ/mol) = 228.2559 (CLS PAULI - DISP from orthogonal decomposition) ]
  --------------------
--------------------

Simplified EDA Summary (kJ/mol)
--------------------
 PREPARATION     0.0000
 SOLVATION       441.3794
 FROZEN          -369.2096      (does not include dispersion)
[PAULI           323.7452]     (if this is negligible, then frozen describes electrostatics)
 DISPERSION      -33.8029
 POLARIZATION    -19.9852
 CHARGE TRANSFER -47.7270
 TOTAL           -29.3453     (PRP + SOL + FRZ + DISP + POL + CT)
--------------------
 
 --------------------------------------------------------------
 
                    Orbital Energies (a.u.)
 --------------------------------------------------------------
 
 Alpha MOs
 -- Occupied --
-19.1676 -19.1664 -14.4340 -14.4217 -14.4197 -10.4014 -10.3670 -10.2976
-10.2507  -1.1845  -1.1567  -1.0849  -1.0360  -1.0267  -0.8492  -0.8418
 -0.7512  -0.7089  -0.6752  -0.6422  -0.6073  -0.5886  -0.5826  -0.5649
 -0.5587  -0.5531  -0.5397  -0.5168  -0.4978  -0.4878  -0.4713  -0.3870
 -0.3819  -0.3639  -0.3632  -0.3546
 -- Virtual --
  0.0583   0.0788   0.0844   0.0960   0.1049   0.1091   0.1186   0.1242
  0.1310   0.1385   0.1431   0.1481   0.1520   0.1590   0.1714   0.1767
  0.1867   0.1943   0.2038   0.2088   0.2143   0.2184   0.2297   0.2367
  0.2449   0.2456   0.2557   0.2584   0.2631   0.2721   0.2769   0.2774
  0.2869   0.2927   0.3001   0.3067   0.3070   0.3214   0.3253   0.3289
  0.3310   0.3398   0.3424   0.3476   0.3496   0.3561   0.3627   0.3643
  0.3676   0.3721   0.3750   0.3809   0.3829   0.3925   0.3951   0.4036
  0.4077   0.4179   0.4216   0.4253   0.4298   0.4354   0.4454   0.4484
  0.4570   0.4628   0.4673   0.4685   0.4752   0.4778   0.4891   0.4913
  0.4995   0.5031   0.5049   0.5076   0.5115   0.5178   0.5288   0.5351
  0.5452   0.5479   0.5555   0.5571   0.5645   0.5674   0.5706   0.5715
  0.5818   0.5977   0.6018   0.6133   0.6178   0.6257   0.6412   0.6425
  0.6502   0.6516   0.6572   0.6679   0.6743   0.6791   0.6888   0.6991
  0.7047   0.7134   0.7175   0.7233   0.7282   0.7370   0.7475   0.7556
  0.7735   0.7769   0.7793   0.7836   0.7964   0.8021   0.8043   0.8098
  0.8161   0.8218   0.8256   0.8332   0.8485   0.8535   0.8597   0.8651
  0.8768   0.8904   0.8995   0.9039   0.9123   0.9284   0.9365   0.9457
  0.9600   0.9694   0.9800   0.9947   1.0015   1.0128   1.0214   1.0433
  1.0512   1.0662   1.0734   1.0862   1.0956   1.1045   1.1194   1.1377
  1.1486   1.1583   1.1628   1.1806   1.1972   1.2039   1.2207   1.2327
  1.2392   1.2533   1.2748   1.2851   1.2987   1.3038   1.3155   1.3419
  1.3568   1.3623   1.3879   1.3916   1.4130   1.4175   1.4552   1.4722
  1.5025   1.5102   1.5522   1.5533   1.5906   1.6126   1.6346   1.6570
  1.6917   1.7109   1.7138   1.7398   1.7550   1.7682   1.7875   1.8510
  1.8708   1.8813   1.8874   1.9060   1.9159   1.9266   1.9332   1.9473
  1.9554   1.9709   1.9742   1.9779   1.9931   2.0028   2.0218   2.0283
  2.0415   2.0526   2.0712   2.0977   2.1207   2.1450   2.1560   2.1748
  2.1866   2.1985   2.2342   2.2414   2.2661   2.2797   2.2923   2.3189
  2.3336   2.3454   2.3640   2.3882   2.3981   2.4341   2.4392   2.4707
  2.4766   2.5005   2.5050   2.5154   2.5370   2.5529   2.5674   2.5967
  2.6047   2.6191   2.6366   2.6658   2.6751   2.6952   2.7111   2.7148
  2.7315   2.7457   2.7630   2.7786   2.8121   2.8441   2.8793   2.8888
  2.8976   2.9098   2.9314   2.9440   2.9487   2.9640   2.9923   3.0129
  3.0391   3.0762   3.0920   3.1333   3.1859   3.1971   3.1994   3.2204
  3.2242   3.2433   3.2600   3.2690   3.2862   3.3001   3.3086   3.3238
  3.3297   3.3405   3.3611   3.3774   3.3874   3.3982   3.4172   3.4280
  3.4369   3.4554   3.4646   3.4737   3.4814   3.5158   3.5290   3.5495
  3.5745   3.5936   3.5997   3.6255   3.6624   3.6853   3.6982   3.7121
  3.7287   3.7477   3.7611   3.7673   3.8088   3.8580   3.8773   3.9477
  3.9696   4.0020   4.0471   4.0817   4.0919   4.1279   4.1778   4.2089
  4.2155   4.2833   4.3389   4.3628   4.3766   4.3994   4.4379   4.4697
  4.5221   4.5722   4.6176   4.6329   4.6451   4.6845   4.7006   4.8390
  4.8711   4.8806   4.8928   4.9157   4.9806   5.0100   5.0599   5.0882
  5.1008   5.1573   5.1660   5.1743   5.2309   5.2370   5.2695   5.3043
  5.3253   5.3481   5.3513   5.3991   5.4190   5.4307   5.4697   5.5038
  5.5157   5.5243   5.5496   5.6148   5.6341   5.7192   5.7332   5.7594
  5.7854   5.8103   5.8434   5.8714   5.9612   6.0147   6.2008   6.2516
  6.2721   6.3148   6.3648   6.4448   6.5542   6.6347   6.6686   6.7294
  6.7560   6.9046   6.9842   6.9892   7.0582   7.2662   7.3880   7.4257
  7.4778  22.6095  22.7029  23.7542  23.7568  32.4078  32.5794  33.0397
 44.2866  44.4141
 --------------------------------------------------------------
 
          Ground-State Mulliken Net Atomic Charges

     Atom                 Charge (a.u.)
  ----------------------------------------
      1 C                    -0.801619
      2 C                     0.669279
      3 O                    -0.820460
      4 O                    -0.805844
      5 H                     0.201178
      6 H                     0.259867
      7 H                     0.240941
      8 C                    -0.875396
      9 C                     0.432054
     10 N                     0.046825
     11 N                    -0.274215
     12 N                    -0.177233
     13 H                     0.194929
     14 H                     0.333563
     15 H                     0.259254
     16 H                     0.176331
     17 H                     0.247170
     18 H                     0.194200
     19 H                     0.238348
     20 H                     0.260828
  ----------------------------------------
  Sum of atomic charges =     0.000000

 -----------------------------------------------------------------
                    Cartesian Multipole Moments
 -----------------------------------------------------------------
    Charge (ESU x 10^10)
                -0.0000
    Dipole Moment (Debye)
         X       5.8504      Y       6.4296      Z       7.5853
       Tot      11.5371
    Quadrupole Moments (Debye-Ang)
        XX     -45.9556     XY      10.5498     YY     -45.9883
        XZ       8.3965     YZ       4.5232     ZZ     -48.3598
    Octopole Moments (Debye-Ang^2)
       XXX      16.8023    XXY      23.0207    XYY      37.0290
       YYY      55.4978    XXZ      13.9443    XYZ       5.3130
       YYZ       4.8069    XZZ      25.1201    YZZ       2.8869
       ZZZ      50.5502
    Hexadecapole Moments (Debye-Ang^3)
      XXXX    -560.7033   XXXY    -182.9304   XXYY    -148.5906
      XYYY    -146.2413   YYYY    -535.3590   XXXZ    -247.0837
      XXYZ     -11.3450   XYYZ     -64.2473   YYYZ    -126.9562
      XXZZ    -214.1127   XYZZ     -37.9522   YYZZ    -236.2466
      XZZZ    -231.2397   YZZZ    -113.5894   ZZZZ    -917.4204
 -----------------------------------------------------------------
Archival summary:
1\1\nid00535\SP\ProcedureUnspecified\BasisUnspecified\23411\meili\SunSep2621:07:492021SunSep2621:07:492021\0\\#,ProcedureUnspecified,BasisUnspecified,\\0,1\N\H,1,1.0085\C,1,1.31689,2,116.642\N,3,1.31672,1,120.369,2,2.19975,0\H,4,1.00572,3,121.115,1,-175.663,0\H,4,1.02439,3,116.987,1,-6.02425,0\N,3,1.31779,1,119.788,2,-177.658,0\H,7,1.00645,3,119.883,1,1.46114,0\H,7,1.00711,3,120.683,1,178.283,0\C,1,1.46386,2,117.31,3,-177.988,0\H,10,1.09094,1,111.696,2,146.356,0\H,10,1.09216,1,108.267,2,28.8398,0\H,10,1.1,1,111.746,2,-90.2236,0\O,2,1.61073,1,161.166,3,155.193,0\C,14,1.24888,2,106.52,1,-167.541,0\O,15,1.25467,14,123.502,2,21.5993,0\C,15,1.51402,14,117.123,2,-157.622,0\H,17,1.08926,15,105.599,14,77.4426,0\H,17,1.09395,15,110.039,14,-40.7654,0\H,17,1.1,15,112.301,14,-162.671,0\\\@

 Total job time:  26293.62s(wall), 18728.41s(cpu) 
 Sun Sep 26 21:07:52 2021

        *************************************************************
        *                                                           *
        *  Thank you very much for using Q-Chem.  Have a nice day.  *
        *                                                           *
        *************************************************************


