
Running Job 1 of 1 SSI-061ASN-065ASN-2_SMD_TZVPD.in
qchem SSI-061ASN-065ASN-2_SMD_TZVPD.in_19385.0 /tmp/qchem19385/ 0
/global/common/cori/software/qchem/5.2/exe/qcprog.exe_s SSI-061ASN-065ASN-2_SMD_TZVPD.in_19385.0 /tmp/qchem19385/
                  Welcome to Q-Chem
     A Quantum Leap Into The Future Of Chemistry


 Q-Chem 5.2, Q-Chem, Inc., Pleasanton, CA (2019)

 License issued to: National Energy Research Scientific Computing Center

 Yihan Shao,  Zhengting Gan,  E. Epifanovsky,  A. T. B. Gilbert,  M. Wormit,  
 J. Kussmann,  A. W. Lange,  A. Behn,  Jia Deng,  Xintian Feng,  D. Ghosh,  
 M. Goldey,  P. R. Horn,  L. D. Jacobson,  I. Kaliman,  T. Kus,  A. Landau,  
 Jie Liu,  E. I. Proynov,  R. M. Richard,  R. P. Steele,  E. J. Sundstrom,  
 H. L. Woodcock III,  P. M. Zimmerman,  D. Zuev,  B. Albrecht,  E. Alguire,  
 S. A. Baeppler,  D. Barton,  Z. Benda,  Y. A. Bernard,  E. J. Berquist,  
 K. B. Bravaya,  H. Burton,  D. Casanova,  Chun-Min Chang,  Yunqing Chen,  
 A. Chien,  K. D. Closser,  M. P. Coons,  S. Coriani,  S. Dasgupta,  
 A. L. Dempwolff,  M. Diedenhofen,  Hainam Do,  R. G. Edgar,  Po-Tung Fang,  
 S. Faraji,  S. Fatehi,  Qingguo Feng,  K. D. Fenk,  J. Fosso-Tande,  
 J. Gayvert,  Qinghui Ge,  A. Ghysels,  G. Gidofalvi,  J. Gomes,  
 J. Gonthier,  A. Gunina,  D. Hait,  M. W. D. Hanson-Heine,  
 P. H. P. Harbach,  A. W. Hauser,  M. F. Herbst,  J. E. Herr,  
 E. G. Hohenstein,  Z. C. Holden,  Kerwin Hui,  B. C. Huynh,  T.-C. Jagau,  
 Hyunjun Ji,  B. Kaduk,  K. Khistyaev,  Jaehoon Kim,  P. Klunzinger,  K. Koh,  
 D. Kosenkov,  L. Koulias,  T. Kowalczyk,  C. M. Krauter,  A. Kunitsa,  
 Ka Un Lao,  A. Laurent,  K. V. Lawler,  Joonho Lee,  D. Lefrancois,  
 S. Lehtola,  D. S. Levine,  Yi-Pei Li,  You-Sheng Lin,  Fenglai Liu,  
 E. Livshits,  A. Luenser,  P. Manohar,  E. Mansoor,  S. F. Manzer,  
 Shan-Ping Mao,  Yuezhi Mao,  N. Mardirossian,  A. V. Marenich,  
 T. Markovich,  L. A. Martinez-Martinez,  S. A. Maurer,  N. J. Mayhall,  
 S. C. McKenzie,  J.-M. Mewes,  P. Morgante,  A. F. Morrison,  
 J. W. Mullinax,  K. Nanda,  T. S. Nguyen-Beck,  R. Olivares-Amaya,  
 J. A. Parkhill,  Zheng Pei,  T. M. Perrine,  F. Plasser,  P. Pokhilko,  
 S. Prager,  A. Prociuk,  E. Ramos,  D. R. Rehn,  F. Rob,  M. Scheurer,  
 M. Schneider,  N. Sergueev,  S. M. Sharada,  S. Sharma,  D. W. Small,  
 T. Stauch,  T. Stein,  Yu-Chuan Su,  A. J. W. Thom,  A. Tkatchenko,  
 T. Tsuchimochi,  N. M. Tubman,  L. Vogt,  M. L. Vidal,  O. Vydrov,  
 M. A. Watson,  J. Wenzel,  M. de Wergifosse,  T. A. Wesolowski,  A. White,  
 J. Witte,  A. Yamada,  Jun Yang,  K. Yao,  S. Yeganeh,  S. R. Yost,  
 Zhi-Qiang You,  A. Zech,  Igor Ying Zhang,  Xing Zhang,  Yan Zhao,  
 Ying Zhu,  B. R. Brooks,  G. K. L. Chan,  C. J. Cramer,  M. S. Gordon,  
 W. J. Hehre,  A. Klamt,  M. W. Schmidt,  C. D. Sherrill,  D. G. Truhlar,  
 A. Aspuru-Guzik,  R. Baer,  A. T. Bell,  N. A. Besley,  Jeng-Da Chai,  
 A. E. DePrince, III,  R. A. DiStasio Jr.,  A. Dreuw,  B. D. Dunietz,  
 T. R. Furlani,  Chao-Ping Hsu,  Yousung Jung,  Jing Kong,  D. S. Lambrecht,  
 WanZhen Liang,  C. Ochsenfeld,  V. A. Rassolov,  L. V. Slipchenko,  
 J. E. Subotnik,  T. Van Voorhis,  J. M. Herbert,  A. I. Krylov,  
 P. M. W. Gill,  M. Head-Gordon

 Contributors to earlier versions of Q-Chem not listed above: 
 R. D. Adamson,  B. Austin,  J. Baker,  G. J. O. Beran,  K. Brandhorst,  
 S. T. Brown,  E. F. C. Byrd,  A. K. Chakraborty,  C.-L. Cheng,  
 Siu Hung Chien,  D. M. Chipman,  D. L. Crittenden,  H. Dachsel,  
 R. J. Doerksen,  A. D. Dutoi,  L. Fusti-Molnar,  W. A. Goddard III,  
 A. Golubeva-Zadorozhnaya,  S. R. Gwaltney,  G. Hawkins,  A. Heyden,  
 S. Hirata,  G. Kedziora,  F. J. Keil,  C. Kelley,  Jihan Kim,  R. A. King,  
 R. Z. Khaliullin,  P. P. Korambath,  W. Kurlancheek,  A. M. Lee,  M. S. Lee,  
 S. V. Levchenko,  Ching Yeh Lin,  D. Liotard,  R. C. Lochan,  I. Lotan,  
 P. E. Maslen,  N. Nair,  D. P. O'Neill,  D. Neuhauser,  E. Neuscamman,  
 C. M. Oana,  R. Olson,  B. Peters,  R. Peverati,  P. A. Pieniazek,  
 Y. M. Rhee,  J. Ritchie,  M. A. Rohrdanz,  E. Rosta,  N. J. Russ,  
 H. F. Schaefer III,  N. E. Schultz,  N. Shenvi,  A. C. Simmonett,  A. Sodt,  
 D. Stuck,  K. S. Thanthiriwatte,  V. Vanovschi,  Tao Wang,  A. Warshel,  
 C. F. Williams,  Q. Wu,  X. Xu,  W. Zhang

 Please cite Q-Chem as follows:
 Y. Shao et al., Mol. Phys. 113, 184-215 (2015)
 DOI: 10.1080/00268976.2014.952696

 Q-Chem 5.2.0 for Intel X86 EM64T Linux

 Parts of Q-Chem use Armadillo 8.300.2 (Tropical Shenanigans).
 http://arma.sourceforge.net/

 Q-Chem begins on Sun Sep 26 09:19:19 2021  

Host: cori01
0

     Scratch files written to /tmp/qchem19385//
 May1019 |scratch|qcdevops|jenkins|workspace|build_RNUM -1
Processing $rem in /global/common/cori/software/qchem/5.2/config/preferences:
	 MEM_TOTAL  96000 
NAlpha2: 64
NElect   64
Mult     1
Symmetry turned off for PCM/SM12/SMD calculation

 Q-Chem warning in module libgen/rem_setup.C, line 2803:

 Neither GIA nor STOLL is specified by user. Use STOLL as the default


Checking the input file for inconsistencies... 	...done.

--------------------------------------------------------------
User input:
--------------------------------------------------------------
$comment
SSI-061ASN-065ASN-2.pdb
$end

$molecule
0 1
--
0 1
C   -1.793661085049    0.780443697791   -2.284999148690
C   -0.325661085049    0.450443697791   -2.435999148690
O    0.265338914951   -0.194556302209   -1.572999148690
N    0.289338914951    0.925443697791   -3.509999148690
H   -2.217661085049    1.064443697791   -3.247999148690
H   -1.848661085049    1.655443697791   -1.637999148690
H    1.267338914951    0.715443697791   -3.628999148690
H   -0.229661085049    1.384443697791   -4.253999148690
H   -2.367261085049   -0.046976302209   -1.841899148690
--
0 1
C   -0.538661085049    0.450443697791    3.055000851310
C    0.440338914951   -0.547556302209    2.490000851310
O    1.002338914951   -1.351556302209    3.226000851310
N    0.616338914951   -0.547556302209    1.180000851310
H    1.258338914951   -1.212556302209    0.780000851310
H    0.145338914951    0.104443697791    0.573000851310
H   -1.000661085049    1.024443697791    2.250000851310
H    0.017338914951    1.141443697791    3.687000851310
H   -1.322111085049   -0.042806302209    3.649100851310
$end

$rem
JOBTYPE			EDA
EDA2			1
method			wB97X-V
BASIS			def2-TZVPD
XC_GRID			000099000590
NL_GRID			1
UNRESTRICTED		FALSE
MAX_SCF_CYCLES		200
SYMMETRY		FALSE
SYM_IGNORE		TRUE
MEM_STATIC		2000
BASIS_LIN_DEP_THRESH 	6
THRESH 			14
SCF_CONVERGENCE 	8
SCF_PRINT_FRGM 		TRUE
SOLVENT_METHOD          SMD
$end

$SMX
SOLVENT			WATER
$END
--------------------------------------------------------------
 ----------------------------------------------------------------
             Standard Nuclear Orientation (Angstroms)
    I     Atom           X                Y                Z
 ----------------------------------------------------------------
    1      C      -1.7936610850     0.7804436978    -2.2849991487
    2      C      -0.3256610850     0.4504436978    -2.4359991487
    3      O       0.2653389150    -0.1945563022    -1.5729991487
    4      N       0.2893389150     0.9254436978    -3.5099991487
    5      H      -2.2176610850     1.0644436978    -3.2479991487
    6      H      -1.8486610850     1.6554436978    -1.6379991487
    7      H       1.2673389150     0.7154436978    -3.6289991487
    8      H      -0.2296610850     1.3844436978    -4.2539991487
    9      H      -2.3672610850    -0.0469763022    -1.8418991487
   10      C      -0.5386610850     0.4504436978     3.0550008513
   11      C       0.4403389150    -0.5475563022     2.4900008513
   12      O       1.0023389150    -1.3515563022     3.2260008513
   13      N       0.6163389150    -0.5475563022     1.1800008513
   14      H       1.2583389150    -1.2125563022     0.7800008513
   15      H       0.1453389150     0.1044436978     0.5730008513
   16      H      -1.0006610850     1.0244436978     2.2500008513
   17      H       0.0173389150     1.1414436978     3.6870008513
   18      H      -1.3221110850    -0.0428063022     3.6491008513
 ----------------------------------------------------------------
 Nuclear Repulsion Energy =         354.02948078 hartrees
 There are       32 alpha and       32 beta electrons
 Requested basis set is def2-TZVPD
 There are 156 shells and 392 basis functions

 Total QAlloc Memory Limit  96000 MB
 Mega-Array Size      1956 MB
 MEM_STATIC part      2000 MB
 
 Citation of the SMD model:
 Marenich, A.V.; Cramer, C.J.; Truhlar, D.G.
 J. Phys. Chem. B 2009, 113, 6378-6396.
 iSolventCode=           1
 Solvent: water                                                           
 
 vradii
            1           2           3           4           5           6
    1   1.8500000   1.8500000   1.5200000   1.8900000   1.2000000   1.2000000
            7           8           9          10          11          12
    1   1.2000000   1.2000000   1.2000000   1.8500000   1.8500000   1.5200000
           13          14          15          16          17          18
    1   1.8900000   1.2000000   1.2000000   1.2000000   1.2000000   1.2000000
 Changing PCM_VDW_RADII to SMD_RADIUS
 Discretize the solute cavity surface with Lebedev spheres
	Using 110 Lebedev grid points for each H atom
	Using 194 Lebedev grid points for other atoms
	Atomic van der Waals radii will be scaled by 1.20
 Remove points where switching function is < 1.0e-08
 Keep 1428 surface tesserae and discard 1224 interior tesserae
 Molecular Surface Area = 172.211 Angst**2
 A cutoff of  1.0D-14 yielded  10690 shell pairs
 There are     67258 function pairs (     84064 Cartesian)
 Smallest overlap matrix eigenvalue = 8.61E-06

 Scale SEOQF with 1.000000e-01/1.000000e-01/1.000000e-01

 Standard Electronic Orientation quadrupole field applied
 Nucleus-field energy     =    -0.0000000423 hartrees

 -----------------------------------------------------------------------
  General SCF calculation program by
  Eric Jon Sundstrom, Paul Horn, Yuezhi Mao, Dmitri Zuev, Alec White,
  David Stuck, Shaama M.S., Shane Yost, Joonho Lee, David Small,
  Daniel Levine, Susi Lehtola, Hugh Burton, Evgeny Epifanovsky
 -----------------------------------------------------------------------
================================================================
                 ALMO-EDA with the EDA2 driver                  
================================================================
 The second-generation ALMO-EDA (for DFT):                      
 P. R. Horn, Y. Mao and M. Head-Gordon, PCCP, 18, 23067 (2016)  
 Decomposition of the frozen energy:                            
 P. R. Horn, Y. Mao and M. Head-Gordon, JCP, 144, 114107 (2016) 
 FERF model for polarization:                                   
 P. R. Horn and M. Head-Gordon, JCP, 143, 114111 (2015)         
Using eda2 option set 1
Option set summary: Frozen orbital wavefunction, initial wavefunction decomposition, and nDQ polarization.
--------------------------------
Printing EDA Options
--------------------------------
eda_child_super_basis      0
fragmo_guess_mode          0
child_mp                   1
child_mp_orders            232
cls_elec                   1
cls_disp                   0
scfmi_mode                 1
scfmi_occs                 0
scfmi_virts                0
frz_relax                  0
frz_relax_method           0
dc_pen_start               0
dc_pen_conv                0
dc_pen_increment           0
dc_pen_steps               0
dc_pen_thresh_factor       0
dc_pen_pre_newton_thresh   0
frz_ortho_decomp           1
frz_ortho_decomp_conv      6
frgm_method                2
scfmi_freeze_ss            0
separate_rehyb             0
plot_diff_den              0
eda_nocv                   0
eda_vct_relax              1
disp_free_x                0
disp_free_c                0
eda_bsse                   0
eda_pct_a                  0
eda_covp                   0
--------------------------------
Attempting to make child job directory: /tmp/qchem19385//Frg1/
Attempting to make child job directory: /tmp/qchem19385//Frg2/
Creating input file /tmp/qchem19385/Frg1.input
using default PutDataFrgm: nothing
calling putenv with: QCSCRATCH=/tmp/qchem19385/ 
calling putenv with: QCLOCALSCR=/tmp/qchem19385/ 
Spawning Job For Fragment 0
                  Welcome to Q-Chem
     A Quantum Leap Into The Future Of Chemistry


 Q-Chem 5.2, Q-Chem, Inc., Pleasanton, CA (2019)

 License issued to: National Energy Research Scientific Computing Center

 Yihan Shao,  Zhengting Gan,  E. Epifanovsky,  A. T. B. Gilbert,  M. Wormit,  
 J. Kussmann,  A. W. Lange,  A. Behn,  Jia Deng,  Xintian Feng,  D. Ghosh,  
 M. Goldey,  P. R. Horn,  L. D. Jacobson,  I. Kaliman,  T. Kus,  A. Landau,  
 Jie Liu,  E. I. Proynov,  R. M. Richard,  R. P. Steele,  E. J. Sundstrom,  
 H. L. Woodcock III,  P. M. Zimmerman,  D. Zuev,  B. Albrecht,  E. Alguire,  
 S. A. Baeppler,  D. Barton,  Z. Benda,  Y. A. Bernard,  E. J. Berquist,  
 K. B. Bravaya,  H. Burton,  D. Casanova,  Chun-Min Chang,  Yunqing Chen,  
 A. Chien,  K. D. Closser,  M. P. Coons,  S. Coriani,  S. Dasgupta,  
 A. L. Dempwolff,  M. Diedenhofen,  Hainam Do,  R. G. Edgar,  Po-Tung Fang,  
 S. Faraji,  S. Fatehi,  Qingguo Feng,  K. D. Fenk,  J. Fosso-Tande,  
 J. Gayvert,  Qinghui Ge,  A. Ghysels,  G. Gidofalvi,  J. Gomes,  
 J. Gonthier,  A. Gunina,  D. Hait,  M. W. D. Hanson-Heine,  
 P. H. P. Harbach,  A. W. Hauser,  M. F. Herbst,  J. E. Herr,  
 E. G. Hohenstein,  Z. C. Holden,  Kerwin Hui,  B. C. Huynh,  T.-C. Jagau,  
 Hyunjun Ji,  B. Kaduk,  K. Khistyaev,  Jaehoon Kim,  P. Klunzinger,  K. Koh,  
 D. Kosenkov,  L. Koulias,  T. Kowalczyk,  C. M. Krauter,  A. Kunitsa,  
 Ka Un Lao,  A. Laurent,  K. V. Lawler,  Joonho Lee,  D. Lefrancois,  
 S. Lehtola,  D. S. Levine,  Yi-Pei Li,  You-Sheng Lin,  Fenglai Liu,  
 E. Livshits,  A. Luenser,  P. Manohar,  E. Mansoor,  S. F. Manzer,  
 Shan-Ping Mao,  Yuezhi Mao,  N. Mardirossian,  A. V. Marenich,  
 T. Markovich,  L. A. Martinez-Martinez,  S. A. Maurer,  N. J. Mayhall,  
 S. C. McKenzie,  J.-M. Mewes,  P. Morgante,  A. F. Morrison,  
 J. W. Mullinax,  K. Nanda,  T. S. Nguyen-Beck,  R. Olivares-Amaya,  
 J. A. Parkhill,  Zheng Pei,  T. M. Perrine,  F. Plasser,  P. Pokhilko,  
 S. Prager,  A. Prociuk,  E. Ramos,  D. R. Rehn,  F. Rob,  M. Scheurer,  
 M. Schneider,  N. Sergueev,  S. M. Sharada,  S. Sharma,  D. W. Small,  
 T. Stauch,  T. Stein,  Yu-Chuan Su,  A. J. W. Thom,  A. Tkatchenko,  
 T. Tsuchimochi,  N. M. Tubman,  L. Vogt,  M. L. Vidal,  O. Vydrov,  
 M. A. Watson,  J. Wenzel,  M. de Wergifosse,  T. A. Wesolowski,  A. White,  
 J. Witte,  A. Yamada,  Jun Yang,  K. Yao,  S. Yeganeh,  S. R. Yost,  
 Zhi-Qiang You,  A. Zech,  Igor Ying Zhang,  Xing Zhang,  Yan Zhao,  
 Ying Zhu,  B. R. Brooks,  G. K. L. Chan,  C. J. Cramer,  M. S. Gordon,  
 W. J. Hehre,  A. Klamt,  M. W. Schmidt,  C. D. Sherrill,  D. G. Truhlar,  
 A. Aspuru-Guzik,  R. Baer,  A. T. Bell,  N. A. Besley,  Jeng-Da Chai,  
 A. E. DePrince, III,  R. A. DiStasio Jr.,  A. Dreuw,  B. D. Dunietz,  
 T. R. Furlani,  Chao-Ping Hsu,  Yousung Jung,  Jing Kong,  D. S. Lambrecht,  
 WanZhen Liang,  C. Ochsenfeld,  V. A. Rassolov,  L. V. Slipchenko,  
 J. E. Subotnik,  T. Van Voorhis,  J. M. Herbert,  A. I. Krylov,  
 P. M. W. Gill,  M. Head-Gordon

 Contributors to earlier versions of Q-Chem not listed above: 
 R. D. Adamson,  B. Austin,  J. Baker,  G. J. O. Beran,  K. Brandhorst,  
 S. T. Brown,  E. F. C. Byrd,  A. K. Chakraborty,  C.-L. Cheng,  
 Siu Hung Chien,  D. M. Chipman,  D. L. Crittenden,  H. Dachsel,  
 R. J. Doerksen,  A. D. Dutoi,  L. Fusti-Molnar,  W. A. Goddard III,  
 A. Golubeva-Zadorozhnaya,  S. R. Gwaltney,  G. Hawkins,  A. Heyden,  
 S. Hirata,  G. Kedziora,  F. J. Keil,  C. Kelley,  Jihan Kim,  R. A. King,  
 R. Z. Khaliullin,  P. P. Korambath,  W. Kurlancheek,  A. M. Lee,  M. S. Lee,  
 S. V. Levchenko,  Ching Yeh Lin,  D. Liotard,  R. C. Lochan,  I. Lotan,  
 P. E. Maslen,  N. Nair,  D. P. O'Neill,  D. Neuhauser,  E. Neuscamman,  
 C. M. Oana,  R. Olson,  B. Peters,  R. Peverati,  P. A. Pieniazek,  
 Y. M. Rhee,  J. Ritchie,  M. A. Rohrdanz,  E. Rosta,  N. J. Russ,  
 H. F. Schaefer III,  N. E. Schultz,  N. Shenvi,  A. C. Simmonett,  A. Sodt,  
 D. Stuck,  K. S. Thanthiriwatte,  V. Vanovschi,  Tao Wang,  A. Warshel,  
 C. F. Williams,  Q. Wu,  X. Xu,  W. Zhang

 Please cite Q-Chem as follows:
 Y. Shao et al., Mol. Phys. 113, 184-215 (2015)
 DOI: 10.1080/00268976.2014.952696

 Q-Chem 5.2.0 for Intel X86 EM64T Linux

 Parts of Q-Chem use Armadillo 8.300.2 (Tropical Shenanigans).
 http://arma.sourceforge.net/

 Q-Chem begins on Sun Sep 26 09:19:23 2021  

Host: cori01
0

     Scratch files written to /tmp/qchem19385//Frg1//
 May1019 |scratch|qcdevops|jenkins|workspace|build_RNUM -1
Processing $rem in /global/common/cori/software/qchem/5.2/config/preferences:
	 MEM_TOTAL  96000 
NAlpha2: 32
NElect   32
Mult     1
Symmetry turned off for PCM/SM12/SMD calculation

Checking the input file for inconsistencies... 	...done.

--------------------------------------------------------------
User input:
--------------------------------------------------------------
$molecule
0 1
 6	-1.7936610850	0.7804436978	-2.2849991487
 6	-0.3256610850	0.4504436978	-2.4359991487
 8	0.2653389150	-0.1945563022	-1.5729991487
 7	0.2893389150	0.9254436978	-3.5099991487
 1	-2.2176610850	1.0644436978	-3.2479991487
 1	-1.8486610850	1.6554436978	-1.6379991487
 1	1.2673389150	0.7154436978	-3.6289991487
 1	-0.2296610850	1.3844436978	-4.2539991487
 1	-2.3672610850	-0.0469763022	-1.8418991487
$end
$rem
EDA2		1
METHOD		WB97X-V
BASIS		DEF2-TZVPD
XC_GRID		000099000590
NL_GRID		1
UNRESTRICTED		FALSE
MAX_SCF_CYCLES		200
SYMMETRY		FALSE
SYM_IGNORE		TRUE
BASIS_LIN_DEP_THRESH		6
THRESH		14
SCF_CONVERGENCE		8
SCF_PRINT_FRGM		TRUE
SOLVENT_METHOD		SMD
!required keywords
JOBTYPE		SP
SYM_IGNORE		TRUE
SUBSYSTEM		TRUE
GEN_SCFMAN		TRUE
CHILD_INSTRUCTION		2
SYM_IGNORE		TRUE
SCFMI		0
RI_K 0		
PARI_K 0		
MIN_PARI_K 0		
IARI_K 0		
OCC_RI_K 0		
PURECART		1111
MEM_STATIC		2000
MEM_TOTAL		96000
GUI		0
CHILD_MP		1
CHILD_MP_ORDERS		232
FRZ_RELAX		0
FRZ_RELAX_METHOD		0
EDA_CLS_ELEC		1
EDA_CLS_DISP		0
FRZ_ORTHO_DECOMP		1
EDA2		FALSE
FRGM_METHOD		FALSE
CIS_N_ROOTS  0
LOCAL_CIS    0
CIS_RLX_DNS  1
$end
$smx
SOLVENT			WATER
$end
--------------------------------------------------------------
 ----------------------------------------------------------------
             Standard Nuclear Orientation (Angstroms)
    I     Atom           X                Y                Z
 ----------------------------------------------------------------
    1      C      -1.7936610850     0.7804436978    -2.2849991487
    2      C      -0.3256610850     0.4504436978    -2.4359991487
    3      O       0.2653389150    -0.1945563022    -1.5729991487
    4      N       0.2893389150     0.9254436978    -3.5099991487
    5      H      -2.2176610850     1.0644436978    -3.2479991487
    6      H      -1.8486610850     1.6554436978    -1.6379991487
    7      H       1.2673389150     0.7154436978    -3.6289991487
    8      H      -0.2296610850     1.3844436978    -4.2539991487
    9      H      -2.3672610850    -0.0469763022    -1.8418991487
 ----------------------------------------------------------------
 Nuclear Repulsion Energy =         122.38364666 hartrees
 There are       16 alpha and       16 beta electrons
 Requested basis set is def2-TZVPD
 There are 78 shells and 196 basis functions

 Total QAlloc Memory Limit  96000 MB
 Mega-Array Size      1956 MB
 MEM_STATIC part      2000 MB
 
 Citation of the SMD model:
 Marenich, A.V.; Cramer, C.J.; Truhlar, D.G.
 J. Phys. Chem. B 2009, 113, 6378-6396.
 iSolventCode=           1
 Solvent: water                                                           
 
 vradii
            1           2           3           4           5           6
    1   1.8500000   1.8500000   1.5200000   1.8900000   1.2000000   1.2000000
            7           8           9
    1   1.2000000   1.2000000   1.2000000
 Changing PCM_VDW_RADII to SMD_RADIUS
 Discretize the solute cavity surface with Lebedev spheres
	Using 110 Lebedev grid points for each H atom
	Using 194 Lebedev grid points for other atoms
	Atomic van der Waals radii will be scaled by 1.20
 Remove points where switching function is < 1.0e-08
 Keep 729 surface tesserae and discard 597 interior tesserae
 Molecular Surface Area = 89.888 Angst**2

                       Distance Matrix (Angstroms)
             C (  1)   C (  2)   O (  3)   N (  4)   H (  5)   H (  6)
   C (  2)  1.512192
   O (  3)  2.386849  1.228851
   N (  4)  2.420855  1.325642  2.237620
   H (  5)  1.089863  2.148489  3.248999  2.524483
   H (  6)  1.089614  2.099609  2.809933  2.933995  1.754292
   H (  7)  3.343693  2.007766  2.461552  1.007346  3.523093  3.815382
   H (  8)  2.586092  2.046142  3.150560  1.016650  2.250906  3.088375
   H (  9)  1.099990  2.183692  2.650409  3.284156  1.798542  1.791300
             H (  7)   H (  8)
   H (  8)  1.754764
   H (  9)  4.121326  3.526546
 
 A cutoff of  1.0D-14 yielded   3054 shell pairs
 There are     19544 function pairs (     24702 Cartesian)
 Smallest overlap matrix eigenvalue = 1.13E-05

 Scale SEOQF with 1.000000e-01/1.000000e-01/1.000000e-01

 Standard Electronic Orientation quadrupole field applied
 Nucleus-field energy     =    -0.0000000211 hartrees
 Guess from superposition of atomic densities
 Warning:  Energy on first SCF cycle will be non-variational
 SAD guess density has 31.604610 electrons

 -----------------------------------------------------------------------
  General SCF calculation program by
  Eric Jon Sundstrom, Paul Horn, Yuezhi Mao, Dmitri Zuev, Alec White,
  David Stuck, Shaama M.S., Shane Yost, Joonho Lee, David Small,
  Daniel Levine, Susi Lehtola, Hugh Burton, Evgeny Epifanovsky
 -----------------------------------------------------------------------
 Exchange:     0.1670 Hartree-Fock + 1.0000 wB97X-V + LR-HF
 Correlation:  1.0000 wB97X-V
 Using Euler-Maclaurin-Lebedev (99,590) quadrature formula
 Nonlocal Correlation:  VV10 with C = 0.0100 and b = 6.00 and scale = 1.00000
 Grid used for NLC:  SG-1 standard quadrature
Energy prior to optimization (guess energy) = -208.704387211300
Begin Timing: Total SCF Calculation
begin iterations for algorithm: DIIS         
the SCF tolerance is set to 1.00e-08
    1    -208.7043872113      1.26e-02     00000 
    2    -208.3330454166      1.53e-02     00000 
    3    -209.2371680517      2.35e-03     00000 
    4    -209.2556481415      7.73e-04     00000 
    5    -209.2587415571      2.00e-04     00000 
    6    -209.2590156185      6.76e-05     00000 
    7    -209.2590570671      2.05e-05     00000 
    8    -209.2590622313      5.90e-06     00000 
    9    -209.2590629894      1.99e-06     00000 
   10    -209.2590630398      3.64e-07     00000 
   11    -209.2590630411      1.49e-07     00000 
   12    -209.2590630413      2.04e-08     00000 
   13    -209.2590630413      4.71e-09     00000 Convergence criterion met
Timing for Total SCF: 366.00s (wall), 724.64s (cpu)
(3)  G-ENP(liq) elect-nuc-pol free energy of system     -209.259063041 a.u.
(4)  G-CDS(liq) cavity-dispersion-solvent structure 
     free energy                                                3.5300 kcal/mol
(6)  G-S(liq) free energy of system                     -209.253437654 a.u.
E_pcm = -0.0302491925
E_cds = 0.0056253875
Multipole orders to be included
        2
        3
computing dipole RHS
computing quadrupole RHS
total number of RHS in solve_reponses: 8
RHS batch sizes
        8
Beginning Block Conjugate Gradient Iterations. Batch Number: 0
computing hessian-vector products by finite difference
              1      6.34e-01     00000 Conjugate Gradient Iteration
computing hessian-vector products by finite difference
              2      2.02e-01     00000 Conjugate Gradient Iteration
computing hessian-vector products by finite difference
              3      5.58e-02     00000 Conjugate Gradient Iteration
computing hessian-vector products by finite difference
              4      1.40e-02     00000 Conjugate Gradient Iteration
computing hessian-vector products by finite difference
              5      1.92e-03     00000 Conjugate Gradient Iteration
computing hessian-vector products by finite difference
              6      4.42e-04     00000 Conjugate Gradient Iteration
computing hessian-vector products by finite difference
              7      5.74e-05     00000 Conjugate Gradient Iteration
computing hessian-vector products by finite difference
              8      6.59e-06     00000 Conjugate Gradient Iteration
computing hessian-vector products by finite difference
              9      9.57e-07     00000 Conjugate Gradient Iteration
computing hessian-vector products by finite difference
             10      1.02e-07     00000 Conjugate Gradient Iteration
computing hessian-vector products by finite difference
             11      1.23e-08     00000 Conjugate Gradient Iteration
computing hessian-vector products by finite difference
             12      1.88e-09     00000 CG Converged
batch 0 complete
Done Calculating Responses
TESTING ORTHOGONALIZATION OF MULTIPOLE BASIS
Multipole virts passed orthogonality test
Virts Per Order
        48
        80
 
 --------------------------------------------------------------
 
                    Orbital Energies (a.u.)
 --------------------------------------------------------------
 
 Alpha MOs
 -- Occupied --
-19.1828 -14.4275 -10.3775 -10.2624  -1.1765  -1.0414  -0.8636  -0.7076
 -0.6506  -0.5917  -0.5652  -0.5196  -0.4996  -0.4765  -0.3842  -0.3751
 -- Virtual --
  0.0648   0.0962   0.0965   0.1033   0.1306   0.1339   0.1411   0.1498
  0.1817   0.1889   0.1980   0.2161   0.2288   0.2463   0.2537   0.2649
  0.2685   0.2770   0.2989   0.3152   0.3363   0.3396   0.3464   0.3523
  0.3621   0.3689   0.3749   0.3785   0.3926   0.4063   0.4185   0.4206
  0.4377   0.4591   0.4657   0.4719   0.4824   0.4940   0.5009   0.5056
  0.5283   0.5305   0.5490   0.5694   0.5813   0.5974   0.6228   0.6358
  0.6394   0.6562   0.6747   0.6934   0.7162   0.7267   0.7280   0.7699
  0.7728   0.7866   0.8014   0.8141   0.8201   0.8380   0.8533   0.8714
  0.9163   0.9575   0.9772   0.9874   1.0134   1.0266   1.0625   1.0910
  1.1044   1.1778   1.2269   1.2476   1.2888   1.3257   1.3327   1.3832
  1.4881   1.4911   1.5189   1.6196   1.6757   1.7328   1.7458   1.8099
  1.8536   1.8691   1.8980   1.9186   1.9333   1.9607   1.9876   2.0397
  2.0540   2.0852   2.1404   2.1716   2.2197   2.2348   2.3042   2.3693
  2.4031   2.4380   2.4529   2.4698   2.5523   2.5740   2.5936   2.6298
  2.6674   2.6967   2.7870   2.8085   2.8398   2.8994   2.9665   2.9963
  3.0653   3.1111   3.1421   3.1468   3.2087   3.2306   3.2661   3.2941
  3.3163   3.3431   3.3751   3.4080   3.4562   3.4884   3.5492   3.5638
  3.6424   3.6461   3.6772   3.7984   3.8720   3.9391   4.0140   4.0427
  4.0741   4.1948   4.3131   4.4232   4.5141   4.6061   4.6343   4.6694
  4.7742   4.8924   4.9022   4.9359   5.1453   5.1802   5.2617   5.3500
  5.3819   5.3999   5.4082   5.4881   5.5342   5.7685   5.9162   6.1447
  6.2488   6.5234   6.6352   6.7358   6.8270   6.9674   7.2168   7.3151
 22.5891  23.5810  32.4142  44.3022
 --------------------------------------------------------------
 
          Ground-State Mulliken Net Atomic Charges

     Atom                 Charge (a.u.)
  ----------------------------------------
      1 C                    -0.637003
      2 C                     0.434810
      3 O                    -0.694121
      4 N                    -0.299900
      5 H                     0.245604
      6 H                     0.205476
      7 H                     0.249905
      8 H                     0.246680
      9 H                     0.248549
  ----------------------------------------
  Sum of atomic charges =     0.000000

 -----------------------------------------------------------------
                    Cartesian Multipole Moments
 -----------------------------------------------------------------
    Charge (ESU x 10^10)
                 0.0000
    Dipole Moment (Debye)
         X      -1.8023      Y       3.0819      Z      -4.7920
       Tot       5.9757
    Quadrupole Moments (Debye-Ang)
        XX     -20.5208     XY      -0.8335     YY     -22.7972
        XZ       2.4120     YZ      -9.5705     ZZ       0.2629
    Octopole Moments (Debye-Ang^2)
       XXX      33.3899    XXY     -10.1540    XYY       8.6560
       YYY     -36.6933    XXZ      47.7305    XYZ       2.4233
       YYZ      53.2477    XZZ       9.6192    YZZ      23.5205
       ZZZ      74.1120
    Hexadecapole Moments (Debye-Ang^3)
      XXXX    -187.4908   XXXY      32.8211   XXYY     -46.8495
      XYYY      25.8517   YYYY    -101.7937   XXXZ     -78.0276
      XXYZ      28.8791   XYYZ     -17.7939   YYYZ     109.1017
      XXZZ    -156.8197   XYZZ       0.9718   YYZZ    -149.5808
      XZZZ     -77.0394   YZZZ     -37.3649   ZZZZ    -555.1801
 -----------------------------------------------------------------
Archival summary:
1\1\nid00523\SP\ProcedureUnspecified\BasisUnspecified\1125\meili\SunSep2611:00:492021SunSep2611:00:492021\0\\#,ProcedureUnspecified,BasisUnspecified,\\0,1\C\O,1,1.22885\N,1,1.32564,2,122.271\H,3,1.00735,1,118.127,2,2.28456,0\H,3,1.01665,1,121.187,2,174.452,0\C,1,1.51219,2,120.75,3,-177.703,0\H,6,1.08961,1,106.471,2,81.8941,0\H,6,1.08986,1,110.261,2,-162.134,0\H,6,1.09999,1,112.476,2,-38.3954,0\\\@

 Total job time:  6086.79s(wall), 12042.05s(cpu) 
 Sun Sep 26 11:00:50 2021

        *************************************************************
        *                                                           *
        *  Thank you very much for using Q-Chem.  Have a nice day.  *
        *                                                           *
        *************************************************************


Done Job For Fragment 0
calling putenv with: QCSCRATCH=/global/cscratch1/sd/meili 
calling putenv with: QCLOCALSCR=/tmp 
calling putenv with: QCTHREADS=32 
Creating input file /tmp/qchem19385/Frg2.input
using default PutDataFrgm: nothing
calling putenv with: QCSCRATCH=/tmp/qchem19385/ 
calling putenv with: QCLOCALSCR=/tmp/qchem19385/ 
Spawning Job For Fragment 1
                  Welcome to Q-Chem
     A Quantum Leap Into The Future Of Chemistry


 Q-Chem 5.2, Q-Chem, Inc., Pleasanton, CA (2019)

 License issued to: National Energy Research Scientific Computing Center

 Yihan Shao,  Zhengting Gan,  E. Epifanovsky,  A. T. B. Gilbert,  M. Wormit,  
 J. Kussmann,  A. W. Lange,  A. Behn,  Jia Deng,  Xintian Feng,  D. Ghosh,  
 M. Goldey,  P. R. Horn,  L. D. Jacobson,  I. Kaliman,  T. Kus,  A. Landau,  
 Jie Liu,  E. I. Proynov,  R. M. Richard,  R. P. Steele,  E. J. Sundstrom,  
 H. L. Woodcock III,  P. M. Zimmerman,  D. Zuev,  B. Albrecht,  E. Alguire,  
 S. A. Baeppler,  D. Barton,  Z. Benda,  Y. A. Bernard,  E. J. Berquist,  
 K. B. Bravaya,  H. Burton,  D. Casanova,  Chun-Min Chang,  Yunqing Chen,  
 A. Chien,  K. D. Closser,  M. P. Coons,  S. Coriani,  S. Dasgupta,  
 A. L. Dempwolff,  M. Diedenhofen,  Hainam Do,  R. G. Edgar,  Po-Tung Fang,  
 S. Faraji,  S. Fatehi,  Qingguo Feng,  K. D. Fenk,  J. Fosso-Tande,  
 J. Gayvert,  Qinghui Ge,  A. Ghysels,  G. Gidofalvi,  J. Gomes,  
 J. Gonthier,  A. Gunina,  D. Hait,  M. W. D. Hanson-Heine,  
 P. H. P. Harbach,  A. W. Hauser,  M. F. Herbst,  J. E. Herr,  
 E. G. Hohenstein,  Z. C. Holden,  Kerwin Hui,  B. C. Huynh,  T.-C. Jagau,  
 Hyunjun Ji,  B. Kaduk,  K. Khistyaev,  Jaehoon Kim,  P. Klunzinger,  K. Koh,  
 D. Kosenkov,  L. Koulias,  T. Kowalczyk,  C. M. Krauter,  A. Kunitsa,  
 Ka Un Lao,  A. Laurent,  K. V. Lawler,  Joonho Lee,  D. Lefrancois,  
 S. Lehtola,  D. S. Levine,  Yi-Pei Li,  You-Sheng Lin,  Fenglai Liu,  
 E. Livshits,  A. Luenser,  P. Manohar,  E. Mansoor,  S. F. Manzer,  
 Shan-Ping Mao,  Yuezhi Mao,  N. Mardirossian,  A. V. Marenich,  
 T. Markovich,  L. A. Martinez-Martinez,  S. A. Maurer,  N. J. Mayhall,  
 S. C. McKenzie,  J.-M. Mewes,  P. Morgante,  A. F. Morrison,  
 J. W. Mullinax,  K. Nanda,  T. S. Nguyen-Beck,  R. Olivares-Amaya,  
 J. A. Parkhill,  Zheng Pei,  T. M. Perrine,  F. Plasser,  P. Pokhilko,  
 S. Prager,  A. Prociuk,  E. Ramos,  D. R. Rehn,  F. Rob,  M. Scheurer,  
 M. Schneider,  N. Sergueev,  S. M. Sharada,  S. Sharma,  D. W. Small,  
 T. Stauch,  T. Stein,  Yu-Chuan Su,  A. J. W. Thom,  A. Tkatchenko,  
 T. Tsuchimochi,  N. M. Tubman,  L. Vogt,  M. L. Vidal,  O. Vydrov,  
 M. A. Watson,  J. Wenzel,  M. de Wergifosse,  T. A. Wesolowski,  A. White,  
 J. Witte,  A. Yamada,  Jun Yang,  K. Yao,  S. Yeganeh,  S. R. Yost,  
 Zhi-Qiang You,  A. Zech,  Igor Ying Zhang,  Xing Zhang,  Yan Zhao,  
 Ying Zhu,  B. R. Brooks,  G. K. L. Chan,  C. J. Cramer,  M. S. Gordon,  
 W. J. Hehre,  A. Klamt,  M. W. Schmidt,  C. D. Sherrill,  D. G. Truhlar,  
 A. Aspuru-Guzik,  R. Baer,  A. T. Bell,  N. A. Besley,  Jeng-Da Chai,  
 A. E. DePrince, III,  R. A. DiStasio Jr.,  A. Dreuw,  B. D. Dunietz,  
 T. R. Furlani,  Chao-Ping Hsu,  Yousung Jung,  Jing Kong,  D. S. Lambrecht,  
 WanZhen Liang,  C. Ochsenfeld,  V. A. Rassolov,  L. V. Slipchenko,  
 J. E. Subotnik,  T. Van Voorhis,  J. M. Herbert,  A. I. Krylov,  
 P. M. W. Gill,  M. Head-Gordon

 Contributors to earlier versions of Q-Chem not listed above: 
 R. D. Adamson,  B. Austin,  J. Baker,  G. J. O. Beran,  K. Brandhorst,  
 S. T. Brown,  E. F. C. Byrd,  A. K. Chakraborty,  C.-L. Cheng,  
 Siu Hung Chien,  D. M. Chipman,  D. L. Crittenden,  H. Dachsel,  
 R. J. Doerksen,  A. D. Dutoi,  L. Fusti-Molnar,  W. A. Goddard III,  
 A. Golubeva-Zadorozhnaya,  S. R. Gwaltney,  G. Hawkins,  A. Heyden,  
 S. Hirata,  G. Kedziora,  F. J. Keil,  C. Kelley,  Jihan Kim,  R. A. King,  
 R. Z. Khaliullin,  P. P. Korambath,  W. Kurlancheek,  A. M. Lee,  M. S. Lee,  
 S. V. Levchenko,  Ching Yeh Lin,  D. Liotard,  R. C. Lochan,  I. Lotan,  
 P. E. Maslen,  N. Nair,  D. P. O'Neill,  D. Neuhauser,  E. Neuscamman,  
 C. M. Oana,  R. Olson,  B. Peters,  R. Peverati,  P. A. Pieniazek,  
 Y. M. Rhee,  J. Ritchie,  M. A. Rohrdanz,  E. Rosta,  N. J. Russ,  
 H. F. Schaefer III,  N. E. Schultz,  N. Shenvi,  A. C. Simmonett,  A. Sodt,  
 D. Stuck,  K. S. Thanthiriwatte,  V. Vanovschi,  Tao Wang,  A. Warshel,  
 C. F. Williams,  Q. Wu,  X. Xu,  W. Zhang

 Please cite Q-Chem as follows:
 Y. Shao et al., Mol. Phys. 113, 184-215 (2015)
 DOI: 10.1080/00268976.2014.952696

 Q-Chem 5.2.0 for Intel X86 EM64T Linux

 Parts of Q-Chem use Armadillo 8.300.2 (Tropical Shenanigans).
 http://arma.sourceforge.net/

 Q-Chem begins on Sun Sep 26 11:00:52 2021  

Host: cori01
0

     Scratch files written to /tmp/qchem19385//Frg2//
 May1019 |scratch|qcdevops|jenkins|workspace|build_RNUM -1
Processing $rem in /global/common/cori/software/qchem/5.2/config/preferences:
	 MEM_TOTAL  96000 
NAlpha2: 32
NElect   32
Mult     1
Symmetry turned off for PCM/SM12/SMD calculation

Checking the input file for inconsistencies... 	...done.

--------------------------------------------------------------
User input:
--------------------------------------------------------------
$molecule
0 1
 6	-0.5386610850	0.4504436978	3.0550008513
 6	0.4403389150	-0.5475563022	2.4900008513
 8	1.0023389150	-1.3515563022	3.2260008513
 7	0.6163389150	-0.5475563022	1.1800008513
 1	1.2583389150	-1.2125563022	0.7800008513
 1	0.1453389150	0.1044436978	0.5730008513
 1	-1.0006610850	1.0244436978	2.2500008513
 1	0.0173389150	1.1414436978	3.6870008513
 1	-1.3221110850	-0.0428063022	3.6491008513
$end
$rem
EDA2		1
METHOD		WB97X-V
BASIS		DEF2-TZVPD
XC_GRID		000099000590
NL_GRID		1
UNRESTRICTED		FALSE
MAX_SCF_CYCLES		200
SYMMETRY		FALSE
SYM_IGNORE		TRUE
BASIS_LIN_DEP_THRESH		6
THRESH		14
SCF_CONVERGENCE		8
SCF_PRINT_FRGM		TRUE
SOLVENT_METHOD		SMD
!required keywords
JOBTYPE		SP
SYM_IGNORE		TRUE
SUBSYSTEM		TRUE
GEN_SCFMAN		TRUE
CHILD_INSTRUCTION		2
SYM_IGNORE		TRUE
SCFMI		0
RI_K 0		
PARI_K 0		
MIN_PARI_K 0		
IARI_K 0		
OCC_RI_K 0		
PURECART		1111
MEM_STATIC		2000
MEM_TOTAL		96000
GUI		0
CHILD_MP		1
CHILD_MP_ORDERS		232
FRZ_RELAX		0
FRZ_RELAX_METHOD		0
EDA_CLS_ELEC		1
EDA_CLS_DISP		0
FRZ_ORTHO_DECOMP		1
EDA2		FALSE
FRGM_METHOD		FALSE
CIS_N_ROOTS  0
LOCAL_CIS    0
CIS_RLX_DNS  1
$end
$smx
SOLVENT			WATER
$end
--------------------------------------------------------------
 ----------------------------------------------------------------
             Standard Nuclear Orientation (Angstroms)
    I     Atom           X                Y                Z
 ----------------------------------------------------------------
    1      C      -0.5386610850     0.4504436978     3.0550008513
    2      C       0.4403389150    -0.5475563022     2.4900008513
    3      O       1.0023389150    -1.3515563022     3.2260008513
    4      N       0.6163389150    -0.5475563022     1.1800008513
    5      H       1.2583389150    -1.2125563022     0.7800008513
    6      H       0.1453389150     0.1044436978     0.5730008513
    7      H      -1.0006610850     1.0244436978     2.2500008513
    8      H       0.0173389150     1.1414436978     3.6870008513
    9      H      -1.3221110850    -0.0428063022     3.6491008513
 ----------------------------------------------------------------
 Nuclear Repulsion Energy =         122.63705026 hartrees
 There are       16 alpha and       16 beta electrons
 Requested basis set is def2-TZVPD
 There are 78 shells and 196 basis functions

 Total QAlloc Memory Limit  96000 MB
 Mega-Array Size      1956 MB
 MEM_STATIC part      2000 MB
 
 Citation of the SMD model:
 Marenich, A.V.; Cramer, C.J.; Truhlar, D.G.
 J. Phys. Chem. B 2009, 113, 6378-6396.
 iSolventCode=           1
 Solvent: water                                                           
 
 vradii
            1           2           3           4           5           6
    1   1.8500000   1.8500000   1.5200000   1.8900000   1.2000000   1.2000000
            7           8           9
    1   1.2000000   1.2000000   1.2000000
 Changing PCM_VDW_RADII to SMD_RADIUS
 Discretize the solute cavity surface with Lebedev spheres
	Using 110 Lebedev grid points for each H atom
	Using 194 Lebedev grid points for other atoms
	Atomic van der Waals radii will be scaled by 1.20
 Remove points where switching function is < 1.0e-08
 Keep 730 surface tesserae and discard 596 interior tesserae
 Molecular Surface Area = 89.694 Angst**2

                       Distance Matrix (Angstroms)
             C (  1)   C (  2)   O (  3)   N (  4)   H (  5)   H (  6)
   C (  2)  1.507869
   O (  3)  2.377210  1.226359
   N (  4)  2.417779  1.321770  2.231934
   H (  5)  3.342215  2.008843  2.463285  1.007169
   H (  6)  2.597671  2.046220  3.145281  1.007668  1.736694
   H (  7)  1.091304  2.145988  3.257294  2.496152  3.502592  2.229808
   H (  8)  1.089055  2.112927  2.719889  3.081651  3.941072  3.284623
   H (  9)  1.100020  2.168989  2.700909  3.179436  4.032217  3.411376
             H (  7)   H (  8)
   H (  8)  1.764931
   H (  9)  1.788808  1.788298
 
 A cutoff of  1.0D-14 yielded   3053 shell pairs
 There are     19543 function pairs (     24701 Cartesian)
 Smallest overlap matrix eigenvalue = 1.08E-05

 Scale SEOQF with 1.000000e-01/1.000000e-01/1.000000e-01

 Standard Electronic Orientation quadrupole field applied
 Nucleus-field energy     =    -0.0000000211 hartrees
 Guess from superposition of atomic densities
 Warning:  Energy on first SCF cycle will be non-variational
 SAD guess density has 31.604610 electrons

 -----------------------------------------------------------------------
  General SCF calculation program by
  Eric Jon Sundstrom, Paul Horn, Yuezhi Mao, Dmitri Zuev, Alec White,
  David Stuck, Shaama M.S., Shane Yost, Joonho Lee, David Small,
  Daniel Levine, Susi Lehtola, Hugh Burton, Evgeny Epifanovsky
 -----------------------------------------------------------------------
 Exchange:     0.1670 Hartree-Fock + 1.0000 wB97X-V + LR-HF
 Correlation:  1.0000 wB97X-V
 Using Euler-Maclaurin-Lebedev (99,590) quadrature formula
 Nonlocal Correlation:  VV10 with C = 0.0100 and b = 6.00 and scale = 1.00000
 Grid used for NLC:  SG-1 standard quadrature
Energy prior to optimization (guess energy) = -208.705938615869
Begin Timing: Total SCF Calculation
begin iterations for algorithm: DIIS         
the SCF tolerance is set to 1.00e-08
    1    -208.7059386159      1.25e-02     00000 
    2    -208.3453401582      1.53e-02     00000 
    3    -209.2374085593      2.34e-03     00000 
    4    -209.2557135462      7.63e-04     00000 
    5    -209.2587403121      1.98e-04     00000 
    6    -209.2590087670      6.71e-05     00000 
    7    -209.2590496631      2.04e-05     00000 
    8    -209.2590547795      5.88e-06     00000 
    9    -209.2590555311      1.97e-06     00000 
   10    -209.2590555803      3.71e-07     00000 
   11    -209.2590555816      1.47e-07     00000 
   12    -209.2590555818      2.03e-08     00000 
   13    -209.2590555818      4.69e-09     00000 Convergence criterion met
Timing for Total SCF: 355.00s (wall), 701.63s (cpu)
(3)  G-ENP(liq) elect-nuc-pol free energy of system     -209.259055582 a.u.
(4)  G-CDS(liq) cavity-dispersion-solvent structure 
     free energy                                                3.5324 kcal/mol
(6)  G-S(liq) free energy of system                     -209.253426283 a.u.
E_pcm = -0.0302502734
E_cds = 0.0056292984
Multipole orders to be included
        2
        3
computing dipole RHS
computing quadrupole RHS
total number of RHS in solve_reponses: 8
RHS batch sizes
        8
Beginning Block Conjugate Gradient Iterations. Batch Number: 0
computing hessian-vector products by finite difference
              1      6.21e-01     00000 Conjugate Gradient Iteration
computing hessian-vector products by finite difference
              2      2.12e-01     00000 Conjugate Gradient Iteration
computing hessian-vector products by finite difference
              3      5.98e-02     00000 Conjugate Gradient Iteration
computing hessian-vector products by finite difference
              4      1.50e-02     00000 Conjugate Gradient Iteration
computing hessian-vector products by finite difference
              5      1.99e-03     00000 Conjugate Gradient Iteration
computing hessian-vector products by finite difference
              6      4.36e-04     00000 Conjugate Gradient Iteration
computing hessian-vector products by finite difference
              7      5.73e-05     00000 Conjugate Gradient Iteration
computing hessian-vector products by finite difference
              8      6.38e-06     00000 Conjugate Gradient Iteration
computing hessian-vector products by finite difference
              9      8.92e-07     00000 Conjugate Gradient Iteration
computing hessian-vector products by finite difference
             10      9.62e-08     00000 Conjugate Gradient Iteration
computing hessian-vector products by finite difference
             11      1.38e-08     00000 Conjugate Gradient Iteration
computing hessian-vector products by finite difference
             12      4.72e-09     00000 CG Converged
batch 0 complete
Done Calculating Responses
TESTING ORTHOGONALIZATION OF MULTIPOLE BASIS
Multipole virts passed orthogonality test
Virts Per Order
        48
        80
 
 --------------------------------------------------------------
 
                    Orbital Energies (a.u.)
 --------------------------------------------------------------
 
 Alpha MOs
 -- Occupied --
-19.1818 -14.4272 -10.3765 -10.2619  -1.1778  -1.0430  -0.8640  -0.7109
 -0.6513  -0.5924  -0.5661  -0.5202  -0.4973  -0.4777  -0.3842  -0.3754
 -- Virtual --
  0.0651   0.0960   0.0972   0.1032   0.1334   0.1340   0.1376   0.1514
  0.1821   0.1909   0.1944   0.2154   0.2310   0.2498   0.2539   0.2642
  0.2680   0.2798   0.3022   0.3142   0.3342   0.3399   0.3465   0.3557
  0.3599   0.3661   0.3758   0.3799   0.3882   0.4014   0.4165   0.4280
  0.4375   0.4636   0.4666   0.4787   0.4800   0.4927   0.5050   0.5110
  0.5169   0.5333   0.5607   0.5673   0.5857   0.5933   0.6164   0.6310
  0.6395   0.6521   0.6716   0.6979   0.7104   0.7218   0.7357   0.7698
  0.7738   0.7803   0.7970   0.8112   0.8273   0.8367   0.8575   0.8887
  0.9166   0.9614   0.9622   0.9997   1.0185   1.0308   1.0639   1.1062
  1.1184   1.1778   1.2312   1.2384   1.2974   1.3198   1.3298   1.3959
  1.4756   1.4986   1.5351   1.6143   1.6851   1.7323   1.7351   1.8074
  1.8526   1.8789   1.8838   1.9233   1.9325   1.9659   1.9814   2.0497
  2.0674   2.0830   2.1323   2.1706   2.1998   2.2337   2.3122   2.3873
  2.4205   2.4435   2.4731   2.4878   2.5161   2.5733   2.6096   2.6312
  2.6511   2.7082   2.7909   2.8083   2.8631   2.8998   2.9589   2.9736
  3.0779   3.1069   3.1322   3.1709   3.2083   3.2177   3.2659   3.3030
  3.3162   3.3361   3.3925   3.4255   3.4708   3.4959   3.5413   3.5507
  3.5962   3.6861   3.7018   3.8286   3.8729   3.9423   4.0265   4.0509
  4.0828   4.2207   4.3334   4.4232   4.4637   4.6194   4.6436   4.6852
  4.7755   4.8959   4.9102   4.9268   5.1454   5.1765   5.2638   5.3560
  5.3847   5.4010   5.4175   5.5088   5.5473   5.7727   5.9236   6.1703
  6.2505   6.5335   6.6359   6.7440   6.8417   6.9638   7.2222   7.3216
 22.6024  23.6091  32.4161  44.2875
 --------------------------------------------------------------
 
          Ground-State Mulliken Net Atomic Charges

     Atom                 Charge (a.u.)
  ----------------------------------------
      1 C                    -0.606668
      2 C                     0.426546
      3 O                    -0.694588
      4 N                    -0.289960
      5 H                     0.241091
      6 H                     0.245089
      7 H                     0.232485
      8 H                     0.210539
      9 H                     0.235468
  ----------------------------------------
  Sum of atomic charges =     0.000000

 -----------------------------------------------------------------
                    Cartesian Multipole Moments
 -----------------------------------------------------------------
    Charge (ESU x 10^10)
                 0.0000
    Dipole Moment (Debye)
         X      -2.1036      Y       3.3104      Z      -4.4906
       Tot       5.9623
    Quadrupole Moments (Debye-Ang)
        XX     -26.2251     XY       2.3564     YY     -28.8649
        XZ      -9.8471     YZ      12.9902     ZZ     -43.0139
    Octopole Moments (Debye-Ang^2)
       XXX     -26.8349    XXY      12.8172    XYY     -11.8996
       YYY      39.7604    XXZ     -69.8045    XYZ      13.9531
       YYZ     -79.0658    XZZ     -42.7748    YZZ      56.2894
       ZZZ    -252.6260
    Hexadecapole Moments (Debye-Ang^3)
      XXXX    -108.9600   XXXY      45.3768   XXYY     -43.7839
      XYYY      49.5062   YYYY    -145.0213   XXXZ     -63.9404
      XXYZ      39.2979   XYYZ     -35.0856   YYYZ     107.5096
      XXZZ    -222.6170   XYZZ      65.4234   YYZZ    -259.0085
      XZZZ    -168.6644   YZZZ     235.2785   ZZZZ   -1313.3301
 -----------------------------------------------------------------
Archival summary:
1\1\nid00523\SP\ProcedureUnspecified\BasisUnspecified\1125\meili\SunSep2612:42:552021SunSep2612:42:552021\0\\#,ProcedureUnspecified,BasisUnspecified,\\0,1\C\O,1,1.22636\N,1,1.32177,2,122.262\H,3,1.00717,1,118.587,2,-2.07302,0\H,3,1.00767,1,122.329,2,179.141,0\C,1,1.50787,2,120.436,3,177.197,0\H,6,1.08906,1,107.814,2,66.9618,0\H,6,1.0913,1,110.279,2,-175.238,0\H,6,1.10002,1,111.592,2,-53.3868,0\\\@

 Total job time:  6124.73s(wall), 12108.55s(cpu) 
 Sun Sep 26 12:42:56 2021

        *************************************************************
        *                                                           *
        *  Thank you very much for using Q-Chem.  Have a nice day.  *
        *                                                           *
        *************************************************************


Done Job For Fragment 1
calling putenv with: QCSCRATCH=/global/cscratch1/sd/meili 
calling putenv with: QCLOCALSCR=/tmp 
calling putenv with: QCTHREADS=32 
Doing General SCFMI
 Exchange:     0.1670 Hartree-Fock + 1.0000 wB97X-V + LR-HF
 Correlation:  1.0000 wB97X-V
 Using Euler-Maclaurin-Lebedev (99,590) quadrature formula
 Nonlocal Correlation:  VV10 with C = 0.0100 and b = 6.00 and scale = 1.00000
 Grid used for NLC:  SG-1 standard quadrature
performing fock build before subrot guess so that all methods have access
Printing subrot_rss_gen Method Specification:
Occupied Subspace Method is 0
Virtual Subspace Method is 0
Energy of the unrelaxed supersystem initial determinant -418.468747136129
performing fock build before subrot guess so that all methods have access
Printing subrot_rss_gen Method Specification:
Occupied Subspace Method is 0
Virtual Subspace Method is 0
Energy of the unrelaxed supersystem initial determinant w/ solvent -418.517135910808
write pseudocanon occs and virts to disk
write pseudocanon orbital energies to disk
Tolerance of ortho_decomp_scf: 1.00e-06
GDM subspace size: 20
Beginning the Orthogonal Decomposition of the Initial Supersystem Wavefunction
    1    -418.4276990335      7.16e-02     ortho_decomp Preconditoned Steepest Descent
    2    -418.4332840784      1.62e-03     ortho_decomp BFGS Step
    3    -418.4333008419      1.41e-04     ortho_decomp BFGS Step
    4    -418.4333008835      5.77e-06     ortho_decomp BFGS Step
    5    -418.4333008837      1.69e-07     ortho_decomp 00000 Convergence criterion met
 Hartree-Fock
 Hartree-Fock
 Hartree-Fock
Doing General SCFMI
 Exchange:     0.1670 Hartree-Fock + 1.0000 wB97X-V + LR-HF
 Correlation:  1.0000 wB97X-V
 Using Euler-Maclaurin-Lebedev (99,590) quadrature formula
 Nonlocal Correlation:  VV10 with C = 0.0100 and b = 6.00 and scale = 1.00000
 Grid used for NLC:  SG-1 standard quadrature
performing fock build at end of subrot_r(subrot) constructor so that all methods have access
<S^2> of initial wavefunction before polarization iterations 0.0000000000
Beginning iterations for the determination of the polarized wavefunction
Energy prior to optimization (guess energy) = -418.517135910808
Begin Timing: Total SCF Calculation
begin iterations for algorithm: DIIS         
the SCF tolerance is set to 1.00e-08
    1    -418.5171359108      9.28e-05     00000 
    2    -418.5173976127      6.49e-05     00000 
    3    -418.5174604327      2.46e-05     00000 
    4    -418.5174747804      7.98e-06     00000 
    5    -418.5174764628      3.05e-06     00000 
    6    -418.5174768731      1.09e-06     00000 
    7    -418.5174769327      4.05e-07     00000 
    8    -418.5174769400      9.76e-08     00000 
    9    -418.5174769404      4.95e-08     00000 
   10    -418.5174769405      2.02e-08     00000 
   11    -418.5174769405      5.20e-09     00000 Convergence criterion met
write pseudocanon occs and virts to disk
write pseudocanon orbital energies to disk
Timing for Total SCF: 1704.00s (wall), 3386.59s (cpu)
<S^2> of polarized wavefunction after polarization iterations 0.0000000000
relaxing scfmi constraint to allow all rotations in the entire AO span
Doing General SCFMI
 Exchange:     0.1670 Hartree-Fock + 1.0000 wB97X-V + LR-HF
 Correlation:  1.0000 wB97X-V
 Using Euler-Maclaurin-Lebedev (99,590) quadrature formula
 Nonlocal Correlation:  VV10 with C = 0.0100 and b = 6.00 and scale = 1.00000
 Grid used for NLC:  SG-1 standard quadrature
performing fock build at end of subrot_r(subrot) constructor so that all methods have access
<S^2> of polarized wavefunction before ct-allowed iterations 0.0000000000
Beginning iterations for the determination of the CT-Allowed wavefunction
Energy prior to optimization (guess energy) = -418.517476940471
Begin Timing: Total SCF Calculation
begin iterations for algorithm: DIIS         
the SCF tolerance is set to 1.00e-08
    1    -418.5174769405      1.21e-04     00000 
    2    -418.5186976011      1.60e-05     00000 
    3    -418.5187412997      5.47e-06     00000 
    4    -418.5187429495      4.22e-06     00000 
    5    -418.5187439985      4.93e-07     00000 
    6    -418.5187440304      2.48e-07     00000 
    7    -418.5187440377      6.79e-08     00000 
    8    -418.5187440385      2.19e-08     00000 
    9    -418.5187440386      7.82e-09     00000 Convergence criterion met
write pseudocanon occs and virts to disk
write pseudocanon orbital energies to disk
Timing for Total SCF: 1334.00s (wall), 2652.05s (cpu)
<S^2> of ct_allowed wavefunction after ct-allowed iterations 0.0000000000

================================
        Results of EDA2         
================================
Basic EDA Quantities
--------------------
Fragment Energies (Ha):
1 -209.2534376537
2 -209.2534262834
--------------------
  E_prp (kJ/mol) = -0.0000
  E_sol (kJ/mol) = 29.1264
  E_frz (kJ/mol) = -29.2169
  E_pol (kJ/mol) = -0.8954
  E_vct (kJ/mol) = -3.3268
  E_int (kJ/mol) = -4.3127
--------------------


Initial Wavefunction Decomposition
--------------------
  --------------------
  Orthogonal Fragment Subspace Decomposition:
  --------------------
     E_elec   (ELEC)   (kJ/mol) = -71.0506
     E_pauli  (PAULI)  (kJ/mol) = 52.3140
     E_disp   (DISP)   (kJ/mol) = -10.4802
     --------------------
     Terms summing to E_pauli:
     --------------------
        E_kep_pauli       (kJ/mol) = 63.8484
        E_disp_free_pauli (kJ/mol) = -11.5344
  --------------------
  Classical Frozen Decomposition:
  --------------------
     E_cls_elec  (CLS ELEC)  (kJ/mol) = -47.2146
     E_cls_pauli (CLS PAULI) (kJ/mol) = 17.9977
    [E_mod_pauli (MOD PAULI) (kJ/mol) = 28.4779 (CLS PAULI - DISP from orthogonal decomposition) ]
  --------------------
--------------------

Simplified EDA Summary (kJ/mol)
--------------------
 PREPARATION     -0.0000
 SOLVATION       29.1264
 FROZEN          -18.7367      (does not include dispersion)
[PAULI           52.3140]     (if this is negligible, then frozen describes electrostatics)
 DISPERSION      -10.4802
 POLARIZATION    -0.8954
 CHARGE TRANSFER -3.3268
 TOTAL           -4.3127     (PRP + SOL + FRZ + DISP + POL + CT)
--------------------
 
 --------------------------------------------------------------
 
                    Orbital Energies (a.u.)
 --------------------------------------------------------------
 
 Alpha MOs
 -- Occupied --
-19.1831 -19.1794 -14.4281 -14.4207 -10.3781 -10.3730 -10.2630 -10.2609
 -1.1778  -1.1751  -1.0429  -1.0376  -0.8643  -0.8623  -0.7139  -0.7026
 -0.6519  -0.6465  -0.5948  -0.5877  -0.5658  -0.5642  -0.5226  -0.5147
 -0.5000  -0.4959  -0.4771  -0.4760  -0.3864  -0.3822  -0.3747  -0.3710
 -- Virtual --
  0.0578   0.0765   0.0867   0.0890   0.1036   0.1051   0.1076   0.1250
  0.1261   0.1331   0.1361   0.1378   0.1446   0.1598   0.1678   0.1753
  0.1829   0.1887   0.2012   0.2114   0.2138   0.2196   0.2259   0.2284
  0.2396   0.2460   0.2557   0.2611   0.2652   0.2776   0.2820   0.2902
  0.2934   0.3021   0.3052   0.3104   0.3211   0.3278   0.3285   0.3377
  0.3400   0.3445   0.3478   0.3532   0.3542   0.3634   0.3707   0.3741
  0.3763   0.3805   0.3855   0.3891   0.3900   0.3947   0.4017   0.4152
  0.4186   0.4231   0.4280   0.4372   0.4444   0.4561   0.4581   0.4642
  0.4667   0.4722   0.4772   0.4830   0.4897   0.4925   0.4993   0.5043
  0.5088   0.5129   0.5197   0.5286   0.5365   0.5418   0.5469   0.5573
  0.5663   0.5692   0.5780   0.5882   0.5960   0.6025   0.6116   0.6185
  0.6263   0.6331   0.6388   0.6491   0.6542   0.6592   0.6658   0.6711
  0.6784   0.6797   0.6852   0.6942   0.7127   0.7177   0.7346   0.7403
  0.7482   0.7603   0.7682   0.7743   0.7782   0.7852   0.8009   0.8033
  0.8077   0.8098   0.8180   0.8273   0.8342   0.8410   0.8543   0.8643
  0.8736   0.8747   0.8917   0.9124   0.9168   0.9321   0.9422   0.9627
  0.9715   0.9826   1.0005   1.0073   1.0180   1.0355   1.0454   1.0565
  1.0610   1.0769   1.0920   1.1022   1.1249   1.1424   1.1445   1.1708
  1.1895   1.1968   1.2307   1.2423   1.2820   1.2916   1.3035   1.3122
  1.3239   1.3303   1.3385   1.3572   1.3656   1.3967   1.4170   1.4424
  1.4974   1.5111   1.5189   1.5212   1.5712   1.5916   1.6380   1.6554
  1.6936   1.7243   1.7471   1.7569   1.7624   1.7753   1.8360   1.8632
  1.8878   1.8965   1.9057   1.9161   1.9204   1.9360   1.9473   1.9599
  1.9675   1.9706   1.9898   1.9911   2.0219   2.0341   2.0604   2.0657
  2.0872   2.0980   2.1131   2.1399   2.1428   2.1705   2.1853   2.2167
  2.2348   2.2624   2.2686   2.2925   2.3732   2.3888   2.4096   2.4171
  2.4310   2.4468   2.4696   2.4808   2.5037   2.5229   2.5293   2.5405
  2.5436   2.5737   2.6049   2.6095   2.6213   2.6380   2.6515   2.6621
  2.6847   2.6978   2.7125   2.7711   2.7967   2.8065   2.8181   2.8516
  2.8656   2.8970   2.9090   2.9213   2.9780   2.9883   2.9923   3.0137
  3.0873   3.1252   3.1293   3.1359   3.1592   3.1625   3.1793   3.1992
  3.2195   3.2334   3.2438   3.2724   3.2839   3.3022   3.3189   3.3284
  3.3386   3.3482   3.3518   3.3827   3.3955   3.4126   3.4377   3.4629
  3.4726   3.4809   3.5092   3.5296   3.5585   3.5896   3.6085   3.6144
  3.6456   3.6511   3.6674   3.6898   3.7125   3.7244   3.8053   3.8365
  3.8782   3.8980   3.9526   3.9996   4.0261   4.0405   4.0540   4.0595
  4.0941   4.1196   4.2099   4.2391   4.3373   4.3531   4.4340   4.4364
  4.4709   4.5214   4.6227   4.6303   4.6557   4.6655   4.6796   4.6925
  4.7919   4.8164   4.9035   4.9125   4.9147   4.9445   4.9459   4.9475
  5.1634   5.1819   5.1896   5.2024   5.2656   5.2758   5.3577   5.3801
  5.3842   5.4025   5.4092   5.4112   5.4249   5.4593   5.4982   5.5621
  5.5755   5.6046   5.7771   5.7823   5.9212   5.9403   6.1535   6.2096
  6.2540   6.2885   6.5417   6.5868   6.6462   6.6858   6.7581   6.7593
  6.8402   6.8505   6.9677   7.0192   7.2285   7.2402   7.3324   7.3786
 22.6133  22.6241  23.6036  23.6521  32.4407  32.5597  44.3481  44.3735
 --------------------------------------------------------------
 
          Ground-State Mulliken Net Atomic Charges

     Atom                 Charge (a.u.)
  ----------------------------------------
      1 C                    -0.645384
      2 C                     0.392274
      3 O                    -0.694146
      4 N                    -0.308065
      5 H                     0.268486
      6 H                     0.213425
      7 H                     0.266573
      8 H                     0.236463
      9 H                     0.247280
     10 C                    -0.635877
     11 C                     0.470033
     12 O                    -0.712757
     13 N                    -0.148126
     14 H                     0.199813
     15 H                     0.175336
     16 H                     0.218830
     17 H                     0.213754
     18 H                     0.242087
  ----------------------------------------
  Sum of atomic charges =     0.000000

 -----------------------------------------------------------------
                    Cartesian Multipole Moments
 -----------------------------------------------------------------
    Charge (ESU x 10^10)
                -0.0000
    Dipole Moment (Debye)
         X      -3.9449      Y       6.4277      Z      -9.5454
       Tot      12.1653
    Quadrupole Moments (Debye-Ang)
        XX     -46.8288     XY       1.5804     YY     -51.7740
        XZ      -7.5408     YZ       3.5623     ZZ     -43.3159
    Octopole Moments (Debye-Ang^2)
       XXX       6.3275    XXY       2.7810    XYY      -3.3639
       YYY       3.2916    XXZ     -22.5602    XYZ      16.6107
       YYZ     -26.3466    XZZ     -33.5791    YZZ      80.4532
       ZZZ    -181.7099
    Hexadecapole Moments (Debye-Ang^3)
      XXXX    -296.7795   XXXY      78.3460   XXYY     -90.8394
      XYYY      75.5894   YYYY    -247.4535   XXXZ    -142.1268
      XXYZ      68.3606   XYYZ     -53.1643   YYYZ     217.1632
      XXZZ    -380.2718   XYZZ      67.0337   YYZZ    -409.8988
      XZZZ    -246.7985   YZZZ     199.3976   ZZZZ   -1876.0947
 -----------------------------------------------------------------
Archival summary:
1\1\nid00523\SP\ProcedureUnspecified\BasisUnspecified\22410\meili\SunSep2614:15:052021SunSep2614:15:052021\0\\#,ProcedureUnspecified,BasisUnspecified,\\0,1\O\C,1,1.22885\N,2,1.32564,1,122.271\H,3,1.00735,2,118.127,1,2.28456,0\H,3,1.01665,2,121.187,1,174.452,0\C,2,1.51219,1,120.75,3,-177.703,0\H,6,1.08961,2,106.471,1,81.8941,0\H,6,1.08986,2,110.261,1,-162.134,0\H,6,1.09999,2,112.476,1,-38.3954,0\H,1,2.17005,2,126.554,3,132.57,0\N,10,1.00767,1,118.732,2,174.505,0\H,11,1.00717,10,119.073,1,10.9023,0\C,11,1.32177,10,122.329,1,-170.317,0\O,13,1.22636,11,122.262,10,179.141,0\C,13,1.50787,11,117.246,10,1.85941,0\H,15,1.08906,13,107.814,11,-115.704,0\H,15,1.0913,13,110.279,11,2.09587,0\H,15,1.10002,13,111.592,11,123.947,0\\\@

 Total job time:  17747.14s(wall), 11005.06s(cpu) 
 Sun Sep 26 14:15:06 2021

        *************************************************************
        *                                                           *
        *  Thank you very much for using Q-Chem.  Have a nice day.  *
        *                                                           *
        *************************************************************


