
Running Job 1 of 1 SSI-054GLU-057ARG-2_SMD_TZVPD.in
qchem SSI-054GLU-057ARG-2_SMD_TZVPD.in_17629.0 /tmp/qchem17629/ 0
/global/common/cori/software/qchem/5.2/exe/qcprog.exe_s SSI-054GLU-057ARG-2_SMD_TZVPD.in_17629.0 /tmp/qchem17629/
                  Welcome to Q-Chem
     A Quantum Leap Into The Future Of Chemistry


 Q-Chem 5.2, Q-Chem, Inc., Pleasanton, CA (2019)

 License issued to: National Energy Research Scientific Computing Center

 Yihan Shao,  Zhengting Gan,  E. Epifanovsky,  A. T. B. Gilbert,  M. Wormit,  
 J. Kussmann,  A. W. Lange,  A. Behn,  Jia Deng,  Xintian Feng,  D. Ghosh,  
 M. Goldey,  P. R. Horn,  L. D. Jacobson,  I. Kaliman,  T. Kus,  A. Landau,  
 Jie Liu,  E. I. Proynov,  R. M. Richard,  R. P. Steele,  E. J. Sundstrom,  
 H. L. Woodcock III,  P. M. Zimmerman,  D. Zuev,  B. Albrecht,  E. Alguire,  
 S. A. Baeppler,  D. Barton,  Z. Benda,  Y. A. Bernard,  E. J. Berquist,  
 K. B. Bravaya,  H. Burton,  D. Casanova,  Chun-Min Chang,  Yunqing Chen,  
 A. Chien,  K. D. Closser,  M. P. Coons,  S. Coriani,  S. Dasgupta,  
 A. L. Dempwolff,  M. Diedenhofen,  Hainam Do,  R. G. Edgar,  Po-Tung Fang,  
 S. Faraji,  S. Fatehi,  Qingguo Feng,  K. D. Fenk,  J. Fosso-Tande,  
 J. Gayvert,  Qinghui Ge,  A. Ghysels,  G. Gidofalvi,  J. Gomes,  
 J. Gonthier,  A. Gunina,  D. Hait,  M. W. D. Hanson-Heine,  
 P. H. P. Harbach,  A. W. Hauser,  M. F. Herbst,  J. E. Herr,  
 E. G. Hohenstein,  Z. C. Holden,  Kerwin Hui,  B. C. Huynh,  T.-C. Jagau,  
 Hyunjun Ji,  B. Kaduk,  K. Khistyaev,  Jaehoon Kim,  P. Klunzinger,  K. Koh,  
 D. Kosenkov,  L. Koulias,  T. Kowalczyk,  C. M. Krauter,  A. Kunitsa,  
 Ka Un Lao,  A. Laurent,  K. V. Lawler,  Joonho Lee,  D. Lefrancois,  
 S. Lehtola,  D. S. Levine,  Yi-Pei Li,  You-Sheng Lin,  Fenglai Liu,  
 E. Livshits,  A. Luenser,  P. Manohar,  E. Mansoor,  S. F. Manzer,  
 Shan-Ping Mao,  Yuezhi Mao,  N. Mardirossian,  A. V. Marenich,  
 T. Markovich,  L. A. Martinez-Martinez,  S. A. Maurer,  N. J. Mayhall,  
 S. C. McKenzie,  J.-M. Mewes,  P. Morgante,  A. F. Morrison,  
 J. W. Mullinax,  K. Nanda,  T. S. Nguyen-Beck,  R. Olivares-Amaya,  
 J. A. Parkhill,  Zheng Pei,  T. M. Perrine,  F. Plasser,  P. Pokhilko,  
 S. Prager,  A. Prociuk,  E. Ramos,  D. R. Rehn,  F. Rob,  M. Scheurer,  
 M. Schneider,  N. Sergueev,  S. M. Sharada,  S. Sharma,  D. W. Small,  
 T. Stauch,  T. Stein,  Yu-Chuan Su,  A. J. W. Thom,  A. Tkatchenko,  
 T. Tsuchimochi,  N. M. Tubman,  L. Vogt,  M. L. Vidal,  O. Vydrov,  
 M. A. Watson,  J. Wenzel,  M. de Wergifosse,  T. A. Wesolowski,  A. White,  
 J. Witte,  A. Yamada,  Jun Yang,  K. Yao,  S. Yeganeh,  S. R. Yost,  
 Zhi-Qiang You,  A. Zech,  Igor Ying Zhang,  Xing Zhang,  Yan Zhao,  
 Ying Zhu,  B. R. Brooks,  G. K. L. Chan,  C. J. Cramer,  M. S. Gordon,  
 W. J. Hehre,  A. Klamt,  M. W. Schmidt,  C. D. Sherrill,  D. G. Truhlar,  
 A. Aspuru-Guzik,  R. Baer,  A. T. Bell,  N. A. Besley,  Jeng-Da Chai,  
 A. E. DePrince, III,  R. A. DiStasio Jr.,  A. Dreuw,  B. D. Dunietz,  
 T. R. Furlani,  Chao-Ping Hsu,  Yousung Jung,  Jing Kong,  D. S. Lambrecht,  
 WanZhen Liang,  C. Ochsenfeld,  V. A. Rassolov,  L. V. Slipchenko,  
 J. E. Subotnik,  T. Van Voorhis,  J. M. Herbert,  A. I. Krylov,  
 P. M. W. Gill,  M. Head-Gordon

 Contributors to earlier versions of Q-Chem not listed above: 
 R. D. Adamson,  B. Austin,  J. Baker,  G. J. O. Beran,  K. Brandhorst,  
 S. T. Brown,  E. F. C. Byrd,  A. K. Chakraborty,  C.-L. Cheng,  
 Siu Hung Chien,  D. M. Chipman,  D. L. Crittenden,  H. Dachsel,  
 R. J. Doerksen,  A. D. Dutoi,  L. Fusti-Molnar,  W. A. Goddard III,  
 A. Golubeva-Zadorozhnaya,  S. R. Gwaltney,  G. Hawkins,  A. Heyden,  
 S. Hirata,  G. Kedziora,  F. J. Keil,  C. Kelley,  Jihan Kim,  R. A. King,  
 R. Z. Khaliullin,  P. P. Korambath,  W. Kurlancheek,  A. M. Lee,  M. S. Lee,  
 S. V. Levchenko,  Ching Yeh Lin,  D. Liotard,  R. C. Lochan,  I. Lotan,  
 P. E. Maslen,  N. Nair,  D. P. O'Neill,  D. Neuhauser,  E. Neuscamman,  
 C. M. Oana,  R. Olson,  B. Peters,  R. Peverati,  P. A. Pieniazek,  
 Y. M. Rhee,  J. Ritchie,  M. A. Rohrdanz,  E. Rosta,  N. J. Russ,  
 H. F. Schaefer III,  N. E. Schultz,  N. Shenvi,  A. C. Simmonett,  A. Sodt,  
 D. Stuck,  K. S. Thanthiriwatte,  V. Vanovschi,  Tao Wang,  A. Warshel,  
 C. F. Williams,  Q. Wu,  X. Xu,  W. Zhang

 Please cite Q-Chem as follows:
 Y. Shao et al., Mol. Phys. 113, 184-215 (2015)
 DOI: 10.1080/00268976.2014.952696

 Q-Chem 5.2.0 for Intel X86 EM64T Linux

 Parts of Q-Chem use Armadillo 8.300.2 (Tropical Shenanigans).
 http://arma.sourceforge.net/

 Q-Chem begins on Sun Sep 26 08:32:55 2021  

Host: cori01
0

     Scratch files written to /tmp/qchem17629//
 May1019 |scratch|qcdevops|jenkins|workspace|build_RNUM -1
Processing $rem in /global/common/cori/software/qchem/5.2/config/preferences:
	 MEM_TOTAL  96000 
NAlpha2: 80
NElect   80
Mult     1
Symmetry turned off for PCM/SM12/SMD calculation

 Q-Chem warning in module libgen/rem_setup.C, line 2803:

 Neither GIA nor STOLL is specified by user. Use STOLL as the default


Checking the input file for inconsistencies... 	...done.

--------------------------------------------------------------
User input:
--------------------------------------------------------------
$comment
SSI-054GLU-057ARG-2.pdb
$end

$molecule
0 1
--
-1 1
C    1.981250681438   -3.289349125925   -0.919529607205
C    1.952250681438   -1.827349125925   -0.503529607205
O    0.967250681438   -1.438349125925    0.148470392795
O    2.897250681438   -1.070349125925   -0.816529607205
H    1.402250681438   -3.899349125925   -0.221529607205
H    3.014250681438   -3.625349125925   -0.887529607205
H    1.599882681438   -3.445529125925   -1.939419607205
--
1 1
C   -1.272749318562    0.641650874075   -0.976529607205
C   -2.049749318562    0.885650874075   -2.267529607205
C   -1.137749318562    1.531650874075    1.311470392795
N   -1.687749318562    1.540650874075    0.106470392795
N   -1.546749318562    2.370650874075    2.244470392795
N   -0.170749318562    0.677650874075    1.585470392795
H   -1.409749318562   -0.398349125925   -0.671529607205
H   -0.213749318562    0.801650874075   -1.187529607205
H   -1.612749318562    0.333650874075   -3.079529607205
H   -1.995749318562    1.946650874075   -2.513529607205
H   -2.409749318562    2.220650874075   -0.076529607205
H   -2.286749318562    3.026650874075    2.048470392795
H   -1.124749318562    2.360650874075    3.159470392795
H    0.135250681438   -0.005349125925    0.887470392795
H    0.253250681438    0.664650874075    2.496470392795
H   -3.098491918562    0.574940874075   -2.150919607205
$end

$rem
JOBTYPE			EDA
EDA2			1
method			wB97X-V
BASIS			def2-TZVPD
XC_GRID			000099000590
NL_GRID			1
UNRESTRICTED		FALSE
MAX_SCF_CYCLES		200
SYMMETRY		FALSE
SYM_IGNORE		TRUE
MEM_STATIC		2000
BASIS_LIN_DEP_THRESH 	6
THRESH 			14
SCF_CONVERGENCE 	8
SCF_PRINT_FRGM 		TRUE
SOLVENT_METHOD          SMD
$end

$SMX
SOLVENT			WATER
$END
--------------------------------------------------------------
 ----------------------------------------------------------------
             Standard Nuclear Orientation (Angstroms)
    I     Atom           X                Y                Z
 ----------------------------------------------------------------
    1      C       1.9812506814    -3.2893491259    -0.9195296072
    2      C       1.9522506814    -1.8273491259    -0.5035296072
    3      O       0.9672506814    -1.4383491259     0.1484703928
    4      O       2.8972506814    -1.0703491259    -0.8165296072
    5      H       1.4022506814    -3.8993491259    -0.2215296072
    6      H       3.0142506814    -3.6253491259    -0.8875296072
    7      H       1.5998826814    -3.4455291259    -1.9394196072
    8      C      -1.2727493186     0.6416508741    -0.9765296072
    9      C      -2.0497493186     0.8856508741    -2.2675296072
   10      C      -1.1377493186     1.5316508741     1.3114703928
   11      N      -1.6877493186     1.5406508741     0.1064703928
   12      N      -1.5467493186     2.3706508741     2.2444703928
   13      N      -0.1707493186     0.6776508741     1.5854703928
   14      H      -1.4097493186    -0.3983491259    -0.6715296072
   15      H      -0.2137493186     0.8016508741    -1.1875296072
   16      H      -1.6127493186     0.3336508741    -3.0795296072
   17      H      -1.9957493186     1.9466508741    -2.5135296072
   18      H      -2.4097493186     2.2206508741    -0.0765296072
   19      H      -2.2867493186     3.0266508741     2.0484703928
   20      H      -1.1247493186     2.3606508741     3.1594703928
   21      H       0.1352506814    -0.0053491259     0.8874703928
   22      H       0.2532506814     0.6646508741     2.4964703928
   23      H      -3.0984919186     0.5749408741    -2.1509196072
 ----------------------------------------------------------------
 Nuclear Repulsion Energy =         537.45012779 hartrees
 There are       40 alpha and       40 beta electrons
 Requested basis set is def2-TZVPD
 There are 197 shells and 493 basis functions

 Total QAlloc Memory Limit  96000 MB
 Mega-Array Size      1956 MB
 MEM_STATIC part      2000 MB
 
 Citation of the SMD model:
 Marenich, A.V.; Cramer, C.J.; Truhlar, D.G.
 J. Phys. Chem. B 2009, 113, 6378-6396.
 iSolventCode=           1
 Solvent: water                                                           
 
 vradii
            1           2           3           4           5           6
    1   1.8500000   1.8500000   1.5200000   1.5200000   1.2000000   1.2000000
            7           8           9          10          11          12
    1   1.2000000   1.8500000   1.8500000   1.8500000   1.8900000   1.8900000
           13          14          15          16          17          18
    1   1.8900000   1.2000000   1.2000000   1.2000000   1.2000000   1.2000000
           19          20          21          22          23
    1   1.2000000   1.2000000   1.2000000   1.2000000   1.2000000
 Changing PCM_VDW_RADII to SMD_RADIUS
 Discretize the solute cavity surface with Lebedev spheres
	Using 110 Lebedev grid points for each H atom
	Using 194 Lebedev grid points for other atoms
	Atomic van der Waals radii will be scaled by 1.20
 Remove points where switching function is < 1.0e-08
 Keep 1720 surface tesserae and discard 1650 interior tesserae
 Molecular Surface Area = 204.289 Angst**2
 A cutoff of  1.0D-14 yielded  16998 shell pairs
 There are    106502 function pairs (    133000 Cartesian)
 Smallest overlap matrix eigenvalue = 6.52E-06

 Scale SEOQF with 1.000000e-01/1.000000e-01/1.000000e-01

 Standard Electronic Orientation quadrupole field applied
 Nucleus-field energy     =     0.0000000099 hartrees

 -----------------------------------------------------------------------
  General SCF calculation program by
  Eric Jon Sundstrom, Paul Horn, Yuezhi Mao, Dmitri Zuev, Alec White,
  David Stuck, Shaama M.S., Shane Yost, Joonho Lee, David Small,
  Daniel Levine, Susi Lehtola, Hugh Burton, Evgeny Epifanovsky
 -----------------------------------------------------------------------
================================================================
                 ALMO-EDA with the EDA2 driver                  
================================================================
 The second-generation ALMO-EDA (for DFT):                      
 P. R. Horn, Y. Mao and M. Head-Gordon, PCCP, 18, 23067 (2016)  
 Decomposition of the frozen energy:                            
 P. R. Horn, Y. Mao and M. Head-Gordon, JCP, 144, 114107 (2016) 
 FERF model for polarization:                                   
 P. R. Horn and M. Head-Gordon, JCP, 143, 114111 (2015)         
Using eda2 option set 1
Option set summary: Frozen orbital wavefunction, initial wavefunction decomposition, and nDQ polarization.
--------------------------------
Printing EDA Options
--------------------------------
eda_child_super_basis      0
fragmo_guess_mode          0
child_mp                   1
child_mp_orders            232
cls_elec                   1
cls_disp                   0
scfmi_mode                 1
scfmi_occs                 0
scfmi_virts                0
frz_relax                  0
frz_relax_method           0
dc_pen_start               0
dc_pen_conv                0
dc_pen_increment           0
dc_pen_steps               0
dc_pen_thresh_factor       0
dc_pen_pre_newton_thresh   0
frz_ortho_decomp           1
frz_ortho_decomp_conv      6
frgm_method                2
scfmi_freeze_ss            0
separate_rehyb             0
plot_diff_den              0
eda_nocv                   0
eda_vct_relax              1
disp_free_x                0
disp_free_c                0
eda_bsse                   0
eda_pct_a                  0
eda_covp                   0
--------------------------------
Attempting to make child job directory: /tmp/qchem17629//Frg1/
Attempting to make child job directory: /tmp/qchem17629//Frg2/
Creating input file /tmp/qchem17629/Frg1.input
using default PutDataFrgm: nothing
calling putenv with: QCSCRATCH=/tmp/qchem17629/ 
calling putenv with: QCLOCALSCR=/tmp/qchem17629/ 
Spawning Job For Fragment 0
                  Welcome to Q-Chem
     A Quantum Leap Into The Future Of Chemistry


 Q-Chem 5.2, Q-Chem, Inc., Pleasanton, CA (2019)

 License issued to: National Energy Research Scientific Computing Center

 Yihan Shao,  Zhengting Gan,  E. Epifanovsky,  A. T. B. Gilbert,  M. Wormit,  
 J. Kussmann,  A. W. Lange,  A. Behn,  Jia Deng,  Xintian Feng,  D. Ghosh,  
 M. Goldey,  P. R. Horn,  L. D. Jacobson,  I. Kaliman,  T. Kus,  A. Landau,  
 Jie Liu,  E. I. Proynov,  R. M. Richard,  R. P. Steele,  E. J. Sundstrom,  
 H. L. Woodcock III,  P. M. Zimmerman,  D. Zuev,  B. Albrecht,  E. Alguire,  
 S. A. Baeppler,  D. Barton,  Z. Benda,  Y. A. Bernard,  E. J. Berquist,  
 K. B. Bravaya,  H. Burton,  D. Casanova,  Chun-Min Chang,  Yunqing Chen,  
 A. Chien,  K. D. Closser,  M. P. Coons,  S. Coriani,  S. Dasgupta,  
 A. L. Dempwolff,  M. Diedenhofen,  Hainam Do,  R. G. Edgar,  Po-Tung Fang,  
 S. Faraji,  S. Fatehi,  Qingguo Feng,  K. D. Fenk,  J. Fosso-Tande,  
 J. Gayvert,  Qinghui Ge,  A. Ghysels,  G. Gidofalvi,  J. Gomes,  
 J. Gonthier,  A. Gunina,  D. Hait,  M. W. D. Hanson-Heine,  
 P. H. P. Harbach,  A. W. Hauser,  M. F. Herbst,  J. E. Herr,  
 E. G. Hohenstein,  Z. C. Holden,  Kerwin Hui,  B. C. Huynh,  T.-C. Jagau,  
 Hyunjun Ji,  B. Kaduk,  K. Khistyaev,  Jaehoon Kim,  P. Klunzinger,  K. Koh,  
 D. Kosenkov,  L. Koulias,  T. Kowalczyk,  C. M. Krauter,  A. Kunitsa,  
 Ka Un Lao,  A. Laurent,  K. V. Lawler,  Joonho Lee,  D. Lefrancois,  
 S. Lehtola,  D. S. Levine,  Yi-Pei Li,  You-Sheng Lin,  Fenglai Liu,  
 E. Livshits,  A. Luenser,  P. Manohar,  E. Mansoor,  S. F. Manzer,  
 Shan-Ping Mao,  Yuezhi Mao,  N. Mardirossian,  A. V. Marenich,  
 T. Markovich,  L. A. Martinez-Martinez,  S. A. Maurer,  N. J. Mayhall,  
 S. C. McKenzie,  J.-M. Mewes,  P. Morgante,  A. F. Morrison,  
 J. W. Mullinax,  K. Nanda,  T. S. Nguyen-Beck,  R. Olivares-Amaya,  
 J. A. Parkhill,  Zheng Pei,  T. M. Perrine,  F. Plasser,  P. Pokhilko,  
 S. Prager,  A. Prociuk,  E. Ramos,  D. R. Rehn,  F. Rob,  M. Scheurer,  
 M. Schneider,  N. Sergueev,  S. M. Sharada,  S. Sharma,  D. W. Small,  
 T. Stauch,  T. Stein,  Yu-Chuan Su,  A. J. W. Thom,  A. Tkatchenko,  
 T. Tsuchimochi,  N. M. Tubman,  L. Vogt,  M. L. Vidal,  O. Vydrov,  
 M. A. Watson,  J. Wenzel,  M. de Wergifosse,  T. A. Wesolowski,  A. White,  
 J. Witte,  A. Yamada,  Jun Yang,  K. Yao,  S. Yeganeh,  S. R. Yost,  
 Zhi-Qiang You,  A. Zech,  Igor Ying Zhang,  Xing Zhang,  Yan Zhao,  
 Ying Zhu,  B. R. Brooks,  G. K. L. Chan,  C. J. Cramer,  M. S. Gordon,  
 W. J. Hehre,  A. Klamt,  M. W. Schmidt,  C. D. Sherrill,  D. G. Truhlar,  
 A. Aspuru-Guzik,  R. Baer,  A. T. Bell,  N. A. Besley,  Jeng-Da Chai,  
 A. E. DePrince, III,  R. A. DiStasio Jr.,  A. Dreuw,  B. D. Dunietz,  
 T. R. Furlani,  Chao-Ping Hsu,  Yousung Jung,  Jing Kong,  D. S. Lambrecht,  
 WanZhen Liang,  C. Ochsenfeld,  V. A. Rassolov,  L. V. Slipchenko,  
 J. E. Subotnik,  T. Van Voorhis,  J. M. Herbert,  A. I. Krylov,  
 P. M. W. Gill,  M. Head-Gordon

 Contributors to earlier versions of Q-Chem not listed above: 
 R. D. Adamson,  B. Austin,  J. Baker,  G. J. O. Beran,  K. Brandhorst,  
 S. T. Brown,  E. F. C. Byrd,  A. K. Chakraborty,  C.-L. Cheng,  
 Siu Hung Chien,  D. M. Chipman,  D. L. Crittenden,  H. Dachsel,  
 R. J. Doerksen,  A. D. Dutoi,  L. Fusti-Molnar,  W. A. Goddard III,  
 A. Golubeva-Zadorozhnaya,  S. R. Gwaltney,  G. Hawkins,  A. Heyden,  
 S. Hirata,  G. Kedziora,  F. J. Keil,  C. Kelley,  Jihan Kim,  R. A. King,  
 R. Z. Khaliullin,  P. P. Korambath,  W. Kurlancheek,  A. M. Lee,  M. S. Lee,  
 S. V. Levchenko,  Ching Yeh Lin,  D. Liotard,  R. C. Lochan,  I. Lotan,  
 P. E. Maslen,  N. Nair,  D. P. O'Neill,  D. Neuhauser,  E. Neuscamman,  
 C. M. Oana,  R. Olson,  B. Peters,  R. Peverati,  P. A. Pieniazek,  
 Y. M. Rhee,  J. Ritchie,  M. A. Rohrdanz,  E. Rosta,  N. J. Russ,  
 H. F. Schaefer III,  N. E. Schultz,  N. Shenvi,  A. C. Simmonett,  A. Sodt,  
 D. Stuck,  K. S. Thanthiriwatte,  V. Vanovschi,  Tao Wang,  A. Warshel,  
 C. F. Williams,  Q. Wu,  X. Xu,  W. Zhang

 Please cite Q-Chem as follows:
 Y. Shao et al., Mol. Phys. 113, 184-215 (2015)
 DOI: 10.1080/00268976.2014.952696

 Q-Chem 5.2.0 for Intel X86 EM64T Linux

 Parts of Q-Chem use Armadillo 8.300.2 (Tropical Shenanigans).
 http://arma.sourceforge.net/

 Q-Chem begins on Sun Sep 26 08:33:01 2021  

Host: cori01
0

     Scratch files written to /tmp/qchem17629//Frg1//
 May1019 |scratch|qcdevops|jenkins|workspace|build_RNUM -1
Processing $rem in /global/common/cori/software/qchem/5.2/config/preferences:
	 MEM_TOTAL  96000 
NAlpha2: 32
NElect   32
Mult     1
Symmetry turned off for PCM/SM12/SMD calculation

Checking the input file for inconsistencies... 	...done.

--------------------------------------------------------------
User input:
--------------------------------------------------------------
$molecule
-1 1
 6	1.9812506814	-3.2893491259	-0.9195296072
 6	1.9522506814	-1.8273491259	-0.5035296072
 8	0.9672506814	-1.4383491259	0.1484703928
 8	2.8972506814	-1.0703491259	-0.8165296072
 1	1.4022506814	-3.8993491259	-0.2215296072
 1	3.0142506814	-3.6253491259	-0.8875296072
 1	1.5998826814	-3.4455291259	-1.9394196072
$end
$rem
EDA2		1
METHOD		WB97X-V
BASIS		DEF2-TZVPD
XC_GRID		000099000590
NL_GRID		1
UNRESTRICTED		FALSE
MAX_SCF_CYCLES		200
SYMMETRY		FALSE
SYM_IGNORE		TRUE
BASIS_LIN_DEP_THRESH		6
THRESH		14
SCF_CONVERGENCE		8
SCF_PRINT_FRGM		TRUE
SOLVENT_METHOD		SMD
!required keywords
JOBTYPE		SP
SYM_IGNORE		TRUE
SUBSYSTEM		TRUE
GEN_SCFMAN		TRUE
CHILD_INSTRUCTION		2
SYM_IGNORE		TRUE
SCFMI		0
RI_K 0		
PARI_K 0		
MIN_PARI_K 0		
IARI_K 0		
OCC_RI_K 0		
PURECART		1111
MEM_STATIC		2000
MEM_TOTAL		96000
GUI		0
CHILD_MP		1
CHILD_MP_ORDERS		232
FRZ_RELAX		0
FRZ_RELAX_METHOD		0
EDA_CLS_ELEC		1
EDA_CLS_DISP		0
FRZ_ORTHO_DECOMP		1
EDA2		FALSE
FRGM_METHOD		FALSE
CIS_N_ROOTS  0
LOCAL_CIS    0
CIS_RLX_DNS  1
$end
$smx
SOLVENT			WATER
$end
--------------------------------------------------------------
 ----------------------------------------------------------------
             Standard Nuclear Orientation (Angstroms)
    I     Atom           X                Y                Z
 ----------------------------------------------------------------
    1      C       1.9812506814    -3.2893491259    -0.9195296072
    2      C       1.9522506814    -1.8273491259    -0.5035296072
    3      O       0.9672506814    -1.4383491259     0.1484703928
    4      O       2.8972506814    -1.0703491259    -0.8165296072
    5      H       1.4022506814    -3.8993491259    -0.2215296072
    6      H       3.0142506814    -3.6253491259    -0.8875296072
    7      H       1.5998826814    -3.4455291259    -1.9394196072
 ----------------------------------------------------------------
 Nuclear Repulsion Energy =         112.90587331 hartrees
 There are       16 alpha and       16 beta electrons
 Requested basis set is def2-TZVPD
 There are 69 shells and 181 basis functions

 Total QAlloc Memory Limit  96000 MB
 Mega-Array Size      1956 MB
 MEM_STATIC part      2000 MB
 
 Citation of the SMD model:
 Marenich, A.V.; Cramer, C.J.; Truhlar, D.G.
 J. Phys. Chem. B 2009, 113, 6378-6396.
 iSolventCode=           1
 Solvent: water                                                           
 
 vradii
            1           2           3           4           5           6
    1   1.8500000   1.8500000   1.5200000   1.5200000   1.2000000   1.2000000
            7
    1   1.2000000
 Changing PCM_VDW_RADII to SMD_RADIUS
 Discretize the solute cavity surface with Lebedev spheres
	Using 110 Lebedev grid points for each H atom
	Using 194 Lebedev grid points for other atoms
	Atomic van der Waals radii will be scaled by 1.20
 Remove points where switching function is < 1.0e-08
 Keep 646 surface tesserae and discard 460 interior tesserae
 Molecular Surface Area = 79.837 Angst**2

                       Distance Matrix (Angstroms)
             C (  1)   C (  2)   O (  3)   O (  4)   H (  5)   H (  6)
   C (  2)  1.520310
   O (  3)  2.365380  1.243644
   O (  4)  2.402837  1.250617  2.188961
   H (  5)  1.092952  2.162223  2.526390  3.254580
   H (  6)  1.086742  2.123230  3.169617  2.558663  1.765553
   H (  7)  1.100004  2.191906  2.964503  2.930107  1.787780  1.771791

 
 A cutoff of  1.0D-14 yielded   2390 shell pairs
 There are     16694 function pairs (     21490 Cartesian)
 Smallest overlap matrix eigenvalue = 1.64E-05

 Scale SEOQF with 1.000000e-01/1.000000e-01/1.000000e-01

 Standard Electronic Orientation quadrupole field applied
 Nucleus-field energy     =     0.0000000138 hartrees
 Guess from superposition of atomic densities
 Warning:  Energy on first SCF cycle will be non-variational
 SAD guess density has 30.625312 electrons

 -----------------------------------------------------------------------
  General SCF calculation program by
  Eric Jon Sundstrom, Paul Horn, Yuezhi Mao, Dmitri Zuev, Alec White,
  David Stuck, Shaama M.S., Shane Yost, Joonho Lee, David Small,
  Daniel Levine, Susi Lehtola, Hugh Burton, Evgeny Epifanovsky
 -----------------------------------------------------------------------
 Exchange:     0.1670 Hartree-Fock + 1.0000 wB97X-V + LR-HF
 Correlation:  1.0000 wB97X-V
 Using Euler-Maclaurin-Lebedev (99,590) quadrature formula
 Nonlocal Correlation:  VV10 with C = 0.0100 and b = 6.00 and scale = 1.00000
 Grid used for NLC:  SG-1 standard quadrature
Energy prior to optimization (guess energy) = -227.764695689432
Begin Timing: Total SCF Calculation
begin iterations for algorithm: DIIS         
the SCF tolerance is set to 1.00e-08
    1    -227.7646956894      1.66e-02     00000 
    2    -225.6406594482      2.49e-02     00000 
    3    -228.6058894784      4.07e-03     00000 
    4    -228.6586340415      1.38e-03     00000 
    5    -228.6645404077      2.50e-04     00000 
    6    -228.6647883052      1.67e-04     00000 
    7    -228.6648606714      5.33e-05     00000 
    8    -228.6648709982      1.32e-05     00000 
    9    -228.6648720909      3.77e-06     00000 
   10    -228.6648721970      1.10e-06     00000 
   11    -228.6648722068      2.05e-07     00000 
   12    -228.6648722071      4.27e-08     00000 
   13    -228.6648722071      9.27e-09     00000 Convergence criterion met
Timing for Total SCF: 262.00s (wall), 503.92s (cpu)
(3)  G-ENP(liq) elect-nuc-pol free energy of system     -228.664872207 a.u.
(4)  G-CDS(liq) cavity-dispersion-solvent structure 
     free energy                                                3.9320 kcal/mol
(6)  G-S(liq) free energy of system                     -228.658606116 a.u.
E_pcm = -0.1309551844
E_cds = 0.0062660907
Multipole orders to be included
        2
        3
computing dipole RHS
computing quadrupole RHS
total number of RHS in solve_reponses: 8
RHS batch sizes
        8
Beginning Block Conjugate Gradient Iterations. Batch Number: 0
computing hessian-vector products by finite difference
              1      7.26e-01     00000 Conjugate Gradient Iteration
computing hessian-vector products by finite difference
              2      2.23e-01     00000 Conjugate Gradient Iteration
computing hessian-vector products by finite difference
              3      6.14e-02     00000 Conjugate Gradient Iteration
computing hessian-vector products by finite difference
              4      1.64e-02     00000 Conjugate Gradient Iteration
computing hessian-vector products by finite difference
              5      2.41e-03     00000 Conjugate Gradient Iteration
computing hessian-vector products by finite difference
              6      6.37e-04     00000 Conjugate Gradient Iteration
computing hessian-vector products by finite difference
              7      9.08e-05     00000 Conjugate Gradient Iteration
computing hessian-vector products by finite difference
              8      1.12e-05     00000 Conjugate Gradient Iteration
computing hessian-vector products by finite difference
              9      1.75e-06     00000 Conjugate Gradient Iteration
computing hessian-vector products by finite difference
             10      1.73e-07     00000 Conjugate Gradient Iteration
computing hessian-vector products by finite difference
             11      2.29e-08     00000 Conjugate Gradient Iteration
computing hessian-vector products by finite difference
             12      2.89e-09     00000 CG Converged
batch 0 complete
Done Calculating Responses
TESTING ORTHOGONALIZATION OF MULTIPOLE BASIS
Multipole virts passed orthogonality test
Virts Per Order
        48
        80
 
 --------------------------------------------------------------
 
                    Orbital Energies (a.u.)
 --------------------------------------------------------------
 
 Alpha MOs
 -- Occupied --
-19.1525 -19.1516 -10.3525 -10.2457  -1.1677  -1.0664  -0.8403  -0.6173
 -0.5491  -0.5459  -0.5421  -0.4818  -0.4637  -0.3655  -0.3578  -0.3440
 -- Virtual --
  0.0670   0.1000   0.1007   0.1073   0.1351   0.1446   0.1468   0.1512
  0.1550   0.1891   0.2062   0.2217   0.2368   0.2384   0.2578   0.2673
  0.2972   0.3143   0.3335   0.3485   0.3575   0.3637   0.3739   0.3777
  0.3819   0.4072   0.4179   0.4221   0.4297   0.4534   0.4664   0.4736
  0.4853   0.4921   0.5047   0.5071   0.5491   0.5669   0.5794   0.6028
  0.6233   0.6270   0.6282   0.6446   0.6492   0.6643   0.6819   0.6866
  0.7058   0.7207   0.7834   0.7942   0.8000   0.8094   0.8366   0.8486
  0.8581   0.9566   0.9819   0.9911   0.9971   1.0224   1.0485   1.0846
  1.1427   1.2195   1.2441   1.2462   1.2610   1.3018   1.3385   1.3773
  1.4182   1.5355   1.5839   1.7384   1.8056   1.8528   1.8589   1.8984
  1.9138   1.9276   1.9442   1.9642   1.9986   2.0944   2.1199   2.1800
  2.1923   2.2034   2.3054   2.3206   2.4119   2.4198   2.4518   2.4664
  2.5482   2.5894   2.6152   2.6460   2.7983   2.8130   2.8434   2.8997
  2.9346   2.9985   3.0566   3.1059   3.2170   3.2394   3.2543   3.2708
  3.3349   3.3485   3.3726   3.3875   3.4115   3.5296   3.5737   3.5811
  3.5929   3.6440   3.6967   3.7238   3.7397   3.8317   3.9703   4.0411
  4.0853   4.1871   4.2904   4.5557   4.6213   4.6666   4.7691   4.7935
  4.9752   5.2965   5.3245   5.3330   5.3425   5.4711   5.6875   5.7494
  5.7992   6.0045   6.2193   6.3129   6.3410   6.5996   6.6017   6.6915
  6.7166   6.7307   6.9329   6.9509   7.0173   7.2166   7.3225   7.3616
  7.3873  22.5861  23.7366  44.1832  44.3490
 --------------------------------------------------------------
 
          Ground-State Mulliken Net Atomic Charges

     Atom                 Charge (a.u.)
  ----------------------------------------
      1 C                    -0.601195
      2 C                     0.510018
      3 O                    -0.764848
      4 O                    -0.779550
      5 H                     0.218261
      6 H                     0.209384
      7 H                     0.207930
  ----------------------------------------
  Sum of atomic charges =    -1.000000

 -----------------------------------------------------------------
                    Cartesian Multipole Moments
 -----------------------------------------------------------------
    Charge (ESU x 10^10)
                -4.8032
    Dipole Moment (Debye)
         X      -9.2467      Y       3.7985      Z       0.9633
       Tot      10.0428
    Quadrupole Moments (Debye-Ang)
        XX     -51.4014     XY       5.7584     YY     -26.4699
        XZ       6.2056     YZ       0.6291     ZZ     -27.0413
    Octopole Moments (Debye-Ang^2)
       XXX    -230.0141    XXY      68.7107    XYY     -47.7900
       YYY     144.5824    XXZ      37.2708    XYZ      -4.0999
       YYZ       9.9759    XZZ     -56.6522    YZZ      50.3299
       ZZZ      41.8984
    Hexadecapole Moments (Debye-Ang^3)
      XXXX    -946.5933   XXXY     354.4239   XXYY    -244.1434
      XYYY     270.7561   YYYY    -744.0266   XXXZ     177.9466
      XXYZ     -54.0340   XYYZ      32.8838   YYYZ     -88.5357
      XXZZ    -158.2748   XYZZ     102.4972   YYZZ    -141.0522
      XZZZ     107.3378   YZZZ     -93.5644   ZZZZ    -106.8245
 -----------------------------------------------------------------
Archival summary:
1\1\nid00569\SP\ProcedureUnspecified\BasisUnspecified\223(1-,1)\meili\SunSep2609:50:212021SunSep2609:50:212021\0\\#,ProcedureUnspecified,BasisUnspecified,\\-1,1\C\O,1,1.24364\O,1,1.25062,2,122.708\C,1,1.52031,2,117.346,3,179.845,0\H,4,1.08674,1,107.902,2,-145.064,0\H,4,1.09295,1,110.601,2,-26.905,0\H,4,1.1,1,112.558,2,95.5743,0\\\@

 Total job time:  4640.63s(wall), 9053.59s(cpu) 
 Sun Sep 26 09:50:21 2021

        *************************************************************
        *                                                           *
        *  Thank you very much for using Q-Chem.  Have a nice day.  *
        *                                                           *
        *************************************************************


Done Job For Fragment 0
calling putenv with: QCSCRATCH=/global/cscratch1/sd/meili 
calling putenv with: QCLOCALSCR=/tmp 
calling putenv with: QCTHREADS=32 
Creating input file /tmp/qchem17629/Frg2.input
using default PutDataFrgm: nothing
calling putenv with: QCSCRATCH=/tmp/qchem17629/ 
calling putenv with: QCLOCALSCR=/tmp/qchem17629/ 
Spawning Job For Fragment 1
                  Welcome to Q-Chem
     A Quantum Leap Into The Future Of Chemistry


 Q-Chem 5.2, Q-Chem, Inc., Pleasanton, CA (2019)

 License issued to: National Energy Research Scientific Computing Center

 Yihan Shao,  Zhengting Gan,  E. Epifanovsky,  A. T. B. Gilbert,  M. Wormit,  
 J. Kussmann,  A. W. Lange,  A. Behn,  Jia Deng,  Xintian Feng,  D. Ghosh,  
 M. Goldey,  P. R. Horn,  L. D. Jacobson,  I. Kaliman,  T. Kus,  A. Landau,  
 Jie Liu,  E. I. Proynov,  R. M. Richard,  R. P. Steele,  E. J. Sundstrom,  
 H. L. Woodcock III,  P. M. Zimmerman,  D. Zuev,  B. Albrecht,  E. Alguire,  
 S. A. Baeppler,  D. Barton,  Z. Benda,  Y. A. Bernard,  E. J. Berquist,  
 K. B. Bravaya,  H. Burton,  D. Casanova,  Chun-Min Chang,  Yunqing Chen,  
 A. Chien,  K. D. Closser,  M. P. Coons,  S. Coriani,  S. Dasgupta,  
 A. L. Dempwolff,  M. Diedenhofen,  Hainam Do,  R. G. Edgar,  Po-Tung Fang,  
 S. Faraji,  S. Fatehi,  Qingguo Feng,  K. D. Fenk,  J. Fosso-Tande,  
 J. Gayvert,  Qinghui Ge,  A. Ghysels,  G. Gidofalvi,  J. Gomes,  
 J. Gonthier,  A. Gunina,  D. Hait,  M. W. D. Hanson-Heine,  
 P. H. P. Harbach,  A. W. Hauser,  M. F. Herbst,  J. E. Herr,  
 E. G. Hohenstein,  Z. C. Holden,  Kerwin Hui,  B. C. Huynh,  T.-C. Jagau,  
 Hyunjun Ji,  B. Kaduk,  K. Khistyaev,  Jaehoon Kim,  P. Klunzinger,  K. Koh,  
 D. Kosenkov,  L. Koulias,  T. Kowalczyk,  C. M. Krauter,  A. Kunitsa,  
 Ka Un Lao,  A. Laurent,  K. V. Lawler,  Joonho Lee,  D. Lefrancois,  
 S. Lehtola,  D. S. Levine,  Yi-Pei Li,  You-Sheng Lin,  Fenglai Liu,  
 E. Livshits,  A. Luenser,  P. Manohar,  E. Mansoor,  S. F. Manzer,  
 Shan-Ping Mao,  Yuezhi Mao,  N. Mardirossian,  A. V. Marenich,  
 T. Markovich,  L. A. Martinez-Martinez,  S. A. Maurer,  N. J. Mayhall,  
 S. C. McKenzie,  J.-M. Mewes,  P. Morgante,  A. F. Morrison,  
 J. W. Mullinax,  K. Nanda,  T. S. Nguyen-Beck,  R. Olivares-Amaya,  
 J. A. Parkhill,  Zheng Pei,  T. M. Perrine,  F. Plasser,  P. Pokhilko,  
 S. Prager,  A. Prociuk,  E. Ramos,  D. R. Rehn,  F. Rob,  M. Scheurer,  
 M. Schneider,  N. Sergueev,  S. M. Sharada,  S. Sharma,  D. W. Small,  
 T. Stauch,  T. Stein,  Yu-Chuan Su,  A. J. W. Thom,  A. Tkatchenko,  
 T. Tsuchimochi,  N. M. Tubman,  L. Vogt,  M. L. Vidal,  O. Vydrov,  
 M. A. Watson,  J. Wenzel,  M. de Wergifosse,  T. A. Wesolowski,  A. White,  
 J. Witte,  A. Yamada,  Jun Yang,  K. Yao,  S. Yeganeh,  S. R. Yost,  
 Zhi-Qiang You,  A. Zech,  Igor Ying Zhang,  Xing Zhang,  Yan Zhao,  
 Ying Zhu,  B. R. Brooks,  G. K. L. Chan,  C. J. Cramer,  M. S. Gordon,  
 W. J. Hehre,  A. Klamt,  M. W. Schmidt,  C. D. Sherrill,  D. G. Truhlar,  
 A. Aspuru-Guzik,  R. Baer,  A. T. Bell,  N. A. Besley,  Jeng-Da Chai,  
 A. E. DePrince, III,  R. A. DiStasio Jr.,  A. Dreuw,  B. D. Dunietz,  
 T. R. Furlani,  Chao-Ping Hsu,  Yousung Jung,  Jing Kong,  D. S. Lambrecht,  
 WanZhen Liang,  C. Ochsenfeld,  V. A. Rassolov,  L. V. Slipchenko,  
 J. E. Subotnik,  T. Van Voorhis,  J. M. Herbert,  A. I. Krylov,  
 P. M. W. Gill,  M. Head-Gordon

 Contributors to earlier versions of Q-Chem not listed above: 
 R. D. Adamson,  B. Austin,  J. Baker,  G. J. O. Beran,  K. Brandhorst,  
 S. T. Brown,  E. F. C. Byrd,  A. K. Chakraborty,  C.-L. Cheng,  
 Siu Hung Chien,  D. M. Chipman,  D. L. Crittenden,  H. Dachsel,  
 R. J. Doerksen,  A. D. Dutoi,  L. Fusti-Molnar,  W. A. Goddard III,  
 A. Golubeva-Zadorozhnaya,  S. R. Gwaltney,  G. Hawkins,  A. Heyden,  
 S. Hirata,  G. Kedziora,  F. J. Keil,  C. Kelley,  Jihan Kim,  R. A. King,  
 R. Z. Khaliullin,  P. P. Korambath,  W. Kurlancheek,  A. M. Lee,  M. S. Lee,  
 S. V. Levchenko,  Ching Yeh Lin,  D. Liotard,  R. C. Lochan,  I. Lotan,  
 P. E. Maslen,  N. Nair,  D. P. O'Neill,  D. Neuhauser,  E. Neuscamman,  
 C. M. Oana,  R. Olson,  B. Peters,  R. Peverati,  P. A. Pieniazek,  
 Y. M. Rhee,  J. Ritchie,  M. A. Rohrdanz,  E. Rosta,  N. J. Russ,  
 H. F. Schaefer III,  N. E. Schultz,  N. Shenvi,  A. C. Simmonett,  A. Sodt,  
 D. Stuck,  K. S. Thanthiriwatte,  V. Vanovschi,  Tao Wang,  A. Warshel,  
 C. F. Williams,  Q. Wu,  X. Xu,  W. Zhang

 Please cite Q-Chem as follows:
 Y. Shao et al., Mol. Phys. 113, 184-215 (2015)
 DOI: 10.1080/00268976.2014.952696

 Q-Chem 5.2.0 for Intel X86 EM64T Linux

 Parts of Q-Chem use Armadillo 8.300.2 (Tropical Shenanigans).
 http://arma.sourceforge.net/

 Q-Chem begins on Sun Sep 26 09:50:22 2021  

Host: cori01
0

     Scratch files written to /tmp/qchem17629//Frg2//
 May1019 |scratch|qcdevops|jenkins|workspace|build_RNUM -1
Processing $rem in /global/common/cori/software/qchem/5.2/config/preferences:
	 MEM_TOTAL  96000 
NAlpha2: 48
NElect   48
Mult     1
Symmetry turned off for PCM/SM12/SMD calculation

Checking the input file for inconsistencies... 	...done.

--------------------------------------------------------------
User input:
--------------------------------------------------------------
$molecule
1 1
 6	-1.2727493186	0.6416508741	-0.9765296072
 6	-2.0497493186	0.8856508741	-2.2675296072
 6	-1.1377493186	1.5316508741	1.3114703928
 7	-1.6877493186	1.5406508741	0.1064703928
 7	-1.5467493186	2.3706508741	2.2444703928
 7	-0.1707493186	0.6776508741	1.5854703928
 1	-1.4097493186	-0.3983491259	-0.6715296072
 1	-0.2137493186	0.8016508741	-1.1875296072
 1	-1.6127493186	0.3336508741	-3.0795296072
 1	-1.9957493186	1.9466508741	-2.5135296072
 1	-2.4097493186	2.2206508741	-0.0765296072
 1	-2.2867493186	3.0266508741	2.0484703928
 1	-1.1247493186	2.3606508741	3.1594703928
 1	0.1352506814	-0.0053491259	0.8874703928
 1	0.2532506814	0.6646508741	2.4964703928
 1	-3.0984919186	0.5749408741	-2.1509196072
$end
$rem
EDA2		1
METHOD		WB97X-V
BASIS		DEF2-TZVPD
XC_GRID		000099000590
NL_GRID		1
UNRESTRICTED		FALSE
MAX_SCF_CYCLES		200
SYMMETRY		FALSE
SYM_IGNORE		TRUE
BASIS_LIN_DEP_THRESH		6
THRESH		14
SCF_CONVERGENCE		8
SCF_PRINT_FRGM		TRUE
SOLVENT_METHOD		SMD
!required keywords
JOBTYPE		SP
SYM_IGNORE		TRUE
SUBSYSTEM		TRUE
GEN_SCFMAN		TRUE
CHILD_INSTRUCTION		2
SYM_IGNORE		TRUE
SCFMI		0
RI_K 0		
PARI_K 0		
MIN_PARI_K 0		
IARI_K 0		
OCC_RI_K 0		
PURECART		1111
MEM_STATIC		2000
MEM_TOTAL		96000
GUI		0
CHILD_MP		1
CHILD_MP_ORDERS		232
FRZ_RELAX		0
FRZ_RELAX_METHOD		0
EDA_CLS_ELEC		1
EDA_CLS_DISP		0
FRZ_ORTHO_DECOMP		1
EDA2		FALSE
FRGM_METHOD		FALSE
CIS_N_ROOTS  0
LOCAL_CIS    0
CIS_RLX_DNS  1
$end
$smx
SOLVENT			WATER
$end
--------------------------------------------------------------
 ----------------------------------------------------------------
             Standard Nuclear Orientation (Angstroms)
    I     Atom           X                Y                Z
 ----------------------------------------------------------------
    1      C      -1.2727493186     0.6416508741    -0.9765296072
    2      C      -2.0497493186     0.8856508741    -2.2675296072
    3      C      -1.1377493186     1.5316508741     1.3114703928
    4      N      -1.6877493186     1.5406508741     0.1064703928
    5      N      -1.5467493186     2.3706508741     2.2444703928
    6      N      -0.1707493186     0.6776508741     1.5854703928
    7      H      -1.4097493186    -0.3983491259    -0.6715296072
    8      H      -0.2137493186     0.8016508741    -1.1875296072
    9      H      -1.6127493186     0.3336508741    -3.0795296072
   10      H      -1.9957493186     1.9466508741    -2.5135296072
   11      H      -2.4097493186     2.2206508741    -0.0765296072
   12      H      -2.2867493186     3.0266508741     2.0484703928
   13      H      -1.1247493186     2.3606508741     3.1594703928
   14      H       0.1352506814    -0.0053491259     0.8874703928
   15      H       0.2532506814     0.6646508741     2.4964703928
   16      H      -3.0984919186     0.5749408741    -2.1509196072
 ----------------------------------------------------------------
 Nuclear Repulsion Energy =         256.58211448 hartrees
 There are       24 alpha and       24 beta electrons
 Requested basis set is def2-TZVPD
 There are 128 shells and 312 basis functions

 Total QAlloc Memory Limit  96000 MB
 Mega-Array Size      1956 MB
 MEM_STATIC part      2000 MB
 
 Citation of the SMD model:
 Marenich, A.V.; Cramer, C.J.; Truhlar, D.G.
 J. Phys. Chem. B 2009, 113, 6378-6396.
 iSolventCode=           1
 Solvent: water                                                           
 
 vradii
            1           2           3           4           5           6
    1   1.8500000   1.8500000   1.8500000   1.8900000   1.8900000   1.8900000
            7           8           9          10          11          12
    1   1.2000000   1.2000000   1.2000000   1.2000000   1.2000000   1.2000000
           13          14          15          16
    1   1.2000000   1.2000000   1.2000000   1.2000000
 Changing PCM_VDW_RADII to SMD_RADIUS
 Discretize the solute cavity surface with Lebedev spheres
	Using 110 Lebedev grid points for each H atom
	Using 194 Lebedev grid points for other atoms
	Atomic van der Waals radii will be scaled by 1.20
 Remove points where switching function is < 1.0e-08
 Keep 1110 surface tesserae and discard 1154 interior tesserae
 Molecular Surface Area = 133.257 Angst**2
 A cutoff of  1.0D-14 yielded   7894 shell pairs
 There are     47544 function pairs (     59242 Cartesian)
 Smallest overlap matrix eigenvalue = 7.88E-06

 Scale SEOQF with 1.000000e-01/1.000000e-01/1.000000e-01

 Standard Electronic Orientation quadrupole field applied
 Nucleus-field energy     =    -0.0000000039 hartrees
 Guess from superposition of atomic densities
 Warning:  Energy on first SCF cycle will be non-variational
 SAD guess density has 48.375862 electrons

 -----------------------------------------------------------------------
  General SCF calculation program by
  Eric Jon Sundstrom, Paul Horn, Yuezhi Mao, Dmitri Zuev, Alec White,
  David Stuck, Shaama M.S., Shane Yost, Joonho Lee, David Small,
  Daniel Levine, Susi Lehtola, Hugh Burton, Evgeny Epifanovsky
 -----------------------------------------------------------------------
 Exchange:     0.1670 Hartree-Fock + 1.0000 wB97X-V + LR-HF
 Correlation:  1.0000 wB97X-V
 Using Euler-Maclaurin-Lebedev (99,590) quadrature formula
 Nonlocal Correlation:  VV10 with C = 0.0100 and b = 6.00 and scale = 1.00000
 Grid used for NLC:  SG-1 standard quadrature
Energy prior to optimization (guess energy) = -284.037052921984
Begin Timing: Total SCF Calculation
begin iterations for algorithm: DIIS         
the SCF tolerance is set to 1.00e-08
    1    -284.0370529220      6.61e-03     00000 
    2    -284.2792620196      5.19e-03     00000 
    3    -284.5249622134      3.05e-04     00000 
    4    -284.5262224550      1.59e-04     00000 
    5    -284.5265333693      4.48e-05     00000 
    6    -284.5265602233      1.83e-05     00000 
    7    -284.5265646229      3.23e-06     00000 
    8    -284.5265649181      8.98e-07     00000 
    9    -284.5265649381      4.38e-07     00000 
   10    -284.5265649426      1.07e-07     00000 
   11    -284.5265649430      5.65e-08     00000 
   12    -284.5265649430      1.10e-08     00000 
   13    -284.5265649430      1.90e-09     00000 Convergence criterion met
Timing for Total SCF: 1186.00s (wall), 2323.98s (cpu)
(3)  G-ENP(liq) elect-nuc-pol free energy of system     -284.526564943 a.u.
(4)  G-CDS(liq) cavity-dispersion-solvent structure 
     free energy                                                2.7334 kcal/mol
(6)  G-S(liq) free energy of system                     -284.522208936 a.u.
E_pcm = -0.1063204161
E_cds = 0.0043560069
Multipole orders to be included
        2
        3
computing dipole RHS
computing quadrupole RHS
total number of RHS in solve_reponses: 8
RHS batch sizes
        8
Beginning Block Conjugate Gradient Iterations. Batch Number: 0
computing hessian-vector products by finite difference
              1      4.51e-01     00000 Conjugate Gradient Iteration
computing hessian-vector products by finite difference
              2      1.63e-01     00000 Conjugate Gradient Iteration
computing hessian-vector products by finite difference
              3      4.91e-02     00000 Conjugate Gradient Iteration
computing hessian-vector products by finite difference
              4      1.44e-02     00000 Conjugate Gradient Iteration
computing hessian-vector products by finite difference
              5      2.35e-03     00000 Conjugate Gradient Iteration
computing hessian-vector products by finite difference
              6      4.20e-04     00000 Conjugate Gradient Iteration
computing hessian-vector products by finite difference
              7      6.96e-05     00000 Conjugate Gradient Iteration
computing hessian-vector products by finite difference
              8      1.05e-05     00000 Conjugate Gradient Iteration
computing hessian-vector products by finite difference
              9      1.53e-06     00000 Conjugate Gradient Iteration
computing hessian-vector products by finite difference
             10      2.25e-07     00000 Conjugate Gradient Iteration
computing hessian-vector products by finite difference
             11      2.91e-08     00000 Conjugate Gradient Iteration
computing hessian-vector products by finite difference
             12      6.06e-09     00000 CG Converged
batch 0 complete
Done Calculating Responses
TESTING ORTHOGONALIZATION OF MULTIPOLE BASIS
Multipole virts passed orthogonality test
Virts Per Order
           72
          120
 
 --------------------------------------------------------------
 
                    Orbital Energies (a.u.)
 --------------------------------------------------------------
 
 Alpha MOs
 -- Occupied --
-14.4525 -14.4484 -14.4452 -10.4216 -10.3104 -10.2595  -1.1732  -1.0572
 -1.0411  -0.8982  -0.7837  -0.7584  -0.7188  -0.6826  -0.6143  -0.6092
 -0.6057  -0.5748  -0.5523  -0.4981  -0.4704  -0.4678  -0.3990  -0.3749
 -- Virtual --
  0.0594   0.0822   0.0875   0.1033   0.1135   0.1215   0.1275   0.1327
  0.1553   0.1650   0.1686   0.1874   0.1958   0.1979   0.2101   0.2128
  0.2187   0.2253   0.2323   0.2462   0.2559   0.2575   0.2704   0.2732
  0.2744   0.2862   0.2917   0.2974   0.3086   0.3231   0.3296   0.3317
  0.3354   0.3470   0.3493   0.3509   0.3570   0.3587   0.3713   0.3773
  0.3836   0.3886   0.3912   0.4024   0.4046   0.4102   0.4263   0.4294
  0.4366   0.4448   0.4592   0.4602   0.4725   0.4758   0.4842   0.4876
  0.4911   0.5019   0.5061   0.5125   0.5200   0.5265   0.5314   0.5386
  0.5434   0.5516   0.5586   0.5639   0.5702   0.5799   0.5876   0.6020
  0.6049   0.6155   0.6345   0.6599   0.6629   0.6700   0.6787   0.6864
  0.6893   0.7047   0.7150   0.7396   0.7481   0.7642   0.7666   0.7739
  0.7912   0.7967   0.7991   0.8111   0.8246   0.8405   0.8479   0.8550
  0.8613   0.8705   0.8873   0.9048   0.9191   0.9229   0.9337   0.9365
  0.9558   0.9922   1.0033   1.0156   1.0366   1.0509   1.0674   1.0915
  1.1016   1.1135   1.1215   1.1545   1.1657   1.1777   1.1938   1.1990
  1.2119   1.2758   1.2807   1.3184   1.3365   1.3760   1.3925   1.4115
  1.4433   1.4529   1.4679   1.5115   1.5143   1.5529   1.5753   1.5981
  1.6745   1.6849   1.7016   1.7216   1.7577   1.8277   1.8445   1.8826
  1.8849   1.8985   1.9237   1.9316   1.9447   1.9474   1.9697   1.9822
  1.9846   2.0085   2.0530   2.0554   2.0768   2.1201   2.1280   2.1450
  2.1993   2.2129   2.2308   2.2550   2.2610   2.2899   2.3155   2.3326
  2.4055   2.4107   2.4158   2.4379   2.4640   2.5164   2.5510   2.5592
  2.6013   2.6104   2.6171   2.6468   2.6557   2.6830   2.6836   2.7202
  2.7497   2.7644   2.7828   2.8249   2.8359   2.8690   2.8811   2.8977
  2.9089   2.9245   2.9513   2.9740   3.0121   3.0673   3.1201   3.1519
  3.1609   3.1794   3.1920   3.2033   3.2461   3.2562   3.2753   3.3021
  3.3210   3.3400   3.3461   3.3501   3.3975   3.4159   3.4224   3.4291
  3.4800   3.5081   3.5165   3.5575   3.5701   3.6049   3.6188   3.6532
  3.6765   3.7187   3.7297   3.8194   3.9066   3.9121   3.9476   3.9795
  4.0156   4.0720   4.1212   4.1750   4.2009   4.3018   4.3110   4.3304
  4.3365   4.3697   4.3733   4.4228   4.5517   4.5710   4.6283   4.6719
  4.7218   4.8042   4.8492   4.8711   4.8757   4.9677   4.9948   5.0294
  5.0525   5.0735   5.1288   5.1484   5.1523   5.2192   5.2295   5.2315
  5.2986   5.3978   5.4075   5.4264   5.4526   5.4643   5.5117   5.5465
  5.5970   5.6825   5.7334   5.8229   5.8697   5.9314   6.1666   6.2021
  6.4156   6.4964  22.6430  22.8620  23.6901  32.3476  32.5143  32.9163
 --------------------------------------------------------------
 
          Ground-State Mulliken Net Atomic Charges

     Atom                 Charge (a.u.)
  ----------------------------------------
      1 C                    -0.323662
      2 C                    -1.140873
      3 C                     0.388176
      4 N                    -0.078820
      5 N                    -0.303353
      6 N                    -0.273416
      7 H                     0.323153
      8 H                     0.315458
      9 H                     0.286152
     10 H                     0.294396
     11 H                     0.284484
     12 H                     0.248298
     13 H                     0.242900
     14 H                     0.230587
     15 H                     0.230998
     16 H                     0.275523
  ----------------------------------------
  Sum of atomic charges =     1.000000

 -----------------------------------------------------------------
                    Cartesian Multipole Moments
 -----------------------------------------------------------------
    Charge (ESU x 10^10)
                 4.8032
    Dipole Moment (Debye)
         X      -5.5060      Y       7.0670      Z       5.5071
       Tot      10.5160
    Quadrupole Moments (Debye-Ang)
        XX     -24.1798     XY     -15.1208     YY     -19.1570
        XZ      -2.7481     YZ      12.3065     ZZ     -14.6776
    Octopole Moments (Debye-Ang^2)
       XXX     117.3399    XXY     -11.4709    XYY       6.3683
       YYY     -90.9151    XXZ      -1.5213    XYZ     -18.5684
       YYZ      23.0932    XZZ      33.8938    YZZ      -5.7522
       ZZZ      30.0010
    Hexadecapole Moments (Debye-Ang^3)
      XXXX    -460.9813   XXXY     118.0661   XXYY     -68.7261
      XYYY      78.9119   YYYY    -362.4751   XXXZ     -47.1819
      XXYZ       4.0434   XYYZ     -71.2292   YYYZ     -15.1180
      XXZZ    -176.1666   XYZZ      17.3894   YYZZ     -99.8608
      XZZZ     -63.6749   YZZZ      20.0772   ZZZZ    -473.5367
 -----------------------------------------------------------------
Archival summary:
1\1\nid00569\SP\ProcedureUnspecified\BasisUnspecified\3310(1+,1)\meili\SunSep2615:49:542021SunSep2615:49:542021\0\\#,ProcedureUnspecified,BasisUnspecified,\\1,1\N\H,1,1.00855\C,1,1.32462,2,117.832\N,3,1.31889,1,119.856,2,-178.599,0\H,4,1.00492,3,120.402,1,179.907,0\H,4,1.02339,3,120.642,1,-2.44922,0\N,3,1.31973,1,120.672,2,1.36084,0\H,7,1.00768,3,120.388,1,-179.945,0\H,7,1.00814,3,120.246,1,0.205413,0\C,1,1.46742,2,118.79,3,-178.276,0\H,10,1.09161,1,109.1,2,119.12,0\H,10,1.09243,1,109.982,2,-122.142,0\C,10,1.52642,1,112.477,2,-0.535057,0\H,13,1.07472,10,110.483,1,170.403,0\H,13,1.09048,10,108.731,1,52.0342,0\H,13,1.1,10,110.518,1,-69.0931,0\\\@

 Total job time:  21573.70s(wall), 42344.52s(cpu) 
 Sun Sep 26 15:49:56 2021

        *************************************************************
        *                                                           *
        *  Thank you very much for using Q-Chem.  Have a nice day.  *
        *                                                           *
        *************************************************************


Done Job For Fragment 1
calling putenv with: QCSCRATCH=/global/cscratch1/sd/meili 
calling putenv with: QCLOCALSCR=/tmp 
calling putenv with: QCTHREADS=32 
Doing General SCFMI
 Exchange:     0.1670 Hartree-Fock + 1.0000 wB97X-V + LR-HF
 Correlation:  1.0000 wB97X-V
 Using Euler-Maclaurin-Lebedev (99,590) quadrature formula
 Nonlocal Correlation:  VV10 with C = 0.0100 and b = 6.00 and scale = 1.00000
 Grid used for NLC:  SG-1 standard quadrature
performing fock build before subrot guess so that all methods have access
Printing subrot_rss_gen Method Specification:
Occupied Subspace Method is 0
Virtual Subspace Method is 0
Energy of the unrelaxed supersystem initial determinant -513.088020914085
performing fock build before subrot guess so that all methods have access
Printing subrot_rss_gen Method Specification:
Occupied Subspace Method is 0
Virtual Subspace Method is 0
Energy of the unrelaxed supersystem initial determinant w/ solvent -513.191059185591
write pseudocanon occs and virts to disk
write pseudocanon orbital energies to disk
Tolerance of ortho_decomp_scf: 1.00e-06
GDM subspace size: 20
Beginning the Orthogonal Decomposition of the Initial Supersystem Wavefunction
    1    -512.8879273929      8.54e-02     ortho_decomp Preconditoned Steepest Descent
    2    -512.9011000026      2.24e-03     ortho_decomp BFGS Step
    3    -512.9011533609      2.13e-04     ortho_decomp BFGS Step
    4    -512.9011534943      9.51e-06     ortho_decomp BFGS Step
    5    -512.9011534948      3.19e-07     ortho_decomp 00000 Convergence criterion met
 Hartree-Fock
 Hartree-Fock
 Hartree-Fock
Doing General SCFMI
 Exchange:     0.1670 Hartree-Fock + 1.0000 wB97X-V + LR-HF
 Correlation:  1.0000 wB97X-V
 Using Euler-Maclaurin-Lebedev (99,590) quadrature formula
 Nonlocal Correlation:  VV10 with C = 0.0100 and b = 6.00 and scale = 1.00000
 Grid used for NLC:  SG-1 standard quadrature
performing fock build at end of subrot_r(subrot) constructor so that all methods have access
<S^2> of initial wavefunction before polarization iterations 0.0000000000
Beginning iterations for the determination of the polarized wavefunction
Energy prior to optimization (guess energy) = -513.191059185591
Begin Timing: Total SCF Calculation
begin iterations for algorithm: DIIS         
the SCF tolerance is set to 1.00e-08
    1    -513.1910591856      1.65e-04     00000 
    2    -513.1927208080      8.31e-05     00000 
    3    -513.1929335919      5.12e-05     00000 
    4    -513.1930218532      1.59e-05     00000 
    5    -513.1930321128      5.98e-06     00000 
    6    -513.1930345044      2.69e-06     00000 
    7    -513.1930349194      1.03e-06     00000 
    8    -513.1930349924      3.48e-07     00000 
    9    -513.1930349997      1.70e-07     00000 
   10    -513.1930350010      5.24e-08     00000 
   11    -513.1930350012      2.20e-08     00000 
   12    -513.1930350013      9.88e-09     00000 Convergence criterion met
write pseudocanon occs and virts to disk
write pseudocanon orbital energies to disk
Timing for Total SCF: 3619.00s (wall), 7199.76s (cpu)
<S^2> of polarized wavefunction after polarization iterations 0.0000000000
relaxing scfmi constraint to allow all rotations in the entire AO span
Doing General SCFMI
 Exchange:     0.1670 Hartree-Fock + 1.0000 wB97X-V + LR-HF
 Correlation:  1.0000 wB97X-V
 Using Euler-Maclaurin-Lebedev (99,590) quadrature formula
 Nonlocal Correlation:  VV10 with C = 0.0100 and b = 6.00 and scale = 1.00000
 Grid used for NLC:  SG-1 standard quadrature
performing fock build at end of subrot_r(subrot) constructor so that all methods have access
<S^2> of polarized wavefunction before ct-allowed iterations 0.0000000000
Beginning iterations for the determination of the CT-Allowed wavefunction
Energy prior to optimization (guess energy) = -513.193035001266
Begin Timing: Total SCF Calculation
begin iterations for algorithm: DIIS         
the SCF tolerance is set to 1.00e-08
    1    -513.1930350013      1.87e-04     00000 
    2    -513.1978844036      2.96e-05     00000 
    3    -513.1980748398      1.46e-05     00000 
    4    -513.1980921550      6.75e-06     00000 
    5    -513.1980971649      1.55e-06     00000 
    6    -513.1980974386      5.48e-07     00000 
    7    -513.1980974903      2.12e-07     00000 
    8    -513.1980974969      4.72e-08     00000 
    9    -513.1980974976      2.17e-08     00000 
   10    -513.1980974977      8.14e-09     00000 Convergence criterion met
write pseudocanon occs and virts to disk
write pseudocanon orbital energies to disk
Timing for Total SCF: 3021.00s (wall), 6012.53s (cpu)
<S^2> of ct_allowed wavefunction after ct-allowed iterations 0.0000000000

================================
        Results of EDA2         
================================
Basic EDA Quantities
--------------------
Fragment Energies (Ha):
1 -228.6586061164
2 -284.5222089362
--------------------
  E_prp (kJ/mol) = -0.0000
  E_sol (kJ/mol) = 348.4194
  E_frz (kJ/mol) = -351.4519
  E_pol (kJ/mol) = -5.1876
  E_vct (kJ/mol) = -13.2917
  E_int (kJ/mol) = -21.5119
--------------------


Initial Wavefunction Decomposition
--------------------
  --------------------
  Orthogonal Fragment Subspace Decomposition:
  --------------------
     E_elec   (ELEC)   (kJ/mol) = -446.4361
     E_pauli  (PAULI)  (kJ/mol) = 113.9878
     E_disp   (DISP)   (kJ/mol) = -19.0037
     --------------------
     Terms summing to E_pauli:
     --------------------
        E_kep_pauli       (kJ/mol) = 139.1743
        E_disp_free_pauli (kJ/mol) = -25.1865
  --------------------
  Classical Frozen Decomposition:
  --------------------
     E_cls_elec  (CLS ELEC)  (kJ/mol) = -401.2625
     E_cls_pauli (CLS PAULI) (kJ/mol) = 49.8105
    [E_mod_pauli (MOD PAULI) (kJ/mol) = 68.8142 (CLS PAULI - DISP from orthogonal decomposition) ]
  --------------------
--------------------

Simplified EDA Summary (kJ/mol)
--------------------
 PREPARATION     -0.0000
 SOLVATION       348.4194
 FROZEN          -332.4483      (does not include dispersion)
[PAULI           113.9878]     (if this is negligible, then frozen describes electrostatics)
 DISPERSION      -19.0037
 POLARIZATION    -5.1876
 CHARGE TRANSFER -13.2917
 TOTAL           -21.5119     (PRP + SOL + FRZ + DISP + POL + CT)
--------------------
 
 --------------------------------------------------------------
 
                    Orbital Energies (a.u.)
 --------------------------------------------------------------
 
 Alpha MOs
 -- Occupied --
-19.1583 -19.1565 -14.4474 -14.4404 -14.4317 -10.4139 -10.3579 -10.3056
-10.2570 -10.2481  -1.1739  -1.1660  -1.0727  -1.0518  -1.0318  -0.8945
 -0.8434  -0.7788  -0.7524  -0.7135  -0.6782  -0.6315  -0.6079  -0.6011
 -0.5960  -0.5711  -0.5530  -0.5498  -0.5474  -0.5411  -0.4952  -0.4845
 -0.4711  -0.4647  -0.4629  -0.3907  -0.3720  -0.3699  -0.3614  -0.3494
 -- Virtual --
  0.0567   0.0736   0.0822   0.0928   0.1010   0.1044   0.1071   0.1133
  0.1254   0.1294   0.1371   0.1425   0.1435   0.1485   0.1562   0.1602
  0.1730   0.1803   0.1867   0.1944   0.1980   0.2075   0.2103   0.2128
  0.2155   0.2239   0.2308   0.2363   0.2454   0.2481   0.2546   0.2576
  0.2640   0.2677   0.2711   0.2758   0.2833   0.2894   0.2939   0.2954
  0.2993   0.3096   0.3106   0.3166   0.3251   0.3290   0.3338   0.3363
  0.3385   0.3411   0.3461   0.3546   0.3567   0.3622   0.3651   0.3697
  0.3742   0.3759   0.3787   0.3852   0.3884   0.3923   0.3939   0.3978
  0.4066   0.4126   0.4214   0.4244   0.4275   0.4309   0.4386   0.4447
  0.4474   0.4505   0.4578   0.4598   0.4696   0.4712   0.4738   0.4770
  0.4798   0.4871   0.4964   0.4995   0.5020   0.5083   0.5141   0.5190
  0.5227   0.5261   0.5304   0.5348   0.5407   0.5472   0.5508   0.5540
  0.5593   0.5659   0.5669   0.5742   0.5793   0.5880   0.5939   0.5995
  0.6047   0.6125   0.6164   0.6253   0.6307   0.6459   0.6468   0.6522
  0.6562   0.6579   0.6690   0.6760   0.6816   0.6866   0.6930   0.7011
  0.7033   0.7120   0.7191   0.7244   0.7273   0.7399   0.7481   0.7571
  0.7642   0.7700   0.7792   0.7801   0.7899   0.7989   0.8025   0.8038
  0.8086   0.8196   0.8255   0.8278   0.8334   0.8411   0.8484   0.8577
  0.8649   0.8705   0.8761   0.8825   0.8849   0.8980   0.9074   0.9168
  0.9245   0.9290   0.9438   0.9514   0.9569   0.9682   0.9745   0.9905
  1.0006   1.0129   1.0190   1.0221   1.0416   1.0433   1.0542   1.0658
  1.0743   1.0936   1.0984   1.1184   1.1231   1.1383   1.1431   1.1552
  1.1743   1.1778   1.1948   1.2041   1.2128   1.2202   1.2338   1.2420
  1.2519   1.2729   1.2862   1.2929   1.3124   1.3282   1.3384   1.3393
  1.3665   1.3698   1.3830   1.3971   1.4026   1.4200   1.4382   1.4494
  1.4561   1.4740   1.4919   1.5354   1.5379   1.5560   1.5974   1.6122
  1.6287   1.6653   1.6938   1.7019   1.7161   1.7442   1.7673   1.7720
  1.7831   1.8502   1.8789   1.8817   1.8969   1.9037   1.9168   1.9207
  1.9323   1.9396   1.9449   1.9492   1.9649   1.9735   1.9767   1.9925
  1.9980   2.0036   2.0147   2.0225   2.0228   2.0434   2.0558   2.0781
  2.0837   2.1110   2.1239   2.1432   2.1559   2.1682   2.1892   2.2098
  2.2242   2.2375   2.2561   2.2696   2.2796   2.2830   2.2955   2.3314
  2.3403   2.3442   2.3699   2.4045   2.4224   2.4324   2.4555   2.4652
  2.4670   2.4850   2.5058   2.5135   2.5492   2.5589   2.5686   2.5827
  2.5963   2.6090   2.6316   2.6327   2.6430   2.6598   2.6677   2.6715
  2.7057   2.7100   2.7358   2.7484   2.7763   2.8054   2.8135   2.8374
  2.8489   2.8600   2.8721   2.8940   2.9122   2.9183   2.9294   2.9431
  2.9451   2.9617   2.9670   2.9921   3.0008   3.0459   3.0770   3.0860
  3.0932   3.1488   3.1612   3.1742   3.1940   3.2074   3.2164   3.2272
  3.2396   3.2611   3.2764   3.2902   3.2992   3.3044   3.3243   3.3438
  3.3491   3.3558   3.3596   3.3703   3.3771   3.3995   3.4157   3.4217
  3.4338   3.4459   3.4517   3.4637   3.4813   3.5072   3.5289   3.5538
  3.5607   3.5733   3.5991   3.6103   3.6273   3.6329   3.6472   3.6589
  3.6784   3.6941   3.7071   3.7199   3.7334   3.7485   3.7686   3.7935
  3.8438   3.8687   3.9202   3.9417   3.9666   3.9878   4.0069   4.0431
  4.0695   4.0911   4.0981   4.1470   4.1863   4.2193   4.2431   4.3164
  4.3222   4.3335   4.3502   4.3631   4.3804   4.3888   4.4416   4.5603
  4.5728   4.6004   4.6417   4.6524   4.6804   4.6877   4.7322   4.8058
  4.8263   4.8580   4.8732   4.8833   4.9141   4.9776   4.9949   5.0177
  5.0605   5.0831   5.0930   5.1695   5.1745   5.1963   5.2310   5.2535
  5.2544   5.2970   5.3126   5.3312   5.3328   5.3499   5.4086   5.4322
  5.4410   5.4636   5.4744   5.4961   5.5518   5.5705   5.6267   5.6911
  5.7207   5.7559   5.7600   5.8131   5.8491   5.8909   5.9469   6.0343
  6.1860   6.2206   6.2511   6.3455   6.3721   6.4467   6.5143   6.6461
  6.6472   6.7243   6.7400   6.7800   6.9732   6.9937   7.0428   7.2451
  7.3353   7.4019   7.4736  22.5952  22.6528  22.9080  23.7204  23.7676
 32.4272  32.5843  32.9596  44.3131  44.4278
 --------------------------------------------------------------
 
          Ground-State Mulliken Net Atomic Charges

     Atom                 Charge (a.u.)
  ----------------------------------------
      1 C                    -0.730467
      2 C                     0.516952
      3 O                    -0.806068
      4 O                    -0.791074
      5 H                     0.237812
      6 H                     0.232717
      7 H                     0.226961
      8 C                    -0.193034
      9 C                    -1.197016
     10 C                     0.408238
     11 N                    -0.084282
     12 N                    -0.309067
     13 N                    -0.119986
     14 H                     0.292406
     15 H                     0.248972
     16 H                     0.288433
     17 H                     0.302977
     18 H                     0.285271
     19 H                     0.249623
     20 H                     0.245359
     21 H                     0.146747
     22 H                     0.261502
     23 H                     0.287024
  ----------------------------------------
  Sum of atomic charges =     0.000000

 -----------------------------------------------------------------
                    Cartesian Multipole Moments
 -----------------------------------------------------------------
    Charge (ESU x 10^10)
                 0.0000
    Dipole Moment (Debye)
         X     -14.2405      Y      10.3056      Z       6.2024
       Tot      18.6405
    Quadrupole Moments (Debye-Ang)
        XX     -75.4977     XY      -9.3173     YY     -45.7251
        XZ       3.4250     YZ      12.6391     ZZ     -42.5070
    Octopole Moments (Debye-Ang^2)
       XXX    -108.8289    XXY      54.9372    XYY     -38.9704
       YYY      49.3612    XXZ      35.0778    XYZ     -21.8844
       YYZ      31.5261    XZZ     -21.1915    YZZ      42.6158
       ZZZ      70.1350
    Hexadecapole Moments (Debye-Ang^3)
      XXXX   -1404.5865   XXXY     471.5455   XXYY    -312.3066
      XYYY     348.6385   YYYY   -1104.0746   XXXZ     129.0496
      XXYZ     -49.9286   XYYZ     -38.0775   YYYZ    -104.8646
      XXZZ    -336.1557   XYZZ     121.1708   YYZZ    -243.3545
      XZZZ      43.6562   YZZZ     -75.9064   ZZZZ    -588.1488
 -----------------------------------------------------------------
Archival summary:
1\1\nid00569\SP\ProcedureUnspecified\BasisUnspecified\23513\meili\SunSep2619:02:542021SunSep2619:02:542021\0\\#,ProcedureUnspecified,BasisUnspecified,\\0,1\O\C,1,1.24364\O,2,1.25062,1,122.708\C,2,1.52031,1,117.346,3,179.845,0\H,4,1.08674,2,107.902,1,-145.064,0\H,4,1.09295,2,110.601,1,-26.905,0\H,4,1.1,2,112.558,1,95.5743,0\H,1,1.81434,2,145.466,3,5.55848,0\N,8,1.02339,1,160.396,2,-98.1951,0\H,9,1.00492,8,118.915,1,9.16367,0\C,9,1.31889,8,120.642,1,-168.514,0\N,11,1.31973,9,119.472,8,177.59,0\H,12,1.00768,11,120.388,9,0.0155036,0\H,12,1.00814,11,120.246,9,-179.835,0\N,11,1.32462,9,119.856,8,-2.44922,0\H,15,1.00855,11,117.832,9,-178.599,0\C,15,1.46742,11,123.353,9,-0.408267,0\H,17,1.09161,15,109.1,11,-59.0544,0\H,17,1.09243,15,109.982,11,59.6837,0\C,17,1.52642,15,112.477,11,-178.709,0\H,20,1.07472,17,110.483,15,170.403,0\H,20,1.09048,17,108.731,15,52.0342,0\H,20,1.1,17,110.518,15,-69.0931,0\\\@

 Total job time:  37803.02s(wall), 23013.18s(cpu) 
 Sun Sep 26 19:02:58 2021

        *************************************************************
        *                                                           *
        *  Thank you very much for using Q-Chem.  Have a nice day.  *
        *                                                           *
        *************************************************************


