
Running Job 1 of 1 SSI-001HIE-099GLN-1_SMD_TZVPD.in
qchem SSI-001HIE-099GLN-1_SMD_TZVPD.in_53636.0 /tmp/qchem53636/ 0
/global/common/cori/software/qchem/5.2/exe/qcprog.exe_s SSI-001HIE-099GLN-1_SMD_TZVPD.in_53636.0 /tmp/qchem53636/
                  Welcome to Q-Chem
     A Quantum Leap Into The Future Of Chemistry


 Q-Chem 5.2, Q-Chem, Inc., Pleasanton, CA (2019)

 License issued to: National Energy Research Scientific Computing Center

 Yihan Shao,  Zhengting Gan,  E. Epifanovsky,  A. T. B. Gilbert,  M. Wormit,  
 J. Kussmann,  A. W. Lange,  A. Behn,  Jia Deng,  Xintian Feng,  D. Ghosh,  
 M. Goldey,  P. R. Horn,  L. D. Jacobson,  I. Kaliman,  T. Kus,  A. Landau,  
 Jie Liu,  E. I. Proynov,  R. M. Richard,  R. P. Steele,  E. J. Sundstrom,  
 H. L. Woodcock III,  P. M. Zimmerman,  D. Zuev,  B. Albrecht,  E. Alguire,  
 S. A. Baeppler,  D. Barton,  Z. Benda,  Y. A. Bernard,  E. J. Berquist,  
 K. B. Bravaya,  H. Burton,  D. Casanova,  Chun-Min Chang,  Yunqing Chen,  
 A. Chien,  K. D. Closser,  M. P. Coons,  S. Coriani,  S. Dasgupta,  
 A. L. Dempwolff,  M. Diedenhofen,  Hainam Do,  R. G. Edgar,  Po-Tung Fang,  
 S. Faraji,  S. Fatehi,  Qingguo Feng,  K. D. Fenk,  J. Fosso-Tande,  
 J. Gayvert,  Qinghui Ge,  A. Ghysels,  G. Gidofalvi,  J. Gomes,  
 J. Gonthier,  A. Gunina,  D. Hait,  M. W. D. Hanson-Heine,  
 P. H. P. Harbach,  A. W. Hauser,  M. F. Herbst,  J. E. Herr,  
 E. G. Hohenstein,  Z. C. Holden,  Kerwin Hui,  B. C. Huynh,  T.-C. Jagau,  
 Hyunjun Ji,  B. Kaduk,  K. Khistyaev,  Jaehoon Kim,  P. Klunzinger,  K. Koh,  
 D. Kosenkov,  L. Koulias,  T. Kowalczyk,  C. M. Krauter,  A. Kunitsa,  
 Ka Un Lao,  A. Laurent,  K. V. Lawler,  Joonho Lee,  D. Lefrancois,  
 S. Lehtola,  D. S. Levine,  Yi-Pei Li,  You-Sheng Lin,  Fenglai Liu,  
 E. Livshits,  A. Luenser,  P. Manohar,  E. Mansoor,  S. F. Manzer,  
 Shan-Ping Mao,  Yuezhi Mao,  N. Mardirossian,  A. V. Marenich,  
 T. Markovich,  L. A. Martinez-Martinez,  S. A. Maurer,  N. J. Mayhall,  
 S. C. McKenzie,  J.-M. Mewes,  P. Morgante,  A. F. Morrison,  
 J. W. Mullinax,  K. Nanda,  T. S. Nguyen-Beck,  R. Olivares-Amaya,  
 J. A. Parkhill,  Zheng Pei,  T. M. Perrine,  F. Plasser,  P. Pokhilko,  
 S. Prager,  A. Prociuk,  E. Ramos,  D. R. Rehn,  F. Rob,  M. Scheurer,  
 M. Schneider,  N. Sergueev,  S. M. Sharada,  S. Sharma,  D. W. Small,  
 T. Stauch,  T. Stein,  Yu-Chuan Su,  A. J. W. Thom,  A. Tkatchenko,  
 T. Tsuchimochi,  N. M. Tubman,  L. Vogt,  M. L. Vidal,  O. Vydrov,  
 M. A. Watson,  J. Wenzel,  M. de Wergifosse,  T. A. Wesolowski,  A. White,  
 J. Witte,  A. Yamada,  Jun Yang,  K. Yao,  S. Yeganeh,  S. R. Yost,  
 Zhi-Qiang You,  A. Zech,  Igor Ying Zhang,  Xing Zhang,  Yan Zhao,  
 Ying Zhu,  B. R. Brooks,  G. K. L. Chan,  C. J. Cramer,  M. S. Gordon,  
 W. J. Hehre,  A. Klamt,  M. W. Schmidt,  C. D. Sherrill,  D. G. Truhlar,  
 A. Aspuru-Guzik,  R. Baer,  A. T. Bell,  N. A. Besley,  Jeng-Da Chai,  
 A. E. DePrince, III,  R. A. DiStasio Jr.,  A. Dreuw,  B. D. Dunietz,  
 T. R. Furlani,  Chao-Ping Hsu,  Yousung Jung,  Jing Kong,  D. S. Lambrecht,  
 WanZhen Liang,  C. Ochsenfeld,  V. A. Rassolov,  L. V. Slipchenko,  
 J. E. Subotnik,  T. Van Voorhis,  J. M. Herbert,  A. I. Krylov,  
 P. M. W. Gill,  M. Head-Gordon

 Contributors to earlier versions of Q-Chem not listed above: 
 R. D. Adamson,  B. Austin,  J. Baker,  G. J. O. Beran,  K. Brandhorst,  
 S. T. Brown,  E. F. C. Byrd,  A. K. Chakraborty,  C.-L. Cheng,  
 Siu Hung Chien,  D. M. Chipman,  D. L. Crittenden,  H. Dachsel,  
 R. J. Doerksen,  A. D. Dutoi,  L. Fusti-Molnar,  W. A. Goddard III,  
 A. Golubeva-Zadorozhnaya,  S. R. Gwaltney,  G. Hawkins,  A. Heyden,  
 S. Hirata,  G. Kedziora,  F. J. Keil,  C. Kelley,  Jihan Kim,  R. A. King,  
 R. Z. Khaliullin,  P. P. Korambath,  W. Kurlancheek,  A. M. Lee,  M. S. Lee,  
 S. V. Levchenko,  Ching Yeh Lin,  D. Liotard,  R. C. Lochan,  I. Lotan,  
 P. E. Maslen,  N. Nair,  D. P. O'Neill,  D. Neuhauser,  E. Neuscamman,  
 C. M. Oana,  R. Olson,  B. Peters,  R. Peverati,  P. A. Pieniazek,  
 Y. M. Rhee,  J. Ritchie,  M. A. Rohrdanz,  E. Rosta,  N. J. Russ,  
 H. F. Schaefer III,  N. E. Schultz,  N. Shenvi,  A. C. Simmonett,  A. Sodt,  
 D. Stuck,  K. S. Thanthiriwatte,  V. Vanovschi,  Tao Wang,  A. Warshel,  
 C. F. Williams,  Q. Wu,  X. Xu,  W. Zhang

 Please cite Q-Chem as follows:
 Y. Shao et al., Mol. Phys. 113, 184-215 (2015)
 DOI: 10.1080/00268976.2014.952696

 Q-Chem 5.2.0 for Intel X86 EM64T Linux

 Parts of Q-Chem use Armadillo 8.300.2 (Tropical Shenanigans).
 http://arma.sourceforge.net/

 Q-Chem begins on Sun Sep 26 01:23:04 2021  

Host: cori01
0

     Scratch files written to /tmp/qchem53636//
 May1019 |scratch|qcdevops|jenkins|workspace|build_RNUM -1
Processing $rem in /global/common/cori/software/qchem/5.2/config/preferences:
	 MEM_TOTAL  96000 
NAlpha2: 84
NElect   84
Mult     1
Symmetry turned off for PCM/SM12/SMD calculation

 Q-Chem warning in module libgen/rem_setup.C, line 2803:

 Neither GIA nor STOLL is specified by user. Use STOLL as the default


Checking the input file for inconsistencies... 	...done.

--------------------------------------------------------------
User input:
--------------------------------------------------------------
$comment
SSI-001HIE-099GLN-1.pdb
$end

$molecule
0 1
--
0 1
C   -1.355104115204    2.977982160580    0.440705343668
C    1.672895884796    1.222982160580   -0.538294656332
C    0.034895884796    2.415982160580    0.314705343668
C    1.128895884796    2.580982160580    1.105705343668
N    0.400895884796    1.565982160580   -0.708294656332
N    2.135895884796    1.813982160580    0.559705343668
H    2.231895884796    0.588982160580   -1.207294656332
H    3.074895884796    1.689982160580    0.941705343668
H    1.199895884796    3.202982160580    1.990705343668
H   -1.680104115204    3.288982160580   -0.554294656332
H   -1.321104115204    3.878982160580    1.056705343668
H   -2.083804115204    2.256422160580    0.838634343668
--
0 1
C    0.226895884796   -2.162017839420    0.240705343668
C    0.283895884796   -3.491017839420    0.976705343668
C   -1.072104115204   -2.033017839420   -0.518294656332
O   -2.143104115204   -2.033017839420    0.075705343668
N   -0.997104115204   -2.050017839420   -1.840294656332
H    0.298895884796   -1.342017839420    0.955705343668
H    1.065895884796   -2.083017839420   -0.451294656332
H    0.166895884796   -4.301017839420    0.254705343668
H   -0.558104115204   -3.535017839420    1.670705343668
H   -1.848104115204   -2.168017839420   -2.379294656332
H   -0.101104115204   -2.049017839420   -2.299294656332
H    1.216095884796   -3.643137839420    1.540496343668
$end

$rem
JOBTYPE			EDA
EDA2			1
method			wB97X-V
BASIS			def2-TZVPD
XC_GRID			000099000590
NL_GRID			1
UNRESTRICTED		FALSE
MAX_SCF_CYCLES		200
SYMMETRY		FALSE
SYM_IGNORE		TRUE
MEM_STATIC		2000
BASIS_LIN_DEP_THRESH 	6
THRESH 			14
SCF_CONVERGENCE 	8
SCF_PRINT_FRGM 		TRUE
SOLVENT_METHOD          SMD
$end

$SMX
SOLVENT			WATER
$END
--------------------------------------------------------------
 ----------------------------------------------------------------
             Standard Nuclear Orientation (Angstroms)
    I     Atom           X                Y                Z
 ----------------------------------------------------------------
    1      C      -1.3551041152     2.9779821606     0.4407053437
    2      C       1.6728958848     1.2229821606    -0.5382946563
    3      C       0.0348958848     2.4159821606     0.3147053437
    4      C       1.1288958848     2.5809821606     1.1057053437
    5      N       0.4008958848     1.5659821606    -0.7082946563
    6      N       2.1358958848     1.8139821606     0.5597053437
    7      H       2.2318958848     0.5889821606    -1.2072946563
    8      H       3.0748958848     1.6899821606     0.9417053437
    9      H       1.1998958848     3.2029821606     1.9907053437
   10      H      -1.6801041152     3.2889821606    -0.5542946563
   11      H      -1.3211041152     3.8789821606     1.0567053437
   12      H      -2.0838041152     2.2564221606     0.8386343437
   13      C       0.2268958848    -2.1620178394     0.2407053437
   14      C       0.2838958848    -3.4910178394     0.9767053437
   15      C      -1.0721041152    -2.0330178394    -0.5182946563
   16      O      -2.1431041152    -2.0330178394     0.0757053437
   17      N      -0.9971041152    -2.0500178394    -1.8402946563
   18      H       0.2988958848    -1.3420178394     0.9557053437
   19      H       1.0658958848    -2.0830178394    -0.4512946563
   20      H       0.1668958848    -4.3010178394     0.2547053437
   21      H      -0.5581041152    -3.5350178394     1.6707053437
   22      H      -1.8481041152    -2.1680178394    -2.3792946563
   23      H      -0.1011041152    -2.0490178394    -2.2992946563
   24      H       1.2160958848    -3.6431378394     1.5404963437
 ----------------------------------------------------------------
 Nuclear Repulsion Energy =         589.18998686 hartrees
 There are       42 alpha and       42 beta electrons
 Requested basis set is def2-TZVPD
 There are 209 shells and 527 basis functions

 Total QAlloc Memory Limit  96000 MB
 Mega-Array Size      1956 MB
 MEM_STATIC part      2000 MB
 
 Citation of the SMD model:
 Marenich, A.V.; Cramer, C.J.; Truhlar, D.G.
 J. Phys. Chem. B 2009, 113, 6378-6396.
 iSolventCode=           1
 Solvent: water                                                           
 
 vradii
            1           2           3           4           5           6
    1   1.8500000   1.8500000   1.8500000   1.8500000   1.8900000   1.8900000
            7           8           9          10          11          12
    1   1.2000000   1.2000000   1.2000000   1.2000000   1.2000000   1.2000000
           13          14          15          16          17          18
    1   1.8500000   1.8500000   1.8500000   1.5200000   1.8900000   1.2000000
           19          20          21          22          23          24
    1   1.2000000   1.2000000   1.2000000   1.2000000   1.2000000   1.2000000
 Changing PCM_VDW_RADII to SMD_RADIUS
 Discretize the solute cavity surface with Lebedev spheres
	Using 110 Lebedev grid points for each H atom
	Using 194 Lebedev grid points for other atoms
	Atomic van der Waals radii will be scaled by 1.20
 Remove points where switching function is < 1.0e-08
 Keep 1823 surface tesserae and discard 1741 interior tesserae
 Molecular Surface Area = 225.703 Angst**2
 A cutoff of  1.0D-14 yielded  19184 shell pairs
 There are    122410 function pairs (    153972 Cartesian)
 Smallest overlap matrix eigenvalue = 1.64E-06

 Scale SEOQF with 1.000000e-01/1.000000e-01/1.000000e-01

 Standard Electronic Orientation quadrupole field applied
 Nucleus-field energy     =     0.0000000310 hartrees

 -----------------------------------------------------------------------
  General SCF calculation program by
  Eric Jon Sundstrom, Paul Horn, Yuezhi Mao, Dmitri Zuev, Alec White,
  David Stuck, Shaama M.S., Shane Yost, Joonho Lee, David Small,
  Daniel Levine, Susi Lehtola, Hugh Burton, Evgeny Epifanovsky
 -----------------------------------------------------------------------
================================================================
                 ALMO-EDA with the EDA2 driver                  
================================================================
 The second-generation ALMO-EDA (for DFT):                      
 P. R. Horn, Y. Mao and M. Head-Gordon, PCCP, 18, 23067 (2016)  
 Decomposition of the frozen energy:                            
 P. R. Horn, Y. Mao and M. Head-Gordon, JCP, 144, 114107 (2016) 
 FERF model for polarization:                                   
 P. R. Horn and M. Head-Gordon, JCP, 143, 114111 (2015)         
Using eda2 option set 1
Option set summary: Frozen orbital wavefunction, initial wavefunction decomposition, and nDQ polarization.
--------------------------------
Printing EDA Options
--------------------------------
eda_child_super_basis      0
fragmo_guess_mode          0
child_mp                   1
child_mp_orders            232
cls_elec                   1
cls_disp                   0
scfmi_mode                 1
scfmi_occs                 0
scfmi_virts                0
frz_relax                  0
frz_relax_method           0
dc_pen_start               0
dc_pen_conv                0
dc_pen_increment           0
dc_pen_steps               0
dc_pen_thresh_factor       0
dc_pen_pre_newton_thresh   0
frz_ortho_decomp           1
frz_ortho_decomp_conv      6
frgm_method                2
scfmi_freeze_ss            0
separate_rehyb             0
plot_diff_den              0
eda_nocv                   0
eda_vct_relax              1
disp_free_x                0
disp_free_c                0
eda_bsse                   0
eda_pct_a                  0
eda_covp                   0
--------------------------------
Attempting to make child job directory: /tmp/qchem53636//Frg1/
Attempting to make child job directory: /tmp/qchem53636//Frg2/
Creating input file /tmp/qchem53636/Frg1.input
using default PutDataFrgm: nothing
calling putenv with: QCSCRATCH=/tmp/qchem53636/ 
calling putenv with: QCLOCALSCR=/tmp/qchem53636/ 
Spawning Job For Fragment 0
                  Welcome to Q-Chem
     A Quantum Leap Into The Future Of Chemistry


 Q-Chem 5.2, Q-Chem, Inc., Pleasanton, CA (2019)

 License issued to: National Energy Research Scientific Computing Center

 Yihan Shao,  Zhengting Gan,  E. Epifanovsky,  A. T. B. Gilbert,  M. Wormit,  
 J. Kussmann,  A. W. Lange,  A. Behn,  Jia Deng,  Xintian Feng,  D. Ghosh,  
 M. Goldey,  P. R. Horn,  L. D. Jacobson,  I. Kaliman,  T. Kus,  A. Landau,  
 Jie Liu,  E. I. Proynov,  R. M. Richard,  R. P. Steele,  E. J. Sundstrom,  
 H. L. Woodcock III,  P. M. Zimmerman,  D. Zuev,  B. Albrecht,  E. Alguire,  
 S. A. Baeppler,  D. Barton,  Z. Benda,  Y. A. Bernard,  E. J. Berquist,  
 K. B. Bravaya,  H. Burton,  D. Casanova,  Chun-Min Chang,  Yunqing Chen,  
 A. Chien,  K. D. Closser,  M. P. Coons,  S. Coriani,  S. Dasgupta,  
 A. L. Dempwolff,  M. Diedenhofen,  Hainam Do,  R. G. Edgar,  Po-Tung Fang,  
 S. Faraji,  S. Fatehi,  Qingguo Feng,  K. D. Fenk,  J. Fosso-Tande,  
 J. Gayvert,  Qinghui Ge,  A. Ghysels,  G. Gidofalvi,  J. Gomes,  
 J. Gonthier,  A. Gunina,  D. Hait,  M. W. D. Hanson-Heine,  
 P. H. P. Harbach,  A. W. Hauser,  M. F. Herbst,  J. E. Herr,  
 E. G. Hohenstein,  Z. C. Holden,  Kerwin Hui,  B. C. Huynh,  T.-C. Jagau,  
 Hyunjun Ji,  B. Kaduk,  K. Khistyaev,  Jaehoon Kim,  P. Klunzinger,  K. Koh,  
 D. Kosenkov,  L. Koulias,  T. Kowalczyk,  C. M. Krauter,  A. Kunitsa,  
 Ka Un Lao,  A. Laurent,  K. V. Lawler,  Joonho Lee,  D. Lefrancois,  
 S. Lehtola,  D. S. Levine,  Yi-Pei Li,  You-Sheng Lin,  Fenglai Liu,  
 E. Livshits,  A. Luenser,  P. Manohar,  E. Mansoor,  S. F. Manzer,  
 Shan-Ping Mao,  Yuezhi Mao,  N. Mardirossian,  A. V. Marenich,  
 T. Markovich,  L. A. Martinez-Martinez,  S. A. Maurer,  N. J. Mayhall,  
 S. C. McKenzie,  J.-M. Mewes,  P. Morgante,  A. F. Morrison,  
 J. W. Mullinax,  K. Nanda,  T. S. Nguyen-Beck,  R. Olivares-Amaya,  
 J. A. Parkhill,  Zheng Pei,  T. M. Perrine,  F. Plasser,  P. Pokhilko,  
 S. Prager,  A. Prociuk,  E. Ramos,  D. R. Rehn,  F. Rob,  M. Scheurer,  
 M. Schneider,  N. Sergueev,  S. M. Sharada,  S. Sharma,  D. W. Small,  
 T. Stauch,  T. Stein,  Yu-Chuan Su,  A. J. W. Thom,  A. Tkatchenko,  
 T. Tsuchimochi,  N. M. Tubman,  L. Vogt,  M. L. Vidal,  O. Vydrov,  
 M. A. Watson,  J. Wenzel,  M. de Wergifosse,  T. A. Wesolowski,  A. White,  
 J. Witte,  A. Yamada,  Jun Yang,  K. Yao,  S. Yeganeh,  S. R. Yost,  
 Zhi-Qiang You,  A. Zech,  Igor Ying Zhang,  Xing Zhang,  Yan Zhao,  
 Ying Zhu,  B. R. Brooks,  G. K. L. Chan,  C. J. Cramer,  M. S. Gordon,  
 W. J. Hehre,  A. Klamt,  M. W. Schmidt,  C. D. Sherrill,  D. G. Truhlar,  
 A. Aspuru-Guzik,  R. Baer,  A. T. Bell,  N. A. Besley,  Jeng-Da Chai,  
 A. E. DePrince, III,  R. A. DiStasio Jr.,  A. Dreuw,  B. D. Dunietz,  
 T. R. Furlani,  Chao-Ping Hsu,  Yousung Jung,  Jing Kong,  D. S. Lambrecht,  
 WanZhen Liang,  C. Ochsenfeld,  V. A. Rassolov,  L. V. Slipchenko,  
 J. E. Subotnik,  T. Van Voorhis,  J. M. Herbert,  A. I. Krylov,  
 P. M. W. Gill,  M. Head-Gordon

 Contributors to earlier versions of Q-Chem not listed above: 
 R. D. Adamson,  B. Austin,  J. Baker,  G. J. O. Beran,  K. Brandhorst,  
 S. T. Brown,  E. F. C. Byrd,  A. K. Chakraborty,  C.-L. Cheng,  
 Siu Hung Chien,  D. M. Chipman,  D. L. Crittenden,  H. Dachsel,  
 R. J. Doerksen,  A. D. Dutoi,  L. Fusti-Molnar,  W. A. Goddard III,  
 A. Golubeva-Zadorozhnaya,  S. R. Gwaltney,  G. Hawkins,  A. Heyden,  
 S. Hirata,  G. Kedziora,  F. J. Keil,  C. Kelley,  Jihan Kim,  R. A. King,  
 R. Z. Khaliullin,  P. P. Korambath,  W. Kurlancheek,  A. M. Lee,  M. S. Lee,  
 S. V. Levchenko,  Ching Yeh Lin,  D. Liotard,  R. C. Lochan,  I. Lotan,  
 P. E. Maslen,  N. Nair,  D. P. O'Neill,  D. Neuhauser,  E. Neuscamman,  
 C. M. Oana,  R. Olson,  B. Peters,  R. Peverati,  P. A. Pieniazek,  
 Y. M. Rhee,  J. Ritchie,  M. A. Rohrdanz,  E. Rosta,  N. J. Russ,  
 H. F. Schaefer III,  N. E. Schultz,  N. Shenvi,  A. C. Simmonett,  A. Sodt,  
 D. Stuck,  K. S. Thanthiriwatte,  V. Vanovschi,  Tao Wang,  A. Warshel,  
 C. F. Williams,  Q. Wu,  X. Xu,  W. Zhang

 Please cite Q-Chem as follows:
 Y. Shao et al., Mol. Phys. 113, 184-215 (2015)
 DOI: 10.1080/00268976.2014.952696

 Q-Chem 5.2.0 for Intel X86 EM64T Linux

 Parts of Q-Chem use Armadillo 8.300.2 (Tropical Shenanigans).
 http://arma.sourceforge.net/

 Q-Chem begins on Sun Sep 26 01:23:10 2021  

Host: cori01
0

     Scratch files written to /tmp/qchem53636//Frg1//
 May1019 |scratch|qcdevops|jenkins|workspace|build_RNUM -1
Processing $rem in /global/common/cori/software/qchem/5.2/config/preferences:
	 MEM_TOTAL  96000 
NAlpha2: 44
NElect   44
Mult     1
Symmetry turned off for PCM/SM12/SMD calculation

Checking the input file for inconsistencies... 	...done.

--------------------------------------------------------------
User input:
--------------------------------------------------------------
$molecule
0 1
 6	-1.3551041152	2.9779821606	0.4407053437
 6	1.6728958848	1.2229821606	-0.5382946563
 6	0.0348958848	2.4159821606	0.3147053437
 6	1.1288958848	2.5809821606	1.1057053437
 7	0.4008958848	1.5659821606	-0.7082946563
 7	2.1358958848	1.8139821606	0.5597053437
 1	2.2318958848	0.5889821606	-1.2072946563
 1	3.0748958848	1.6899821606	0.9417053437
 1	1.1998958848	3.2029821606	1.9907053437
 1	-1.6801041152	3.2889821606	-0.5542946563
 1	-1.3211041152	3.8789821606	1.0567053437
 1	-2.0838041152	2.2564221606	0.8386343437
$end
$rem
EDA2		1
METHOD		WB97X-V
BASIS		DEF2-TZVPD
XC_GRID		000099000590
NL_GRID		1
UNRESTRICTED		FALSE
MAX_SCF_CYCLES		200
SYMMETRY		FALSE
SYM_IGNORE		TRUE
BASIS_LIN_DEP_THRESH		6
THRESH		14
SCF_CONVERGENCE		8
SCF_PRINT_FRGM		TRUE
SOLVENT_METHOD		SMD
!required keywords
JOBTYPE		SP
SYM_IGNORE		TRUE
SUBSYSTEM		TRUE
GEN_SCFMAN		TRUE
CHILD_INSTRUCTION		2
SYM_IGNORE		TRUE
SCFMI		0
RI_K 0		
PARI_K 0		
MIN_PARI_K 0		
IARI_K 0		
OCC_RI_K 0		
PURECART		1111
MEM_STATIC		2000
MEM_TOTAL		96000
GUI		0
CHILD_MP		1
CHILD_MP_ORDERS		232
FRZ_RELAX		0
FRZ_RELAX_METHOD		0
EDA_CLS_ELEC		1
EDA_CLS_DISP		0
FRZ_ORTHO_DECOMP		1
EDA2		FALSE
FRGM_METHOD		FALSE
CIS_N_ROOTS  0
LOCAL_CIS    0
CIS_RLX_DNS  1
$end
$smx
SOLVENT			WATER
$end
--------------------------------------------------------------
 ----------------------------------------------------------------
             Standard Nuclear Orientation (Angstroms)
    I     Atom           X                Y                Z
 ----------------------------------------------------------------
    1      C      -1.3551041152     2.9779821606     0.4407053437
    2      C       1.6728958848     1.2229821606    -0.5382946563
    3      C       0.0348958848     2.4159821606     0.3147053437
    4      C       1.1288958848     2.5809821606     1.1057053437
    5      N       0.4008958848     1.5659821606    -0.7082946563
    6      N       2.1358958848     1.8139821606     0.5597053437
    7      H       2.2318958848     0.5889821606    -1.2072946563
    8      H       3.0748958848     1.6899821606     0.9417053437
    9      H       1.1998958848     3.2029821606     1.9907053437
   10      H      -1.6801041152     3.2889821606    -0.5542946563
   11      H      -1.3211041152     3.8789821606     1.0567053437
   12      H      -2.0838041152     2.2564221606     0.8386343437
 ----------------------------------------------------------------
 Nuclear Repulsion Energy =         224.41767476 hartrees
 There are       22 alpha and       22 beta electrons
 Requested basis set is def2-TZVPD
 There are 108 shells and 276 basis functions

 Total QAlloc Memory Limit  96000 MB
 Mega-Array Size      1956 MB
 MEM_STATIC part      2000 MB
 
 Citation of the SMD model:
 Marenich, A.V.; Cramer, C.J.; Truhlar, D.G.
 J. Phys. Chem. B 2009, 113, 6378-6396.
 iSolventCode=           1
 Solvent: water                                                           
 
 vradii
            1           2           3           4           5           6
    1   1.8500000   1.8500000   1.8500000   1.8500000   1.8900000   1.8900000
            7           8           9          10          11          12
    1   1.2000000   1.2000000   1.2000000   1.2000000   1.2000000   1.2000000
 Changing PCM_VDW_RADII to SMD_RADIUS
 Discretize the solute cavity surface with Lebedev spheres
	Using 110 Lebedev grid points for each H atom
	Using 194 Lebedev grid points for other atoms
	Atomic van der Waals radii will be scaled by 1.20
 Remove points where switching function is < 1.0e-08
 Keep 902 surface tesserae and discard 922 interior tesserae
 Molecular Surface Area = 116.420 Angst**2

                       Distance Matrix (Angstroms)
             C (  1)   C (  2)   C (  3)   C (  4)   N (  5)   N (  6)
   C (  2)  3.634178
   C (  3)  1.504600  2.198614
   C (  4)  2.601940  2.200644  1.360052
   N (  5)  2.529324  1.328357  1.379487  2.202454
   N (  6)  3.681866  1.330133  2.199234  1.378570  2.163227
   H (  7)  4.614086  1.077960  3.237472  3.245711  2.134500  2.152238
   H (  8)  4.640565  2.091433  3.187759  2.146554  3.144543  1.021284
   H (  9)  2.996857  3.246532  2.187595  1.084043  3.256190  2.202993
   H ( 10)  1.091957  3.938429  2.111520  3.338764  2.706105  4.240103
   H ( 11)  1.091977  4.308410  2.128302  2.773032  3.380899  4.057349
   H ( 12)  1.100000  4.132400  2.188344  3.240078  3.007230  4.251990
             H (  7)   H (  8)   H (  9)   H ( 10)   H ( 11)
   H (  8)  2.557548
   H (  9)  4.257373  2.627774
   H ( 10)  4.797932  5.234963  3.844323
   H ( 11)  5.345428  4.912205  2.772142  1.752798
   H ( 12)  5.058799  5.190729  3.606373  1.780282  1.806092
 
 A cutoff of  1.0D-14 yielded   5734 shell pairs
 There are     38166 function pairs (     48945 Cartesian)
 Smallest overlap matrix eigenvalue = 1.76E-06

 Scale SEOQF with 1.000000e-01/1.000000e-01/1.000000e-01

 Standard Electronic Orientation quadrupole field applied
 Nucleus-field energy     =     0.0000000165 hartrees
 Guess from superposition of atomic densities
 Warning:  Energy on first SCF cycle will be non-variational
 SAD guess density has 43.559167 electrons

 -----------------------------------------------------------------------
  General SCF calculation program by
  Eric Jon Sundstrom, Paul Horn, Yuezhi Mao, Dmitri Zuev, Alec White,
  David Stuck, Shaama M.S., Shane Yost, Joonho Lee, David Small,
  Daniel Levine, Susi Lehtola, Hugh Burton, Evgeny Epifanovsky
 -----------------------------------------------------------------------
 Exchange:     0.1670 Hartree-Fock + 1.0000 wB97X-V + LR-HF
 Correlation:  1.0000 wB97X-V
 Using Euler-Maclaurin-Lebedev (99,590) quadrature formula
 Nonlocal Correlation:  VV10 with C = 0.0100 and b = 6.00 and scale = 1.00000
 Grid used for NLC:  SG-1 standard quadrature
Energy prior to optimization (guess energy) = -265.143715352484
Begin Timing: Total SCF Calculation
begin iterations for algorithm: DIIS         
the SCF tolerance is set to 1.00e-08
    1    -265.1437153525      7.21e-03     00000 
    2    -265.1009432308      7.39e-03     00000 
    3    -265.5673625906      7.28e-04     00000 
    4    -265.5720772985      3.83e-04     00000 
    5    -265.5735013014      1.13e-04     00000 
    6    -265.5736630872      4.21e-05     00000 
    7    -265.5736880626      1.17e-05     00000 
    8    -265.5736907279      3.37e-06     00000 
    9    -265.5736910222      1.67e-06     00000 
   10    -265.5736910731      4.09e-07     00000 
   11    -265.5736910784      7.94e-08     00000 
   12    -265.5736910786      4.04e-08     00000 
   13    -265.5736910786      1.10e-08     00000 
   14    -265.5736910787      4.26e-09     00000 Convergence criterion met
Timing for Total SCF: 885.00s (wall), 1710.49s (cpu)
(3)  G-ENP(liq) elect-nuc-pol free energy of system     -265.573691079 a.u.
(4)  G-CDS(liq) cavity-dispersion-solvent structure 
     free energy                                                2.1199 kcal/mol
(6)  G-S(liq) free energy of system                     -265.570312766 a.u.
E_pcm = -0.0227718703
E_cds = 0.0033783128
Multipole orders to be included
        2
        3
computing dipole RHS
computing quadrupole RHS
total number of RHS in solve_reponses: 8
RHS batch sizes
        8
Beginning Block Conjugate Gradient Iterations. Batch Number: 0
computing hessian-vector products by finite difference
              1      6.32e-01     00000 Conjugate Gradient Iteration
computing hessian-vector products by finite difference
              2      1.88e-01     00000 Conjugate Gradient Iteration
computing hessian-vector products by finite difference
              3      4.39e-02     00000 Conjugate Gradient Iteration
computing hessian-vector products by finite difference
              4      1.16e-02     00000 Conjugate Gradient Iteration
computing hessian-vector products by finite difference
              5      2.37e-03     00000 Conjugate Gradient Iteration
computing hessian-vector products by finite difference
              6      5.17e-04     00000 Conjugate Gradient Iteration
computing hessian-vector products by finite difference
              7      9.76e-05     00000 Conjugate Gradient Iteration
computing hessian-vector products by finite difference
              8      1.60e-05     00000 Conjugate Gradient Iteration
computing hessian-vector products by finite difference
              9      2.63e-06     00000 Conjugate Gradient Iteration
computing hessian-vector products by finite difference
             10      3.85e-07     00000 Conjugate Gradient Iteration
computing hessian-vector products by finite difference
             11      5.46e-08     00000 Conjugate Gradient Iteration
computing hessian-vector products by finite difference
             12      7.98e-09     00000 CG Converged
batch 0 complete
Done Calculating Responses
TESTING ORTHOGONALIZATION OF MULTIPOLE BASIS
Multipole virts passed orthogonality test
Virts Per Order
           66
          110
 
 --------------------------------------------------------------
 
                    Orbital Energies (a.u.)
 --------------------------------------------------------------
 
 Alpha MOs
 -- Occupied --
-14.4598 -14.3856 -10.3167 -10.2842 -10.2831 -10.2580  -1.1509  -0.9928
 -0.8941  -0.8215  -0.7215  -0.6823  -0.6618  -0.5621  -0.5517  -0.5362
 -0.5089  -0.4939  -0.4750  -0.3766  -0.3765  -0.3214
 -- Virtual --
  0.0688   0.0878   0.0977   0.1071   0.1186   0.1301   0.1359   0.1472
  0.1717   0.1736   0.1795   0.1875   0.2019   0.2053   0.2268   0.2424
  0.2478   0.2526   0.2631   0.2640   0.2727   0.2911   0.3001   0.3093
  0.3144   0.3170   0.3230   0.3261   0.3315   0.3399   0.3503   0.3585
  0.3608   0.3691   0.3780   0.3845   0.3962   0.3985   0.4109   0.4178
  0.4210   0.4284   0.4329   0.4514   0.4614   0.4701   0.4721   0.4839
  0.4855   0.4953   0.5011   0.5232   0.5339   0.5452   0.5534   0.5621
  0.5700   0.5729   0.5896   0.5963   0.6091   0.6130   0.6206   0.6305
  0.6524   0.6595   0.6698   0.6859   0.6991   0.7006   0.7064   0.7216
  0.7370   0.7435   0.7638   0.7751   0.7812   0.7881   0.7911   0.7999
  0.8107   0.8174   0.8285   0.8372   0.8684   0.8745   0.8800   0.8901
  0.9166   0.9404   0.9669   0.9868   1.0017   1.0090   1.0204   1.0350
  1.0707   1.0757   1.1097   1.1137   1.1320   1.1636   1.1815   1.2185
  1.2324   1.2395   1.2772   1.3198   1.3463   1.3599   1.3791   1.4332
  1.4493   1.4623   1.5305   1.5585   1.6115   1.6402   1.6546   1.6804
  1.6991   1.7462   1.8002   1.8311   1.8392   1.8623   1.8703   1.8863
  1.9094   1.9494   1.9541   1.9575   1.9743   1.9863   2.0020   2.0133
  2.0255   2.0709   2.0865   2.1340   2.1852   2.2389   2.2607   2.2731
  2.3033   2.3362   2.3854   2.4020   2.4261   2.4539   2.4680   2.5091
  2.5524   2.5796   2.6040   2.6301   2.6417   2.6496   2.6975   2.7211
  2.7469   2.7713   2.7908   2.8312   2.8693   2.8926   2.9034   2.9913
  3.0151   3.0475   3.0631   3.0737   3.0829   3.1276   3.1431   3.1652
  3.1807   3.2093   3.2201   3.2320   3.2702   3.2940   3.3123   3.3390
  3.3533   3.3729   3.3856   3.3998   3.4163   3.4298   3.4737   3.4956
  3.5222   3.5438   3.5705   3.6027   3.6294   3.6650   3.7074   3.7245
  3.7411   3.7893   3.8158   3.8631   3.8674   3.9478   3.9531   4.0401
  4.0824   4.1106   4.1289   4.2376   4.2946   4.3971   4.4344   4.4811
  4.5053   4.5786   4.6135   4.7268   4.7656   4.7904   4.8605   4.8692
  4.9415   4.9645   5.0089   5.0425   5.0453   5.0772   5.1607   5.1981
  5.2337   5.3024   5.3773   5.4447   5.4888   5.5333   5.5823   5.6011
  5.6709   5.6980   5.7552   5.7914   5.8748   6.0302   6.2380   6.2708
 22.6148  22.8691  23.1273  23.3805  32.6512  32.7730
 --------------------------------------------------------------
 
          Ground-State Mulliken Net Atomic Charges

     Atom                 Charge (a.u.)
  ----------------------------------------
      1 C                    -0.808058
      2 C                    -0.266428
      3 C                     0.524847
      4 C                    -0.570511
      5 N                    -0.539273
      6 N                     0.068188
      7 H                     0.345590
      8 H                     0.209674
      9 H                     0.319222
     10 H                     0.242682
     11 H                     0.246663
     12 H                     0.227404
  ----------------------------------------
  Sum of atomic charges =     0.000000

 -----------------------------------------------------------------
                    Cartesian Multipole Moments
 -----------------------------------------------------------------
    Charge (ESU x 10^10)
                -0.0000
    Dipole Moment (Debye)
         X       3.9425      Y       0.6637      Z       3.0241
       Tot       5.0129
    Quadrupole Moments (Debye-Ang)
        XX     -21.2218     XY       3.8283     YY     -32.9808
        XZ       2.2269     YZ       7.6833     ZZ     -35.8588
    Octopole Moments (Debye-Ang^2)
       XXX     -20.2826    XXY     -57.4812    XYY     -19.4943
       YYY    -219.9969    XXZ       1.6588    XYZ       8.8890
       YYZ      12.3593    XZZ     -13.7428    YZZ     -72.9448
       ZZZ     -16.0598
    Hexadecapole Moments (Debye-Ang^3)
      XXXX    -324.6809   XXXY     -11.9829   XXYY    -240.2837
      XYYY     -82.2113   YYYY   -1096.6757   XXXZ      21.2694
      XXYZ      -5.3183   XYYZ      19.2179   YYYZ     -28.3073
      XXZZ     -83.2214   XYZZ     -10.9932   YYZZ    -192.4277
      XZZZ      -3.4001   YZZZ     -64.3607   ZZZZ    -158.9202
 -----------------------------------------------------------------
Archival summary:
1\1\nid00560\SP\ProcedureUnspecified\BasisUnspecified\246\meili\SunSep2605:33:202021SunSep2605:33:202021\0\\#,ProcedureUnspecified,BasisUnspecified,\\0,1\N\C,1,1.32836\H,2,1.07796,1,124.681\N,2,1.33013,1,108.919,3,178.442,0\H,4,1.02128,2,125.09,1,177.403,0\C,4,1.37857,2,108.656,1,-0.873322,0\H,6,1.08404,4,126.494,2,-178.453,0\C,6,1.36005,4,106.842,2,1.0339,0\C,8,1.5046,6,130.473,4,178.287,0\H,9,1.09196,8,107.76,6,137.816,0\H,9,1.09198,8,109.067,6,22.2848,0\H,9,1.1,8,113.408,6,-101.919,0\\\@

 Total job time:  15013.23s(wall), 29238.09s(cpu) 
 Sun Sep 26 05:33:23 2021

        *************************************************************
        *                                                           *
        *  Thank you very much for using Q-Chem.  Have a nice day.  *
        *                                                           *
        *************************************************************


Done Job For Fragment 0
calling putenv with: QCSCRATCH=/global/cscratch1/sd/meili 
calling putenv with: QCLOCALSCR=/tmp 
calling putenv with: QCTHREADS=32 
Creating input file /tmp/qchem53636/Frg2.input
using default PutDataFrgm: nothing
calling putenv with: QCSCRATCH=/tmp/qchem53636/ 
calling putenv with: QCLOCALSCR=/tmp/qchem53636/ 
Spawning Job For Fragment 1
                  Welcome to Q-Chem
     A Quantum Leap Into The Future Of Chemistry


 Q-Chem 5.2, Q-Chem, Inc., Pleasanton, CA (2019)

 License issued to: National Energy Research Scientific Computing Center

 Yihan Shao,  Zhengting Gan,  E. Epifanovsky,  A. T. B. Gilbert,  M. Wormit,  
 J. Kussmann,  A. W. Lange,  A. Behn,  Jia Deng,  Xintian Feng,  D. Ghosh,  
 M. Goldey,  P. R. Horn,  L. D. Jacobson,  I. Kaliman,  T. Kus,  A. Landau,  
 Jie Liu,  E. I. Proynov,  R. M. Richard,  R. P. Steele,  E. J. Sundstrom,  
 H. L. Woodcock III,  P. M. Zimmerman,  D. Zuev,  B. Albrecht,  E. Alguire,  
 S. A. Baeppler,  D. Barton,  Z. Benda,  Y. A. Bernard,  E. J. Berquist,  
 K. B. Bravaya,  H. Burton,  D. Casanova,  Chun-Min Chang,  Yunqing Chen,  
 A. Chien,  K. D. Closser,  M. P. Coons,  S. Coriani,  S. Dasgupta,  
 A. L. Dempwolff,  M. Diedenhofen,  Hainam Do,  R. G. Edgar,  Po-Tung Fang,  
 S. Faraji,  S. Fatehi,  Qingguo Feng,  K. D. Fenk,  J. Fosso-Tande,  
 J. Gayvert,  Qinghui Ge,  A. Ghysels,  G. Gidofalvi,  J. Gomes,  
 J. Gonthier,  A. Gunina,  D. Hait,  M. W. D. Hanson-Heine,  
 P. H. P. Harbach,  A. W. Hauser,  M. F. Herbst,  J. E. Herr,  
 E. G. Hohenstein,  Z. C. Holden,  Kerwin Hui,  B. C. Huynh,  T.-C. Jagau,  
 Hyunjun Ji,  B. Kaduk,  K. Khistyaev,  Jaehoon Kim,  P. Klunzinger,  K. Koh,  
 D. Kosenkov,  L. Koulias,  T. Kowalczyk,  C. M. Krauter,  A. Kunitsa,  
 Ka Un Lao,  A. Laurent,  K. V. Lawler,  Joonho Lee,  D. Lefrancois,  
 S. Lehtola,  D. S. Levine,  Yi-Pei Li,  You-Sheng Lin,  Fenglai Liu,  
 E. Livshits,  A. Luenser,  P. Manohar,  E. Mansoor,  S. F. Manzer,  
 Shan-Ping Mao,  Yuezhi Mao,  N. Mardirossian,  A. V. Marenich,  
 T. Markovich,  L. A. Martinez-Martinez,  S. A. Maurer,  N. J. Mayhall,  
 S. C. McKenzie,  J.-M. Mewes,  P. Morgante,  A. F. Morrison,  
 J. W. Mullinax,  K. Nanda,  T. S. Nguyen-Beck,  R. Olivares-Amaya,  
 J. A. Parkhill,  Zheng Pei,  T. M. Perrine,  F. Plasser,  P. Pokhilko,  
 S. Prager,  A. Prociuk,  E. Ramos,  D. R. Rehn,  F. Rob,  M. Scheurer,  
 M. Schneider,  N. Sergueev,  S. M. Sharada,  S. Sharma,  D. W. Small,  
 T. Stauch,  T. Stein,  Yu-Chuan Su,  A. J. W. Thom,  A. Tkatchenko,  
 T. Tsuchimochi,  N. M. Tubman,  L. Vogt,  M. L. Vidal,  O. Vydrov,  
 M. A. Watson,  J. Wenzel,  M. de Wergifosse,  T. A. Wesolowski,  A. White,  
 J. Witte,  A. Yamada,  Jun Yang,  K. Yao,  S. Yeganeh,  S. R. Yost,  
 Zhi-Qiang You,  A. Zech,  Igor Ying Zhang,  Xing Zhang,  Yan Zhao,  
 Ying Zhu,  B. R. Brooks,  G. K. L. Chan,  C. J. Cramer,  M. S. Gordon,  
 W. J. Hehre,  A. Klamt,  M. W. Schmidt,  C. D. Sherrill,  D. G. Truhlar,  
 A. Aspuru-Guzik,  R. Baer,  A. T. Bell,  N. A. Besley,  Jeng-Da Chai,  
 A. E. DePrince, III,  R. A. DiStasio Jr.,  A. Dreuw,  B. D. Dunietz,  
 T. R. Furlani,  Chao-Ping Hsu,  Yousung Jung,  Jing Kong,  D. S. Lambrecht,  
 WanZhen Liang,  C. Ochsenfeld,  V. A. Rassolov,  L. V. Slipchenko,  
 J. E. Subotnik,  T. Van Voorhis,  J. M. Herbert,  A. I. Krylov,  
 P. M. W. Gill,  M. Head-Gordon

 Contributors to earlier versions of Q-Chem not listed above: 
 R. D. Adamson,  B. Austin,  J. Baker,  G. J. O. Beran,  K. Brandhorst,  
 S. T. Brown,  E. F. C. Byrd,  A. K. Chakraborty,  C.-L. Cheng,  
 Siu Hung Chien,  D. M. Chipman,  D. L. Crittenden,  H. Dachsel,  
 R. J. Doerksen,  A. D. Dutoi,  L. Fusti-Molnar,  W. A. Goddard III,  
 A. Golubeva-Zadorozhnaya,  S. R. Gwaltney,  G. Hawkins,  A. Heyden,  
 S. Hirata,  G. Kedziora,  F. J. Keil,  C. Kelley,  Jihan Kim,  R. A. King,  
 R. Z. Khaliullin,  P. P. Korambath,  W. Kurlancheek,  A. M. Lee,  M. S. Lee,  
 S. V. Levchenko,  Ching Yeh Lin,  D. Liotard,  R. C. Lochan,  I. Lotan,  
 P. E. Maslen,  N. Nair,  D. P. O'Neill,  D. Neuhauser,  E. Neuscamman,  
 C. M. Oana,  R. Olson,  B. Peters,  R. Peverati,  P. A. Pieniazek,  
 Y. M. Rhee,  J. Ritchie,  M. A. Rohrdanz,  E. Rosta,  N. J. Russ,  
 H. F. Schaefer III,  N. E. Schultz,  N. Shenvi,  A. C. Simmonett,  A. Sodt,  
 D. Stuck,  K. S. Thanthiriwatte,  V. Vanovschi,  Tao Wang,  A. Warshel,  
 C. F. Williams,  Q. Wu,  X. Xu,  W. Zhang

 Please cite Q-Chem as follows:
 Y. Shao et al., Mol. Phys. 113, 184-215 (2015)
 DOI: 10.1080/00268976.2014.952696

 Q-Chem 5.2.0 for Intel X86 EM64T Linux

 Parts of Q-Chem use Armadillo 8.300.2 (Tropical Shenanigans).
 http://arma.sourceforge.net/

 Q-Chem begins on Sun Sep 26 05:33:28 2021  

Host: cori01
0

     Scratch files written to /tmp/qchem53636//Frg2//
 May1019 |scratch|qcdevops|jenkins|workspace|build_RNUM -1
Processing $rem in /global/common/cori/software/qchem/5.2/config/preferences:
	 MEM_TOTAL  96000 
NAlpha2: 40
NElect   40
Mult     1
Symmetry turned off for PCM/SM12/SMD calculation

Checking the input file for inconsistencies... 	...done.

--------------------------------------------------------------
User input:
--------------------------------------------------------------
$molecule
0 1
 6	0.2268958848	-2.1620178394	0.2407053437
 6	0.2838958848	-3.4910178394	0.9767053437
 6	-1.0721041152	-2.0330178394	-0.5182946563
 8	-2.1431041152	-2.0330178394	0.0757053437
 7	-0.9971041152	-2.0500178394	-1.8402946563
 1	0.2988958848	-1.3420178394	0.9557053437
 1	1.0658958848	-2.0830178394	-0.4512946563
 1	0.1668958848	-4.3010178394	0.2547053437
 1	-0.5581041152	-3.5350178394	1.6707053437
 1	-1.8481041152	-2.1680178394	-2.3792946563
 1	-0.1011041152	-2.0490178394	-2.2992946563
 1	1.2160958848	-3.6431378394	1.5404963437
$end
$rem
EDA2		1
METHOD		WB97X-V
BASIS		DEF2-TZVPD
XC_GRID		000099000590
NL_GRID		1
UNRESTRICTED		FALSE
MAX_SCF_CYCLES		200
SYMMETRY		FALSE
SYM_IGNORE		TRUE
BASIS_LIN_DEP_THRESH		6
THRESH		14
SCF_CONVERGENCE		8
SCF_PRINT_FRGM		TRUE
SOLVENT_METHOD		SMD
!required keywords
JOBTYPE		SP
SYM_IGNORE		TRUE
SUBSYSTEM		TRUE
GEN_SCFMAN		TRUE
CHILD_INSTRUCTION		2
SYM_IGNORE		TRUE
SCFMI		0
RI_K 0		
PARI_K 0		
MIN_PARI_K 0		
IARI_K 0		
OCC_RI_K 0		
PURECART		1111
MEM_STATIC		2000
MEM_TOTAL		96000
GUI		0
CHILD_MP		1
CHILD_MP_ORDERS		232
FRZ_RELAX		0
FRZ_RELAX_METHOD		0
EDA_CLS_ELEC		1
EDA_CLS_DISP		0
FRZ_ORTHO_DECOMP		1
EDA2		FALSE
FRGM_METHOD		FALSE
CIS_N_ROOTS  0
LOCAL_CIS    0
CIS_RLX_DNS  1
$end
$smx
SOLVENT			WATER
$end
--------------------------------------------------------------
 ----------------------------------------------------------------
             Standard Nuclear Orientation (Angstroms)
    I     Atom           X                Y                Z
 ----------------------------------------------------------------
    1      C       0.2268958848    -2.1620178394     0.2407053437
    2      C       0.2838958848    -3.4910178394     0.9767053437
    3      C      -1.0721041152    -2.0330178394    -0.5182946563
    4      O      -2.1431041152    -2.0330178394     0.0757053437
    5      N      -0.9971041152    -2.0500178394    -1.8402946563
    6      H       0.2988958848    -1.3420178394     0.9557053437
    7      H       1.0658958848    -2.0830178394    -0.4512946563
    8      H       0.1668958848    -4.3010178394     0.2547053437
    9      H      -0.5581041152    -3.5350178394     1.6707053437
   10      H      -1.8481041152    -2.1680178394    -2.3792946563
   11      H      -0.1011041152    -2.0490178394    -2.2992946563
   12      H       1.2160958848    -3.6431378394     1.5404963437
 ----------------------------------------------------------------
 Nuclear Repulsion Energy =         180.55280717 hartrees
 There are       20 alpha and       20 beta electrons
 Requested basis set is def2-TZVPD
 There are 101 shells and 251 basis functions

 Total QAlloc Memory Limit  96000 MB
 Mega-Array Size      1956 MB
 MEM_STATIC part      2000 MB
 
 Citation of the SMD model:
 Marenich, A.V.; Cramer, C.J.; Truhlar, D.G.
 J. Phys. Chem. B 2009, 113, 6378-6396.
 iSolventCode=           1
 Solvent: water                                                           
 
 vradii
            1           2           3           4           5           6
    1   1.8500000   1.8500000   1.8500000   1.5200000   1.8900000   1.2000000
            7           8           9          10          11          12
    1   1.2000000   1.2000000   1.2000000   1.2000000   1.2000000   1.2000000
 Changing PCM_VDW_RADII to SMD_RADIUS
 Discretize the solute cavity surface with Lebedev spheres
	Using 110 Lebedev grid points for each H atom
	Using 194 Lebedev grid points for other atoms
	Atomic van der Waals radii will be scaled by 1.20
 Remove points where switching function is < 1.0e-08
 Keep 921 surface tesserae and discard 819 interior tesserae
 Molecular Surface Area = 109.529 Angst**2

                       Distance Matrix (Angstroms)
             C (  1)   C (  2)   C (  3)   O (  4)   N (  5)   H (  6)
   C (  2)  1.520259
   C (  3)  1.510008  2.489885
   O (  4)  2.379236  2.971177  1.224695
   N (  5)  2.416874  3.413639  1.324235  2.232635
   H (  6)  1.090325  2.149155  2.128332  2.686121  3.162040
   H (  7)  1.090425  2.152480  2.139634  3.252370  2.487243  1.765508
   H (  8)  2.139887  1.091363  2.697494  3.242216  3.287997  3.043765
   H (  9)  2.132195  1.092033  2.704056  2.704118  3.837326  2.460675
   H ( 10)  3.342164  4.190285  2.020822  2.476343  1.014222  4.051433
   H ( 11)  2.563582  3.599967  2.028561  3.132195  1.006726  3.354828
   H ( 12)  2.204924  1.099999  3.473754  4.002789  4.343505  2.545268
             H (  7)   H (  8)   H (  9)   H ( 10)   H ( 11)
   H (  8)  2.495228
   H (  9)  3.041145  1.765627
   H ( 10)  3.495112  3.943079  4.464895
   H ( 11)  2.185898  3.415588  4.263560  1.752875
   H ( 12)  2.534515  1.785185  1.782254  5.189418  4.361219
 
 A cutoff of  1.0D-14 yielded   5052 shell pairs
 There are     31738 function pairs (     39901 Cartesian)
 Smallest overlap matrix eigenvalue = 7.22E-06

 Scale SEOQF with 1.000000e-01/1.000000e-01/1.000000e-01

 Standard Electronic Orientation quadrupole field applied
 Nucleus-field energy     =     0.0000000145 hartrees
 Guess from superposition of atomic densities
 Warning:  Energy on first SCF cycle will be non-variational
 SAD guess density has 39.592240 electrons

 -----------------------------------------------------------------------
  General SCF calculation program by
  Eric Jon Sundstrom, Paul Horn, Yuezhi Mao, Dmitri Zuev, Alec White,
  David Stuck, Shaama M.S., Shane Yost, Joonho Lee, David Small,
  Daniel Levine, Susi Lehtola, Hugh Burton, Evgeny Epifanovsky
 -----------------------------------------------------------------------
 Exchange:     0.1670 Hartree-Fock + 1.0000 wB97X-V + LR-HF
 Correlation:  1.0000 wB97X-V
 Using Euler-Maclaurin-Lebedev (99,590) quadrature formula
 Nonlocal Correlation:  VV10 with C = 0.0100 and b = 6.00 and scale = 1.00000
 Grid used for NLC:  SG-1 standard quadrature
Energy prior to optimization (guess energy) = -248.019758641728
Begin Timing: Total SCF Calculation
begin iterations for algorithm: DIIS         
the SCF tolerance is set to 1.00e-08
    1    -248.0197586417      9.80e-03     00000 
    2    -247.6765484747      1.18e-02     00000 
    3    -248.5523470083      1.83e-03     00000 
    4    -248.5709927594      5.87e-04     00000 
    5    -248.5739583908      1.57e-04     00000 
    6    -248.5742246570      5.61e-05     00000 
    7    -248.5742682454      1.65e-05     00000 
    8    -248.5742735416      4.63e-06     00000 
    9    -248.5742742985      1.63e-06     00000 
   10    -248.5742743536      5.07e-07     00000 
   11    -248.5742743570      1.14e-07     00000 
   12    -248.5742743572      1.62e-08     00000 
   13    -248.5742743572      4.35e-09     00000 Convergence criterion met
Timing for Total SCF: 670.00s (wall), 1316.87s (cpu)
(3)  G-ENP(liq) elect-nuc-pol free energy of system     -248.574274357 a.u.
(4)  G-CDS(liq) cavity-dispersion-solvent structure 
     free energy                                                3.6351 kcal/mol
(6)  G-S(liq) free energy of system                     -248.568481527 a.u.
E_pcm = -0.0293252251
E_cds = 0.0057928298
Multipole orders to be included
        2
        3
computing dipole RHS
computing quadrupole RHS
total number of RHS in solve_reponses: 8
RHS batch sizes
        8
Beginning Block Conjugate Gradient Iterations. Batch Number: 0
computing hessian-vector products by finite difference
              1      5.65e-01     00000 Conjugate Gradient Iteration
computing hessian-vector products by finite difference
              2      1.87e-01     00000 Conjugate Gradient Iteration
computing hessian-vector products by finite difference
              3      5.41e-02     00000 Conjugate Gradient Iteration
computing hessian-vector products by finite difference
              4      1.36e-02     00000 Conjugate Gradient Iteration
computing hessian-vector products by finite difference
              5      1.85e-03     00000 Conjugate Gradient Iteration
computing hessian-vector products by finite difference
              6      3.75e-04     00000 Conjugate Gradient Iteration
computing hessian-vector products by finite difference
              7      5.79e-05     00000 Conjugate Gradient Iteration
computing hessian-vector products by finite difference
              8      1.02e-05     00000 Conjugate Gradient Iteration
computing hessian-vector products by finite difference
              9      1.77e-06     00000 Conjugate Gradient Iteration
computing hessian-vector products by finite difference
             10      5.48e-07     00000 Conjugate Gradient Iteration
computing hessian-vector products by finite difference
             11      9.38e-08     00000 Conjugate Gradient Iteration
computing hessian-vector products by finite difference
             12      2.69e-08     00000 Conjugate Gradient Iteration
computing hessian-vector products by finite difference
             13      3.83e-09     00000 CG Converged
batch 0 complete
Done Calculating Responses
TESTING ORTHOGONALIZATION OF MULTIPOLE BASIS
Multipole virts passed orthogonality test
Virts Per Order
           60
          100
 
 --------------------------------------------------------------
 
                    Orbital Energies (a.u.)
 --------------------------------------------------------------
 
 Alpha MOs
 -- Occupied --
-19.1827 -14.4270 -10.3731 -10.2662 -10.2551  -1.1787  -1.0421  -0.9069
 -0.7746  -0.6987  -0.6475  -0.6030  -0.5693  -0.5396  -0.5198  -0.4769
 -0.4595  -0.4439  -0.3838  -0.3734
 -- Virtual --
  0.0655   0.0886   0.0941   0.0985   0.1126   0.1328   0.1374   0.1442
  0.1487   0.1702   0.1866   0.1942   0.1984   0.2122   0.2248   0.2341
  0.2392   0.2581   0.2657   0.2738   0.2844   0.2895   0.3075   0.3098
  0.3165   0.3317   0.3353   0.3413   0.3462   0.3563   0.3598   0.3715
  0.3731   0.3832   0.3959   0.4013   0.4054   0.4085   0.4195   0.4269
  0.4448   0.4499   0.4565   0.4648   0.4757   0.4872   0.4942   0.4991
  0.5071   0.5197   0.5238   0.5326   0.5396   0.5553   0.5599   0.5618
  0.5857   0.5869   0.5985   0.6144   0.6288   0.6471   0.6658   0.6759
  0.6828   0.7114   0.7284   0.7312   0.7427   0.7519   0.7639   0.7741
  0.7888   0.7901   0.8003   0.8072   0.8093   0.8239   0.8341   0.8418
  0.8623   0.8815   0.9088   0.9129   0.9281   0.9663   0.9846   0.9994
  1.0252   1.0402   1.0540   1.0777   1.1126   1.1227   1.1497   1.1729
  1.2249   1.2635   1.2968   1.3103   1.3393   1.3588   1.3937   1.4264
  1.4498   1.4817   1.5135   1.5478   1.5819   1.6449   1.6961   1.7620
  1.7810   1.8454   1.8661   1.8835   1.9091   1.9252   1.9480   1.9568
  1.9738   1.9961   2.0034   2.0331   2.0395   2.0627   2.0850   2.1376
  2.1800   2.2039   2.2227   2.2705   2.3028   2.3296   2.3864   2.4149
  2.4322   2.4597   2.4812   2.5250   2.5360   2.6100   2.6134   2.6324
  2.6628   2.6808   2.6896   2.7109   2.7651   2.8124   2.8189   2.8421
  2.8658   2.9136   2.9315   2.9786   3.0104   3.0686   3.0937   3.1067
  3.1488   3.1856   3.2281   3.2394   3.2716   3.2981   3.3157   3.3379
  3.3451   3.4122   3.4296   3.4442   3.4895   3.5155   3.5359   3.5794
  3.6017   3.6196   3.6432   3.6888   3.6929   3.7176   3.7786   3.8277
  3.9252   3.9436   4.0344   4.0547   4.0934   4.1307   4.1778   4.1995
  4.3009   4.4022   4.4515   4.5049   4.5956   4.6457   4.6819   4.7519
  4.7791   4.8353   4.9104   4.9246   4.9865   5.0650   5.1669   5.2098
  5.2667   5.3637   5.4023   5.4158   5.4215   5.5235   5.5646   5.7905
  5.9266   6.1617   6.2713   6.5384   6.6602   6.7547   6.8536   6.9865
  7.2368   7.3304  22.6464  22.7672  23.6323  32.4312  44.3597
 --------------------------------------------------------------
 
          Ground-State Mulliken Net Atomic Charges

     Atom                 Charge (a.u.)
  ----------------------------------------
      1 C                     0.063545
      2 C                    -0.968866
      3 C                     0.274629
      4 O                    -0.697183
      5 N                    -0.290705
      6 H                     0.189247
      7 H                     0.197307
      8 H                     0.260697
      9 H                     0.228761
     10 H                     0.244323
     11 H                     0.253862
     12 H                     0.244383
  ----------------------------------------
  Sum of atomic charges =     0.000000

 -----------------------------------------------------------------
                    Cartesian Multipole Moments
 -----------------------------------------------------------------
    Charge (ESU x 10^10)
                -0.0000
    Dipole Moment (Debye)
         X       4.4738      Y      -0.4255      Z      -3.7816
       Tot       5.8733
    Quadrupole Moments (Debye-Ang)
        XX     -41.3258     XY      -8.7138     YY     -30.1997
        XZ       4.6898     YZ       8.4441     ZZ     -22.2683
    Octopole Moments (Debye-Ang^2)
       XXX      88.2929    XXY      94.4872    XYY      38.5471
       YYY     225.7322    XXZ      -5.7524    XYZ     -10.9945
       YYZ     -11.9819    XZZ      12.5733    YZZ      55.5779
       ZZZ      -7.8182
    Hexadecapole Moments (Debye-Ang^3)
      XXXX    -360.2093   XXXY    -168.7144   XXYY    -289.1007
      XYYY    -155.2999   YYYY   -1222.5539   XXXZ     -25.0618
      XXYZ      23.6361   XYYZ       8.2012   YYYZ      36.4503
      XXZZ     -65.4327   XYZZ     -19.7012   YYZZ    -203.2354
      XZZZ     -23.5502   YZZZ      53.2307   ZZZZ    -182.7315
 -----------------------------------------------------------------
Archival summary:
1\1\nid00560\SP\ProcedureUnspecified\BasisUnspecified\1137\meili\SunSep2608:58:312021SunSep2608:58:312021\0\\#,ProcedureUnspecified,BasisUnspecified,\\0,1\C\O,1,1.22469\N,1,1.32423,2,122.258\H,3,1.00673,1,120.368,2,179.967,0\H,3,1.01422,1,118.981,2,-6.76842,0\C,1,1.51001,2,120.565,3,-173.436,0\H,6,1.09033,1,108.795,2,-58.6459,0\H,6,1.09042,1,109.678,2,-176.709,0\C,6,1.52026,1,110.505,2,61.8782,0\H,9,1.09136,6,108.937,1,57.5766,0\H,9,1.09203,6,108.299,1,-59.5706,0\H,9,1.1,6,113.628,1,179.431,0\\\@

 Total job time:  12308.60s(wall), 24246.22s(cpu) 
 Sun Sep 26 08:58:37 2021

        *************************************************************
        *                                                           *
        *  Thank you very much for using Q-Chem.  Have a nice day.  *
        *                                                           *
        *************************************************************


Done Job For Fragment 1
calling putenv with: QCSCRATCH=/global/cscratch1/sd/meili 
calling putenv with: QCLOCALSCR=/tmp 
calling putenv with: QCTHREADS=32 
Doing General SCFMI
 Exchange:     0.1670 Hartree-Fock + 1.0000 wB97X-V + LR-HF
 Correlation:  1.0000 wB97X-V
 Using Euler-Maclaurin-Lebedev (99,590) quadrature formula
 Nonlocal Correlation:  VV10 with C = 0.0100 and b = 6.00 and scale = 1.00000
 Grid used for NLC:  SG-1 standard quadrature
performing fock build before subrot guess so that all methods have access
Printing subrot_rss_gen Method Specification:
Occupied Subspace Method is 0
Virtual Subspace Method is 0
Energy of the unrelaxed supersystem initial determinant -514.097871165221
performing fock build before subrot guess so that all methods have access
Printing subrot_rss_gen Method Specification:
Occupied Subspace Method is 0
Virtual Subspace Method is 0
Energy of the unrelaxed supersystem initial determinant w/ solvent -514.150306178529
write pseudocanon occs and virts to disk
write pseudocanon orbital energies to disk
Tolerance of ortho_decomp_scf: 1.00e-06
GDM subspace size: 20
Beginning the Orthogonal Decomposition of the Initial Supersystem Wavefunction
    1    -514.0898467616      1.53e-02     ortho_decomp Preconditoned Steepest Descent
    2    -514.0905155157      3.64e-04     ortho_decomp BFGS Step
    3    -514.0905174869      2.65e-05     ortho_decomp BFGS Step
    4    -514.0905174903      1.06e-06     ortho_decomp BFGS Step
    5    -514.0905174903      3.64e-08     ortho_decomp 00000 Convergence criterion met
 Hartree-Fock
 Hartree-Fock
 Hartree-Fock
Doing General SCFMI
 Exchange:     0.1670 Hartree-Fock + 1.0000 wB97X-V + LR-HF
 Correlation:  1.0000 wB97X-V
 Using Euler-Maclaurin-Lebedev (99,590) quadrature formula
 Nonlocal Correlation:  VV10 with C = 0.0100 and b = 6.00 and scale = 1.00000
 Grid used for NLC:  SG-1 standard quadrature
performing fock build at end of subrot_r(subrot) constructor so that all methods have access
<S^2> of initial wavefunction before polarization iterations 0.0000000000
Beginning iterations for the determination of the polarized wavefunction
Energy prior to optimization (guess energy) = -514.150306178530
Begin Timing: Total SCF Calculation
begin iterations for algorithm: DIIS         
the SCF tolerance is set to 1.00e-08
    1    -514.1503061785      2.67e-05     00000 
    2    -514.1503595287      1.28e-05     00000 
    3    -514.1503663099      7.51e-06     00000 
    4    -514.1503689032      2.42e-06     00000 
    5    -514.1503691747      9.24e-07     00000 
    6    -514.1503692366      2.89e-07     00000 
    7    -514.1503692404      1.24e-07     00000 
    8    -514.1503692410      3.78e-08     00000 
    9    -514.1503692411      1.89e-08     00000 
   10    -514.1503692411      5.28e-09     00000 Convergence criterion met
write pseudocanon occs and virts to disk
write pseudocanon orbital energies to disk
Timing for Total SCF: 3931.00s (wall), 7821.75s (cpu)
<S^2> of polarized wavefunction after polarization iterations 0.0000000000
relaxing scfmi constraint to allow all rotations in the entire AO span
Doing General SCFMI
 Exchange:     0.1670 Hartree-Fock + 1.0000 wB97X-V + LR-HF
 Correlation:  1.0000 wB97X-V
 Using Euler-Maclaurin-Lebedev (99,590) quadrature formula
 Nonlocal Correlation:  VV10 with C = 0.0100 and b = 6.00 and scale = 1.00000
 Grid used for NLC:  SG-1 standard quadrature
performing fock build at end of subrot_r(subrot) constructor so that all methods have access
<S^2> of polarized wavefunction before ct-allowed iterations 0.0000000000
Beginning iterations for the determination of the CT-Allowed wavefunction
Energy prior to optimization (guess energy) = -514.150369241110
Begin Timing: Total SCF Calculation
begin iterations for algorithm: DIIS         
the SCF tolerance is set to 1.00e-08
    1    -514.1503692411      5.49e-05     00000 
    2    -514.1506644476      4.21e-06     00000 
    3    -514.1506715385      7.40e-07     00000 
    4    -514.1506717936      3.99e-07     00000 
    5    -514.1506718144      1.08e-07     00000 
    6    -514.1506718171      4.91e-08     00000 
    7    -514.1506718174      1.01e-08     00000 
    8    -514.1506718175      5.88e-09     00000 Convergence criterion met
write pseudocanon occs and virts to disk
write pseudocanon orbital energies to disk
Timing for Total SCF: 3104.00s (wall), 6175.87s (cpu)
<S^2> of ct_allowed wavefunction after ct-allowed iterations 0.0000000000

================================
        Results of EDA2         
================================
Basic EDA Quantities
--------------------
Fragment Energies (Ha):
1 -265.5703127659
2 -248.5684815274
--------------------
  E_prp (kJ/mol) = -0.0000
  E_sol (kJ/mol) = -2.5712
  E_frz (kJ/mol) = -5.2585
  E_pol (kJ/mol) = -0.1656
  E_vct (kJ/mol) = -0.7944
  E_int (kJ/mol) = -8.7897
--------------------


Initial Wavefunction Decomposition
--------------------
  --------------------
  Orthogonal Fragment Subspace Decomposition:
  --------------------
     E_elec   (ELEC)   (kJ/mol) = -5.9598
     E_pauli  (PAULI)  (kJ/mol) = 10.5799
     E_disp   (DISP)   (kJ/mol) = -9.8786
     --------------------
     Terms summing to E_pauli:
     --------------------
        E_kep_pauli       (kJ/mol) = 14.0488
        E_disp_free_pauli (kJ/mol) = -3.4689
  --------------------
  Classical Frozen Decomposition:
  --------------------
     E_cls_elec  (CLS ELEC)  (kJ/mol) = -0.2564
     E_cls_pauli (CLS PAULI) (kJ/mol) = -5.0021
    [E_mod_pauli (MOD PAULI) (kJ/mol) = 4.8765 (CLS PAULI - DISP from orthogonal decomposition) ]
  --------------------
--------------------

Simplified EDA Summary (kJ/mol)
--------------------
 PREPARATION     -0.0000
 SOLVATION       -2.5712
 FROZEN          4.6201      (does not include dispersion)
[PAULI           10.5799]     (if this is negligible, then frozen describes electrostatics)
 DISPERSION      -9.8786
 POLARIZATION    -0.1656
 CHARGE TRANSFER -0.7944
 TOTAL           -8.7897     (PRP + SOL + FRZ + DISP + POL + CT)
--------------------
 
 --------------------------------------------------------------
 
                    Orbital Energies (a.u.)
 --------------------------------------------------------------
 
 Alpha MOs
 -- Occupied --
-19.1827 -14.4600 -14.4269 -14.3859 -10.3731 -10.3170 -10.2844 -10.2834
-10.2662 -10.2580 -10.2550  -1.1786  -1.1511  -1.0420  -0.9930  -0.9068
 -0.8943  -0.8216  -0.7745  -0.7217  -0.6986  -0.6825  -0.6620  -0.6474
 -0.6030  -0.5703  -0.5615  -0.5519  -0.5396  -0.5362  -0.5198  -0.5090
 -0.4940  -0.4768  -0.4751  -0.4594  -0.4438  -0.3848  -0.3766  -0.3760
 -0.3730  -0.3215
 -- Virtual --
  0.0603   0.0766   0.0816   0.0874   0.0953   0.1005   0.1050   0.1118
  0.1156   0.1182   0.1250   0.1317   0.1417   0.1446   0.1514   0.1564
  0.1624   0.1685   0.1763   0.1830   0.1837   0.1898   0.1971   0.1999
  0.2048   0.2152   0.2255   0.2289   0.2351   0.2400   0.2412   0.2458
  0.2514   0.2624   0.2687   0.2700   0.2753   0.2780   0.2858   0.2908
  0.2933   0.2952   0.3025   0.3035   0.3104   0.3142   0.3200   0.3264
  0.3299   0.3316   0.3380   0.3416   0.3449   0.3477   0.3517   0.3539
  0.3578   0.3629   0.3648   0.3668   0.3726   0.3755   0.3824   0.3834
  0.3872   0.3904   0.3969   0.3983   0.4051   0.4065   0.4095   0.4148
  0.4194   0.4217   0.4289   0.4323   0.4375   0.4443   0.4478   0.4501
  0.4560   0.4573   0.4609   0.4645   0.4727   0.4785   0.4815   0.4884
  0.4895   0.4916   0.4989   0.5065   0.5092   0.5148   0.5216   0.5271
  0.5281   0.5359   0.5386   0.5443   0.5450   0.5518   0.5610   0.5639
  0.5673   0.5725   0.5794   0.5859   0.5889   0.5955   0.5984   0.6046
  0.6101   0.6157   0.6175   0.6228   0.6324   0.6413   0.6450   0.6519
  0.6576   0.6591   0.6687   0.6773   0.6811   0.6846   0.6943   0.6990
  0.7015   0.7106   0.7159   0.7291   0.7299   0.7373   0.7413   0.7475
  0.7568   0.7598   0.7667   0.7722   0.7748   0.7808   0.7841   0.7881
  0.7946   0.8018   0.8037   0.8115   0.8134   0.8174   0.8241   0.8247
  0.8315   0.8460   0.8509   0.8531   0.8557   0.8607   0.8705   0.8795
  0.8839   0.8857   0.8910   0.8971   0.9073   0.9107   0.9166   0.9285
  0.9406   0.9438   0.9511   0.9765   0.9896   0.9932   1.0038   1.0117
  1.0218   1.0239   1.0364   1.0527   1.0534   1.0710   1.0763   1.0874
  1.0998   1.1141   1.1170   1.1193   1.1286   1.1298   1.1439   1.1487
  1.1696   1.1815   1.1979   1.2048   1.2080   1.2196   1.2317   1.2464
  1.2592   1.2732   1.2768   1.2909   1.3254   1.3391   1.3507   1.3544
  1.3651   1.3786   1.3879   1.4082   1.4188   1.4327   1.4626   1.4636
  1.4767   1.4966   1.5179   1.5312   1.5485   1.5593   1.5900   1.5960
  1.6266   1.6361   1.6535   1.6866   1.7074   1.7184   1.7262   1.7460
  1.7641   1.7701   1.8026   1.8394   1.8551   1.8588   1.8715   1.8901
  1.8953   1.9047   1.9191   1.9295   1.9354   1.9474   1.9613   1.9628
  1.9769   1.9786   1.9837   1.9948   2.0034   2.0108   2.0159   2.0180
  2.0332   2.0497   2.0517   2.0634   2.0682   2.0806   2.0935   2.0951
  2.1199   2.1302   2.1460   2.1766   2.2170   2.2305   2.2401   2.2543
  2.2853   2.2905   2.2958   2.3049   2.3208   2.3236   2.3479   2.3599
  2.4140   2.4181   2.4265   2.4404   2.4601   2.4760   2.4786   2.4983
  2.4987   2.5207   2.5471   2.5582   2.5715   2.5860   2.6104   2.6242
  2.6271   2.6464   2.6550   2.6758   2.6841   2.6886   2.6937   2.7070
  2.7280   2.7373   2.7390   2.7666   2.7876   2.7941   2.8072   2.8203
  2.8399   2.8663   2.8749   2.8788   2.8933   2.8984   2.9100   2.9126
  2.9428   2.9559   3.0034   3.0162   3.0347   3.0570   3.0612   3.0863
  3.0906   3.1050   3.1186   3.1290   3.1424   3.1438   3.1628   3.1685
  3.1861   3.2093   3.2244   3.2298   3.2387   3.2528   3.2650   3.2782
  3.2927   3.2993   3.3058   3.3181   3.3412   3.3510   3.3534   3.3593
  3.3766   3.3890   3.3928   3.4145   3.4237   3.4318   3.4344   3.4420
  3.4531   3.4680   3.4847   3.5124   3.5208   3.5280   3.5358   3.5511
  3.5665   3.5856   3.6032   3.6208   3.6368   3.6446   3.6609   3.6834
  3.6855   3.7054   3.7169   3.7213   3.7341   3.7446   3.7529   3.7977
  3.8108   3.8350   3.8461   3.8746   3.8868   3.9395   3.9506   3.9637
  3.9658   4.0495   4.0617   4.0681   4.0964   4.1125   4.1252   4.1359
  4.1487   4.1977   4.2180   4.2502   4.3027   4.3202   4.4092   4.4200
  4.4418   4.4646   4.4914   4.5139   4.5182   4.5848   4.6119   4.6210
  4.6529   4.6944   4.7347   4.7714   4.7802   4.7908   4.7996   4.8533
  4.8743   4.8885   4.9288   4.9392   4.9583   4.9798   5.0114   5.0207
  5.0615   5.0722   5.0882   5.0917   5.1709   5.1874   5.2154   5.2232
  5.2691   5.2790   5.3255   5.3706   5.3870   5.4139   5.4233   5.4298
  5.4568   5.5000   5.5331   5.5468   5.5782   5.5937   5.6206   5.6903
  5.7167   5.7945   5.7982   5.8185   5.8942   5.9360   6.0422   6.1711
  6.2442   6.2770   6.2793   6.5506   6.6710   6.7739   6.8648   6.9997
  7.2472   7.3367  22.6298  22.6627  22.8532  22.9009  23.1668  23.4023
 23.6556  32.4886  32.6869  32.8090  44.4419
 --------------------------------------------------------------
 
          Ground-State Mulliken Net Atomic Charges

     Atom                 Charge (a.u.)
  ----------------------------------------
      1 C                    -0.880205
      2 C                    -0.301252
      3 C                     0.628616
      4 C                    -0.625290
      5 N                    -0.490886
      6 N                     0.074810
      7 H                     0.327927
      8 H                     0.215044
      9 H                     0.330902
     10 H                     0.250520
     11 H                     0.257076
     12 H                     0.219197
     13 C                     0.340104
     14 C                    -1.235697
     15 C                     0.200727
     16 O                    -0.720405
     17 N                    -0.277131
     18 H                     0.136287
     19 H                     0.227448
     20 H                     0.290577
     21 H                     0.267908
     22 H                     0.245831
     23 H                     0.254305
     24 H                     0.263588
  ----------------------------------------
  Sum of atomic charges =     0.000000

 -----------------------------------------------------------------
                    Cartesian Multipole Moments
 -----------------------------------------------------------------
    Charge (ESU x 10^10)
                -0.0000
    Dipole Moment (Debye)
         X       8.4149      Y       0.2447      Z      -0.7552
       Tot       8.4522
    Quadrupole Moments (Debye-Ang)
        XX     -62.5510     XY      -4.8737     YY     -63.1589
        XZ       6.9238     YZ      16.1685     ZZ     -58.1856
    Octopole Moments (Debye-Ang^2)
       XXX      67.9597    XXY      37.0259    XYY      18.9622
       YYY       5.9308    XXZ      -4.0628    XYZ      -2.0729
       YYZ       0.4720    XZZ      -1.1932    YZZ     -17.3634
       ZZZ     -23.8163
    Hexadecapole Moments (Debye-Ang^3)
      XXXX    -684.9737   XXXY    -180.7640   XXYY    -529.3614
      XYYY    -237.6122   YYYY   -2319.4732   XXXZ      -3.6998
      XXYZ      18.4642   XYYZ      27.4931   YYYZ       8.4917
      XXZZ    -148.7384   XYZZ     -30.7190   YYZZ    -395.8865
      XZZZ     -26.8741   YZZZ     -10.9352   ZZZZ    -342.0967
 -----------------------------------------------------------------
Archival summary:
1\1\nid00560\SP\ProcedureUnspecified\BasisUnspecified\13713\meili\SunSep2612:44:232021SunSep2612:44:232021\0\\#,ProcedureUnspecified,BasisUnspecified,\\0,1\N\C,1,1.32836\H,2,1.07796,1,124.681\N,2,1.33013,1,108.919,3,178.442,0\H,4,1.02128,2,125.09,1,177.403,0\C,4,1.37857,2,108.656,1,-0.873322,0\H,6,1.08404,4,126.494,2,-178.453,0\C,6,1.36005,4,106.842,2,1.0339,0\C,8,1.5046,6,130.473,4,178.287,0\H,9,1.09196,8,107.76,6,137.816,0\H,9,1.09198,8,109.067,6,22.2848,0\H,9,1.1,8,113.408,6,-101.919,0\H,3,3.01176,2,99.5117,1,-75.4649,0\C,13,1.09042,3,121.43,2,6.33072,0\H,14,1.09033,13,108.111,3,-31.6625,0\C,14,1.51001,13,109.678,3,86.8246,0\O,16,1.22469,14,120.565,13,-176.709,0\N,16,1.32423,14,116.871,13,9.51223,0\H,18,1.00673,16,120.368,14,-6.36769,0\H,18,1.01422,16,118.981,14,166.897,0\C,14,1.52026,13,109.982,3,-151.449,0\H,21,1.09136,14,108.937,13,-63.6562,0\H,21,1.09203,14,108.299,13,179.197,0\H,21,1.1,14,113.628,13,58.1987,0\\\@

 Total job time:  40885.03s(wall), 26987.41s(cpu) 
 Sun Sep 26 12:44:29 2021

        *************************************************************
        *                                                           *
        *  Thank you very much for using Q-Chem.  Have a nice day.  *
        *                                                           *
        *************************************************************


