
Running Job 1 of 1 SSI-006ARG-090TYR-1_PCM_TZVPD.in
qchem SSI-006ARG-090TYR-1_PCM_TZVPD.in_31269.0 /tmp/qchem31269/ 0
/global/common/cori/software/qchem/5.2/exe/qcprog.exe_s SSI-006ARG-090TYR-1_PCM_TZVPD.in_31269.0 /tmp/qchem31269/
                  Welcome to Q-Chem
     A Quantum Leap Into The Future Of Chemistry


 Q-Chem 5.2, Q-Chem, Inc., Pleasanton, CA (2019)

 License issued to: National Energy Research Scientific Computing Center

 Yihan Shao,  Zhengting Gan,  E. Epifanovsky,  A. T. B. Gilbert,  M. Wormit,  
 J. Kussmann,  A. W. Lange,  A. Behn,  Jia Deng,  Xintian Feng,  D. Ghosh,  
 M. Goldey,  P. R. Horn,  L. D. Jacobson,  I. Kaliman,  T. Kus,  A. Landau,  
 Jie Liu,  E. I. Proynov,  R. M. Richard,  R. P. Steele,  E. J. Sundstrom,  
 H. L. Woodcock III,  P. M. Zimmerman,  D. Zuev,  B. Albrecht,  E. Alguire,  
 S. A. Baeppler,  D. Barton,  Z. Benda,  Y. A. Bernard,  E. J. Berquist,  
 K. B. Bravaya,  H. Burton,  D. Casanova,  Chun-Min Chang,  Yunqing Chen,  
 A. Chien,  K. D. Closser,  M. P. Coons,  S. Coriani,  S. Dasgupta,  
 A. L. Dempwolff,  M. Diedenhofen,  Hainam Do,  R. G. Edgar,  Po-Tung Fang,  
 S. Faraji,  S. Fatehi,  Qingguo Feng,  K. D. Fenk,  J. Fosso-Tande,  
 J. Gayvert,  Qinghui Ge,  A. Ghysels,  G. Gidofalvi,  J. Gomes,  
 J. Gonthier,  A. Gunina,  D. Hait,  M. W. D. Hanson-Heine,  
 P. H. P. Harbach,  A. W. Hauser,  M. F. Herbst,  J. E. Herr,  
 E. G. Hohenstein,  Z. C. Holden,  Kerwin Hui,  B. C. Huynh,  T.-C. Jagau,  
 Hyunjun Ji,  B. Kaduk,  K. Khistyaev,  Jaehoon Kim,  P. Klunzinger,  K. Koh,  
 D. Kosenkov,  L. Koulias,  T. Kowalczyk,  C. M. Krauter,  A. Kunitsa,  
 Ka Un Lao,  A. Laurent,  K. V. Lawler,  Joonho Lee,  D. Lefrancois,  
 S. Lehtola,  D. S. Levine,  Yi-Pei Li,  You-Sheng Lin,  Fenglai Liu,  
 E. Livshits,  A. Luenser,  P. Manohar,  E. Mansoor,  S. F. Manzer,  
 Shan-Ping Mao,  Yuezhi Mao,  N. Mardirossian,  A. V. Marenich,  
 T. Markovich,  L. A. Martinez-Martinez,  S. A. Maurer,  N. J. Mayhall,  
 S. C. McKenzie,  J.-M. Mewes,  P. Morgante,  A. F. Morrison,  
 J. W. Mullinax,  K. Nanda,  T. S. Nguyen-Beck,  R. Olivares-Amaya,  
 J. A. Parkhill,  Zheng Pei,  T. M. Perrine,  F. Plasser,  P. Pokhilko,  
 S. Prager,  A. Prociuk,  E. Ramos,  D. R. Rehn,  F. Rob,  M. Scheurer,  
 M. Schneider,  N. Sergueev,  S. M. Sharada,  S. Sharma,  D. W. Small,  
 T. Stauch,  T. Stein,  Yu-Chuan Su,  A. J. W. Thom,  A. Tkatchenko,  
 T. Tsuchimochi,  N. M. Tubman,  L. Vogt,  M. L. Vidal,  O. Vydrov,  
 M. A. Watson,  J. Wenzel,  M. de Wergifosse,  T. A. Wesolowski,  A. White,  
 J. Witte,  A. Yamada,  Jun Yang,  K. Yao,  S. Yeganeh,  S. R. Yost,  
 Zhi-Qiang You,  A. Zech,  Igor Ying Zhang,  Xing Zhang,  Yan Zhao,  
 Ying Zhu,  B. R. Brooks,  G. K. L. Chan,  C. J. Cramer,  M. S. Gordon,  
 W. J. Hehre,  A. Klamt,  M. W. Schmidt,  C. D. Sherrill,  D. G. Truhlar,  
 A. Aspuru-Guzik,  R. Baer,  A. T. Bell,  N. A. Besley,  Jeng-Da Chai,  
 A. E. DePrince, III,  R. A. DiStasio Jr.,  A. Dreuw,  B. D. Dunietz,  
 T. R. Furlani,  Chao-Ping Hsu,  Yousung Jung,  Jing Kong,  D. S. Lambrecht,  
 WanZhen Liang,  C. Ochsenfeld,  V. A. Rassolov,  L. V. Slipchenko,  
 J. E. Subotnik,  T. Van Voorhis,  J. M. Herbert,  A. I. Krylov,  
 P. M. W. Gill,  M. Head-Gordon

 Contributors to earlier versions of Q-Chem not listed above: 
 R. D. Adamson,  B. Austin,  J. Baker,  G. J. O. Beran,  K. Brandhorst,  
 S. T. Brown,  E. F. C. Byrd,  A. K. Chakraborty,  C.-L. Cheng,  
 Siu Hung Chien,  D. M. Chipman,  D. L. Crittenden,  H. Dachsel,  
 R. J. Doerksen,  A. D. Dutoi,  L. Fusti-Molnar,  W. A. Goddard III,  
 A. Golubeva-Zadorozhnaya,  S. R. Gwaltney,  G. Hawkins,  A. Heyden,  
 S. Hirata,  G. Kedziora,  F. J. Keil,  C. Kelley,  Jihan Kim,  R. A. King,  
 R. Z. Khaliullin,  P. P. Korambath,  W. Kurlancheek,  A. M. Lee,  M. S. Lee,  
 S. V. Levchenko,  Ching Yeh Lin,  D. Liotard,  R. C. Lochan,  I. Lotan,  
 P. E. Maslen,  N. Nair,  D. P. O'Neill,  D. Neuhauser,  E. Neuscamman,  
 C. M. Oana,  R. Olson,  B. Peters,  R. Peverati,  P. A. Pieniazek,  
 Y. M. Rhee,  J. Ritchie,  M. A. Rohrdanz,  E. Rosta,  N. J. Russ,  
 H. F. Schaefer III,  N. E. Schultz,  N. Shenvi,  A. C. Simmonett,  A. Sodt,  
 D. Stuck,  K. S. Thanthiriwatte,  V. Vanovschi,  Tao Wang,  A. Warshel,  
 C. F. Williams,  Q. Wu,  X. Xu,  W. Zhang

 Please cite Q-Chem as follows:
 Y. Shao et al., Mol. Phys. 113, 184-215 (2015)
 DOI: 10.1080/00268976.2014.952696

 Q-Chem 5.2.0 for Intel X86 EM64T Linux

 Parts of Q-Chem use Armadillo 8.300.2 (Tropical Shenanigans).
 http://arma.sourceforge.net/

 Q-Chem begins on Sun Sep 26 01:43:50 2021  

Host: cori01
0

     Scratch files written to /tmp/qchem31269//
 May1019 |scratch|qcdevops|jenkins|workspace|build_RNUM -1
Processing $rem in /global/common/cori/software/qchem/5.2/config/preferences:
	 MEM_TOTAL  96000 
NAlpha2: 98
NElect   98
Mult     1
Symmetry turned off for PCM/SM12/SMD calculation

 Q-Chem warning in module libgen/rem_setup.C, line 2803:

 Neither GIA nor STOLL is specified by user. Use STOLL as the default


Checking the input file for inconsistencies... 	...done.

--------------------------------------------------------------
User input:
--------------------------------------------------------------
$comment
SSI-006ARG-090TYR-1.pdb
$end

$molecule
1 1
--
1 1
C   -0.100368947452    1.069241769200   -3.328989514575
C    0.093631052548   -1.197758230800   -2.352989514575
N   -0.626368947452   -0.119758230800   -2.639989514575
N    1.370631052548   -1.252758230800   -2.683989514575
N   -0.461368947452   -2.218758230800   -1.730989514575
H   -1.602368947452   -0.120758230800   -2.377989514575
H    1.783631052548   -0.503758230800   -3.213989514575
H    1.895631052548   -2.101758230800   -2.546989514575
H   -1.441368947452   -2.190758230800   -1.500989514575
H    0.086631052548   -3.016758230800   -1.435989514575
H    0.108631052548    0.818241769200   -4.371989514575
H    0.827631052548    1.386241769200   -2.848989514575
H   -0.799638947452    1.917997769200   -3.303835514575
--
0 1
C    2.602631052548   -0.738758230800    1.526010485425
C   -0.604368947452    1.118241769200    0.643010485425
C    0.663631052548    0.546241769200    0.547010485425
C   -1.290368947452    1.086241769200    1.858010485425
C    1.258631052548   -0.061758230800    1.657010485425
C   -0.706368947452    0.488241769200    2.977010485425
C    0.564631052548   -0.081758230800    2.871010485425
O   -2.536368947452    1.629241769200    1.946010485425
H   -1.050368947452    1.589241769200   -0.215989514575
H    1.200631052548    0.585241769200   -0.390989514575
H   -2.838368947452    1.905241769200    1.049010485425
H   -1.246368947452    0.457241769200    3.912010485425
H    3.093631052548   -0.772758230800    2.499010485425
H    3.222631052548   -0.123758230800    0.871010485425
H    1.004631052548   -0.562758230800    3.734010485425
H    2.529271052548   -1.755712230800    1.113187485425
$end

$rem
JOBTYPE			EDA
EDA2			1
method			wB97X-V
BASIS			def2-TZVPD
XC_GRID			000099000590
NL_GRID			1
UNRESTRICTED		FALSE
MAX_SCF_CYCLES		200
SYMMETRY		FALSE
SYM_IGNORE		TRUE
MEM_STATIC		2000
BASIS_LIN_DEP_THRESH 	6
THRESH 			14
SCF_CONVERGENCE 	8
SCF_PRINT_FRGM 		TRUE
SOLVENT_METHOD          PCM
$end

$PCM
THEORY                  CPCM
METHOD                  SWIG
SOLVER                  INVERSION
RADII                   UFF
HPOINTS                 302
HEAVYPOINTS             302
PRINTLEVEL              0
$END

$SOLVENT
DIELECTRIC              78.390000 ! water
$END
--------------------------------------------------------------
 ----------------------------------------------------------------
             Standard Nuclear Orientation (Angstroms)
    I     Atom           X                Y                Z
 ----------------------------------------------------------------
    1      C      -0.1003689475     1.0692417692    -3.3289895146
    2      C       0.0936310525    -1.1977582308    -2.3529895146
    3      N      -0.6263689475    -0.1197582308    -2.6399895146
    4      N       1.3706310525    -1.2527582308    -2.6839895146
    5      N      -0.4613689475    -2.2187582308    -1.7309895146
    6      H      -1.6023689475    -0.1207582308    -2.3779895146
    7      H       1.7836310525    -0.5037582308    -3.2139895146
    8      H       1.8956310525    -2.1017582308    -2.5469895146
    9      H      -1.4413689475    -2.1907582308    -1.5009895146
   10      H       0.0866310525    -3.0167582308    -1.4359895146
   11      H       0.1086310525     0.8182417692    -4.3719895146
   12      H       0.8276310525     1.3862417692    -2.8489895146
   13      H      -0.7996389475     1.9179977692    -3.3038355146
   14      C       2.6026310525    -0.7387582308     1.5260104854
   15      C      -0.6043689475     1.1182417692     0.6430104854
   16      C       0.6636310525     0.5462417692     0.5470104854
   17      C      -1.2903689475     1.0862417692     1.8580104854
   18      C       1.2586310525    -0.0617582308     1.6570104854
   19      C      -0.7063689475     0.4882417692     2.9770104854
   20      C       0.5646310525    -0.0817582308     2.8710104854
   21      O      -2.5363689475     1.6292417692     1.9460104854
   22      H      -1.0503689475     1.5892417692    -0.2159895146
   23      H       1.2006310525     0.5852417692    -0.3909895146
   24      H      -2.8383689475     1.9052417692     1.0490104854
   25      H      -1.2463689475     0.4572417692     3.9120104854
   26      H       3.0936310525    -0.7727582308     2.4990104854
   27      H       3.2226310525    -0.1237582308     0.8710104854
   28      H       1.0046310525    -0.5627582308     3.7340104854
   29      H       2.5292710525    -1.7557122308     1.1131874854
 ----------------------------------------------------------------
 Nuclear Repulsion Energy =         793.37093542 hartrees
 There are       49 alpha and       49 beta electrons
 Requested basis set is def2-TZVPD
 There are 250 shells and 628 basis functions

 Total QAlloc Memory Limit  96000 MB
 Mega-Array Size      1956 MB
 MEM_STATIC part      2000 MB
 Discretize the solute cavity surface with Lebedev spheres
	Using 302 Lebedev grid points for each H atom
	Using 302 Lebedev grid points for other atoms
	Atomic van der Waals radii will be scaled by 1.20
 Remove points where switching function is < 1.0e-08
 Keep 3121 surface tesserae and discard 5637 interior tesserae
 Molecular Surface Area = 304.486 Angst**2
 A cutoff of  1.0D-14 yielded  27479 shell pairs
 There are    174441 function pairs (    219207 Cartesian)
 Smallest overlap matrix eigenvalue = 4.47E-07
 Linear dependence detected in AO basis
 Tighter screening thresholds may be required for diffuse basis sets
 Use S2THRESH > 14 and THRESH = 14 in case of SCF convergence issues
 Number of orthogonalized atomic orbitals = 626
 Maximum deviation from orthogonality = 2.490E-10

 Scale SEOQF with 1.000000e-01/1.000000e-01/1.000000e-01

 Standard Electronic Orientation quadrupole field applied
 Nucleus-field energy     =    -0.0000000381 hartrees

 -----------------------------------------------------------------------
  General SCF calculation program by
  Eric Jon Sundstrom, Paul Horn, Yuezhi Mao, Dmitri Zuev, Alec White,
  David Stuck, Shaama M.S., Shane Yost, Joonho Lee, David Small,
  Daniel Levine, Susi Lehtola, Hugh Burton, Evgeny Epifanovsky
 -----------------------------------------------------------------------
================================================================
                 ALMO-EDA with the EDA2 driver                  
================================================================
 The second-generation ALMO-EDA (for DFT):                      
 P. R. Horn, Y. Mao and M. Head-Gordon, PCCP, 18, 23067 (2016)  
 Decomposition of the frozen energy:                            
 P. R. Horn, Y. Mao and M. Head-Gordon, JCP, 144, 114107 (2016) 
 FERF model for polarization:                                   
 P. R. Horn and M. Head-Gordon, JCP, 143, 114111 (2015)         
Using eda2 option set 1
Option set summary: Frozen orbital wavefunction, initial wavefunction decomposition, and nDQ polarization.
--------------------------------
Printing EDA Options
--------------------------------
eda_child_super_basis      0
fragmo_guess_mode          0
child_mp                   1
child_mp_orders            232
cls_elec                   1
cls_disp                   0
scfmi_mode                 1
scfmi_occs                 0
scfmi_virts                0
frz_relax                  0
frz_relax_method           0
dc_pen_start               0
dc_pen_conv                0
dc_pen_increment           0
dc_pen_steps               0
dc_pen_thresh_factor       0
dc_pen_pre_newton_thresh   0
frz_ortho_decomp           1
frz_ortho_decomp_conv      6
frgm_method                2
scfmi_freeze_ss            0
separate_rehyb             0
plot_diff_den              0
eda_nocv                   0
eda_vct_relax              1
disp_free_x                0
disp_free_c                0
eda_bsse                   0
eda_pct_a                  0
eda_covp                   0
--------------------------------
Attempting to make child job directory: /tmp/qchem31269//Frg1/
Attempting to make child job directory: /tmp/qchem31269//Frg2/
Creating input file /tmp/qchem31269/Frg1.input
using default PutDataFrgm: nothing
calling putenv with: QCSCRATCH=/tmp/qchem31269/ 
calling putenv with: QCLOCALSCR=/tmp/qchem31269/ 
Spawning Job For Fragment 0
                  Welcome to Q-Chem
     A Quantum Leap Into The Future Of Chemistry


 Q-Chem 5.2, Q-Chem, Inc., Pleasanton, CA (2019)

 License issued to: National Energy Research Scientific Computing Center

 Yihan Shao,  Zhengting Gan,  E. Epifanovsky,  A. T. B. Gilbert,  M. Wormit,  
 J. Kussmann,  A. W. Lange,  A. Behn,  Jia Deng,  Xintian Feng,  D. Ghosh,  
 M. Goldey,  P. R. Horn,  L. D. Jacobson,  I. Kaliman,  T. Kus,  A. Landau,  
 Jie Liu,  E. I. Proynov,  R. M. Richard,  R. P. Steele,  E. J. Sundstrom,  
 H. L. Woodcock III,  P. M. Zimmerman,  D. Zuev,  B. Albrecht,  E. Alguire,  
 S. A. Baeppler,  D. Barton,  Z. Benda,  Y. A. Bernard,  E. J. Berquist,  
 K. B. Bravaya,  H. Burton,  D. Casanova,  Chun-Min Chang,  Yunqing Chen,  
 A. Chien,  K. D. Closser,  M. P. Coons,  S. Coriani,  S. Dasgupta,  
 A. L. Dempwolff,  M. Diedenhofen,  Hainam Do,  R. G. Edgar,  Po-Tung Fang,  
 S. Faraji,  S. Fatehi,  Qingguo Feng,  K. D. Fenk,  J. Fosso-Tande,  
 J. Gayvert,  Qinghui Ge,  A. Ghysels,  G. Gidofalvi,  J. Gomes,  
 J. Gonthier,  A. Gunina,  D. Hait,  M. W. D. Hanson-Heine,  
 P. H. P. Harbach,  A. W. Hauser,  M. F. Herbst,  J. E. Herr,  
 E. G. Hohenstein,  Z. C. Holden,  Kerwin Hui,  B. C. Huynh,  T.-C. Jagau,  
 Hyunjun Ji,  B. Kaduk,  K. Khistyaev,  Jaehoon Kim,  P. Klunzinger,  K. Koh,  
 D. Kosenkov,  L. Koulias,  T. Kowalczyk,  C. M. Krauter,  A. Kunitsa,  
 Ka Un Lao,  A. Laurent,  K. V. Lawler,  Joonho Lee,  D. Lefrancois,  
 S. Lehtola,  D. S. Levine,  Yi-Pei Li,  You-Sheng Lin,  Fenglai Liu,  
 E. Livshits,  A. Luenser,  P. Manohar,  E. Mansoor,  S. F. Manzer,  
 Shan-Ping Mao,  Yuezhi Mao,  N. Mardirossian,  A. V. Marenich,  
 T. Markovich,  L. A. Martinez-Martinez,  S. A. Maurer,  N. J. Mayhall,  
 S. C. McKenzie,  J.-M. Mewes,  P. Morgante,  A. F. Morrison,  
 J. W. Mullinax,  K. Nanda,  T. S. Nguyen-Beck,  R. Olivares-Amaya,  
 J. A. Parkhill,  Zheng Pei,  T. M. Perrine,  F. Plasser,  P. Pokhilko,  
 S. Prager,  A. Prociuk,  E. Ramos,  D. R. Rehn,  F. Rob,  M. Scheurer,  
 M. Schneider,  N. Sergueev,  S. M. Sharada,  S. Sharma,  D. W. Small,  
 T. Stauch,  T. Stein,  Yu-Chuan Su,  A. J. W. Thom,  A. Tkatchenko,  
 T. Tsuchimochi,  N. M. Tubman,  L. Vogt,  M. L. Vidal,  O. Vydrov,  
 M. A. Watson,  J. Wenzel,  M. de Wergifosse,  T. A. Wesolowski,  A. White,  
 J. Witte,  A. Yamada,  Jun Yang,  K. Yao,  S. Yeganeh,  S. R. Yost,  
 Zhi-Qiang You,  A. Zech,  Igor Ying Zhang,  Xing Zhang,  Yan Zhao,  
 Ying Zhu,  B. R. Brooks,  G. K. L. Chan,  C. J. Cramer,  M. S. Gordon,  
 W. J. Hehre,  A. Klamt,  M. W. Schmidt,  C. D. Sherrill,  D. G. Truhlar,  
 A. Aspuru-Guzik,  R. Baer,  A. T. Bell,  N. A. Besley,  Jeng-Da Chai,  
 A. E. DePrince, III,  R. A. DiStasio Jr.,  A. Dreuw,  B. D. Dunietz,  
 T. R. Furlani,  Chao-Ping Hsu,  Yousung Jung,  Jing Kong,  D. S. Lambrecht,  
 WanZhen Liang,  C. Ochsenfeld,  V. A. Rassolov,  L. V. Slipchenko,  
 J. E. Subotnik,  T. Van Voorhis,  J. M. Herbert,  A. I. Krylov,  
 P. M. W. Gill,  M. Head-Gordon

 Contributors to earlier versions of Q-Chem not listed above: 
 R. D. Adamson,  B. Austin,  J. Baker,  G. J. O. Beran,  K. Brandhorst,  
 S. T. Brown,  E. F. C. Byrd,  A. K. Chakraborty,  C.-L. Cheng,  
 Siu Hung Chien,  D. M. Chipman,  D. L. Crittenden,  H. Dachsel,  
 R. J. Doerksen,  A. D. Dutoi,  L. Fusti-Molnar,  W. A. Goddard III,  
 A. Golubeva-Zadorozhnaya,  S. R. Gwaltney,  G. Hawkins,  A. Heyden,  
 S. Hirata,  G. Kedziora,  F. J. Keil,  C. Kelley,  Jihan Kim,  R. A. King,  
 R. Z. Khaliullin,  P. P. Korambath,  W. Kurlancheek,  A. M. Lee,  M. S. Lee,  
 S. V. Levchenko,  Ching Yeh Lin,  D. Liotard,  R. C. Lochan,  I. Lotan,  
 P. E. Maslen,  N. Nair,  D. P. O'Neill,  D. Neuhauser,  E. Neuscamman,  
 C. M. Oana,  R. Olson,  B. Peters,  R. Peverati,  P. A. Pieniazek,  
 Y. M. Rhee,  J. Ritchie,  M. A. Rohrdanz,  E. Rosta,  N. J. Russ,  
 H. F. Schaefer III,  N. E. Schultz,  N. Shenvi,  A. C. Simmonett,  A. Sodt,  
 D. Stuck,  K. S. Thanthiriwatte,  V. Vanovschi,  Tao Wang,  A. Warshel,  
 C. F. Williams,  Q. Wu,  X. Xu,  W. Zhang

 Please cite Q-Chem as follows:
 Y. Shao et al., Mol. Phys. 113, 184-215 (2015)
 DOI: 10.1080/00268976.2014.952696

 Q-Chem 5.2.0 for Intel X86 EM64T Linux

 Parts of Q-Chem use Armadillo 8.300.2 (Tropical Shenanigans).
 http://arma.sourceforge.net/

 Q-Chem begins on Sun Sep 26 01:43:56 2021  

Host: cori01
0

     Scratch files written to /tmp/qchem31269//Frg1//
 May1019 |scratch|qcdevops|jenkins|workspace|build_RNUM -1
Processing $rem in /global/common/cori/software/qchem/5.2/config/preferences:
	 MEM_TOTAL  96000 
NAlpha2: 40
NElect   40
Mult     1
Symmetry turned off for PCM/SM12/SMD calculation

Checking the input file for inconsistencies... 	...done.

--------------------------------------------------------------
User input:
--------------------------------------------------------------
$molecule
1 1
 6	-0.1003689475	1.0692417692	-3.3289895146
 6	0.0936310525	-1.1977582308	-2.3529895146
 7	-0.6263689475	-0.1197582308	-2.6399895146
 7	1.3706310525	-1.2527582308	-2.6839895146
 7	-0.4613689475	-2.2187582308	-1.7309895146
 1	-1.6023689475	-0.1207582308	-2.3779895146
 1	1.7836310525	-0.5037582308	-3.2139895146
 1	1.8956310525	-2.1017582308	-2.5469895146
 1	-1.4413689475	-2.1907582308	-1.5009895146
 1	0.0866310525	-3.0167582308	-1.4359895146
 1	0.1086310525	0.8182417692	-4.3719895146
 1	0.8276310525	1.3862417692	-2.8489895146
 1	-0.7996389475	1.9179977692	-3.3038355146
$end
$rem
EDA2		1
METHOD		WB97X-V
BASIS		DEF2-TZVPD
XC_GRID		000099000590
NL_GRID		1
UNRESTRICTED		FALSE
MAX_SCF_CYCLES		200
SYMMETRY		FALSE
SYM_IGNORE		TRUE
BASIS_LIN_DEP_THRESH		6
THRESH		14
SCF_CONVERGENCE		8
SCF_PRINT_FRGM		TRUE
SOLVENT_METHOD		PCM
!required keywords
JOBTYPE		SP
SYM_IGNORE		TRUE
SUBSYSTEM		TRUE
GEN_SCFMAN		TRUE
CHILD_INSTRUCTION		2
SYM_IGNORE		TRUE
SCFMI		0
RI_K 0		
PARI_K 0		
MIN_PARI_K 0		
IARI_K 0		
OCC_RI_K 0		
PURECART		1111
MEM_STATIC		2000
MEM_TOTAL		96000
GUI		0
CHILD_MP		1
CHILD_MP_ORDERS		232
FRZ_RELAX		0
FRZ_RELAX_METHOD		0
EDA_CLS_ELEC		1
EDA_CLS_DISP		0
FRZ_ORTHO_DECOMP		1
EDA2		FALSE
FRGM_METHOD		FALSE
CIS_N_ROOTS  0
LOCAL_CIS    0
CIS_RLX_DNS  1
$end
$pcm
THEORY                  CPCM
METHOD                  SWIG
SOLVER                  INVERSION
RADII                   UFF
HPOINTS                 302
HEAVYPOINTS             302
PRINTLEVEL              0
$end
$solvent
DIELECTRIC              78.390000 ! water
$end
--------------------------------------------------------------
 ----------------------------------------------------------------
             Standard Nuclear Orientation (Angstroms)
    I     Atom           X                Y                Z
 ----------------------------------------------------------------
    1      C      -0.1003689475     1.0692417692    -3.3289895146
    2      C       0.0936310525    -1.1977582308    -2.3529895146
    3      N      -0.6263689475    -0.1197582308    -2.6399895146
    4      N       1.3706310525    -1.2527582308    -2.6839895146
    5      N      -0.4613689475    -2.2187582308    -1.7309895146
    6      H      -1.6023689475    -0.1207582308    -2.3779895146
    7      H       1.7836310525    -0.5037582308    -3.2139895146
    8      H       1.8956310525    -2.1017582308    -2.5469895146
    9      H      -1.4413689475    -2.1907582308    -1.5009895146
   10      H       0.0866310525    -3.0167582308    -1.4359895146
   11      H       0.1086310525     0.8182417692    -4.3719895146
   12      H       0.8276310525     1.3862417692    -2.8489895146
   13      H      -0.7996389475     1.9179977692    -3.3038355146
 ----------------------------------------------------------------
 Nuclear Repulsion Energy =         194.17221055 hartrees
 There are       20 alpha and       20 beta electrons
 Requested basis set is def2-TZVPD
 There are 105 shells and 257 basis functions

 Total QAlloc Memory Limit  96000 MB
 Mega-Array Size      1956 MB
 MEM_STATIC part      2000 MB
 Discretize the solute cavity surface with Lebedev spheres
	Using 302 Lebedev grid points for each H atom
	Using 302 Lebedev grid points for other atoms
	Atomic van der Waals radii will be scaled by 1.20
 Remove points where switching function is < 1.0e-08
 Keep 1561 surface tesserae and discard 2365 interior tesserae
 Molecular Surface Area = 152.599 Angst**2

                       Distance Matrix (Angstroms)
             C (  1)   C (  2)   N (  3)   N (  4)   N (  5)   H (  6)
   C (  2)  2.475783
   N (  3)  1.471434  1.327725
   N (  4)  2.823393  1.320347  2.296439
   N (  5)  3.673536  1.318086  2.293318  2.279822
   H (  6)  2.139277  2.009221  1.010555  3.195902  2.474287
   H (  7)  2.457033  2.019668  2.506997  1.006216  3.190696  3.508644
   H (  8)  3.827634  2.025353  3.208965  1.007569  2.496997  4.023546
   H (  9)  3.970827  2.016972  2.500117  3.191657  1.007017  2.253874
   H ( 10)  4.507085  2.037081  3.217234  2.513535  1.011995  3.482370
   H ( 11)  1.092946  2.853216  2.102354  2.954831  4.064868  2.790211
   H ( 12)  1.091821  2.731635  2.103766  2.699332  3.988417  2.897894
   H ( 13)  1.099999  3.377865  2.150154  3.892040  4.438583  2.378674
             H (  7)   H (  8)   H (  9)   H ( 10)   H ( 11)   H ( 12)
   H (  8)  1.735234
   H (  9)  4.022557  3.498229
   H ( 10)  3.515148  2.311715  1.738184
   H ( 11)  2.427812  3.879484  4.438381  4.829887
   H ( 12)  2.149247  3.660324  4.445266  4.683168  1.777390
   H ( 13)  3.542070  4.898544  4.532543  5.350340  1.781957  1.771343

 
 A cutoff of  1.0D-14 yielded   5442 shell pairs
 There are     33170 function pairs (     41506 Cartesian)
 Smallest overlap matrix eigenvalue = 1.64E-05

 Scale SEOQF with 1.000000e-01/1.000000e-01/1.000000e-01

 Standard Electronic Orientation quadrupole field applied
 Nucleus-field energy     =    -0.0000000233 hartrees
 Guess from superposition of atomic densities
 Warning:  Energy on first SCF cycle will be non-variational
 SAD guess density has 40.388232 electrons

 -----------------------------------------------------------------------
  General SCF calculation program by
  Eric Jon Sundstrom, Paul Horn, Yuezhi Mao, Dmitri Zuev, Alec White,
  David Stuck, Shaama M.S., Shane Yost, Joonho Lee, David Small,
  Daniel Levine, Susi Lehtola, Hugh Burton, Evgeny Epifanovsky
 -----------------------------------------------------------------------
 Exchange:     0.1670 Hartree-Fock + 1.0000 wB97X-V + LR-HF
 Correlation:  1.0000 wB97X-V
 Using Euler-Maclaurin-Lebedev (99,590) quadrature formula
 Nonlocal Correlation:  VV10 with C = 0.0100 and b = 6.00 and scale = 1.00000
 Grid used for NLC:  SG-1 standard quadrature
Energy prior to optimization (guess energy) = -244.727101257730
Begin Timing: Total SCF Calculation
begin iterations for algorithm: DIIS         
the SCF tolerance is set to 1.00e-08
    1    -244.7271012577      7.93e-03     00000 
    2    -244.9416928945      6.23e-03     00000 
    3    -245.1806628189      3.07e-04     00000 
    4    -245.1812632620      1.78e-04     00000 
    5    -245.1814771890      3.51e-05     00000 
    6    -245.1814862079      1.36e-05     00000 
    7    -245.1814877717      2.19e-06     00000 
    8    -245.1814878462      7.76e-07     00000 
    9    -245.1814878563      3.12e-07     00000 
   10    -245.1814878580      9.04e-08     00000 
   11    -245.1814878582      3.89e-08     00000 
   12    -245.1814878582      1.08e-08     00000 
   13    -245.1814878582      1.49e-09     00000 Convergence criterion met
Timing for Total SCF: 788.00s (wall), 1563.04s (cpu)

************** Final PCM Free Energy Summary **************
 G_electrostatic  =      -0.08137704 hartree =     -51.06486041 kcal/mol
 G_cavitation     =       0.00000000 hartree =       0.00000000 kcal/mol
 G_dispersion     =       0.00000000 hartree =       0.00000000 kcal/mol
 G_repulsion      =       0.00000000 hartree =       0.00000000 kcal/mol
 --------------------------------------------------
 Non-electrostatic Free Energy =       0.00000000 hartree =       0.00000000 kcal/mol
 Total                         =      -0.08137704 hartree =     -51.06486041 kcal/mol
 --------------------------------------------------
 SCF Energy (H0 + V/2)                       =    -245.18148786 
 Solute Internal Energy (H0)                 =    -245.10011082 
 Total Free Energy (H0 + V/2 + non-elec)     =    -245.18148786 hartree
                                             = -153853.70574488 kcal/mol
***********************************************************

E_pcm = -0.0813770354
Multipole orders to be included
        2
        3
computing dipole RHS
computing quadrupole RHS
total number of RHS in solve_reponses: 8
RHS batch sizes
        8
Beginning Block Conjugate Gradient Iterations. Batch Number: 0
computing hessian-vector products by finite difference
              1      4.54e-01     00000 Conjugate Gradient Iteration
computing hessian-vector products by finite difference
              2      1.78e-01     00000 Conjugate Gradient Iteration
computing hessian-vector products by finite difference
              3      4.67e-02     00000 Conjugate Gradient Iteration
computing hessian-vector products by finite difference
              4      1.27e-02     00000 Conjugate Gradient Iteration
computing hessian-vector products by finite difference
              5      1.82e-03     00000 Conjugate Gradient Iteration
computing hessian-vector products by finite difference
              6      2.80e-04     00000 Conjugate Gradient Iteration
computing hessian-vector products by finite difference
              7      3.50e-05     00000 Conjugate Gradient Iteration
computing hessian-vector products by finite difference
              8      4.24e-06     00000 Conjugate Gradient Iteration
computing hessian-vector products by finite difference
              9      6.22e-07     00000 Conjugate Gradient Iteration
computing hessian-vector products by finite difference
             10      8.91e-08     00000 Conjugate Gradient Iteration
computing hessian-vector products by finite difference
             11      1.89e-08     00000 Conjugate Gradient Iteration
computing hessian-vector products by finite difference
             12      2.60e-09     00000 CG Converged
batch 0 complete
Done Calculating Responses
TESTING ORTHOGONALIZATION OF MULTIPOLE BASIS
Multipole virts passed orthogonality test
Virts Per Order
           60
          100
 
 --------------------------------------------------------------
 
                    Orbital Energies (a.u.)
 --------------------------------------------------------------
 
 Alpha MOs
 -- Occupied --
-14.4825 -14.4768 -14.4747 -10.4503 -10.3318  -1.2007  -1.0817  -1.0718
 -0.8783  -0.7956  -0.7527  -0.7172  -0.6456  -0.6415  -0.6217  -0.5975
 -0.5510  -0.5329  -0.4265  -0.4023
 -- Virtual --
  0.0485   0.0746   0.0795   0.0866   0.1131   0.1145   0.1229   0.1404
  0.1583   0.1691   0.1784   0.1846   0.1906   0.1961   0.2078   0.2233
  0.2316   0.2341   0.2415   0.2538   0.2655   0.2729   0.2843   0.2857
  0.3002   0.3046   0.3092   0.3140   0.3238   0.3261   0.3355   0.3468
  0.3501   0.3640   0.3669   0.3867   0.3936   0.3973   0.4011   0.4206
  0.4320   0.4356   0.4416   0.4464   0.4585   0.4616   0.4779   0.4841
  0.4883   0.4904   0.5040   0.5104   0.5142   0.5221   0.5322   0.5419
  0.5445   0.5568   0.5638   0.5755   0.5942   0.6112   0.6295   0.6413
  0.6458   0.6534   0.6664   0.6849   0.6986   0.7177   0.7310   0.7396
  0.7690   0.7804   0.8021   0.8139   0.8186   0.8298   0.8324   0.8586
  0.8630   0.8757   0.8910   0.8996   0.9155   0.9566   0.9687   0.9974
  1.0179   1.0473   1.0598   1.0697   1.0811   1.0925   1.1108   1.1140
  1.1406   1.1680   1.1979   1.2307   1.2497   1.3148   1.3481   1.3949
  1.4124   1.4197   1.4483   1.4724   1.5323   1.5470   1.6285   1.6455
  1.6514   1.6825   1.7210   1.7697   1.8175   1.8301   1.8448   1.8626
  1.8719   1.8913   1.8969   1.9549   1.9756   1.9881   2.0070   2.0465
  2.0768   2.1011   2.1465   2.1545   2.1855   2.2314   2.2349   2.2732
  2.2937   2.3276   2.3652   2.3743   2.4252   2.4491   2.4847   2.5207
  2.5478   2.5714   2.6106   2.6123   2.6254   2.6377   2.6882   2.7376
  2.7715   2.7918   2.8104   2.8627   2.8709   2.8860   2.9000   2.9441
  3.0256   3.1049   3.1122   3.1189   3.1564   3.1751   3.2000   3.2304
  3.2456   3.2644   3.2994   3.3108   3.3319   3.3671   3.3943   3.4104
  3.4311   3.4626   3.4827   3.5736   3.6005   3.6186   3.6564   3.7157
  3.7737   3.8294   3.9298   3.9504   4.0781   4.1077   4.1336   4.2043
  4.2754   4.2996   4.3043   4.3312   4.3791   4.4690   4.5607   4.5984
  4.6339   4.8136   4.8302   4.8438   4.9178   4.9695   5.0012   5.0262
  5.0886   5.0943   5.1083   5.1392   5.1618   5.1846   5.2474   5.3366
  5.3661   5.3888   5.4221   5.4422   5.4598   5.4980   5.5547   5.6248
  5.6710   5.7568   5.7848   5.8683   6.1288   6.1663   6.3681   6.4441
 22.6518  23.6272  32.3101  32.4250  32.7841
 --------------------------------------------------------------
 
          Ground-State Mulliken Net Atomic Charges

     Atom                 Charge (a.u.)
  ----------------------------------------
      1 C                    -0.816587
      2 C                     0.528502
      3 N                    -0.080684
      4 N                    -0.245531
      5 N                    -0.263075
      6 H                     0.231053
      7 H                     0.187215
      8 H                     0.204477
      9 H                     0.200454
     10 H                     0.202670
     11 H                     0.304844
     12 H                     0.301896
     13 H                     0.244767
  ----------------------------------------
  Sum of atomic charges =     1.000000

 -----------------------------------------------------------------
                    Cartesian Multipole Moments
 -----------------------------------------------------------------
    Charge (ESU x 10^10)
                 4.8032
    Dipole Moment (Debye)
         X       0.2834      Y      -5.1423      Z     -11.7452
       Tot      12.8247
    Quadrupole Moments (Debye-Ang)
        XX     -17.7343     XY      -2.6588     YY     -11.0365
        XZ      -4.1421     YZ       6.0581     ZZ       0.6255
    Octopole Moments (Debye-Ang^2)
       XXX      -4.1575    XXY       5.9474    XYY       3.7625
       YYY      18.0793    XXZ      47.2412    XYZ      10.7096
       YYZ      45.3557    XZZ      16.4204    YZZ      19.3663
       ZZZ     146.1906
    Hexadecapole Moments (Debye-Ang^3)
      XXXX     -99.2216   XXXY       6.4862   XXYY     -52.7961
      XYYY      -8.3070   YYYY    -246.6957   XXXZ       6.7636
      XXYZ      -3.6498   XYYZ      -9.9229   YYYZ     -46.1155
      XXZZ    -162.2805   XYZZ     -28.1144   YYZZ    -223.7663
      XZZZ     -41.3463   YZZZ    -130.2821   ZZZZ   -1032.2217
 -----------------------------------------------------------------
Archival summary:
1\1\nid00567\SP\ProcedureUnspecified\BasisUnspecified\328(1+,1)\meili\SunSep2605:33:122021SunSep2605:33:122021\0\\#,ProcedureUnspecified,BasisUnspecified,\\1,1\C\N,1,1.31809\H,2,1.00702,1,119.736\H,2,1.01199,1,121.357,3,-176.925,0\N,1,1.32035,2,119.556,3,-178.237,0\H,5,1.00622,1,119.869,2,175.825,0\H,5,1.00757,1,120.329,2,6.11298,0\N,1,1.32772,2,120.171,3,2.00368,0\H,8,1.01055,1,117.833,2,-0.834126,0\C,8,1.47143,1,124.294,2,179.947,0\H,10,1.09182,8,109.426,1,-49.3445,0\H,10,1.09295,8,109.247,1,69.778,0\H,10,1.1,8,112.677,1,-169.298,0\\\@

 Total job time:  13756.47s(wall), 27242.28s(cpu) 
 Sun Sep 26 05:33:13 2021

        *************************************************************
        *                                                           *
        *  Thank you very much for using Q-Chem.  Have a nice day.  *
        *                                                           *
        *************************************************************


Done Job For Fragment 0
calling putenv with: QCSCRATCH=/global/cscratch1/sd/meili 
calling putenv with: QCLOCALSCR=/tmp 
calling putenv with: QCTHREADS=32 
Creating input file /tmp/qchem31269/Frg2.input
using default PutDataFrgm: nothing
calling putenv with: QCSCRATCH=/tmp/qchem31269/ 
calling putenv with: QCLOCALSCR=/tmp/qchem31269/ 
Spawning Job For Fragment 1
                  Welcome to Q-Chem
     A Quantum Leap Into The Future Of Chemistry


 Q-Chem 5.2, Q-Chem, Inc., Pleasanton, CA (2019)

 License issued to: National Energy Research Scientific Computing Center

 Yihan Shao,  Zhengting Gan,  E. Epifanovsky,  A. T. B. Gilbert,  M. Wormit,  
 J. Kussmann,  A. W. Lange,  A. Behn,  Jia Deng,  Xintian Feng,  D. Ghosh,  
 M. Goldey,  P. R. Horn,  L. D. Jacobson,  I. Kaliman,  T. Kus,  A. Landau,  
 Jie Liu,  E. I. Proynov,  R. M. Richard,  R. P. Steele,  E. J. Sundstrom,  
 H. L. Woodcock III,  P. M. Zimmerman,  D. Zuev,  B. Albrecht,  E. Alguire,  
 S. A. Baeppler,  D. Barton,  Z. Benda,  Y. A. Bernard,  E. J. Berquist,  
 K. B. Bravaya,  H. Burton,  D. Casanova,  Chun-Min Chang,  Yunqing Chen,  
 A. Chien,  K. D. Closser,  M. P. Coons,  S. Coriani,  S. Dasgupta,  
 A. L. Dempwolff,  M. Diedenhofen,  Hainam Do,  R. G. Edgar,  Po-Tung Fang,  
 S. Faraji,  S. Fatehi,  Qingguo Feng,  K. D. Fenk,  J. Fosso-Tande,  
 J. Gayvert,  Qinghui Ge,  A. Ghysels,  G. Gidofalvi,  J. Gomes,  
 J. Gonthier,  A. Gunina,  D. Hait,  M. W. D. Hanson-Heine,  
 P. H. P. Harbach,  A. W. Hauser,  M. F. Herbst,  J. E. Herr,  
 E. G. Hohenstein,  Z. C. Holden,  Kerwin Hui,  B. C. Huynh,  T.-C. Jagau,  
 Hyunjun Ji,  B. Kaduk,  K. Khistyaev,  Jaehoon Kim,  P. Klunzinger,  K. Koh,  
 D. Kosenkov,  L. Koulias,  T. Kowalczyk,  C. M. Krauter,  A. Kunitsa,  
 Ka Un Lao,  A. Laurent,  K. V. Lawler,  Joonho Lee,  D. Lefrancois,  
 S. Lehtola,  D. S. Levine,  Yi-Pei Li,  You-Sheng Lin,  Fenglai Liu,  
 E. Livshits,  A. Luenser,  P. Manohar,  E. Mansoor,  S. F. Manzer,  
 Shan-Ping Mao,  Yuezhi Mao,  N. Mardirossian,  A. V. Marenich,  
 T. Markovich,  L. A. Martinez-Martinez,  S. A. Maurer,  N. J. Mayhall,  
 S. C. McKenzie,  J.-M. Mewes,  P. Morgante,  A. F. Morrison,  
 J. W. Mullinax,  K. Nanda,  T. S. Nguyen-Beck,  R. Olivares-Amaya,  
 J. A. Parkhill,  Zheng Pei,  T. M. Perrine,  F. Plasser,  P. Pokhilko,  
 S. Prager,  A. Prociuk,  E. Ramos,  D. R. Rehn,  F. Rob,  M. Scheurer,  
 M. Schneider,  N. Sergueev,  S. M. Sharada,  S. Sharma,  D. W. Small,  
 T. Stauch,  T. Stein,  Yu-Chuan Su,  A. J. W. Thom,  A. Tkatchenko,  
 T. Tsuchimochi,  N. M. Tubman,  L. Vogt,  M. L. Vidal,  O. Vydrov,  
 M. A. Watson,  J. Wenzel,  M. de Wergifosse,  T. A. Wesolowski,  A. White,  
 J. Witte,  A. Yamada,  Jun Yang,  K. Yao,  S. Yeganeh,  S. R. Yost,  
 Zhi-Qiang You,  A. Zech,  Igor Ying Zhang,  Xing Zhang,  Yan Zhao,  
 Ying Zhu,  B. R. Brooks,  G. K. L. Chan,  C. J. Cramer,  M. S. Gordon,  
 W. J. Hehre,  A. Klamt,  M. W. Schmidt,  C. D. Sherrill,  D. G. Truhlar,  
 A. Aspuru-Guzik,  R. Baer,  A. T. Bell,  N. A. Besley,  Jeng-Da Chai,  
 A. E. DePrince, III,  R. A. DiStasio Jr.,  A. Dreuw,  B. D. Dunietz,  
 T. R. Furlani,  Chao-Ping Hsu,  Yousung Jung,  Jing Kong,  D. S. Lambrecht,  
 WanZhen Liang,  C. Ochsenfeld,  V. A. Rassolov,  L. V. Slipchenko,  
 J. E. Subotnik,  T. Van Voorhis,  J. M. Herbert,  A. I. Krylov,  
 P. M. W. Gill,  M. Head-Gordon

 Contributors to earlier versions of Q-Chem not listed above: 
 R. D. Adamson,  B. Austin,  J. Baker,  G. J. O. Beran,  K. Brandhorst,  
 S. T. Brown,  E. F. C. Byrd,  A. K. Chakraborty,  C.-L. Cheng,  
 Siu Hung Chien,  D. M. Chipman,  D. L. Crittenden,  H. Dachsel,  
 R. J. Doerksen,  A. D. Dutoi,  L. Fusti-Molnar,  W. A. Goddard III,  
 A. Golubeva-Zadorozhnaya,  S. R. Gwaltney,  G. Hawkins,  A. Heyden,  
 S. Hirata,  G. Kedziora,  F. J. Keil,  C. Kelley,  Jihan Kim,  R. A. King,  
 R. Z. Khaliullin,  P. P. Korambath,  W. Kurlancheek,  A. M. Lee,  M. S. Lee,  
 S. V. Levchenko,  Ching Yeh Lin,  D. Liotard,  R. C. Lochan,  I. Lotan,  
 P. E. Maslen,  N. Nair,  D. P. O'Neill,  D. Neuhauser,  E. Neuscamman,  
 C. M. Oana,  R. Olson,  B. Peters,  R. Peverati,  P. A. Pieniazek,  
 Y. M. Rhee,  J. Ritchie,  M. A. Rohrdanz,  E. Rosta,  N. J. Russ,  
 H. F. Schaefer III,  N. E. Schultz,  N. Shenvi,  A. C. Simmonett,  A. Sodt,  
 D. Stuck,  K. S. Thanthiriwatte,  V. Vanovschi,  Tao Wang,  A. Warshel,  
 C. F. Williams,  Q. Wu,  X. Xu,  W. Zhang

 Please cite Q-Chem as follows:
 Y. Shao et al., Mol. Phys. 113, 184-215 (2015)
 DOI: 10.1080/00268976.2014.952696

 Q-Chem 5.2.0 for Intel X86 EM64T Linux

 Parts of Q-Chem use Armadillo 8.300.2 (Tropical Shenanigans).
 http://arma.sourceforge.net/

 Q-Chem begins on Sun Sep 26 05:33:14 2021  

Host: cori01
0

     Scratch files written to /tmp/qchem31269//Frg2//
 May1019 |scratch|qcdevops|jenkins|workspace|build_RNUM -1
Processing $rem in /global/common/cori/software/qchem/5.2/config/preferences:
	 MEM_TOTAL  96000 
NAlpha2: 58
NElect   58
Mult     1
Symmetry turned off for PCM/SM12/SMD calculation

Checking the input file for inconsistencies... 	...done.

--------------------------------------------------------------
User input:
--------------------------------------------------------------
$molecule
0 1
 6	2.6026310525	-0.7387582308	1.5260104854
 6	-0.6043689475	1.1182417692	0.6430104854
 6	0.6636310525	0.5462417692	0.5470104854
 6	-1.2903689475	1.0862417692	1.8580104854
 6	1.2586310525	-0.0617582308	1.6570104854
 6	-0.7063689475	0.4882417692	2.9770104854
 6	0.5646310525	-0.0817582308	2.8710104854
 8	-2.5363689475	1.6292417692	1.9460104854
 1	-1.0503689475	1.5892417692	-0.2159895146
 1	1.2006310525	0.5852417692	-0.3909895146
 1	-2.8383689475	1.9052417692	1.0490104854
 1	-1.2463689475	0.4572417692	3.9120104854
 1	3.0936310525	-0.7727582308	2.4990104854
 1	3.2226310525	-0.1237582308	0.8710104854
 1	1.0046310525	-0.5627582308	3.7340104854
 1	2.5292710525	-1.7557122308	1.1131874854
$end
$rem
EDA2		1
METHOD		WB97X-V
BASIS		DEF2-TZVPD
XC_GRID		000099000590
NL_GRID		1
UNRESTRICTED		FALSE
MAX_SCF_CYCLES		200
SYMMETRY		FALSE
SYM_IGNORE		TRUE
BASIS_LIN_DEP_THRESH		6
THRESH		14
SCF_CONVERGENCE		8
SCF_PRINT_FRGM		TRUE
SOLVENT_METHOD		PCM
!required keywords
JOBTYPE		SP
SYM_IGNORE		TRUE
SUBSYSTEM		TRUE
GEN_SCFMAN		TRUE
CHILD_INSTRUCTION		2
SYM_IGNORE		TRUE
SCFMI		0
RI_K 0		
PARI_K 0		
MIN_PARI_K 0		
IARI_K 0		
OCC_RI_K 0		
PURECART		1111
MEM_STATIC		2000
MEM_TOTAL		96000
GUI		0
CHILD_MP		1
CHILD_MP_ORDERS		232
FRZ_RELAX		0
FRZ_RELAX_METHOD		0
EDA_CLS_ELEC		1
EDA_CLS_DISP		0
FRZ_ORTHO_DECOMP		1
EDA2		FALSE
FRGM_METHOD		FALSE
CIS_N_ROOTS  0
LOCAL_CIS    0
CIS_RLX_DNS  1
$end
$pcm
THEORY                  CPCM
METHOD                  SWIG
SOLVER                  INVERSION
RADII                   UFF
HPOINTS                 302
HEAVYPOINTS             302
PRINTLEVEL              0
$end
$solvent
DIELECTRIC              78.390000 ! water
$end
--------------------------------------------------------------
 ----------------------------------------------------------------
             Standard Nuclear Orientation (Angstroms)
    I     Atom           X                Y                Z
 ----------------------------------------------------------------
    1      C       2.6026310525    -0.7387582308     1.5260104854
    2      C      -0.6043689475     1.1182417692     0.6430104854
    3      C       0.6636310525     0.5462417692     0.5470104854
    4      C      -1.2903689475     1.0862417692     1.8580104854
    5      C       1.2586310525    -0.0617582308     1.6570104854
    6      C      -0.7063689475     0.4882417692     2.9770104854
    7      C       0.5646310525    -0.0817582308     2.8710104854
    8      O      -2.5363689475     1.6292417692     1.9460104854
    9      H      -1.0503689475     1.5892417692    -0.2159895146
   10      H       1.2006310525     0.5852417692    -0.3909895146
   11      H      -2.8383689475     1.9052417692     1.0490104854
   12      H      -1.2463689475     0.4572417692     3.9120104854
   13      H       3.0936310525    -0.7727582308     2.4990104854
   14      H       3.2226310525    -0.1237582308     0.8710104854
   15      H       1.0046310525    -0.5627582308     3.7340104854
   16      H       2.5292710525    -1.7557122308     1.1131874854
 ----------------------------------------------------------------
 Nuclear Repulsion Energy =         342.48916744 hartrees
 There are       29 alpha and       29 beta electrons
 Requested basis set is def2-TZVPD
 There are 145 shells and 371 basis functions

 Total QAlloc Memory Limit  96000 MB
 Mega-Array Size      1956 MB
 MEM_STATIC part      2000 MB
 Discretize the solute cavity surface with Lebedev spheres
	Using 302 Lebedev grid points for each H atom
	Using 302 Lebedev grid points for other atoms
	Atomic van der Waals radii will be scaled by 1.20
 Remove points where switching function is < 1.0e-08
 Keep 1859 surface tesserae and discard 2973 interior tesserae
 Molecular Surface Area = 190.202 Angst**2
 A cutoff of  1.0D-14 yielded  10044 shell pairs
 There are     67076 function pairs (     85768 Cartesian)
 Smallest overlap matrix eigenvalue = 5.71E-07
 Linear dependence detected in AO basis
 Tighter screening thresholds may be required for diffuse basis sets
 Use S2THRESH > 14 and THRESH = 14 in case of SCF convergence issues
 Number of orthogonalized atomic orbitals = 370
 Maximum deviation from orthogonality = 3.059E-10

 Scale SEOQF with 1.000000e-01/1.000000e-01/1.000000e-01

 Standard Electronic Orientation quadrupole field applied
 Nucleus-field energy     =    -0.0000000148 hartrees
 Guess from superposition of atomic densities
 Warning:  Energy on first SCF cycle will be non-variational
 SAD guess density has 57.738434 electrons

 -----------------------------------------------------------------------
  General SCF calculation program by
  Eric Jon Sundstrom, Paul Horn, Yuezhi Mao, Dmitri Zuev, Alec White,
  David Stuck, Shaama M.S., Shane Yost, Joonho Lee, David Small,
  Daniel Levine, Susi Lehtola, Hugh Burton, Evgeny Epifanovsky
 -----------------------------------------------------------------------
 Exchange:     0.1670 Hartree-Fock + 1.0000 wB97X-V + LR-HF
 Correlation:  1.0000 wB97X-V
 Using Euler-Maclaurin-Lebedev (99,590) quadrature formula
 Nonlocal Correlation:  VV10 with C = 0.0100 and b = 6.00 and scale = 1.00000
 Grid used for NLC:  SG-1 standard quadrature
Energy prior to optimization (guess energy) = -346.494860930983
Begin Timing: Total SCF Calculation
begin iterations for algorithm: DIIS         
the SCF tolerance is set to 1.00e-08
    1    -346.4948609310      5.17e-03     00000 
    2    -346.4200699546      5.67e-03     00000 
    3    -346.8116720864      5.40e-04     00000 
    4    -346.8158902483      1.82e-04     00000 
    5    -346.8165114947      2.55e-05     00000 
    6    -346.8165316692      1.30e-05     00000 
    7    -346.8165351550      4.05e-06     00000 
    8    -346.8165356120      1.29e-06     00000 
    9    -346.8165356753      5.88e-07     00000 
   10    -346.8165356872      1.51e-07     00000 
   11    -346.8165356894      6.85e-08     00000 
   12    -346.8165356898      3.54e-08     00000 
   13    -346.8165356898      7.91e-09     00000 Convergence criterion met
Timing for Total SCF: 2103.00s (wall), 4180.50s (cpu)

************** Final PCM Free Energy Summary **************
 G_electrostatic  =      -0.00566983 hartree =      -3.55787485 kcal/mol
 G_cavitation     =       0.00000000 hartree =       0.00000000 kcal/mol
 G_dispersion     =       0.00000000 hartree =       0.00000000 kcal/mol
 G_repulsion      =       0.00000000 hartree =       0.00000000 kcal/mol
 --------------------------------------------------
 Non-electrostatic Free Energy =       0.00000000 hartree =       0.00000000 kcal/mol
 Total                         =      -0.00566983 hartree =      -3.55787485 kcal/mol
 --------------------------------------------------
 SCF Energy (H0 + V/2)                       =    -346.81653569 
 Solute Internal Energy (H0)                 =    -346.81086586 
 Total Free Energy (H0 + V/2 + non-elec)     =    -346.81653569 hartree
                                             = -217630.66084478 kcal/mol
***********************************************************

E_pcm = -0.0056698345
Multipole orders to be included
        2
        3
computing dipole RHS
computing quadrupole RHS
total number of RHS in solve_reponses: 8
RHS batch sizes
        8
Beginning Block Conjugate Gradient Iterations. Batch Number: 0
computing hessian-vector products by finite difference
              1      6.07e-01     00000 Conjugate Gradient Iteration
computing hessian-vector products by finite difference
              2      1.95e-01     00000 Conjugate Gradient Iteration
computing hessian-vector products by finite difference
              3      5.01e-02     00000 Conjugate Gradient Iteration
computing hessian-vector products by finite difference
              4      1.46e-02     00000 Conjugate Gradient Iteration
computing hessian-vector products by finite difference
              5      4.57e-03     00000 Conjugate Gradient Iteration
computing hessian-vector products by finite difference
              6      1.67e-03     00000 Conjugate Gradient Iteration
computing hessian-vector products by finite difference
              7      3.94e-04     00000 Conjugate Gradient Iteration
computing hessian-vector products by finite difference
              8      7.38e-05     00000 Conjugate Gradient Iteration
computing hessian-vector products by finite difference
              9      1.38e-05     00000 Conjugate Gradient Iteration
computing hessian-vector products by finite difference
             10      1.90e-06     00000 Conjugate Gradient Iteration
computing hessian-vector products by finite difference
             11      2.57e-07     00000 Conjugate Gradient Iteration
computing hessian-vector products by finite difference
             12      3.68e-08     00000 Conjugate Gradient Iteration
computing hessian-vector products by finite difference
             13      1.35e-08     00000 Conjugate Gradient Iteration
computing hessian-vector products by finite difference
             14      2.57e-09     00000 CG Converged
batch 0 complete
Done Calculating Responses
TESTING ORTHOGONALIZATION OF MULTIPOLE BASIS
Multipole virts passed orthogonality test
Virts Per Order
           87
          145
 
 --------------------------------------------------------------
 
                    Orbital Energies (a.u.)
 --------------------------------------------------------------
 
 Alpha MOs
 -- Occupied --
-19.2481 -10.3365 -10.2771 -10.2758 -10.2756 -10.2731 -10.2728 -10.2619
 -1.1938  -0.9937  -0.9002  -0.8842  -0.8087  -0.7487  -0.7127  -0.6631
 -0.6039  -0.5807  -0.5499  -0.5418  -0.5349  -0.5219  -0.5124  -0.4773
 -0.4562  -0.4426  -0.4415  -0.3530  -0.3125
 -- Virtual --
  0.0572   0.0581   0.0681   0.0770   0.0830   0.0944   0.1084   0.1100
  0.1139   0.1312   0.1438   0.1512   0.1532   0.1690   0.1743   0.1917
  0.1998   0.2027   0.2161   0.2232   0.2339   0.2392   0.2493   0.2511
  0.2628   0.2647   0.2701   0.2741   0.2807   0.2945   0.2951   0.3018
  0.3035   0.3091   0.3121   0.3229   0.3327   0.3406   0.3433   0.3477
  0.3546   0.3551   0.3590   0.3707   0.3768   0.3780   0.3803   0.3913
  0.3926   0.3932   0.3978   0.4084   0.4113   0.4211   0.4236   0.4307
  0.4358   0.4486   0.4552   0.4586   0.4696   0.4717   0.4738   0.4799
  0.4847   0.4942   0.4969   0.5022   0.5097   0.5147   0.5242   0.5335
  0.5397   0.5468   0.5495   0.5572   0.5612   0.5689   0.5835   0.5959
  0.5987   0.6047   0.6182   0.6278   0.6415   0.6547   0.6655   0.6676
  0.6731   0.6809   0.6887   0.6940   0.6973   0.6990   0.7139   0.7276
  0.7314   0.7369   0.7426   0.7520   0.7562   0.7739   0.7783   0.7848
  0.7881   0.7889   0.7931   0.7986   0.8052   0.8101   0.8277   0.8340
  0.8395   0.8461   0.8521   0.8546   0.8682   0.8728   0.8809   0.8888
  0.8988   0.9096   0.9283   0.9487   0.9596   0.9698   0.9880   1.0079
  1.0168   1.0341   1.0399   1.0459   1.0528   1.0723   1.0737   1.0813
  1.1010   1.1168   1.1387   1.1772   1.1923   1.2287   1.2550   1.2891
  1.2997   1.3089   1.3269   1.3520   1.3578   1.3861   1.3894   1.4272
  1.4538   1.4647   1.4715   1.4782   1.5255   1.5611   1.6013   1.6173
  1.6272   1.6329   1.6799   1.6837   1.6991   1.7215   1.7831   1.8006
  1.8164   1.8235   1.8349   1.8571   1.8673   1.8801   1.9187   1.9246
  1.9380   1.9511   1.9703   1.9857   1.9985   2.0294   2.0323   2.0488
  2.0569   2.0712   2.0901   2.0993   2.1138   2.1464   2.1908   2.2080
  2.2169   2.2340   2.2671   2.2757   2.2948   2.3044   2.3398   2.3615
  2.3960   2.4080   2.4336   2.4554   2.4892   2.4919   2.5181   2.5552
  2.5759   2.5941   2.6125   2.6416   2.6440   2.6672   2.6815   2.7378
  2.7510   2.7586   2.7715   2.7967   2.8192   2.8298   2.8615   2.8766
  2.8958   2.9149   2.9343   2.9461   2.9578   2.9656   2.9722   2.9973
  3.0094   3.0408   3.0687   3.0786   3.1023   3.1257   3.1402   3.1606
  3.1791   3.1979   3.2172   3.2234   3.2452   3.2576   3.2755   3.2903
  3.3274   3.3393   3.3826   3.3863   3.3920   3.4125   3.4459   3.4554
  3.4622   3.4723   3.4929   3.5101   3.5170   3.5208   3.5340   3.5406
  3.5556   3.5628   3.5777   3.5936   3.5948   3.6181   3.6458   3.6584
  3.6749   3.6963   3.7339   3.7588   3.7926   3.8060   3.8357   3.8868
  3.9333   3.9578   3.9723   3.9841   4.0337   4.0792   4.1201   4.1407
  4.2444   4.2648   4.2787   4.2999   4.3058   4.3219   4.3349   4.3520
  4.3678   4.3763   4.4193   4.4450   4.4893   4.5339   4.5977   4.6011
  4.7295   4.7352   4.7783   4.7985   4.8755   4.9158   5.0213   5.0563
  5.0857   5.1255   5.1453   5.2952   5.3153   5.4079   5.4428   5.5310
  5.5872   5.6446   5.7103   5.7591   5.9476   6.1620   6.4661   6.5381
  6.6388   6.8722   7.0112   7.2901   7.4354  22.6556  22.6767  22.9251
 22.9826  23.0201  23.1653  23.4883  44.4147
 --------------------------------------------------------------
 
          Ground-State Mulliken Net Atomic Charges

     Atom                 Charge (a.u.)
  ----------------------------------------
      1 C                    -1.026548
      2 C                    -0.405883
      3 C                    -0.633450
      4 C                     0.841213
      5 C                     0.583518
      6 C                    -0.750429
      7 C                    -0.418774
      8 O                    -0.496246
      9 H                     0.277108
     10 H                     0.320416
     11 H                     0.302677
     12 H                     0.330911
     13 H                     0.278208
     14 H                     0.271418
     15 H                     0.314616
     16 H                     0.211246
  ----------------------------------------
  Sum of atomic charges =     0.000000

 -----------------------------------------------------------------
                    Cartesian Multipole Moments
 -----------------------------------------------------------------
    Charge (ESU x 10^10)
                 0.0000
    Dipole Moment (Debye)
         X       0.5139      Y      -0.0344      Z      -1.7289
       Tot       1.8039
    Quadrupole Moments (Debye-Ang)
        XX     -45.8975     XY      -3.1021     YY     -49.0585
        XZ       5.1561     YZ      -5.3571     ZZ     -48.8088
    Octopole Moments (Debye-Ang^2)
       XXX     -10.1975    XXY     -18.0811    XYY      -8.2843
       YYY     -68.5678    XXZ     -94.9237    XYZ       4.0134
       YYZ     -94.5716    XZZ      10.4846    YZZ     -36.7834
       ZZZ    -238.6765
    Hexadecapole Moments (Debye-Ang^3)
      XXXX    -789.6792   XXXY     146.9431   XXYY    -170.5485
      XYYY     151.3004   YYYY    -300.0918   XXXZ      57.3274
      XXYZ     -57.2107   XYYZ      17.6644   YYYZ    -111.1530
      XXZZ    -358.0867   XYZZ      67.6898   YYZZ    -276.9029
      XZZZ      40.3272   YZZZ    -136.3050   ZZZZ   -1092.2662
 -----------------------------------------------------------------
Archival summary:
1\1\nid00567\SP\ProcedureUnspecified\BasisUnspecified\178\meili\SunSep2616:45:432021SunSep2616:45:432021\0\\#,ProcedureUnspecified,BasisUnspecified,\\0,1\C\O,1,1.36202\H,2,0.985895,1,109.454\C,1,1.39565,2,119.786,3,6.31968,0\H,4,1.0764,1,120.073,2,1.30058,0\C,4,1.39435,1,119.836,2,-179.113,0\H,6,1.08154,4,119.765,1,-179.051,0\C,1,1.39672,2,120.095,3,-173.082,0\H,8,1.08018,1,119.785,2,0.0434271,0\C,8,1.39699,1,119.625,2,179.133,0\H,10,1.08154,8,119.41,1,-178.685,0\C,6,1.3985,4,120.704,1,0.020354,0\C,12,1.51057,6,120.302,4,176.955,0\H,13,1.0904,12,109.708,6,156.123,0\H,13,1.09163,12,107.751,6,39.6238,0\H,13,1.1,12,112.802,6,-81.3387,0\\\@

 Total job time:  40354.34s(wall), 80074.07s(cpu) 
 Sun Sep 26 16:45:49 2021

        *************************************************************
        *                                                           *
        *  Thank you very much for using Q-Chem.  Have a nice day.  *
        *                                                           *
        *************************************************************


Done Job For Fragment 1
calling putenv with: QCSCRATCH=/global/cscratch1/sd/meili 
calling putenv with: QCLOCALSCR=/tmp 
calling putenv with: QCTHREADS=32 
Doing General SCFMI
 Exchange:     0.1670 Hartree-Fock + 1.0000 wB97X-V + LR-HF
 Correlation:  1.0000 wB97X-V
 Using Euler-Maclaurin-Lebedev (99,590) quadrature formula
 Nonlocal Correlation:  VV10 with C = 0.0100 and b = 6.00 and scale = 1.00000
 Grid used for NLC:  SG-1 standard quadrature
performing fock build before subrot guess so that all methods have access
Printing subrot_rss_gen Method Specification:
Occupied Subspace Method is 0
Virtual Subspace Method is 0
Energy of the unrelaxed supersystem initial determinant -591.910304905214
performing fock build before subrot guess so that all methods have access
Printing subrot_rss_gen Method Specification:
Occupied Subspace Method is 0
Virtual Subspace Method is 0
Energy of the unrelaxed supersystem initial determinant w/ solvent -592.000202111157
write pseudocanon occs and virts to disk
write pseudocanon orbital energies to disk
Tolerance of ortho_decomp_scf: 1.00e-06
GDM subspace size: 20
Beginning the Orthogonal Decomposition of the Initial Supersystem Wavefunction
    1    -591.8972506674      1.90e-02     ortho_decomp Preconditoned Steepest Descent
    2    -591.8985971532      4.61e-04     ortho_decomp BFGS Step
    3    -591.8986010837      3.20e-05     ortho_decomp BFGS Step
    4    -591.8986010896      1.20e-06     ortho_decomp BFGS Step
    5    -591.8986010896      3.71e-08     ortho_decomp 00000 Convergence criterion met
 Hartree-Fock
 Hartree-Fock
 Hartree-Fock
Doing General SCFMI
 Exchange:     0.1670 Hartree-Fock + 1.0000 wB97X-V + LR-HF
 Correlation:  1.0000 wB97X-V
 Using Euler-Maclaurin-Lebedev (99,590) quadrature formula
 Nonlocal Correlation:  VV10 with C = 0.0100 and b = 6.00 and scale = 1.00000
 Grid used for NLC:  SG-1 standard quadrature
performing fock build at end of subrot_r(subrot) constructor so that all methods have access
<S^2> of initial wavefunction before polarization iterations 0.0000000000
Beginning iterations for the determination of the polarized wavefunction
Energy prior to optimization (guess energy) = -592.000202111158
Begin Timing: Total SCF Calculation
begin iterations for algorithm: DIIS         
the SCF tolerance is set to 1.00e-08
    1    -592.0002021112      6.69e-05     00000 
    2    -592.0007218684      2.71e-05     00000 
    3    -592.0007779104      1.28e-05     00000 
    4    -592.0007939954      6.20e-06     00000 
    5    -592.0007979794      2.39e-06     00000 
    6    -592.0007989653      1.05e-06     00000 
    7    -592.0007990852      4.02e-07     00000 
    8    -592.0007991039      1.58e-07     00000 
    9    -592.0007991059      6.36e-08     00000 
   10    -592.0007991062      2.46e-08     00000 
   11    -592.0007991062      1.21e-08     00000 
   12    -592.0007991062      5.11e-09     00000 Convergence criterion met
write pseudocanon occs and virts to disk
write pseudocanon orbital energies to disk
Timing for Total SCF: 9543.00s (wall), 18987.29s (cpu)
<S^2> of polarized wavefunction after polarization iterations 0.0000000000
relaxing scfmi constraint to allow all rotations in the entire AO span
Doing General SCFMI
 Exchange:     0.1670 Hartree-Fock + 1.0000 wB97X-V + LR-HF
 Correlation:  1.0000 wB97X-V
 Using Euler-Maclaurin-Lebedev (99,590) quadrature formula
 Nonlocal Correlation:  VV10 with C = 0.0100 and b = 6.00 and scale = 1.00000
 Grid used for NLC:  SG-1 standard quadrature
performing fock build at end of subrot_r(subrot) constructor so that all methods have access
<S^2> of polarized wavefunction before ct-allowed iterations 0.0000000000
Beginning iterations for the determination of the CT-Allowed wavefunction
Energy prior to optimization (guess energy) = -592.000799106214
Begin Timing: Total SCF Calculation
begin iterations for algorithm: DIIS         
the SCF tolerance is set to 1.00e-08
    1    -592.0007991062      6.47e-05     00000 
    2    -592.0014847595      5.70e-06     00000 
    3    -592.0015006652      8.42e-07     00000 
    4    -592.0015011011      3.42e-07     00000 
    5    -592.0015011236      9.55e-08     00000 
    6    -592.0015011266      3.04e-08     00000 
    7    -592.0015011268      1.07e-08     00000 
    8    -592.0015011268      3.64e-09     00000 Convergence criterion met
write pseudocanon occs and virts to disk
write pseudocanon orbital energies to disk
Timing for Total SCF: 5972.00s (wall), 11888.49s (cpu)
<S^2> of ct_allowed wavefunction after ct-allowed iterations 0.0000000000

================================
        Results of EDA2         
================================
Basic EDA Quantities
--------------------
Fragment Energies (Ha):
1 -245.1814878582
2 -346.8165356898
--------------------
  E_prp (kJ/mol) = 0.0000
  E_sol (kJ/mol) = -7.4836
  E_frz (kJ/mol) = 1.7638
  E_pol (kJ/mol) = -1.5674
  E_vct (kJ/mol) = -1.8432
  E_int (kJ/mol) = -9.1305
--------------------


Initial Wavefunction Decomposition
--------------------
  --------------------
  Orthogonal Fragment Subspace Decomposition:
  --------------------
     E_elec   (ELEC)   (kJ/mol) = -5.0778
     E_pauli  (PAULI)  (kJ/mol) = 24.7779
     E_disp   (DISP)   (kJ/mol) = -17.9363
     --------------------
     Terms summing to E_pauli:
     --------------------
        E_kep_pauli       (kJ/mol) = 32.4925
        E_disp_free_pauli (kJ/mol) = -7.7146
  --------------------
  Classical Frozen Decomposition:
  --------------------
     E_cls_elec  (CLS ELEC)  (kJ/mol) = 4.5790
     E_cls_pauli (CLS PAULI) (kJ/mol) = -2.8152
    [E_mod_pauli (MOD PAULI) (kJ/mol) = 15.1211 (CLS PAULI - DISP from orthogonal decomposition) ]
  --------------------
--------------------

Simplified EDA Summary (kJ/mol)
--------------------
 PREPARATION     0.0000
 SOLVATION       -7.4836
 FROZEN          19.7001      (does not include dispersion)
[PAULI           24.7779]     (if this is negligible, then frozen describes electrostatics)
 DISPERSION      -17.9363
 POLARIZATION    -1.5674
 CHARGE TRANSFER -1.8432
 TOTAL           -9.1305     (PRP + SOL + FRZ + DISP + POL + CT)
--------------------
 
 --------------------------------------------------------------
 
                    Orbital Energies (a.u.)
 --------------------------------------------------------------
 
 Alpha MOs
 -- Occupied --
-19.2506 -14.4851 -14.4791 -14.4762 -10.4523 -10.3401 -10.3348 -10.2811
-10.2806 -10.2790 -10.2778 -10.2760 -10.2644  -1.2030  -1.1964  -1.0842
 -1.0737  -0.9975  -0.9035  -0.8885  -0.8810  -0.8117  -0.7979  -0.7553
 -0.7525  -0.7190  -0.7167  -0.6677  -0.6479  -0.6432  -0.6251  -0.6074
 -0.6000  -0.5847  -0.5552  -0.5532  -0.5443  -0.5388  -0.5354  -0.5245
 -0.5151  -0.4800  -0.4597  -0.4464  -0.4458  -0.4277  -0.4050  -0.3567
 -0.3158
 -- Virtual --
  0.0446   0.0519   0.0597   0.0631   0.0650   0.0765   0.0817   0.0857
  0.0908   0.0983   0.1035   0.1067   0.1102   0.1191   0.1237   0.1308
  0.1364   0.1442   0.1502   0.1517   0.1607   0.1631   0.1705   0.1753
  0.1798   0.1842   0.1922   0.1958   0.2027   0.2047   0.2084   0.2180
  0.2218   0.2269   0.2319   0.2371   0.2416   0.2433   0.2471   0.2505
  0.2547   0.2588   0.2603   0.2649   0.2705   0.2765   0.2788   0.2829
  0.2872   0.2919   0.2951   0.3057   0.3079   0.3104   0.3122   0.3163
  0.3171   0.3202   0.3258   0.3289   0.3308   0.3375   0.3408   0.3434
  0.3464   0.3497   0.3510   0.3548   0.3602   0.3629   0.3644   0.3694
  0.3712   0.3773   0.3788   0.3828   0.3854   0.3876   0.3943   0.4009
  0.4022   0.4034   0.4064   0.4145   0.4199   0.4242   0.4268   0.4306
  0.4346   0.4387   0.4405   0.4434   0.4496   0.4529   0.4552   0.4601
  0.4629   0.4671   0.4680   0.4739   0.4764   0.4794   0.4816   0.4846
  0.4926   0.4948   0.4985   0.5017   0.5043   0.5058   0.5104   0.5188
  0.5210   0.5239   0.5286   0.5355   0.5398   0.5430   0.5472   0.5479
  0.5563   0.5582   0.5598   0.5721   0.5738   0.5793   0.5805   0.5858
  0.5920   0.5951   0.5992   0.6102   0.6126   0.6164   0.6234   0.6306
  0.6324   0.6355   0.6423   0.6463   0.6537   0.6553   0.6606   0.6686
  0.6719   0.6855   0.6880   0.6904   0.6918   0.6957   0.7018   0.7084
  0.7111   0.7170   0.7205   0.7255   0.7311   0.7345   0.7388   0.7398
  0.7531   0.7547   0.7572   0.7615   0.7693   0.7728   0.7774   0.7801
  0.7823   0.7888   0.7931   0.7972   0.7993   0.8031   0.8129   0.8138
  0.8165   0.8210   0.8260   0.8342   0.8418   0.8454   0.8466   0.8492
  0.8527   0.8610   0.8691   0.8723   0.8772   0.8857   0.8899   0.8938
  0.9014   0.9073   0.9145   0.9173   0.9268   0.9297   0.9367   0.9456
  0.9562   0.9622   0.9653   0.9739   0.9766   0.9826   0.9881   1.0006
  1.0074   1.0159   1.0225   1.0302   1.0343   1.0412   1.0459   1.0521
  1.0575   1.0601   1.0687   1.0848   1.0902   1.0966   1.1040   1.1062
  1.1159   1.1227   1.1344   1.1415   1.1461   1.1568   1.1661   1.1717
  1.1860   1.1947   1.2005   1.2173   1.2402   1.2497   1.2553   1.2699
  1.2956   1.3129   1.3285   1.3301   1.3346   1.3532   1.3636   1.3790
  1.3828   1.3927   1.4002   1.4252   1.4350   1.4496   1.4567   1.4588
  1.4773   1.4845   1.4894   1.5049   1.5152   1.5373   1.5470   1.5666
  1.5734   1.5987   1.6140   1.6357   1.6434   1.6537   1.6566   1.6691
  1.6861   1.6959   1.7102   1.7124   1.7353   1.7498   1.7667   1.7795
  1.7917   1.8180   1.8249   1.8364   1.8521   1.8581   1.8610   1.8693
  1.8794   1.8874   1.8948   1.9124   1.9270   1.9354   1.9456   1.9496
  1.9551   1.9591   1.9742   1.9882   1.9966   1.9996   2.0066   2.0149
  2.0318   2.0440   2.0474   2.0588   2.0810   2.0831   2.0911   2.0952
  2.1005   2.1184   2.1439   2.1570   2.1786   2.1851   2.1938   2.2026
  2.2180   2.2233   2.2285   2.2432   2.2504   2.2633   2.2728   2.2844
  2.3002   2.3033   2.3124   2.3207   2.3402   2.3538   2.3623   2.3682
  2.3921   2.4007   2.4052   2.4205   2.4453   2.4621   2.4660   2.4700
  2.5054   2.5216   2.5418   2.5497   2.5504   2.5678   2.5902   2.5939
  2.6125   2.6186   2.6406   2.6530   2.6599   2.6630   2.6679   2.6832
  2.6886   2.7120   2.7176   2.7259   2.7333   2.7566   2.7668   2.7776
  2.7931   2.7988   2.8067   2.8244   2.8342   2.8442   2.8584   2.8749
  2.8807   2.9052   2.9137   2.9170   2.9306   2.9330   2.9479   2.9566
  2.9730   2.9743   2.9809   2.9945   3.0060   3.0296   3.0348   3.0509
  3.0753   3.0872   3.0986   3.1072   3.1151   3.1321   3.1359   3.1548
  3.1642   3.1704   3.1829   3.1867   3.1922   3.2088   3.2264   3.2328
  3.2467   3.2592   3.2625   3.2731   3.2750   3.2907   3.2931   3.3103
  3.3201   3.3331   3.3500   3.3528   3.3719   3.3771   3.3897   3.3980
  3.4108   3.4130   3.4279   3.4343   3.4394   3.4416   3.4707   3.4756
  3.4772   3.4872   3.4912   3.5077   3.5206   3.5272   3.5334   3.5520
  3.5613   3.5664   3.5832   3.5932   3.6022   3.6051   3.6134   3.6191
  3.6246   3.6371   3.6541   3.6593   3.6810   3.6831   3.6976   3.7267
  3.7352   3.7563   3.7790   3.7874   3.8014   3.8192   3.8377   3.8526
  3.9017   3.9349   3.9578   3.9632   3.9734   3.9927   4.0000   4.0441
  4.0879   4.0999   4.1275   4.1328   4.1479   4.1602   4.2190   4.2513
  4.2808   4.2944   4.2989   4.3056   4.3117   4.3179   4.3245   4.3365
  4.3454   4.3617   4.3696   4.3743   4.3908   4.3978   4.4417   4.4636
  4.4837   4.5009   4.5392   4.5819   4.6089   4.6113   4.6216   4.6571
  4.7360   4.7466   4.7861   4.8163   4.8517   4.8547   4.8581   4.8913
  4.9459   4.9479   4.9925   5.0162   5.0326   5.0587   5.0669   5.0907
  5.0959   5.1054   5.1308   5.1524   5.1553   5.1685   5.1796   5.2487
  5.2684   5.3040   5.3144   5.3519   5.3779   5.4071   5.4151   5.4307
  5.4443   5.4664   5.4876   5.5232   5.5351   5.5699   5.5870   5.6393
  5.6564   5.6839   5.7214   5.7690   5.7757   5.7980   5.8810   5.9475
  6.1416   6.1647   6.1727   6.3817   6.4521   6.4631   6.5389   6.6432
  6.8763   7.0133   7.2965   7.4378  22.6745  22.6782  22.7410  22.9701
 22.9995  23.0283  23.1970  23.5075  23.6424  32.4502  32.5066  32.8201
 44.4465
 --------------------------------------------------------------
 
          Ground-State Mulliken Net Atomic Charges

     Atom                 Charge (a.u.)
  ----------------------------------------
      1 C                    -0.864640
      2 C                     0.460302
      3 N                    -0.081268
      4 N                    -0.206681
      5 N                    -0.289391
      6 H                     0.244488
      7 H                     0.205123
      8 H                     0.199311
      9 H                     0.204505
     10 H                     0.201807
     11 H                     0.313488
     12 H                     0.328484
     13 H                     0.265147
     14 C                    -1.092980
     15 C                    -0.363683
     16 C                    -0.388818
     17 C                     0.694575
     18 C                     0.683481
     19 C                    -0.771160
     20 C                    -0.512062
     21 O                    -0.483124
     22 H                     0.270459
     23 H                     0.219344
     24 H                     0.312408
     25 H                     0.340560
     26 H                     0.314592
     27 H                     0.255380
     28 H                     0.332231
     29 H                     0.208122
  ----------------------------------------
  Sum of atomic charges =     1.000000

 -----------------------------------------------------------------
                    Cartesian Multipole Moments
 -----------------------------------------------------------------
    Charge (ESU x 10^10)
                 4.8032
    Dipole Moment (Debye)
         X       0.7652      Y      -5.2440      Z     -13.2692
       Tot      14.2884
    Quadrupole Moments (Debye-Ang)
        XX     -63.3372     XY      -5.8715     YY     -59.8225
        XZ       1.0739     YZ       0.9411     ZZ     -47.0021
    Octopole Moments (Debye-Ang^2)
       XXX     -14.1724    XXY     -12.1646    XYY      -4.6354
       YYY     -50.7333    XXZ     -46.9615    XYZ      14.5592
       YYZ     -49.2664    XZZ      26.8989    YZZ     -17.2838
       ZZZ     -92.2479
    Hexadecapole Moments (Debye-Ang^3)
      XXXX    -885.2531   XXXY     152.2487   XXYY    -222.3868
      XYYY     142.4714   YYYY    -544.8752   XXXZ      64.4688
      XXYZ     -60.3808   XYYZ       7.4950   YYYZ    -156.3200
      XXZZ    -517.5241   XYZZ      38.5770   YYZZ    -498.0479
      XZZZ      -1.3185   YZZZ    -266.6205   ZZZZ   -2104.1052
 -----------------------------------------------------------------
Archival summary:
1\1\nid00567\SP\ProcedureUnspecified\BasisUnspecified\13916(1+,1)\meili\MonSep2700:35:372021MonSep2700:35:372021\0\\#,ProcedureUnspecified,BasisUnspecified,\\1,1\N\H,1,1.01055\C,1,1.32772,2,117.833\N,3,1.31809,1,120.171,2,-0.834126,0\H,4,1.00702,3,119.736,1,2.00368,0\H,4,1.01199,3,121.357,1,-174.922,0\N,3,1.32035,1,120.272,2,179.408,0\H,7,1.00622,3,119.869,1,-4.41601,0\H,7,1.00757,3,120.329,1,-174.128,0\C,1,1.47143,2,117.869,3,179.27,0\H,10,1.09182,1,109.426,2,131.437,0\H,10,1.09295,1,109.247,2,-109.441,0\H,10,1.1,1,112.677,2,11.4834,0\H,11,2.61199,10,116.491,1,-21.4208,0\C,14,1.08154,11,139.139,10,-48.4259,0\C,15,1.39435,14,119.765,11,-4.27316,0\H,16,1.0764,15,120.09,14,0.534755,0\C,16,1.39565,15,119.836,14,-179.051,0\O,18,1.36202,16,119.786,15,-179.113,0\H,19,0.985895,18,109.454,16,6.31968,0\C,18,1.39672,16,120.117,15,0.287805,0\H,21,1.08018,18,119.785,16,-179.356,0\C,21,1.39699,18,119.625,16,-0.266021,0\H,23,1.08154,21,119.41,18,-178.685,0\C,15,1.3985,14,119.525,11,176.644,0\C,25,1.51057,15,120.302,14,-3.97151,0\H,26,1.0904,25,109.708,15,156.123,0\H,26,1.09163,25,107.751,15,39.6238,0\H,26,1.1,25,112.802,15,-81.3387,0\\\@

 Total job time:  82313.04s(wall), 56156.09s(cpu) 
 Mon Sep 27 00:35:43 2021

        *************************************************************
        *                                                           *
        *  Thank you very much for using Q-Chem.  Have a nice day.  *
        *                                                           *
        *************************************************************


