
Running Job 1 of 1 SSI-050TRP-054GLU-1_PCM_TZVPD.in
qchem SSI-050TRP-054GLU-1_PCM_TZVPD.in_23788.0 /tmp/qchem23788/ 0
/global/common/cori/software/qchem/5.2/exe/qcprog.exe_s SSI-050TRP-054GLU-1_PCM_TZVPD.in_23788.0 /tmp/qchem23788/
                  Welcome to Q-Chem
     A Quantum Leap Into The Future Of Chemistry


 Q-Chem 5.2, Q-Chem, Inc., Pleasanton, CA (2019)

 License issued to: National Energy Research Scientific Computing Center

 Yihan Shao,  Zhengting Gan,  E. Epifanovsky,  A. T. B. Gilbert,  M. Wormit,  
 J. Kussmann,  A. W. Lange,  A. Behn,  Jia Deng,  Xintian Feng,  D. Ghosh,  
 M. Goldey,  P. R. Horn,  L. D. Jacobson,  I. Kaliman,  T. Kus,  A. Landau,  
 Jie Liu,  E. I. Proynov,  R. M. Richard,  R. P. Steele,  E. J. Sundstrom,  
 H. L. Woodcock III,  P. M. Zimmerman,  D. Zuev,  B. Albrecht,  E. Alguire,  
 S. A. Baeppler,  D. Barton,  Z. Benda,  Y. A. Bernard,  E. J. Berquist,  
 K. B. Bravaya,  H. Burton,  D. Casanova,  Chun-Min Chang,  Yunqing Chen,  
 A. Chien,  K. D. Closser,  M. P. Coons,  S. Coriani,  S. Dasgupta,  
 A. L. Dempwolff,  M. Diedenhofen,  Hainam Do,  R. G. Edgar,  Po-Tung Fang,  
 S. Faraji,  S. Fatehi,  Qingguo Feng,  K. D. Fenk,  J. Fosso-Tande,  
 J. Gayvert,  Qinghui Ge,  A. Ghysels,  G. Gidofalvi,  J. Gomes,  
 J. Gonthier,  A. Gunina,  D. Hait,  M. W. D. Hanson-Heine,  
 P. H. P. Harbach,  A. W. Hauser,  M. F. Herbst,  J. E. Herr,  
 E. G. Hohenstein,  Z. C. Holden,  Kerwin Hui,  B. C. Huynh,  T.-C. Jagau,  
 Hyunjun Ji,  B. Kaduk,  K. Khistyaev,  Jaehoon Kim,  P. Klunzinger,  K. Koh,  
 D. Kosenkov,  L. Koulias,  T. Kowalczyk,  C. M. Krauter,  A. Kunitsa,  
 Ka Un Lao,  A. Laurent,  K. V. Lawler,  Joonho Lee,  D. Lefrancois,  
 S. Lehtola,  D. S. Levine,  Yi-Pei Li,  You-Sheng Lin,  Fenglai Liu,  
 E. Livshits,  A. Luenser,  P. Manohar,  E. Mansoor,  S. F. Manzer,  
 Shan-Ping Mao,  Yuezhi Mao,  N. Mardirossian,  A. V. Marenich,  
 T. Markovich,  L. A. Martinez-Martinez,  S. A. Maurer,  N. J. Mayhall,  
 S. C. McKenzie,  J.-M. Mewes,  P. Morgante,  A. F. Morrison,  
 J. W. Mullinax,  K. Nanda,  T. S. Nguyen-Beck,  R. Olivares-Amaya,  
 J. A. Parkhill,  Zheng Pei,  T. M. Perrine,  F. Plasser,  P. Pokhilko,  
 S. Prager,  A. Prociuk,  E. Ramos,  D. R. Rehn,  F. Rob,  M. Scheurer,  
 M. Schneider,  N. Sergueev,  S. M. Sharada,  S. Sharma,  D. W. Small,  
 T. Stauch,  T. Stein,  Yu-Chuan Su,  A. J. W. Thom,  A. Tkatchenko,  
 T. Tsuchimochi,  N. M. Tubman,  L. Vogt,  M. L. Vidal,  O. Vydrov,  
 M. A. Watson,  J. Wenzel,  M. de Wergifosse,  T. A. Wesolowski,  A. White,  
 J. Witte,  A. Yamada,  Jun Yang,  K. Yao,  S. Yeganeh,  S. R. Yost,  
 Zhi-Qiang You,  A. Zech,  Igor Ying Zhang,  Xing Zhang,  Yan Zhao,  
 Ying Zhu,  B. R. Brooks,  G. K. L. Chan,  C. J. Cramer,  M. S. Gordon,  
 W. J. Hehre,  A. Klamt,  M. W. Schmidt,  C. D. Sherrill,  D. G. Truhlar,  
 A. Aspuru-Guzik,  R. Baer,  A. T. Bell,  N. A. Besley,  Jeng-Da Chai,  
 A. E. DePrince, III,  R. A. DiStasio Jr.,  A. Dreuw,  B. D. Dunietz,  
 T. R. Furlani,  Chao-Ping Hsu,  Yousung Jung,  Jing Kong,  D. S. Lambrecht,  
 WanZhen Liang,  C. Ochsenfeld,  V. A. Rassolov,  L. V. Slipchenko,  
 J. E. Subotnik,  T. Van Voorhis,  J. M. Herbert,  A. I. Krylov,  
 P. M. W. Gill,  M. Head-Gordon

 Contributors to earlier versions of Q-Chem not listed above: 
 R. D. Adamson,  B. Austin,  J. Baker,  G. J. O. Beran,  K. Brandhorst,  
 S. T. Brown,  E. F. C. Byrd,  A. K. Chakraborty,  C.-L. Cheng,  
 Siu Hung Chien,  D. M. Chipman,  D. L. Crittenden,  H. Dachsel,  
 R. J. Doerksen,  A. D. Dutoi,  L. Fusti-Molnar,  W. A. Goddard III,  
 A. Golubeva-Zadorozhnaya,  S. R. Gwaltney,  G. Hawkins,  A. Heyden,  
 S. Hirata,  G. Kedziora,  F. J. Keil,  C. Kelley,  Jihan Kim,  R. A. King,  
 R. Z. Khaliullin,  P. P. Korambath,  W. Kurlancheek,  A. M. Lee,  M. S. Lee,  
 S. V. Levchenko,  Ching Yeh Lin,  D. Liotard,  R. C. Lochan,  I. Lotan,  
 P. E. Maslen,  N. Nair,  D. P. O'Neill,  D. Neuhauser,  E. Neuscamman,  
 C. M. Oana,  R. Olson,  B. Peters,  R. Peverati,  P. A. Pieniazek,  
 Y. M. Rhee,  J. Ritchie,  M. A. Rohrdanz,  E. Rosta,  N. J. Russ,  
 H. F. Schaefer III,  N. E. Schultz,  N. Shenvi,  A. C. Simmonett,  A. Sodt,  
 D. Stuck,  K. S. Thanthiriwatte,  V. Vanovschi,  Tao Wang,  A. Warshel,  
 C. F. Williams,  Q. Wu,  X. Xu,  W. Zhang

 Please cite Q-Chem as follows:
 Y. Shao et al., Mol. Phys. 113, 184-215 (2015)
 DOI: 10.1080/00268976.2014.952696

 Q-Chem 5.2.0 for Intel X86 EM64T Linux

 Parts of Q-Chem use Armadillo 8.300.2 (Tropical Shenanigans).
 http://arma.sourceforge.net/

 Q-Chem begins on Sun Sep 26 08:20:46 2021  

Host: cori01
0

     Scratch files written to /tmp/qchem23788//
 May1019 |scratch|qcdevops|jenkins|workspace|build_RNUM -1
Processing $rem in /global/common/cori/software/qchem/5.2/config/preferences:
	 MEM_TOTAL  96000 
NAlpha2: 102
NElect   102
Mult     1
Symmetry turned off for PCM/SM12/SMD calculation

 Q-Chem warning in module libgen/rem_setup.C, line 2803:

 Neither GIA nor STOLL is specified by user. Use STOLL as the default


Checking the input file for inconsistencies... 	...done.

--------------------------------------------------------------
User input:
--------------------------------------------------------------
$comment
SSI-050TRP-054GLU-1.pdb
$end

$molecule
-1 1
--
0 1
C   -1.313094667276    2.642596172683    1.486107156459
C    0.604905332724    0.969596172683    0.778107156459
C    0.120905332724    2.245596172683    1.244107156459
C    2.022905332724    1.068596172683    0.705107156459
C    1.212905332724    3.042596172683    1.417107156459
C   -0.010094667276   -0.237403827317    0.401107156459
C    0.797905332724   -1.289403827317   -0.040892843541
C    2.206905332724   -1.155403827317   -0.086892843541
C    2.833905332724    0.021596172683    0.284107156459
N    2.350905332724    2.338596172683    1.102107156459
H   -1.081094667276   -0.345403827317    0.460107156459
H    0.346905332724   -2.227403827317   -0.330892843541
H    2.804905332724   -1.994403827317   -0.417892843541
H   -1.349094667276    3.595596172683    2.013107156459
H   -1.778094667276    1.883596172683    2.116107156459
H    1.180905332724    4.076596172683    1.749107156459
H    3.286905332724    2.725596172683    1.143107156459
H    3.909905332724    0.123596172683    0.253107156459
H   -1.862884667276    2.713746172683    0.536017156459
--
-1 1
C   -2.820094667276   -1.456403827317   -2.793892843541
C   -2.359094667276   -2.270403827317   -1.577892843541
O   -2.778094667276   -1.950403827317   -0.449892843541
O   -1.549094667276   -3.213403827317   -1.762892843541
H   -2.828094667276   -2.092403827317   -3.678892843541
H   -2.083094667276   -0.669403827317   -2.966892843541
H   -3.804064667276   -0.974603827317   -2.695565843541
$end

$rem
JOBTYPE			EDA
EDA2			1
method			wB97X-V
BASIS			def2-TZVPD
XC_GRID			000099000590
NL_GRID			1
UNRESTRICTED		FALSE
MAX_SCF_CYCLES		200
SYMMETRY		FALSE
SYM_IGNORE		TRUE
MEM_STATIC		2000
BASIS_LIN_DEP_THRESH 	6
THRESH 			14
SCF_CONVERGENCE 	8
SCF_PRINT_FRGM 		TRUE
SOLVENT_METHOD          PCM
$end

$PCM
THEORY                  CPCM
METHOD                  SWIG
SOLVER                  INVERSION
RADII                   UFF
HPOINTS                 302
HEAVYPOINTS             302
PRINTLEVEL              0
$END

$SOLVENT
DIELECTRIC              78.390000 ! water
$END
--------------------------------------------------------------
 ----------------------------------------------------------------
             Standard Nuclear Orientation (Angstroms)
    I     Atom           X                Y                Z
 ----------------------------------------------------------------
    1      C      -1.3130946673     2.6425961727     1.4861071565
    2      C       0.6049053327     0.9695961727     0.7781071565
    3      C       0.1209053327     2.2455961727     1.2441071565
    4      C       2.0229053327     1.0685961727     0.7051071565
    5      C       1.2129053327     3.0425961727     1.4171071565
    6      C      -0.0100946673    -0.2374038273     0.4011071565
    7      C       0.7979053327    -1.2894038273    -0.0408928435
    8      C       2.2069053327    -1.1554038273    -0.0868928435
    9      C       2.8339053327     0.0215961727     0.2841071565
   10      N       2.3509053327     2.3385961727     1.1021071565
   11      H      -1.0810946673    -0.3454038273     0.4601071565
   12      H       0.3469053327    -2.2274038273    -0.3308928435
   13      H       2.8049053327    -1.9944038273    -0.4178928435
   14      H      -1.3490946673     3.5955961727     2.0131071565
   15      H      -1.7780946673     1.8835961727     2.1161071565
   16      H       1.1809053327     4.0765961727     1.7491071565
   17      H       3.2869053327     2.7255961727     1.1431071565
   18      H       3.9099053327     0.1235961727     0.2531071565
   19      H      -1.8628846673     2.7137461727     0.5360171565
   20      C      -2.8200946673    -1.4564038273    -2.7938928435
   21      C      -2.3590946673    -2.2704038273    -1.5778928435
   22      O      -2.7780946673    -1.9504038273    -0.4498928435
   23      O      -1.5490946673    -3.2134038273    -1.7628928435
   24      H      -2.8280946673    -2.0924038273    -3.6788928435
   25      H      -2.0830946673    -0.6694038273    -2.9668928435
   26      H      -3.8040646673    -0.9746038273    -2.6955658435
 ----------------------------------------------------------------
 Nuclear Repulsion Energy =         808.48820965 hartrees
 There are       51 alpha and       51 beta electrons
 Requested basis set is def2-TZVPD
 There are 244 shells and 632 basis functions

 Total QAlloc Memory Limit  96000 MB
 Mega-Array Size      1956 MB
 MEM_STATIC part      2000 MB
 Discretize the solute cavity surface with Lebedev spheres
	Using 302 Lebedev grid points for each H atom
	Using 302 Lebedev grid points for other atoms
	Atomic van der Waals radii will be scaled by 1.20
 Remove points where switching function is < 1.0e-08
 Keep 2995 surface tesserae and discard 4857 interior tesserae
 Molecular Surface Area = 305.025 Angst**2
 A cutoff of  1.0D-14 yielded  25572 shell pairs
 There are    172282 function pairs (    219580 Cartesian)
 Smallest overlap matrix eigenvalue = 4.49E-07
 Linear dependence detected in AO basis
 Tighter screening thresholds may be required for diffuse basis sets
 Use S2THRESH > 14 and THRESH = 14 in case of SCF convergence issues
 Number of orthogonalized atomic orbitals = 628
 Maximum deviation from orthogonality = 1.427E-10

 Scale SEOQF with 1.000000e-01/1.000000e-01/1.000000e-01

 Standard Electronic Orientation quadrupole field applied
 Nucleus-field energy     =     0.0000000244 hartrees

 -----------------------------------------------------------------------
  General SCF calculation program by
  Eric Jon Sundstrom, Paul Horn, Yuezhi Mao, Dmitri Zuev, Alec White,
  David Stuck, Shaama M.S., Shane Yost, Joonho Lee, David Small,
  Daniel Levine, Susi Lehtola, Hugh Burton, Evgeny Epifanovsky
 -----------------------------------------------------------------------
================================================================
                 ALMO-EDA with the EDA2 driver                  
================================================================
 The second-generation ALMO-EDA (for DFT):                      
 P. R. Horn, Y. Mao and M. Head-Gordon, PCCP, 18, 23067 (2016)  
 Decomposition of the frozen energy:                            
 P. R. Horn, Y. Mao and M. Head-Gordon, JCP, 144, 114107 (2016) 
 FERF model for polarization:                                   
 P. R. Horn and M. Head-Gordon, JCP, 143, 114111 (2015)         
Using eda2 option set 1
Option set summary: Frozen orbital wavefunction, initial wavefunction decomposition, and nDQ polarization.
--------------------------------
Printing EDA Options
--------------------------------
eda_child_super_basis      0
fragmo_guess_mode          0
child_mp                   1
child_mp_orders            232
cls_elec                   1
cls_disp                   0
scfmi_mode                 1
scfmi_occs                 0
scfmi_virts                0
frz_relax                  0
frz_relax_method           0
dc_pen_start               0
dc_pen_conv                0
dc_pen_increment           0
dc_pen_steps               0
dc_pen_thresh_factor       0
dc_pen_pre_newton_thresh   0
frz_ortho_decomp           1
frz_ortho_decomp_conv      6
frgm_method                2
scfmi_freeze_ss            0
separate_rehyb             0
plot_diff_den              0
eda_nocv                   0
eda_vct_relax              1
disp_free_x                0
disp_free_c                0
eda_bsse                   0
eda_pct_a                  0
eda_covp                   0
--------------------------------
Attempting to make child job directory: /tmp/qchem23788//Frg1/
Attempting to make child job directory: /tmp/qchem23788//Frg2/
Creating input file /tmp/qchem23788/Frg1.input
using default PutDataFrgm: nothing
calling putenv with: QCSCRATCH=/tmp/qchem23788/ 
calling putenv with: QCLOCALSCR=/tmp/qchem23788/ 
Spawning Job For Fragment 0
                  Welcome to Q-Chem
     A Quantum Leap Into The Future Of Chemistry


 Q-Chem 5.2, Q-Chem, Inc., Pleasanton, CA (2019)

 License issued to: National Energy Research Scientific Computing Center

 Yihan Shao,  Zhengting Gan,  E. Epifanovsky,  A. T. B. Gilbert,  M. Wormit,  
 J. Kussmann,  A. W. Lange,  A. Behn,  Jia Deng,  Xintian Feng,  D. Ghosh,  
 M. Goldey,  P. R. Horn,  L. D. Jacobson,  I. Kaliman,  T. Kus,  A. Landau,  
 Jie Liu,  E. I. Proynov,  R. M. Richard,  R. P. Steele,  E. J. Sundstrom,  
 H. L. Woodcock III,  P. M. Zimmerman,  D. Zuev,  B. Albrecht,  E. Alguire,  
 S. A. Baeppler,  D. Barton,  Z. Benda,  Y. A. Bernard,  E. J. Berquist,  
 K. B. Bravaya,  H. Burton,  D. Casanova,  Chun-Min Chang,  Yunqing Chen,  
 A. Chien,  K. D. Closser,  M. P. Coons,  S. Coriani,  S. Dasgupta,  
 A. L. Dempwolff,  M. Diedenhofen,  Hainam Do,  R. G. Edgar,  Po-Tung Fang,  
 S. Faraji,  S. Fatehi,  Qingguo Feng,  K. D. Fenk,  J. Fosso-Tande,  
 J. Gayvert,  Qinghui Ge,  A. Ghysels,  G. Gidofalvi,  J. Gomes,  
 J. Gonthier,  A. Gunina,  D. Hait,  M. W. D. Hanson-Heine,  
 P. H. P. Harbach,  A. W. Hauser,  M. F. Herbst,  J. E. Herr,  
 E. G. Hohenstein,  Z. C. Holden,  Kerwin Hui,  B. C. Huynh,  T.-C. Jagau,  
 Hyunjun Ji,  B. Kaduk,  K. Khistyaev,  Jaehoon Kim,  P. Klunzinger,  K. Koh,  
 D. Kosenkov,  L. Koulias,  T. Kowalczyk,  C. M. Krauter,  A. Kunitsa,  
 Ka Un Lao,  A. Laurent,  K. V. Lawler,  Joonho Lee,  D. Lefrancois,  
 S. Lehtola,  D. S. Levine,  Yi-Pei Li,  You-Sheng Lin,  Fenglai Liu,  
 E. Livshits,  A. Luenser,  P. Manohar,  E. Mansoor,  S. F. Manzer,  
 Shan-Ping Mao,  Yuezhi Mao,  N. Mardirossian,  A. V. Marenich,  
 T. Markovich,  L. A. Martinez-Martinez,  S. A. Maurer,  N. J. Mayhall,  
 S. C. McKenzie,  J.-M. Mewes,  P. Morgante,  A. F. Morrison,  
 J. W. Mullinax,  K. Nanda,  T. S. Nguyen-Beck,  R. Olivares-Amaya,  
 J. A. Parkhill,  Zheng Pei,  T. M. Perrine,  F. Plasser,  P. Pokhilko,  
 S. Prager,  A. Prociuk,  E. Ramos,  D. R. Rehn,  F. Rob,  M. Scheurer,  
 M. Schneider,  N. Sergueev,  S. M. Sharada,  S. Sharma,  D. W. Small,  
 T. Stauch,  T. Stein,  Yu-Chuan Su,  A. J. W. Thom,  A. Tkatchenko,  
 T. Tsuchimochi,  N. M. Tubman,  L. Vogt,  M. L. Vidal,  O. Vydrov,  
 M. A. Watson,  J. Wenzel,  M. de Wergifosse,  T. A. Wesolowski,  A. White,  
 J. Witte,  A. Yamada,  Jun Yang,  K. Yao,  S. Yeganeh,  S. R. Yost,  
 Zhi-Qiang You,  A. Zech,  Igor Ying Zhang,  Xing Zhang,  Yan Zhao,  
 Ying Zhu,  B. R. Brooks,  G. K. L. Chan,  C. J. Cramer,  M. S. Gordon,  
 W. J. Hehre,  A. Klamt,  M. W. Schmidt,  C. D. Sherrill,  D. G. Truhlar,  
 A. Aspuru-Guzik,  R. Baer,  A. T. Bell,  N. A. Besley,  Jeng-Da Chai,  
 A. E. DePrince, III,  R. A. DiStasio Jr.,  A. Dreuw,  B. D. Dunietz,  
 T. R. Furlani,  Chao-Ping Hsu,  Yousung Jung,  Jing Kong,  D. S. Lambrecht,  
 WanZhen Liang,  C. Ochsenfeld,  V. A. Rassolov,  L. V. Slipchenko,  
 J. E. Subotnik,  T. Van Voorhis,  J. M. Herbert,  A. I. Krylov,  
 P. M. W. Gill,  M. Head-Gordon

 Contributors to earlier versions of Q-Chem not listed above: 
 R. D. Adamson,  B. Austin,  J. Baker,  G. J. O. Beran,  K. Brandhorst,  
 S. T. Brown,  E. F. C. Byrd,  A. K. Chakraborty,  C.-L. Cheng,  
 Siu Hung Chien,  D. M. Chipman,  D. L. Crittenden,  H. Dachsel,  
 R. J. Doerksen,  A. D. Dutoi,  L. Fusti-Molnar,  W. A. Goddard III,  
 A. Golubeva-Zadorozhnaya,  S. R. Gwaltney,  G. Hawkins,  A. Heyden,  
 S. Hirata,  G. Kedziora,  F. J. Keil,  C. Kelley,  Jihan Kim,  R. A. King,  
 R. Z. Khaliullin,  P. P. Korambath,  W. Kurlancheek,  A. M. Lee,  M. S. Lee,  
 S. V. Levchenko,  Ching Yeh Lin,  D. Liotard,  R. C. Lochan,  I. Lotan,  
 P. E. Maslen,  N. Nair,  D. P. O'Neill,  D. Neuhauser,  E. Neuscamman,  
 C. M. Oana,  R. Olson,  B. Peters,  R. Peverati,  P. A. Pieniazek,  
 Y. M. Rhee,  J. Ritchie,  M. A. Rohrdanz,  E. Rosta,  N. J. Russ,  
 H. F. Schaefer III,  N. E. Schultz,  N. Shenvi,  A. C. Simmonett,  A. Sodt,  
 D. Stuck,  K. S. Thanthiriwatte,  V. Vanovschi,  Tao Wang,  A. Warshel,  
 C. F. Williams,  Q. Wu,  X. Xu,  W. Zhang

 Please cite Q-Chem as follows:
 Y. Shao et al., Mol. Phys. 113, 184-215 (2015)
 DOI: 10.1080/00268976.2014.952696

 Q-Chem 5.2.0 for Intel X86 EM64T Linux

 Parts of Q-Chem use Armadillo 8.300.2 (Tropical Shenanigans).
 http://arma.sourceforge.net/

 Q-Chem begins on Sun Sep 26 08:20:53 2021  

Host: cori01
0

     Scratch files written to /tmp/qchem23788//Frg1//
 May1019 |scratch|qcdevops|jenkins|workspace|build_RNUM -1
Processing $rem in /global/common/cori/software/qchem/5.2/config/preferences:
	 MEM_TOTAL  96000 
NAlpha2: 70
NElect   70
Mult     1
Symmetry turned off for PCM/SM12/SMD calculation

Checking the input file for inconsistencies... 	...done.

--------------------------------------------------------------
User input:
--------------------------------------------------------------
$molecule
0 1
 6	-1.3130946673	2.6425961727	1.4861071565
 6	0.6049053327	0.9695961727	0.7781071565
 6	0.1209053327	2.2455961727	1.2441071565
 6	2.0229053327	1.0685961727	0.7051071565
 6	1.2129053327	3.0425961727	1.4171071565
 6	-0.0100946673	-0.2374038273	0.4011071565
 6	0.7979053327	-1.2894038273	-0.0408928435
 6	2.2069053327	-1.1554038273	-0.0868928435
 6	2.8339053327	0.0215961727	0.2841071565
 7	2.3509053327	2.3385961727	1.1021071565
 1	-1.0810946673	-0.3454038273	0.4601071565
 1	0.3469053327	-2.2274038273	-0.3308928435
 1	2.8049053327	-1.9944038273	-0.4178928435
 1	-1.3490946673	3.5955961727	2.0131071565
 1	-1.7780946673	1.8835961727	2.1161071565
 1	1.1809053327	4.0765961727	1.7491071565
 1	3.2869053327	2.7255961727	1.1431071565
 1	3.9099053327	0.1235961727	0.2531071565
 1	-1.8628846673	2.7137461727	0.5360171565
$end
$rem
EDA2		1
METHOD		WB97X-V
BASIS		DEF2-TZVPD
XC_GRID		000099000590
NL_GRID		1
UNRESTRICTED		FALSE
MAX_SCF_CYCLES		200
SYMMETRY		FALSE
SYM_IGNORE		TRUE
BASIS_LIN_DEP_THRESH		6
THRESH		14
SCF_CONVERGENCE		8
SCF_PRINT_FRGM		TRUE
SOLVENT_METHOD		PCM
!required keywords
JOBTYPE		SP
SYM_IGNORE		TRUE
SUBSYSTEM		TRUE
GEN_SCFMAN		TRUE
CHILD_INSTRUCTION		2
SYM_IGNORE		TRUE
SCFMI		0
RI_K 0		
PARI_K 0		
MIN_PARI_K 0		
IARI_K 0		
OCC_RI_K 0		
PURECART		1111
MEM_STATIC		2000
MEM_TOTAL		96000
GUI		0
CHILD_MP		1
CHILD_MP_ORDERS		232
FRZ_RELAX		0
FRZ_RELAX_METHOD		0
EDA_CLS_ELEC		1
EDA_CLS_DISP		0
FRZ_ORTHO_DECOMP		1
EDA2		FALSE
FRGM_METHOD		FALSE
CIS_N_ROOTS  0
LOCAL_CIS    0
CIS_RLX_DNS  1
$end
$pcm
THEORY                  CPCM
METHOD                  SWIG
SOLVER                  INVERSION
RADII                   UFF
HPOINTS                 302
HEAVYPOINTS             302
PRINTLEVEL              0
$end
$solvent
DIELECTRIC              78.390000 ! water
$end
--------------------------------------------------------------
 ----------------------------------------------------------------
             Standard Nuclear Orientation (Angstroms)
    I     Atom           X                Y                Z
 ----------------------------------------------------------------
    1      C      -1.3130946673     2.6425961727     1.4861071565
    2      C       0.6049053327     0.9695961727     0.7781071565
    3      C       0.1209053327     2.2455961727     1.2441071565
    4      C       2.0229053327     1.0685961727     0.7051071565
    5      C       1.2129053327     3.0425961727     1.4171071565
    6      C      -0.0100946673    -0.2374038273     0.4011071565
    7      C       0.7979053327    -1.2894038273    -0.0408928435
    8      C       2.2069053327    -1.1554038273    -0.0868928435
    9      C       2.8339053327     0.0215961727     0.2841071565
   10      N       2.3509053327     2.3385961727     1.1021071565
   11      H      -1.0810946673    -0.3454038273     0.4601071565
   12      H       0.3469053327    -2.2274038273    -0.3308928435
   13      H       2.8049053327    -1.9944038273    -0.4178928435
   14      H      -1.3490946673     3.5955961727     2.0131071565
   15      H      -1.7780946673     1.8835961727     2.1161071565
   16      H       1.1809053327     4.0765961727     1.7491071565
   17      H       3.2869053327     2.7255961727     1.1431071565
   18      H       3.9099053327     0.1235961727     0.2531071565
   19      H      -1.8628846673     2.7137461727     0.5360171565
 ----------------------------------------------------------------
 Nuclear Repulsion Energy =         483.75767587 hartrees
 There are       35 alpha and       35 beta electrons
 Requested basis set is def2-TZVPD
 There are 175 shells and 451 basis functions

 Total QAlloc Memory Limit  96000 MB
 Mega-Array Size      1956 MB
 MEM_STATIC part      2000 MB
 Discretize the solute cavity surface with Lebedev spheres
	Using 302 Lebedev grid points for each H atom
	Using 302 Lebedev grid points for other atoms
	Atomic van der Waals radii will be scaled by 1.20
 Remove points where switching function is < 1.0e-08
 Keep 2195 surface tesserae and discard 3543 interior tesserae
 Molecular Surface Area = 216.177 Angst**2
 A cutoff of  1.0D-14 yielded  14465 shell pairs
 There are     98229 function pairs (    126399 Cartesian)
 Smallest overlap matrix eigenvalue = 5.33E-07
 Linear dependence detected in AO basis
 Tighter screening thresholds may be required for diffuse basis sets
 Use S2THRESH > 14 and THRESH = 14 in case of SCF convergence issues
 Number of orthogonalized atomic orbitals = 448
 Maximum deviation from orthogonality = 1.554E-10

 Scale SEOQF with 1.000000e-01/1.000000e-01/1.000000e-01

 Standard Electronic Orientation quadrupole field applied
 Nucleus-field energy     =     0.0000000187 hartrees
 Guess from superposition of atomic densities
 Warning:  Energy on first SCF cycle will be non-variational
 SAD guess density has 69.692991 electrons

 -----------------------------------------------------------------------
  General SCF calculation program by
  Eric Jon Sundstrom, Paul Horn, Yuezhi Mao, Dmitri Zuev, Alec White,
  David Stuck, Shaama M.S., Shane Yost, Joonho Lee, David Small,
  Daniel Levine, Susi Lehtola, Hugh Burton, Evgeny Epifanovsky
 -----------------------------------------------------------------------
 Exchange:     0.1670 Hartree-Fock + 1.0000 wB97X-V + LR-HF
 Correlation:  1.0000 wB97X-V
 Using Euler-Maclaurin-Lebedev (99,590) quadrature formula
 Nonlocal Correlation:  VV10 with C = 0.0100 and b = 6.00 and scale = 1.00000
 Grid used for NLC:  SG-1 standard quadrature
Energy prior to optimization (guess energy) = -402.927177878998
Begin Timing: Total SCF Calculation
begin iterations for algorithm: DIIS         
the SCF tolerance is set to 1.00e-08
    1    -402.9271778790      3.30e-03     00000 
    2    -402.9579141648      3.12e-03     00000 
    3    -403.1662651023      3.70e-04     00000 
    4    -403.1694681977      1.53e-04     00000 
    5    -403.1701034214      2.68e-05     00000 
    6    -403.1701275046      1.53e-05     00000 
    7    -403.1701349820      2.99e-06     00000 
    8    -403.1701359265      1.73e-06     00000 
    9    -403.1701361398      7.03e-07     00000 
   10    -403.1701362233      2.74e-07     00000 
   11    -403.1701362346      9.58e-08     00000 
   12    -403.1701362355      4.27e-08     00000 
   13    -403.1701362356      1.16e-08     00000 
   14    -403.1701362356      5.49e-09     00000 Convergence criterion met
Timing for Total SCF: 4302.00s (wall), 8557.45s (cpu)

************** Final PCM Free Energy Summary **************
 G_electrostatic  =      -0.00645896 hartree =      -4.05305987 kcal/mol
 G_cavitation     =       0.00000000 hartree =       0.00000000 kcal/mol
 G_dispersion     =       0.00000000 hartree =       0.00000000 kcal/mol
 G_repulsion      =       0.00000000 hartree =       0.00000000 kcal/mol
 --------------------------------------------------
 Non-electrostatic Free Energy =       0.00000000 hartree =       0.00000000 kcal/mol
 Total                         =      -0.00645896 hartree =      -4.05305987 kcal/mol
 --------------------------------------------------
 SCF Energy (H0 + V/2)                       =    -403.17013624 
 Solute Internal Energy (H0)                 =    -403.16367727 
 Total Free Energy (H0 + V/2 + non-elec)     =    -403.17013624 hartree
                                             = -252993.07891223 kcal/mol
***********************************************************

E_pcm = -0.0064589621
Multipole orders to be included
        2
        3
computing dipole RHS
computing quadrupole RHS
total number of RHS in solve_reponses: 8
RHS batch sizes
        8
Beginning Block Conjugate Gradient Iterations. Batch Number: 0
computing hessian-vector products by finite difference
              1      6.11e-01     00000 Conjugate Gradient Iteration
computing hessian-vector products by finite difference
              2      2.05e-01     00000 Conjugate Gradient Iteration
computing hessian-vector products by finite difference
              3      6.13e-02     00000 Conjugate Gradient Iteration
computing hessian-vector products by finite difference
              4      2.29e-02     00000 Conjugate Gradient Iteration
computing hessian-vector products by finite difference
              5      7.36e-03     00000 Conjugate Gradient Iteration
computing hessian-vector products by finite difference
              6      2.31e-03     00000 Conjugate Gradient Iteration
computing hessian-vector products by finite difference
              7      5.07e-04     00000 Conjugate Gradient Iteration
computing hessian-vector products by finite difference
              8      9.76e-05     00000 Conjugate Gradient Iteration
computing hessian-vector products by finite difference
              9      1.67e-05     00000 Conjugate Gradient Iteration
computing hessian-vector products by finite difference
             10      2.51e-06     00000 Conjugate Gradient Iteration
computing hessian-vector products by finite difference
             11      4.77e-07     00000 Conjugate Gradient Iteration
computing hessian-vector products by finite difference
             12      9.52e-08     00000 Conjugate Gradient Iteration
computing hessian-vector products by finite difference
             13      2.09e-08     00000 Conjugate Gradient Iteration
computing hessian-vector products by finite difference
             14      7.03e-09     00000 CG Converged
batch 0 complete
Done Calculating Responses
TESTING ORTHOGONALIZATION OF MULTIPOLE BASIS
Multipole virts passed orthogonality test
Virts Per Order
          105
          175
 
 --------------------------------------------------------------
 
                    Orbital Energies (a.u.)
 --------------------------------------------------------------
 
 Alpha MOs
 -- Occupied --
-14.4499 -10.3037 -10.2965 -10.2738 -10.2734 -10.2712 -10.2691 -10.2677
-10.2634 -10.2632  -1.1161  -0.9778  -0.9307  -0.8697  -0.8610  -0.8171
 -0.7468  -0.7148  -0.6770  -0.6517  -0.6018  -0.5831  -0.5547  -0.5514
 -0.5398  -0.5180  -0.5133  -0.4910  -0.4837  -0.4546  -0.4520  -0.4343
 -0.3787  -0.3156  -0.2928
 -- Virtual --
  0.0526   0.0598   0.0747   0.0762   0.0885   0.0967   0.0986   0.1053
  0.1265   0.1328   0.1360   0.1462   0.1549   0.1623   0.1700   0.1768
  0.1874   0.1905   0.2002   0.2066   0.2100   0.2159   0.2215   0.2450
  0.2474   0.2541   0.2582   0.2608   0.2654   0.2710   0.2733   0.2754
  0.2798   0.2829   0.2855   0.2883   0.2993   0.3071   0.3141   0.3169
  0.3279   0.3307   0.3331   0.3359   0.3413   0.3441   0.3449   0.3486
  0.3541   0.3556   0.3685   0.3736   0.3748   0.3831   0.3878   0.3915
  0.4023   0.4053   0.4088   0.4108   0.4168   0.4198   0.4236   0.4315
  0.4371   0.4444   0.4488   0.4548   0.4566   0.4614   0.4644   0.4712
  0.4850   0.4873   0.4929   0.4938   0.5009   0.5059   0.5165   0.5205
  0.5275   0.5365   0.5409   0.5428   0.5474   0.5518   0.5528   0.5630
  0.5683   0.5751   0.5806   0.5842   0.5985   0.6072   0.6139   0.6200
  0.6339   0.6379   0.6422   0.6458   0.6526   0.6559   0.6782   0.6834
  0.6859   0.6952   0.6965   0.6992   0.7048   0.7127   0.7215   0.7291
  0.7392   0.7439   0.7475   0.7598   0.7643   0.7673   0.7696   0.7743
  0.7767   0.7795   0.7829   0.7870   0.7947   0.8049   0.8075   0.8090
  0.8174   0.8209   0.8279   0.8338   0.8363   0.8429   0.8491   0.8555
  0.8563   0.8614   0.8749   0.8958   0.9029   0.9067   0.9141   0.9371
  0.9420   0.9493   0.9746   0.9879   0.9958   1.0065   1.0157   1.0212
  1.0309   1.0434   1.0540   1.0640   1.0693   1.0802   1.0931   1.0983
  1.1136   1.1274   1.1360   1.1467   1.1639   1.1788   1.2021   1.2105
  1.2403   1.2507   1.2593   1.2761   1.2878   1.3140   1.3278   1.3443
  1.3737   1.3871   1.3919   1.4063   1.4274   1.4351   1.4492   1.4831
  1.5091   1.5239   1.5531   1.5646   1.5803   1.6034   1.6113   1.6182
  1.6424   1.6554   1.6899   1.7009   1.7140   1.7198   1.7417   1.7530
  1.7846   1.8067   1.8394   1.8456   1.8538   1.8642   1.8753   1.8841
  1.8961   1.9171   1.9259   1.9374   1.9521   1.9671   1.9706   1.9906
  1.9946   1.9960   2.0041   2.0217   2.0281   2.0597   2.0624   2.0797
  2.0947   2.1165   2.1225   2.1691   2.1789   2.1860   2.2043   2.2174
  2.2517   2.2940   2.2984   2.3127   2.3278   2.3379   2.3585   2.3921
  2.4006   2.4279   2.4425   2.4610   2.4866   2.4941   2.5065   2.5233
  2.5679   2.5797   2.5936   2.6059   2.6124   2.6413   2.6564   2.6829
  2.6859   2.7199   2.7512   2.7604   2.7625   2.7724   2.7827   2.8048
  2.8188   2.8218   2.8417   2.8511   2.8762   2.8892   2.9005   2.9075
  2.9199   2.9380   2.9550   2.9644   2.9865   2.9959   3.0254   3.0331
  3.0364   3.0611   3.0737   3.0996   3.1207   3.1235   3.1252   3.1444
  3.1659   3.1796   3.2089   3.2197   3.2268   3.2433   3.2599   3.2716
  3.2914   3.3021   3.3117   3.3260   3.3433   3.3582   3.3703   3.3842
  3.3942   3.4155   3.4255   3.4387   3.4447   3.4559   3.4643   3.4709
  3.4764   3.4950   3.5082   3.5118   3.5212   3.5361   3.5458   3.5779
  3.5810   3.5920   3.6045   3.6273   3.6328   3.6541   3.6564   3.6638
  3.6987   3.7040   3.7111   3.7152   3.7393   3.7606   3.7686   3.7835
  3.8047   3.8623   3.8900   3.9029   3.9204   3.9392   3.9625   4.0296
  4.0360   4.0506   4.1131   4.1430   4.1624   4.1814   4.1992   4.2174
  4.2432   4.2633   4.2696   4.2935   4.3089   4.3425   4.3532   4.3664
  4.3995   4.4019   4.4415   4.4589   4.4751   4.5007   4.5260   4.6045
  4.6316   4.6386   4.6647   4.7367   4.7479   4.8097   4.8246   4.9130
  4.9329   4.9530   4.9731   4.9826   5.0064   5.0541   5.0590   5.1097
  5.1197   5.1485   5.1994   5.2082   5.2584   5.3780   5.4021   5.4440
  5.4809   5.5396   5.5992   5.6268   5.7079   5.8087   5.8204   5.9522
  5.9660   6.2747   6.3316  22.6378  22.7470  22.9026  22.9401  22.9609
 23.1712  23.2448  23.4396  23.7647  32.8404
 --------------------------------------------------------------
 
          Ground-State Mulliken Net Atomic Charges

     Atom                 Charge (a.u.)
  ----------------------------------------
      1 C                    -0.991470
      2 C                     0.433693
      3 C                     0.717503
      4 C                    -0.003183
      5 C                    -0.698533
      6 C                    -0.451877
      7 C                    -0.623150
      8 C                    -0.397855
      9 C                    -0.704243
     10 N                     0.165522
     11 H                     0.374180
     12 H                     0.341669
     13 H                     0.340461
     14 H                     0.264246
     15 H                     0.252568
     16 H                     0.242454
     17 H                     0.182883
     18 H                     0.339451
     19 H                     0.215684
  ----------------------------------------
  Sum of atomic charges =     0.000000

 -----------------------------------------------------------------
                    Cartesian Multipole Moments
 -----------------------------------------------------------------
    Charge (ESU x 10^10)
                 0.0000
    Dipole Moment (Debye)
         X       1.5426      Y       2.1402      Z       0.5863
       Tot       2.7026
    Quadrupole Moments (Debye-Ang)
        XX     -46.5268     XY       7.0649     YY     -48.3791
        XZ       1.6488     YZ       5.9241     ZZ     -62.6420
    Octopole Moments (Debye-Ang^2)
       XXX    -129.3443    XXY     -30.2560    XYY     -34.5573
       YYY    -136.4819    XXZ     -33.5646    XYZ      12.3479
       YYZ     -26.1630    XZZ     -65.2434    YZZ     -51.9251
       ZZZ    -136.7270
    Hexadecapole Moments (Debye-Ang^3)
      XXXX    -886.2816   XXXY      39.6174   XXYY    -308.8740
      XYYY      13.5498   YYYY   -1132.6574   XXXZ     -30.4987
      XXYZ     -56.0110   XYYZ       8.1704   YYYZ    -195.3533
      XXZZ    -251.5376   XYZZ     -12.7317   YYZZ    -260.8505
      XZZZ     -79.3824   YZZZ    -294.2769   ZZZZ    -413.1578
 -----------------------------------------------------------------
Archival summary:
1\1\nid00506\SP\ProcedureUnspecified\BasisUnspecified\199\meili\MonSep2706:18:292021MonSep2706:18:292021\0\\#,ProcedureUnspecified,BasisUnspecified,\\0,1\C\C,1,1.40613\H,2,1.07805,1,120.387\C,2,1.39819,1,118.545,3,-179.595,0\H,4,1.08044,2,119.791,1,179.699,0\C,4,1.4161,2,120.935,1,1.1202,0\H,6,1.08217,4,119.104,2,178.958,0\C,6,1.38423,4,121.496,2,-0.90597,0\H,8,1.08127,6,121.552,4,179.751,0\C,8,1.38967,6,117.224,4,0.0299417,0\N,10,1.37044,8,130.262,6,-178.633,0\H,11,1.01368,10,125.91,8,0.496445,0\C,11,1.37473,10,110.049,8,179.185,0\H,13,1.08646,11,125.575,10,-179.218,0\C,13,1.36294,11,109.554,10,0.524008,0\C,15,1.50749,13,125.999,11,179.855,0\H,16,1.0896,15,109.841,13,-11.4445,0\H,16,1.09051,15,108.365,13,-129.668,0\H,16,1.1,15,110.721,13,110.443,0\\\@

 Total job time:  79057.50s(wall), 157085.67s(cpu) 
 Mon Sep 27 06:18:30 2021

        *************************************************************
        *                                                           *
        *  Thank you very much for using Q-Chem.  Have a nice day.  *
        *                                                           *
        *************************************************************


Done Job For Fragment 0
calling putenv with: QCSCRATCH=/global/cscratch1/sd/meili 
calling putenv with: QCLOCALSCR=/tmp 
calling putenv with: QCTHREADS=32 
Creating input file /tmp/qchem23788/Frg2.input
using default PutDataFrgm: nothing
calling putenv with: QCSCRATCH=/tmp/qchem23788/ 
calling putenv with: QCLOCALSCR=/tmp/qchem23788/ 
Spawning Job For Fragment 1
                  Welcome to Q-Chem
     A Quantum Leap Into The Future Of Chemistry


 Q-Chem 5.2, Q-Chem, Inc., Pleasanton, CA (2019)

 License issued to: National Energy Research Scientific Computing Center

 Yihan Shao,  Zhengting Gan,  E. Epifanovsky,  A. T. B. Gilbert,  M. Wormit,  
 J. Kussmann,  A. W. Lange,  A. Behn,  Jia Deng,  Xintian Feng,  D. Ghosh,  
 M. Goldey,  P. R. Horn,  L. D. Jacobson,  I. Kaliman,  T. Kus,  A. Landau,  
 Jie Liu,  E. I. Proynov,  R. M. Richard,  R. P. Steele,  E. J. Sundstrom,  
 H. L. Woodcock III,  P. M. Zimmerman,  D. Zuev,  B. Albrecht,  E. Alguire,  
 S. A. Baeppler,  D. Barton,  Z. Benda,  Y. A. Bernard,  E. J. Berquist,  
 K. B. Bravaya,  H. Burton,  D. Casanova,  Chun-Min Chang,  Yunqing Chen,  
 A. Chien,  K. D. Closser,  M. P. Coons,  S. Coriani,  S. Dasgupta,  
 A. L. Dempwolff,  M. Diedenhofen,  Hainam Do,  R. G. Edgar,  Po-Tung Fang,  
 S. Faraji,  S. Fatehi,  Qingguo Feng,  K. D. Fenk,  J. Fosso-Tande,  
 J. Gayvert,  Qinghui Ge,  A. Ghysels,  G. Gidofalvi,  J. Gomes,  
 J. Gonthier,  A. Gunina,  D. Hait,  M. W. D. Hanson-Heine,  
 P. H. P. Harbach,  A. W. Hauser,  M. F. Herbst,  J. E. Herr,  
 E. G. Hohenstein,  Z. C. Holden,  Kerwin Hui,  B. C. Huynh,  T.-C. Jagau,  
 Hyunjun Ji,  B. Kaduk,  K. Khistyaev,  Jaehoon Kim,  P. Klunzinger,  K. Koh,  
 D. Kosenkov,  L. Koulias,  T. Kowalczyk,  C. M. Krauter,  A. Kunitsa,  
 Ka Un Lao,  A. Laurent,  K. V. Lawler,  Joonho Lee,  D. Lefrancois,  
 S. Lehtola,  D. S. Levine,  Yi-Pei Li,  You-Sheng Lin,  Fenglai Liu,  
 E. Livshits,  A. Luenser,  P. Manohar,  E. Mansoor,  S. F. Manzer,  
 Shan-Ping Mao,  Yuezhi Mao,  N. Mardirossian,  A. V. Marenich,  
 T. Markovich,  L. A. Martinez-Martinez,  S. A. Maurer,  N. J. Mayhall,  
 S. C. McKenzie,  J.-M. Mewes,  P. Morgante,  A. F. Morrison,  
 J. W. Mullinax,  K. Nanda,  T. S. Nguyen-Beck,  R. Olivares-Amaya,  
 J. A. Parkhill,  Zheng Pei,  T. M. Perrine,  F. Plasser,  P. Pokhilko,  
 S. Prager,  A. Prociuk,  E. Ramos,  D. R. Rehn,  F. Rob,  M. Scheurer,  
 M. Schneider,  N. Sergueev,  S. M. Sharada,  S. Sharma,  D. W. Small,  
 T. Stauch,  T. Stein,  Yu-Chuan Su,  A. J. W. Thom,  A. Tkatchenko,  
 T. Tsuchimochi,  N. M. Tubman,  L. Vogt,  M. L. Vidal,  O. Vydrov,  
 M. A. Watson,  J. Wenzel,  M. de Wergifosse,  T. A. Wesolowski,  A. White,  
 J. Witte,  A. Yamada,  Jun Yang,  K. Yao,  S. Yeganeh,  S. R. Yost,  
 Zhi-Qiang You,  A. Zech,  Igor Ying Zhang,  Xing Zhang,  Yan Zhao,  
 Ying Zhu,  B. R. Brooks,  G. K. L. Chan,  C. J. Cramer,  M. S. Gordon,  
 W. J. Hehre,  A. Klamt,  M. W. Schmidt,  C. D. Sherrill,  D. G. Truhlar,  
 A. Aspuru-Guzik,  R. Baer,  A. T. Bell,  N. A. Besley,  Jeng-Da Chai,  
 A. E. DePrince, III,  R. A. DiStasio Jr.,  A. Dreuw,  B. D. Dunietz,  
 T. R. Furlani,  Chao-Ping Hsu,  Yousung Jung,  Jing Kong,  D. S. Lambrecht,  
 WanZhen Liang,  C. Ochsenfeld,  V. A. Rassolov,  L. V. Slipchenko,  
 J. E. Subotnik,  T. Van Voorhis,  J. M. Herbert,  A. I. Krylov,  
 P. M. W. Gill,  M. Head-Gordon

 Contributors to earlier versions of Q-Chem not listed above: 
 R. D. Adamson,  B. Austin,  J. Baker,  G. J. O. Beran,  K. Brandhorst,  
 S. T. Brown,  E. F. C. Byrd,  A. K. Chakraborty,  C.-L. Cheng,  
 Siu Hung Chien,  D. M. Chipman,  D. L. Crittenden,  H. Dachsel,  
 R. J. Doerksen,  A. D. Dutoi,  L. Fusti-Molnar,  W. A. Goddard III,  
 A. Golubeva-Zadorozhnaya,  S. R. Gwaltney,  G. Hawkins,  A. Heyden,  
 S. Hirata,  G. Kedziora,  F. J. Keil,  C. Kelley,  Jihan Kim,  R. A. King,  
 R. Z. Khaliullin,  P. P. Korambath,  W. Kurlancheek,  A. M. Lee,  M. S. Lee,  
 S. V. Levchenko,  Ching Yeh Lin,  D. Liotard,  R. C. Lochan,  I. Lotan,  
 P. E. Maslen,  N. Nair,  D. P. O'Neill,  D. Neuhauser,  E. Neuscamman,  
 C. M. Oana,  R. Olson,  B. Peters,  R. Peverati,  P. A. Pieniazek,  
 Y. M. Rhee,  J. Ritchie,  M. A. Rohrdanz,  E. Rosta,  N. J. Russ,  
 H. F. Schaefer III,  N. E. Schultz,  N. Shenvi,  A. C. Simmonett,  A. Sodt,  
 D. Stuck,  K. S. Thanthiriwatte,  V. Vanovschi,  Tao Wang,  A. Warshel,  
 C. F. Williams,  Q. Wu,  X. Xu,  W. Zhang

 Please cite Q-Chem as follows:
 Y. Shao et al., Mol. Phys. 113, 184-215 (2015)
 DOI: 10.1080/00268976.2014.952696

 Q-Chem 5.2.0 for Intel X86 EM64T Linux

 Parts of Q-Chem use Armadillo 8.300.2 (Tropical Shenanigans).
 http://arma.sourceforge.net/

 Q-Chem begins on Mon Sep 27 06:18:32 2021  

Host: cori01
0

     Scratch files written to /tmp/qchem23788//Frg2//
 May1019 |scratch|qcdevops|jenkins|workspace|build_RNUM -1
Processing $rem in /global/common/cori/software/qchem/5.2/config/preferences:
	 MEM_TOTAL  96000 
NAlpha2: 32
NElect   32
Mult     1
Symmetry turned off for PCM/SM12/SMD calculation

Checking the input file for inconsistencies... 	...done.

--------------------------------------------------------------
User input:
--------------------------------------------------------------
$molecule
-1 1
 6	-2.8200946673	-1.4564038273	-2.7938928435
 6	-2.3590946673	-2.2704038273	-1.5778928435
 8	-2.7780946673	-1.9504038273	-0.4498928435
 8	-1.5490946673	-3.2134038273	-1.7628928435
 1	-2.8280946673	-2.0924038273	-3.6788928435
 1	-2.0830946673	-0.6694038273	-2.9668928435
 1	-3.8040646673	-0.9746038273	-2.6955658435
$end
$rem
EDA2		1
METHOD		WB97X-V
BASIS		DEF2-TZVPD
XC_GRID		000099000590
NL_GRID		1
UNRESTRICTED		FALSE
MAX_SCF_CYCLES		200
SYMMETRY		FALSE
SYM_IGNORE		TRUE
BASIS_LIN_DEP_THRESH		6
THRESH		14
SCF_CONVERGENCE		8
SCF_PRINT_FRGM		TRUE
SOLVENT_METHOD		PCM
!required keywords
JOBTYPE		SP
SYM_IGNORE		TRUE
SUBSYSTEM		TRUE
GEN_SCFMAN		TRUE
CHILD_INSTRUCTION		2
SYM_IGNORE		TRUE
SCFMI		0
RI_K 0		
PARI_K 0		
MIN_PARI_K 0		
IARI_K 0		
OCC_RI_K 0		
PURECART		1111
MEM_STATIC		2000
MEM_TOTAL		96000
GUI		0
CHILD_MP		1
CHILD_MP_ORDERS		232
FRZ_RELAX		0
FRZ_RELAX_METHOD		0
EDA_CLS_ELEC		1
EDA_CLS_DISP		0
FRZ_ORTHO_DECOMP		1
EDA2		FALSE
FRGM_METHOD		FALSE
CIS_N_ROOTS  0
LOCAL_CIS    0
CIS_RLX_DNS  1
$end
$pcm
THEORY                  CPCM
METHOD                  SWIG
SOLVER                  INVERSION
RADII                   UFF
HPOINTS                 302
HEAVYPOINTS             302
PRINTLEVEL              0
$end
$solvent
DIELECTRIC              78.390000 ! water
$end
--------------------------------------------------------------
 ----------------------------------------------------------------
             Standard Nuclear Orientation (Angstroms)
    I     Atom           X                Y                Z
 ----------------------------------------------------------------
    1      C      -2.8200946673    -1.4564038273    -2.7938928435
    2      C      -2.3590946673    -2.2704038273    -1.5778928435
    3      O      -2.7780946673    -1.9504038273    -0.4498928435
    4      O      -1.5490946673    -3.2134038273    -1.7628928435
    5      H      -2.8280946673    -2.0924038273    -3.6788928435
    6      H      -2.0830946673    -0.6694038273    -2.9668928435
    7      H      -3.8040646673    -0.9746038273    -2.6955658435
 ----------------------------------------------------------------
 Nuclear Repulsion Energy =         112.36479588 hartrees
 There are       16 alpha and       16 beta electrons
 Requested basis set is def2-TZVPD
 There are 69 shells and 181 basis functions

 Total QAlloc Memory Limit  96000 MB
 Mega-Array Size      1956 MB
 MEM_STATIC part      2000 MB
 Discretize the solute cavity surface with Lebedev spheres
	Using 302 Lebedev grid points for each H atom
	Using 302 Lebedev grid points for other atoms
	Atomic van der Waals radii will be scaled by 1.20
 Remove points where switching function is < 1.0e-08
 Keep 1020 surface tesserae and discard 1094 interior tesserae
 Molecular Surface Area = 120.605 Angst**2

                       Distance Matrix (Angstroms)
             C (  1)   C (  2)   O (  3)   O (  4)   H (  5)   H (  6)
   C (  2)  1.534201
   O (  3)  2.395858  1.245129
   O (  4)  2.401135  1.256811  2.197630
   H (  5)  1.089855  2.160057  3.232508  2.561940
   H (  6)  1.092001  2.137451  2.908483  2.864735  1.756957
   H (  7)  1.099998  2.239694  2.654778  3.311645  1.780148  1.768758

 
 A cutoff of  1.0D-14 yielded   2391 shell pairs
 There are     16695 function pairs (     21491 Cartesian)
 Smallest overlap matrix eigenvalue = 1.79E-05

 Scale SEOQF with 1.000000e-01/1.000000e-01/1.000000e-01

 Standard Electronic Orientation quadrupole field applied
 Nucleus-field energy     =     0.0000000057 hartrees
 Guess from superposition of atomic densities
 Warning:  Energy on first SCF cycle will be non-variational
 SAD guess density has 30.625312 electrons

 -----------------------------------------------------------------------
  General SCF calculation program by
  Eric Jon Sundstrom, Paul Horn, Yuezhi Mao, Dmitri Zuev, Alec White,
  David Stuck, Shaama M.S., Shane Yost, Joonho Lee, David Small,
  Daniel Levine, Susi Lehtola, Hugh Burton, Evgeny Epifanovsky
 -----------------------------------------------------------------------
 Exchange:     0.1670 Hartree-Fock + 1.0000 wB97X-V + LR-HF
 Correlation:  1.0000 wB97X-V
 Using Euler-Maclaurin-Lebedev (99,590) quadrature formula
 Nonlocal Correlation:  VV10 with C = 0.0100 and b = 6.00 and scale = 1.00000
 Grid used for NLC:  SG-1 standard quadrature
Energy prior to optimization (guess energy) = -227.763627138739
Begin Timing: Total SCF Calculation
begin iterations for algorithm: DIIS         
the SCF tolerance is set to 1.00e-08
    1    -227.7636271387      1.66e-02     00000 
    2    -225.6112434765      2.54e-02     00000 
    3    -228.5770795904      4.13e-03     00000 
    4    -228.6359796940      1.38e-03     00000 
    5    -228.6421086789      2.35e-04     00000 
    6    -228.6423314087      1.79e-04     00000 
    7    -228.6424174884      5.12e-05     00000 
    8    -228.6424284789      1.39e-05     00000 
    9    -228.6424297687      2.92e-06     00000 
   10    -228.6424298699      5.17e-07     00000 
   11    -228.6424298732      2.33e-07     00000 
   12    -228.6424298737      6.44e-08     00000 
   13    -228.6424298738      1.60e-08     00000 
   14    -228.6424298738      2.90e-09     00000 Convergence criterion met
Timing for Total SCF: 283.00s (wall), 555.34s (cpu)

************** Final PCM Free Energy Summary **************
 G_electrostatic  =      -0.10176173 hartree =     -63.85644780 kcal/mol
 G_cavitation     =       0.00000000 hartree =       0.00000000 kcal/mol
 G_dispersion     =       0.00000000 hartree =       0.00000000 kcal/mol
 G_repulsion      =       0.00000000 hartree =       0.00000000 kcal/mol
 --------------------------------------------------
 Non-electrostatic Free Energy =       0.00000000 hartree =       0.00000000 kcal/mol
 Total                         =      -0.10176173 hartree =     -63.85644780 kcal/mol
 --------------------------------------------------
 SCF Energy (H0 + V/2)                       =    -228.64242987 
 Solute Internal Energy (H0)                 =    -228.54066815 
 Total Free Energy (H0 + V/2 + non-elec)     =    -228.64242987 hartree
                                             = -143475.29021824 kcal/mol
***********************************************************

E_pcm = -0.1017617275
Multipole orders to be included
        2
        3
computing dipole RHS
computing quadrupole RHS
total number of RHS in solve_reponses: 8
RHS batch sizes
        8
Beginning Block Conjugate Gradient Iterations. Batch Number: 0
computing hessian-vector products by finite difference
              1      6.20e-01     00000 Conjugate Gradient Iteration
computing hessian-vector products by finite difference
              2      2.33e-01     00000 Conjugate Gradient Iteration
computing hessian-vector products by finite difference
              3      6.14e-02     00000 Conjugate Gradient Iteration
computing hessian-vector products by finite difference
              4      1.57e-02     00000 Conjugate Gradient Iteration
computing hessian-vector products by finite difference
              5      2.67e-03     00000 Conjugate Gradient Iteration
computing hessian-vector products by finite difference
              6      5.78e-04     00000 Conjugate Gradient Iteration
computing hessian-vector products by finite difference
              7      9.46e-05     00000 Conjugate Gradient Iteration
computing hessian-vector products by finite difference
              8      1.15e-05     00000 Conjugate Gradient Iteration
computing hessian-vector products by finite difference
              9      1.81e-06     00000 Conjugate Gradient Iteration
computing hessian-vector products by finite difference
             10      2.28e-07     00000 Conjugate Gradient Iteration
computing hessian-vector products by finite difference
             11      3.95e-08     00000 Conjugate Gradient Iteration
computing hessian-vector products by finite difference
             12      6.05e-09     00000 CG Converged
batch 0 complete
Done Calculating Responses
TESTING ORTHOGONALIZATION OF MULTIPOLE BASIS
Multipole virts passed orthogonality test
Virts Per Order
        48
        80
 
 --------------------------------------------------------------
 
                    Orbital Energies (a.u.)
 --------------------------------------------------------------
 
 Alpha MOs
 -- Occupied --
-19.1227 -19.1216 -10.3265 -10.2406  -1.1325  -1.0316  -0.8272  -0.5933
 -0.5271  -0.5182  -0.5144  -0.4635  -0.4433  -0.3293  -0.3262  -0.3091
 -- Virtual --
  0.0632   0.0953   0.0956   0.1055   0.1303   0.1401   0.1423   0.1460
  0.1694   0.1901   0.2000   0.2193   0.2334   0.2360   0.2628   0.2687
  0.2981   0.3094   0.3342   0.3469   0.3563   0.3667   0.3717   0.3748
  0.3874   0.4059   0.4243   0.4303   0.4322   0.4586   0.4725   0.4784
  0.4906   0.4952   0.5045   0.5238   0.5572   0.5812   0.5961   0.6117
  0.6382   0.6407   0.6458   0.6616   0.6688   0.6788   0.6890   0.7127
  0.7220   0.7360   0.7898   0.7967   0.8111   0.8266   0.8466   0.8565
  0.8666   0.9842   0.9988   1.0022   1.0072   1.0384   1.0745   1.0996
  1.1460   1.2373   1.2522   1.2653   1.2909   1.3159   1.3573   1.3904
  1.4339   1.5542   1.6022   1.7453   1.8263   1.8703   1.8864   1.9230
  1.9258   1.9522   1.9611   1.9731   2.0290   2.1043   2.1299   2.1834
  2.2070   2.2290   2.3081   2.3384   2.4184   2.4611   2.4828   2.5011
  2.5759   2.5827   2.6479   2.6612   2.7677   2.8184   2.8484   2.9131
  2.9466   3.0405   3.0944   3.1413   3.2200   3.2340   3.2816   3.2974
  3.3485   3.3570   3.3844   3.4108   3.4226   3.5236   3.5957   3.6000
  3.6170   3.6767   3.7244   3.7307   3.7448   3.8258   3.9648   4.0404
  4.0818   4.2307   4.3316   4.5814   4.5983   4.6552   4.8008   4.8206
  4.9849   5.3322   5.3593   5.3674   5.3770   5.5018   5.7122   5.7740
  5.8225   6.0263   6.2428   6.3364   6.3576   6.6256   6.6316   6.7210
  6.7500   6.7605   6.9468   6.9816   7.0472   7.2445   7.3524   7.3855
  7.4177  22.5825  23.7216  44.2215  44.3670
 --------------------------------------------------------------
 
          Ground-State Mulliken Net Atomic Charges

     Atom                 Charge (a.u.)
  ----------------------------------------
      1 C                    -0.422445
      2 C                     0.297779
      3 O                    -0.665252
      4 O                    -0.679979
      5 H                     0.162835
      6 H                     0.126786
      7 H                     0.180277
  ----------------------------------------
  Sum of atomic charges =    -1.000000

 -----------------------------------------------------------------
                    Cartesian Multipole Moments
 -----------------------------------------------------------------
    Charge (ESU x 10^10)
                -4.8032
    Dipole Moment (Debye)
         X       9.8662      Y      13.3148      Z       4.0634
       Tot      17.0627
    Quadrupole Moments (Debye-Ang)
        XX     -49.1227     XY     -23.9739     YY     -65.8219
        XZ      -4.7655     YZ     -15.0272     ZZ     -32.7967
    Octopole Moments (Debye-Ang^2)
       XXX     246.8027    XXY     105.8891    XYY     127.8003
       YYY     294.6151    XXZ      49.3893    XYZ      17.9749
       YYZ      98.2320    XZZ      68.5175    YZZ      82.6402
       ZZZ     149.3645
    Hexadecapole Moments (Debye-Ang^3)
      XXXX   -1141.4121   XXXY    -495.6993   XXYY    -422.8839
      XYYY    -572.9553   YYYY   -1252.3308   XXXZ    -324.5398
      XXYZ    -110.6557   XYYZ    -175.4775   YYYZ    -464.4506
      XXZZ    -268.1304   XYZZ    -152.6222   YYZZ    -341.2306
      XZZZ    -340.5557   YZZZ    -327.6432   ZZZZ    -664.3738
 -----------------------------------------------------------------
Archival summary:
1\1\nid00506\SP\ProcedureUnspecified\BasisUnspecified\223(1-,1)\meili\MonSep2707:38:262021MonSep2707:38:262021\0\\#,ProcedureUnspecified,BasisUnspecified,\\-1,1\C\O,1,1.24513\O,1,1.25681,2,122.892\C,1,1.5342,2,118.722,3,-178.305,0\H,4,1.08986,1,109.645,2,-150.89,0\H,4,1.092,1,107.767,2,92.6611,0\H,4,1.1,1,115.488,2,-27.6255,0\\\@

 Total job time:  4795.00s(wall), 9372.25s(cpu) 
 Mon Sep 27 07:38:27 2021

        *************************************************************
        *                                                           *
        *  Thank you very much for using Q-Chem.  Have a nice day.  *
        *                                                           *
        *************************************************************


Done Job For Fragment 1
calling putenv with: QCSCRATCH=/global/cscratch1/sd/meili 
calling putenv with: QCLOCALSCR=/tmp 
calling putenv with: QCTHREADS=32 
Doing General SCFMI
 Exchange:     0.1670 Hartree-Fock + 1.0000 wB97X-V + LR-HF
 Correlation:  1.0000 wB97X-V
 Using Euler-Maclaurin-Lebedev (99,590) quadrature formula
 Nonlocal Correlation:  VV10 with C = 0.0100 and b = 6.00 and scale = 1.00000
 Grid used for NLC:  SG-1 standard quadrature
performing fock build before subrot guess so that all methods have access
Printing subrot_rss_gen Method Specification:
Occupied Subspace Method is 0
Virtual Subspace Method is 0
Energy of the unrelaxed supersystem initial determinant -631.704063571190
performing fock build before subrot guess so that all methods have access
Printing subrot_rss_gen Method Specification:
Occupied Subspace Method is 0
Virtual Subspace Method is 0
Energy of the unrelaxed supersystem initial determinant w/ solvent -631.812929317476
write pseudocanon occs and virts to disk
write pseudocanon orbital energies to disk
Tolerance of ortho_decomp_scf: 1.00e-06
GDM subspace size: 20
Beginning the Orthogonal Decomposition of the Initial Supersystem Wavefunction
    1    -631.6768882838      3.66e-02     ortho_decomp Preconditoned Steepest Descent
    2    -631.6821701167      1.23e-03     ortho_decomp BFGS Step
    3    -631.6821981675      8.56e-05     ortho_decomp BFGS Step
    4    -631.6821981979      3.55e-06     ortho_decomp BFGS Step
    5    -631.6821981980      1.42e-07     ortho_decomp 00000 Convergence criterion met
 Hartree-Fock
 Hartree-Fock
 Hartree-Fock
Doing General SCFMI
 Exchange:     0.1670 Hartree-Fock + 1.0000 wB97X-V + LR-HF
 Correlation:  1.0000 wB97X-V
 Using Euler-Maclaurin-Lebedev (99,590) quadrature formula
 Nonlocal Correlation:  VV10 with C = 0.0100 and b = 6.00 and scale = 1.00000
 Grid used for NLC:  SG-1 standard quadrature
performing fock build at end of subrot_r(subrot) constructor so that all methods have access
<S^2> of initial wavefunction before polarization iterations 0.0000000000
Beginning iterations for the determination of the polarized wavefunction
Energy prior to optimization (guess energy) = -631.812929317476
Begin Timing: Total SCF Calculation
begin iterations for algorithm: DIIS         
the SCF tolerance is set to 1.00e-08
    1    -631.8129293175      8.12e-05     00000 
    2    -631.8136855518      4.54e-05     00000 
    3    -631.8138063816      1.90e-05     00000 
    4    -631.8138351204      6.20e-06     00000 
    5    -631.8138394031      3.05e-06     00000 
    6    -631.8138403461      1.21e-06     00000 
    7    -631.8138405071      6.07e-07     00000 
    8    -631.8138405390      2.45e-07     00000 
    9    -631.8138405440      1.01e-07     00000 
   10    -631.8138405448      3.32e-08     00000 
   11    -631.8138405449      1.34e-08     00000 
   12    -631.8138405450      6.09e-09     00000 Convergence criterion met
write pseudocanon occs and virts to disk
write pseudocanon orbital energies to disk
Timing for Total SCF: 8492.00s (wall), 16874.25s (cpu)
<S^2> of polarized wavefunction after polarization iterations 0.0000000000
relaxing scfmi constraint to allow all rotations in the entire AO span
Doing General SCFMI
 Exchange:     0.1670 Hartree-Fock + 1.0000 wB97X-V + LR-HF
 Correlation:  1.0000 wB97X-V
 Using Euler-Maclaurin-Lebedev (99,590) quadrature formula
 Nonlocal Correlation:  VV10 with C = 0.0100 and b = 6.00 and scale = 1.00000
 Grid used for NLC:  SG-1 standard quadrature
performing fock build at end of subrot_r(subrot) constructor so that all methods have access
<S^2> of polarized wavefunction before ct-allowed iterations 0.0000000000
Beginning iterations for the determination of the CT-Allowed wavefunction
Energy prior to optimization (guess energy) = -631.813840544953
Begin Timing: Total SCF Calculation
begin iterations for algorithm: DIIS         
the SCF tolerance is set to 1.00e-08
    1    -631.8138405450      6.76e-05     00000 
    2    -631.8148460594      8.30e-06     00000 
    3    -631.8148825214      2.20e-06     00000 
    4    -631.8148836965      1.92e-06     00000 
    5    -631.8148842470      2.09e-07     00000 
    6    -631.8148842657      1.09e-07     00000 
    7    -631.8148842696      2.92e-08     00000 
    8    -631.8148842699      1.84e-08     00000 
    9    -631.8148842699      5.40e-09     00000 Convergence criterion met
write pseudocanon occs and virts to disk
write pseudocanon orbital energies to disk
Timing for Total SCF: 6138.00s (wall), 12192.00s (cpu)
<S^2> of ct_allowed wavefunction after ct-allowed iterations 0.0000000000

================================
        Results of EDA2         
================================
Basic EDA Quantities
--------------------
Fragment Energies (Ha):
1 -403.1701362356
2 -228.6424298738
--------------------
  E_prp (kJ/mol) = 0.0000
  E_sol (kJ/mol) = -1.6936
  E_frz (kJ/mol) = 0.7400
  E_pol (kJ/mol) = -2.3925
  E_vct (kJ/mol) = -2.7403
  E_int (kJ/mol) = -6.0864
--------------------


Initial Wavefunction Decomposition
--------------------
  --------------------
  Orthogonal Fragment Subspace Decomposition:
  --------------------
     E_elec   (ELEC)   (kJ/mol) = -28.7250
     E_pauli  (PAULI)  (kJ/mol) = 45.4903
     E_disp   (DISP)   (kJ/mol) = -16.0253
     --------------------
     Terms summing to E_pauli:
     --------------------
        E_kep_pauli       (kJ/mol) = 58.1482
        E_disp_free_pauli (kJ/mol) = -12.6580
  --------------------
  Classical Frozen Decomposition:
  --------------------
     E_cls_elec  (CLS ELEC)  (kJ/mol) = -5.1415
     E_cls_pauli (CLS PAULI) (kJ/mol) = 5.8815
    [E_mod_pauli (MOD PAULI) (kJ/mol) = 21.9067 (CLS PAULI - DISP from orthogonal decomposition) ]
  --------------------
--------------------

Simplified EDA Summary (kJ/mol)
--------------------
 PREPARATION     0.0000
 SOLVATION       -1.6936
 FROZEN          16.7653      (does not include dispersion)
[PAULI           45.4903]     (if this is negligible, then frozen describes electrostatics)
 DISPERSION      -16.0253
 POLARIZATION    -2.3925
 CHARGE TRANSFER -2.7403
 TOTAL           -6.0864     (PRP + SOL + FRZ + DISP + POL + CT)
--------------------
 
 --------------------------------------------------------------
 
                    Orbital Energies (a.u.)
 --------------------------------------------------------------
 
 Alpha MOs
 -- Occupied --
-19.1211 -19.1199 -14.4458 -10.3248 -10.2980 -10.2927 -10.2675 -10.2647
-10.2625 -10.2617 -10.2609 -10.2594 -10.2556 -10.2398  -1.1309  -1.1118
 -1.0301  -0.9704  -0.9264  -0.8618  -0.8552  -0.8263  -0.8134  -0.7400
 -0.7082  -0.6710  -0.6460  -0.5959  -0.5924  -0.5756  -0.5507  -0.5452
 -0.5355  -0.5219  -0.5168  -0.5135  -0.5131  -0.5103  -0.4864  -0.4784
 -0.4630  -0.4469  -0.4454  -0.4399  -0.4266  -0.3730  -0.3268  -0.3244
 -0.3091  -0.3077  -0.2876
 -- Virtual --
  0.0570   0.0577   0.0696   0.0736   0.0870   0.0906   0.0923   0.0941
  0.0992   0.1135   0.1201   0.1239   0.1317   0.1371   0.1401   0.1414
  0.1497   0.1523   0.1603   0.1659   0.1690   0.1773   0.1794   0.1899
  0.1915   0.1992   0.2032   0.2056   0.2128   0.2176   0.2213   0.2248
  0.2324   0.2346   0.2430   0.2468   0.2558   0.2575   0.2602   0.2658
  0.2676   0.2760   0.2765   0.2785   0.2823   0.2865   0.2899   0.2916
  0.3025   0.3066   0.3086   0.3134   0.3174   0.3186   0.3226   0.3277
  0.3321   0.3360   0.3376   0.3397   0.3430   0.3464   0.3499   0.3553
  0.3595   0.3611   0.3653   0.3680   0.3722   0.3774   0.3805   0.3835
  0.3854   0.3891   0.3927   0.3971   0.4017   0.4025   0.4097   0.4131
  0.4179   0.4197   0.4253   0.4287   0.4325   0.4341   0.4388   0.4425
  0.4468   0.4514   0.4554   0.4607   0.4627   0.4676   0.4731   0.4791
  0.4822   0.4851   0.4871   0.4912   0.4946   0.5000   0.5030   0.5082
  0.5156   0.5185   0.5197   0.5255   0.5288   0.5355   0.5389   0.5443
  0.5471   0.5509   0.5532   0.5574   0.5626   0.5666   0.5721   0.5749
  0.5788   0.5845   0.5931   0.5954   0.6013   0.6045   0.6120   0.6145
  0.6177   0.6236   0.6308   0.6379   0.6425   0.6476   0.6501   0.6543
  0.6611   0.6649   0.6733   0.6820   0.6868   0.6900   0.6922   0.6953
  0.7001   0.7061   0.7142   0.7169   0.7221   0.7238   0.7358   0.7413
  0.7443   0.7496   0.7556   0.7576   0.7626   0.7662   0.7695   0.7731
  0.7772   0.7813   0.7851   0.7887   0.7950   0.8005   0.8018   0.8049
  0.8127   0.8147   0.8202   0.8211   0.8251   0.8313   0.8344   0.8367
  0.8407   0.8475   0.8580   0.8585   0.8596   0.8690   0.8730   0.8769
  0.8797   0.8844   0.8908   0.9004   0.9040   0.9136   0.9156   0.9283
  0.9290   0.9397   0.9441   0.9472   0.9566   0.9638   0.9754   0.9803
  0.9940   0.9992   1.0069   1.0094   1.0143   1.0234   1.0339   1.0341
  1.0392   1.0399   1.0462   1.0660   1.0767   1.0803   1.0905   1.0963
  1.1104   1.1209   1.1294   1.1330   1.1411   1.1553   1.1591   1.1684
  1.1759   1.1905   1.1945   1.2068   1.2192   1.2339   1.2405   1.2506
  1.2657   1.2709   1.2764   1.2879   1.2963   1.2970   1.3193   1.3317
  1.3407   1.3496   1.3650   1.3803   1.3874   1.3960   1.4000   1.4185
  1.4230   1.4289   1.4359   1.4527   1.4601   1.4809   1.4948   1.5151
  1.5277   1.5387   1.5781   1.5859   1.5868   1.5959   1.5982   1.6200
  1.6392   1.6510   1.6535   1.6741   1.6913   1.7165   1.7252   1.7455
  1.7600   1.7696   1.7811   1.8011   1.8308   1.8583   1.8684   1.8726
  1.8837   1.8887   1.8974   1.9108   1.9265   1.9367   1.9383   1.9486
  1.9500   1.9597   1.9654   1.9710   1.9848   1.9907   1.9941   2.0082
  2.0165   2.0254   2.0291   2.0313   2.0430   2.0464   2.0509   2.0632
  2.0708   2.0883   2.0983   2.1029   2.1168   2.1274   2.1653   2.1739
  2.1821   2.1895   2.2041   2.2153   2.2221   2.2317   2.2358   2.2481
  2.2624   2.3026   2.3141   2.3200   2.3265   2.3406   2.3461   2.3634
  2.3650   2.3933   2.4082   2.4237   2.4524   2.4580   2.4725   2.4868
  2.4980   2.5044   2.5107   2.5174   2.5434   2.5478   2.5624   2.5910
  2.5966   2.5971   2.6074   2.6191   2.6242   2.6410   2.6560   2.6748
  2.6829   2.6867   2.7008   2.7173   2.7375   2.7634   2.7671   2.7762
  2.7839   2.7922   2.8071   2.8206   2.8313   2.8434   2.8521   2.8554
  2.8686   2.8777   2.8965   2.8987   2.9143   2.9239   2.9366   2.9439
  2.9638   2.9721   2.9804   2.9914   3.0079   3.0085   3.0394   3.0437
  3.0525   3.0716   3.1008   3.1144   3.1304   3.1343   3.1398   3.1508
  3.1565   3.1678   3.1772   3.1895   3.2157   3.2304   3.2359   3.2411
  3.2549   3.2663   3.2709   3.2928   3.3009   3.3072   3.3162   3.3257
  3.3310   3.3374   3.3453   3.3571   3.3791   3.3936   3.3976   3.4040
  3.4114   3.4178   3.4277   3.4291   3.4361   3.4496   3.4556   3.4656
  3.4699   3.4810   3.4817   3.4919   3.5000   3.5134   3.5256   3.5311
  3.5420   3.5487   3.5513   3.5754   3.5921   3.6014   3.6088   3.6180
  3.6262   3.6380   3.6435   3.6581   3.6639   3.6716   3.6737   3.6873
  3.7032   3.7145   3.7208   3.7248   3.7328   3.7524   3.7562   3.7655
  3.7721   3.7825   3.7918   3.8042   3.8219   3.8441   3.8740   3.8939
  3.9105   3.9289   3.9521   3.9832   3.9925   4.0432   4.0442   4.0611
  4.0713   4.0963   4.1193   4.1534   4.1796   4.1972   4.2179   4.2304
  4.2444   4.2605   4.2718   4.2967   4.3166   4.3196   4.3557   4.3584
  4.3688   4.3857   4.4129   4.4193   4.4600   4.4699   4.4876   4.5157
  4.5371   4.6008   4.6128   4.6195   4.6416   4.6460   4.6723   4.6731
  4.7460   4.7579   4.8199   4.8295   4.8493   4.8627   4.9245   4.9471
  4.9594   4.9858   4.9906   5.0120   5.0239   5.0651   5.0780   5.1223
  5.1298   5.1764   5.2049   5.2216   5.2728   5.3421   5.3692   5.3818
  5.3911   5.3961   5.4080   5.4595   5.4924   5.5126   5.5438   5.6120
  5.6411   5.7204   5.7234   5.7877   5.8128   5.8270   5.8307   5.9581
  5.9752   6.0356   6.2726   6.2828   6.3330   6.3620   6.3743   6.6430
  6.6917   6.7802   6.7927   6.8069   6.9663   7.0548   7.0870   7.2706
  7.3677   7.4061   7.4388  22.5973  22.6599  22.7860  22.9350  22.9627
 23.0009  23.1918  23.2663  23.4460  23.7569  23.7796  32.8541  44.3802
 44.4342
 --------------------------------------------------------------
 
          Ground-State Mulliken Net Atomic Charges

     Atom                 Charge (a.u.)
  ----------------------------------------
      1 C                    -0.965050
      2 C                     0.472260
      3 C                     0.581808
      4 C                    -0.086048
      5 C                    -0.587268
      6 C                    -0.631639
      7 C                    -0.624485
      8 C                    -0.355776
      9 C                    -0.675097
     10 N                     0.161572
     11 H                     0.492904
     12 H                     0.389805
     13 H                     0.339032
     14 H                     0.259151
     15 H                     0.243522
     16 H                     0.244203
     17 H                     0.173297
     18 H                     0.338833
     19 H                     0.213603
     20 C                    -0.561096
     21 C                     0.443945
     22 O                    -0.687325
     23 O                    -0.698157
     24 H                     0.191491
     25 H                     0.126516
     26 H                     0.199999
  ----------------------------------------
  Sum of atomic charges =    -1.000000

 -----------------------------------------------------------------
                    Cartesian Multipole Moments
 -----------------------------------------------------------------
    Charge (ESU x 10^10)
                -4.8032
    Dipole Moment (Debye)
         X      10.8972      Y      14.9428      Z       4.4718
       Tot      19.0272
    Quadrupole Moments (Debye-Ang)
        XX     -97.1105     XY     -16.9974     YY    -114.7651
        XZ      -3.4296     YZ      -9.3959     ZZ     -95.9643
    Octopole Moments (Debye-Ang^2)
       XXX     114.0755    XXY      75.5251    XYY      92.2902
       YYY     154.5905    XXZ      15.7390    XYZ      30.3277
       YYZ      70.8583    XZZ       3.1364    YZZ      30.1810
       ZZZ      12.4065
    Hexadecapole Moments (Debye-Ang^3)
      XXXX   -2048.6238   XXXY    -458.8017   XXYY    -738.5434
      XYYY    -563.0617   YYYY   -2397.7128   XXXZ    -358.3429
      XXYZ    -169.1119   XYYZ    -169.3944   YYYZ    -665.0105
      XXZZ    -523.2224   XYZZ    -166.6257   YYZZ    -605.9843
      XZZZ    -422.1540   YZZZ    -624.8287   ZZZZ   -1082.5906
 -----------------------------------------------------------------
Archival summary:
1\1\nid00506\SP\ProcedureUnspecified\BasisUnspecified\211112(1-,1)\meili\MonSep2714:49:462021MonSep2714:49:462021\0\\#,ProcedureUnspecified,BasisUnspecified,\\-1,1\C\C,1,1.40613\H,2,1.07805,1,120.387\C,2,1.39819,1,118.545,3,-179.595,0\H,4,1.08044,2,119.791,1,179.699,0\C,4,1.4161,2,120.935,1,1.1202,0\H,6,1.08217,4,119.104,2,178.958,0\C,6,1.38423,4,121.496,2,-0.90597,0\H,8,1.08127,6,121.552,4,179.751,0\C,8,1.38967,6,117.224,4,0.0299417,0\N,10,1.37044,8,130.262,6,-178.633,0\H,11,1.01368,10,125.91,8,0.496445,0\C,11,1.37473,10,110.049,8,179.185,0\H,13,1.08646,11,125.575,10,-179.218,0\C,13,1.36294,11,109.554,10,0.524008,0\C,15,1.50749,13,125.999,11,179.855,0\H,16,1.0896,15,109.841,13,-11.4445,0\H,16,1.09051,15,108.365,13,-129.668,0\H,16,1.1,15,110.721,13,110.443,0\O,3,2.50678,2,135.792,1,164.792,0\C,20,1.24513,3,105.403,2,-35.3125,0\O,21,1.25681,20,122.892,3,86.6926,0\C,21,1.5342,20,118.722,3,-91.6127,0\H,23,1.08986,21,109.645,20,-150.89,0\H,23,1.092,21,107.767,20,92.6611,0\H,23,1.1,21,115.488,20,-27.6255,0\\\@

 Total job time:  109740.80s(wall), 51516.65s(cpu) 
 Mon Sep 27 14:49:47 2021

        *************************************************************
        *                                                           *
        *  Thank you very much for using Q-Chem.  Have a nice day.  *
        *                                                           *
        *************************************************************


