
Running Job 1 of 1 SSI-058HIE-115GLN-1_SMD_TZVPD.in
qchem SSI-058HIE-115GLN-1_SMD_TZVPD.in_63848.0 /tmp/qchem63848/ 0
/global/common/cori/software/qchem/5.2/exe/qcprog.exe_s SSI-058HIE-115GLN-1_SMD_TZVPD.in_63848.0 /tmp/qchem63848/
                  Welcome to Q-Chem
     A Quantum Leap Into The Future Of Chemistry


 Q-Chem 5.2, Q-Chem, Inc., Pleasanton, CA (2019)

 License issued to: National Energy Research Scientific Computing Center

 Yihan Shao,  Zhengting Gan,  E. Epifanovsky,  A. T. B. Gilbert,  M. Wormit,  
 J. Kussmann,  A. W. Lange,  A. Behn,  Jia Deng,  Xintian Feng,  D. Ghosh,  
 M. Goldey,  P. R. Horn,  L. D. Jacobson,  I. Kaliman,  T. Kus,  A. Landau,  
 Jie Liu,  E. I. Proynov,  R. M. Richard,  R. P. Steele,  E. J. Sundstrom,  
 H. L. Woodcock III,  P. M. Zimmerman,  D. Zuev,  B. Albrecht,  E. Alguire,  
 S. A. Baeppler,  D. Barton,  Z. Benda,  Y. A. Bernard,  E. J. Berquist,  
 K. B. Bravaya,  H. Burton,  D. Casanova,  Chun-Min Chang,  Yunqing Chen,  
 A. Chien,  K. D. Closser,  M. P. Coons,  S. Coriani,  S. Dasgupta,  
 A. L. Dempwolff,  M. Diedenhofen,  Hainam Do,  R. G. Edgar,  Po-Tung Fang,  
 S. Faraji,  S. Fatehi,  Qingguo Feng,  K. D. Fenk,  J. Fosso-Tande,  
 J. Gayvert,  Qinghui Ge,  A. Ghysels,  G. Gidofalvi,  J. Gomes,  
 J. Gonthier,  A. Gunina,  D. Hait,  M. W. D. Hanson-Heine,  
 P. H. P. Harbach,  A. W. Hauser,  M. F. Herbst,  J. E. Herr,  
 E. G. Hohenstein,  Z. C. Holden,  Kerwin Hui,  B. C. Huynh,  T.-C. Jagau,  
 Hyunjun Ji,  B. Kaduk,  K. Khistyaev,  Jaehoon Kim,  P. Klunzinger,  K. Koh,  
 D. Kosenkov,  L. Koulias,  T. Kowalczyk,  C. M. Krauter,  A. Kunitsa,  
 Ka Un Lao,  A. Laurent,  K. V. Lawler,  Joonho Lee,  D. Lefrancois,  
 S. Lehtola,  D. S. Levine,  Yi-Pei Li,  You-Sheng Lin,  Fenglai Liu,  
 E. Livshits,  A. Luenser,  P. Manohar,  E. Mansoor,  S. F. Manzer,  
 Shan-Ping Mao,  Yuezhi Mao,  N. Mardirossian,  A. V. Marenich,  
 T. Markovich,  L. A. Martinez-Martinez,  S. A. Maurer,  N. J. Mayhall,  
 S. C. McKenzie,  J.-M. Mewes,  P. Morgante,  A. F. Morrison,  
 J. W. Mullinax,  K. Nanda,  T. S. Nguyen-Beck,  R. Olivares-Amaya,  
 J. A. Parkhill,  Zheng Pei,  T. M. Perrine,  F. Plasser,  P. Pokhilko,  
 S. Prager,  A. Prociuk,  E. Ramos,  D. R. Rehn,  F. Rob,  M. Scheurer,  
 M. Schneider,  N. Sergueev,  S. M. Sharada,  S. Sharma,  D. W. Small,  
 T. Stauch,  T. Stein,  Yu-Chuan Su,  A. J. W. Thom,  A. Tkatchenko,  
 T. Tsuchimochi,  N. M. Tubman,  L. Vogt,  M. L. Vidal,  O. Vydrov,  
 M. A. Watson,  J. Wenzel,  M. de Wergifosse,  T. A. Wesolowski,  A. White,  
 J. Witte,  A. Yamada,  Jun Yang,  K. Yao,  S. Yeganeh,  S. R. Yost,  
 Zhi-Qiang You,  A. Zech,  Igor Ying Zhang,  Xing Zhang,  Yan Zhao,  
 Ying Zhu,  B. R. Brooks,  G. K. L. Chan,  C. J. Cramer,  M. S. Gordon,  
 W. J. Hehre,  A. Klamt,  M. W. Schmidt,  C. D. Sherrill,  D. G. Truhlar,  
 A. Aspuru-Guzik,  R. Baer,  A. T. Bell,  N. A. Besley,  Jeng-Da Chai,  
 A. E. DePrince, III,  R. A. DiStasio Jr.,  A. Dreuw,  B. D. Dunietz,  
 T. R. Furlani,  Chao-Ping Hsu,  Yousung Jung,  Jing Kong,  D. S. Lambrecht,  
 WanZhen Liang,  C. Ochsenfeld,  V. A. Rassolov,  L. V. Slipchenko,  
 J. E. Subotnik,  T. Van Voorhis,  J. M. Herbert,  A. I. Krylov,  
 P. M. W. Gill,  M. Head-Gordon

 Contributors to earlier versions of Q-Chem not listed above: 
 R. D. Adamson,  B. Austin,  J. Baker,  G. J. O. Beran,  K. Brandhorst,  
 S. T. Brown,  E. F. C. Byrd,  A. K. Chakraborty,  C.-L. Cheng,  
 Siu Hung Chien,  D. M. Chipman,  D. L. Crittenden,  H. Dachsel,  
 R. J. Doerksen,  A. D. Dutoi,  L. Fusti-Molnar,  W. A. Goddard III,  
 A. Golubeva-Zadorozhnaya,  S. R. Gwaltney,  G. Hawkins,  A. Heyden,  
 S. Hirata,  G. Kedziora,  F. J. Keil,  C. Kelley,  Jihan Kim,  R. A. King,  
 R. Z. Khaliullin,  P. P. Korambath,  W. Kurlancheek,  A. M. Lee,  M. S. Lee,  
 S. V. Levchenko,  Ching Yeh Lin,  D. Liotard,  R. C. Lochan,  I. Lotan,  
 P. E. Maslen,  N. Nair,  D. P. O'Neill,  D. Neuhauser,  E. Neuscamman,  
 C. M. Oana,  R. Olson,  B. Peters,  R. Peverati,  P. A. Pieniazek,  
 Y. M. Rhee,  J. Ritchie,  M. A. Rohrdanz,  E. Rosta,  N. J. Russ,  
 H. F. Schaefer III,  N. E. Schultz,  N. Shenvi,  A. C. Simmonett,  A. Sodt,  
 D. Stuck,  K. S. Thanthiriwatte,  V. Vanovschi,  Tao Wang,  A. Warshel,  
 C. F. Williams,  Q. Wu,  X. Xu,  W. Zhang

 Please cite Q-Chem as follows:
 Y. Shao et al., Mol. Phys. 113, 184-215 (2015)
 DOI: 10.1080/00268976.2014.952696

 Q-Chem 5.2.0 for Intel X86 EM64T Linux

 Parts of Q-Chem use Armadillo 8.300.2 (Tropical Shenanigans).
 http://arma.sourceforge.net/

 Q-Chem begins on Sun Sep 26 09:09:08 2021  

Host: cori01
0

     Scratch files written to /tmp/qchem63848//
 May1019 |scratch|qcdevops|jenkins|workspace|build_RNUM -1
Processing $rem in /global/common/cori/software/qchem/5.2/config/preferences:
	 MEM_TOTAL  96000 
NAlpha2: 76
NElect   76
Mult     1
Symmetry turned off for PCM/SM12/SMD calculation

 Q-Chem warning in module libgen/rem_setup.C, line 2803:

 Neither GIA nor STOLL is specified by user. Use STOLL as the default


Checking the input file for inconsistencies... 	...done.

--------------------------------------------------------------
User input:
--------------------------------------------------------------
$comment
SSI-058HIE-115GLN-1.pdb
$end

$molecule
0 1
--
0 1
C    2.552523192272   -2.459999167456   -2.252299101659
C   -0.169476807728   -0.936999167456   -0.407299101659
C    1.547523192272   -2.027999167456   -1.228299101659
C    1.364523192272   -2.445999167456    0.051700898341
N    0.573523192272   -1.089999167456   -1.496299101659
N    0.285523192272   -1.745999167456    0.545700898341
H   -1.014476807728   -0.268999167456   -0.324299101659
H   -0.101476807728   -1.819999167456    1.479700898341
H    1.959523192272   -3.184999167456    0.574700898341
H    3.459523192272   -2.772999167456   -1.734299101659
H    2.808523192272   -1.605999167456   -2.881299101659
H    2.198356192272   -3.284949167456   -2.887927801659
--
0 1
C   -2.243476807728    3.052000832544    0.030700898341
C   -1.426476807728    2.424000832544    1.139700898341
O   -1.573476807728    1.240000832544    1.434700898341
N   -0.566476807728    3.208000832544    1.773700898341
H   -1.842476807728    2.716000832544   -0.926299101659
H   -2.148476807728    4.138000832544    0.077700898341
H   -0.032476807728    2.803000832544    2.534700898341
H   -0.425476807728    4.180000832544    1.520700898341
H   -3.304163807728    2.769290832544    0.101557898341
$end

$rem
JOBTYPE			EDA
EDA2			1
method			wB97X-V
BASIS			def2-TZVPD
XC_GRID			000099000590
NL_GRID			1
UNRESTRICTED		FALSE
MAX_SCF_CYCLES		200
SYMMETRY		FALSE
SYM_IGNORE		TRUE
MEM_STATIC		2000
BASIS_LIN_DEP_THRESH 	6
THRESH 			14
SCF_CONVERGENCE 	8
SCF_PRINT_FRGM 		TRUE
SOLVENT_METHOD          SMD
$end

$SMX
SOLVENT			WATER
$END
--------------------------------------------------------------
 ----------------------------------------------------------------
             Standard Nuclear Orientation (Angstroms)
    I     Atom           X                Y                Z
 ----------------------------------------------------------------
    1      C       2.5525231923    -2.4599991675    -2.2522991017
    2      C      -0.1694768077    -0.9369991675    -0.4072991017
    3      C       1.5475231923    -2.0279991675    -1.2282991017
    4      C       1.3645231923    -2.4459991675     0.0517008983
    5      N       0.5735231923    -1.0899991675    -1.4962991017
    6      N       0.2855231923    -1.7459991675     0.5457008983
    7      H      -1.0144768077    -0.2689991675    -0.3242991017
    8      H      -0.1014768077    -1.8199991675     1.4797008983
    9      H       1.9595231923    -3.1849991675     0.5747008983
   10      H       3.4595231923    -2.7729991675    -1.7342991017
   11      H       2.8085231923    -1.6059991675    -2.8812991017
   12      H       2.1983561923    -3.2849491675    -2.8879278017
   13      C      -2.2434768077     3.0520008325     0.0307008983
   14      C      -1.4264768077     2.4240008325     1.1397008983
   15      O      -1.5734768077     1.2400008325     1.4347008983
   16      N      -0.5664768077     3.2080008325     1.7737008983
   17      H      -1.8424768077     2.7160008325    -0.9262991017
   18      H      -2.1484768077     4.1380008325     0.0777008983
   19      H      -0.0324768077     2.8030008325     2.5347008983
   20      H      -0.4254768077     4.1800008325     1.5207008983
   21      H      -3.3041638077     2.7692908325     0.1015578983
 ----------------------------------------------------------------
 Nuclear Repulsion Energy =         487.57082772 hartrees
 There are       38 alpha and       38 beta electrons
 Requested basis set is def2-TZVPD
 There are 186 shells and 472 basis functions

 Total QAlloc Memory Limit  96000 MB
 Mega-Array Size      1956 MB
 MEM_STATIC part      2000 MB
 
 Citation of the SMD model:
 Marenich, A.V.; Cramer, C.J.; Truhlar, D.G.
 J. Phys. Chem. B 2009, 113, 6378-6396.
 iSolventCode=           1
 Solvent: water                                                           
 
 vradii
            1           2           3           4           5           6
    1   1.8500000   1.8500000   1.8500000   1.8500000   1.8900000   1.8900000
            7           8           9          10          11          12
    1   1.2000000   1.2000000   1.2000000   1.2000000   1.2000000   1.2000000
           13          14          15          16          17          18
    1   1.8500000   1.8500000   1.5200000   1.8900000   1.2000000   1.2000000
           19          20          21
    1   1.2000000   1.2000000   1.2000000
 Changing PCM_VDW_RADII to SMD_RADIUS
 Discretize the solute cavity surface with Lebedev spheres
	Using 110 Lebedev grid points for each H atom
	Using 194 Lebedev grid points for other atoms
	Atomic van der Waals radii will be scaled by 1.20
 Remove points where switching function is < 1.0e-08
 Keep 1608 surface tesserae and discard 1542 interior tesserae
 Molecular Surface Area = 202.715 Angst**2
 A cutoff of  1.0D-14 yielded  14803 shell pairs
 There are     95423 function pairs (    120289 Cartesian)
 Smallest overlap matrix eigenvalue = 1.65E-06

 Scale SEOQF with 1.000000e-01/1.000000e-01/1.000000e-01

 Standard Electronic Orientation quadrupole field applied
 Nucleus-field energy     =     0.0000000204 hartrees

 -----------------------------------------------------------------------
  General SCF calculation program by
  Eric Jon Sundstrom, Paul Horn, Yuezhi Mao, Dmitri Zuev, Alec White,
  David Stuck, Shaama M.S., Shane Yost, Joonho Lee, David Small,
  Daniel Levine, Susi Lehtola, Hugh Burton, Evgeny Epifanovsky
 -----------------------------------------------------------------------
================================================================
                 ALMO-EDA with the EDA2 driver                  
================================================================
 The second-generation ALMO-EDA (for DFT):                      
 P. R. Horn, Y. Mao and M. Head-Gordon, PCCP, 18, 23067 (2016)  
 Decomposition of the frozen energy:                            
 P. R. Horn, Y. Mao and M. Head-Gordon, JCP, 144, 114107 (2016) 
 FERF model for polarization:                                   
 P. R. Horn and M. Head-Gordon, JCP, 143, 114111 (2015)         
Using eda2 option set 1
Option set summary: Frozen orbital wavefunction, initial wavefunction decomposition, and nDQ polarization.
--------------------------------
Printing EDA Options
--------------------------------
eda_child_super_basis      0
fragmo_guess_mode          0
child_mp                   1
child_mp_orders            232
cls_elec                   1
cls_disp                   0
scfmi_mode                 1
scfmi_occs                 0
scfmi_virts                0
frz_relax                  0
frz_relax_method           0
dc_pen_start               0
dc_pen_conv                0
dc_pen_increment           0
dc_pen_steps               0
dc_pen_thresh_factor       0
dc_pen_pre_newton_thresh   0
frz_ortho_decomp           1
frz_ortho_decomp_conv      6
frgm_method                2
scfmi_freeze_ss            0
separate_rehyb             0
plot_diff_den              0
eda_nocv                   0
eda_vct_relax              1
disp_free_x                0
disp_free_c                0
eda_bsse                   0
eda_pct_a                  0
eda_covp                   0
--------------------------------
Attempting to make child job directory: /tmp/qchem63848//Frg1/
Attempting to make child job directory: /tmp/qchem63848//Frg2/
Creating input file /tmp/qchem63848/Frg1.input
using default PutDataFrgm: nothing
calling putenv with: QCSCRATCH=/tmp/qchem63848/ 
calling putenv with: QCLOCALSCR=/tmp/qchem63848/ 
Spawning Job For Fragment 0
                  Welcome to Q-Chem
     A Quantum Leap Into The Future Of Chemistry


 Q-Chem 5.2, Q-Chem, Inc., Pleasanton, CA (2019)

 License issued to: National Energy Research Scientific Computing Center

 Yihan Shao,  Zhengting Gan,  E. Epifanovsky,  A. T. B. Gilbert,  M. Wormit,  
 J. Kussmann,  A. W. Lange,  A. Behn,  Jia Deng,  Xintian Feng,  D. Ghosh,  
 M. Goldey,  P. R. Horn,  L. D. Jacobson,  I. Kaliman,  T. Kus,  A. Landau,  
 Jie Liu,  E. I. Proynov,  R. M. Richard,  R. P. Steele,  E. J. Sundstrom,  
 H. L. Woodcock III,  P. M. Zimmerman,  D. Zuev,  B. Albrecht,  E. Alguire,  
 S. A. Baeppler,  D. Barton,  Z. Benda,  Y. A. Bernard,  E. J. Berquist,  
 K. B. Bravaya,  H. Burton,  D. Casanova,  Chun-Min Chang,  Yunqing Chen,  
 A. Chien,  K. D. Closser,  M. P. Coons,  S. Coriani,  S. Dasgupta,  
 A. L. Dempwolff,  M. Diedenhofen,  Hainam Do,  R. G. Edgar,  Po-Tung Fang,  
 S. Faraji,  S. Fatehi,  Qingguo Feng,  K. D. Fenk,  J. Fosso-Tande,  
 J. Gayvert,  Qinghui Ge,  A. Ghysels,  G. Gidofalvi,  J. Gomes,  
 J. Gonthier,  A. Gunina,  D. Hait,  M. W. D. Hanson-Heine,  
 P. H. P. Harbach,  A. W. Hauser,  M. F. Herbst,  J. E. Herr,  
 E. G. Hohenstein,  Z. C. Holden,  Kerwin Hui,  B. C. Huynh,  T.-C. Jagau,  
 Hyunjun Ji,  B. Kaduk,  K. Khistyaev,  Jaehoon Kim,  P. Klunzinger,  K. Koh,  
 D. Kosenkov,  L. Koulias,  T. Kowalczyk,  C. M. Krauter,  A. Kunitsa,  
 Ka Un Lao,  A. Laurent,  K. V. Lawler,  Joonho Lee,  D. Lefrancois,  
 S. Lehtola,  D. S. Levine,  Yi-Pei Li,  You-Sheng Lin,  Fenglai Liu,  
 E. Livshits,  A. Luenser,  P. Manohar,  E. Mansoor,  S. F. Manzer,  
 Shan-Ping Mao,  Yuezhi Mao,  N. Mardirossian,  A. V. Marenich,  
 T. Markovich,  L. A. Martinez-Martinez,  S. A. Maurer,  N. J. Mayhall,  
 S. C. McKenzie,  J.-M. Mewes,  P. Morgante,  A. F. Morrison,  
 J. W. Mullinax,  K. Nanda,  T. S. Nguyen-Beck,  R. Olivares-Amaya,  
 J. A. Parkhill,  Zheng Pei,  T. M. Perrine,  F. Plasser,  P. Pokhilko,  
 S. Prager,  A. Prociuk,  E. Ramos,  D. R. Rehn,  F. Rob,  M. Scheurer,  
 M. Schneider,  N. Sergueev,  S. M. Sharada,  S. Sharma,  D. W. Small,  
 T. Stauch,  T. Stein,  Yu-Chuan Su,  A. J. W. Thom,  A. Tkatchenko,  
 T. Tsuchimochi,  N. M. Tubman,  L. Vogt,  M. L. Vidal,  O. Vydrov,  
 M. A. Watson,  J. Wenzel,  M. de Wergifosse,  T. A. Wesolowski,  A. White,  
 J. Witte,  A. Yamada,  Jun Yang,  K. Yao,  S. Yeganeh,  S. R. Yost,  
 Zhi-Qiang You,  A. Zech,  Igor Ying Zhang,  Xing Zhang,  Yan Zhao,  
 Ying Zhu,  B. R. Brooks,  G. K. L. Chan,  C. J. Cramer,  M. S. Gordon,  
 W. J. Hehre,  A. Klamt,  M. W. Schmidt,  C. D. Sherrill,  D. G. Truhlar,  
 A. Aspuru-Guzik,  R. Baer,  A. T. Bell,  N. A. Besley,  Jeng-Da Chai,  
 A. E. DePrince, III,  R. A. DiStasio Jr.,  A. Dreuw,  B. D. Dunietz,  
 T. R. Furlani,  Chao-Ping Hsu,  Yousung Jung,  Jing Kong,  D. S. Lambrecht,  
 WanZhen Liang,  C. Ochsenfeld,  V. A. Rassolov,  L. V. Slipchenko,  
 J. E. Subotnik,  T. Van Voorhis,  J. M. Herbert,  A. I. Krylov,  
 P. M. W. Gill,  M. Head-Gordon

 Contributors to earlier versions of Q-Chem not listed above: 
 R. D. Adamson,  B. Austin,  J. Baker,  G. J. O. Beran,  K. Brandhorst,  
 S. T. Brown,  E. F. C. Byrd,  A. K. Chakraborty,  C.-L. Cheng,  
 Siu Hung Chien,  D. M. Chipman,  D. L. Crittenden,  H. Dachsel,  
 R. J. Doerksen,  A. D. Dutoi,  L. Fusti-Molnar,  W. A. Goddard III,  
 A. Golubeva-Zadorozhnaya,  S. R. Gwaltney,  G. Hawkins,  A. Heyden,  
 S. Hirata,  G. Kedziora,  F. J. Keil,  C. Kelley,  Jihan Kim,  R. A. King,  
 R. Z. Khaliullin,  P. P. Korambath,  W. Kurlancheek,  A. M. Lee,  M. S. Lee,  
 S. V. Levchenko,  Ching Yeh Lin,  D. Liotard,  R. C. Lochan,  I. Lotan,  
 P. E. Maslen,  N. Nair,  D. P. O'Neill,  D. Neuhauser,  E. Neuscamman,  
 C. M. Oana,  R. Olson,  B. Peters,  R. Peverati,  P. A. Pieniazek,  
 Y. M. Rhee,  J. Ritchie,  M. A. Rohrdanz,  E. Rosta,  N. J. Russ,  
 H. F. Schaefer III,  N. E. Schultz,  N. Shenvi,  A. C. Simmonett,  A. Sodt,  
 D. Stuck,  K. S. Thanthiriwatte,  V. Vanovschi,  Tao Wang,  A. Warshel,  
 C. F. Williams,  Q. Wu,  X. Xu,  W. Zhang

 Please cite Q-Chem as follows:
 Y. Shao et al., Mol. Phys. 113, 184-215 (2015)
 DOI: 10.1080/00268976.2014.952696

 Q-Chem 5.2.0 for Intel X86 EM64T Linux

 Parts of Q-Chem use Armadillo 8.300.2 (Tropical Shenanigans).
 http://arma.sourceforge.net/

 Q-Chem begins on Sun Sep 26 09:09:12 2021  

Host: cori01
0

     Scratch files written to /tmp/qchem63848//Frg1//
 May1019 |scratch|qcdevops|jenkins|workspace|build_RNUM -1
Processing $rem in /global/common/cori/software/qchem/5.2/config/preferences:
	 MEM_TOTAL  96000 
NAlpha2: 44
NElect   44
Mult     1
Symmetry turned off for PCM/SM12/SMD calculation

Checking the input file for inconsistencies... 	...done.

--------------------------------------------------------------
User input:
--------------------------------------------------------------
$molecule
0 1
 6	2.5525231923	-2.4599991675	-2.2522991017
 6	-0.1694768077	-0.9369991675	-0.4072991017
 6	1.5475231923	-2.0279991675	-1.2282991017
 6	1.3645231923	-2.4459991675	0.0517008983
 7	0.5735231923	-1.0899991675	-1.4962991017
 7	0.2855231923	-1.7459991675	0.5457008983
 1	-1.0144768077	-0.2689991675	-0.3242991017
 1	-0.1014768077	-1.8199991675	1.4797008983
 1	1.9595231923	-3.1849991675	0.5747008983
 1	3.4595231923	-2.7729991675	-1.7342991017
 1	2.8085231923	-1.6059991675	-2.8812991017
 1	2.1983561923	-3.2849491675	-2.8879278017
$end
$rem
EDA2		1
METHOD		WB97X-V
BASIS		DEF2-TZVPD
XC_GRID		000099000590
NL_GRID		1
UNRESTRICTED		FALSE
MAX_SCF_CYCLES		200
SYMMETRY		FALSE
SYM_IGNORE		TRUE
BASIS_LIN_DEP_THRESH		6
THRESH		14
SCF_CONVERGENCE		8
SCF_PRINT_FRGM		TRUE
SOLVENT_METHOD		SMD
!required keywords
JOBTYPE		SP
SYM_IGNORE		TRUE
SUBSYSTEM		TRUE
GEN_SCFMAN		TRUE
CHILD_INSTRUCTION		2
SYM_IGNORE		TRUE
SCFMI		0
RI_K 0		
PARI_K 0		
MIN_PARI_K 0		
IARI_K 0		
OCC_RI_K 0		
PURECART		1111
MEM_STATIC		2000
MEM_TOTAL		96000
GUI		0
CHILD_MP		1
CHILD_MP_ORDERS		232
FRZ_RELAX		0
FRZ_RELAX_METHOD		0
EDA_CLS_ELEC		1
EDA_CLS_DISP		0
FRZ_ORTHO_DECOMP		1
EDA2		FALSE
FRGM_METHOD		FALSE
CIS_N_ROOTS  0
LOCAL_CIS    0
CIS_RLX_DNS  1
$end
$smx
SOLVENT			WATER
$end
--------------------------------------------------------------
 ----------------------------------------------------------------
             Standard Nuclear Orientation (Angstroms)
    I     Atom           X                Y                Z
 ----------------------------------------------------------------
    1      C       2.5525231923    -2.4599991675    -2.2522991017
    2      C      -0.1694768077    -0.9369991675    -0.4072991017
    3      C       1.5475231923    -2.0279991675    -1.2282991017
    4      C       1.3645231923    -2.4459991675     0.0517008983
    5      N       0.5735231923    -1.0899991675    -1.4962991017
    6      N       0.2855231923    -1.7459991675     0.5457008983
    7      H      -1.0144768077    -0.2689991675    -0.3242991017
    8      H      -0.1014768077    -1.8199991675     1.4797008983
    9      H       1.9595231923    -3.1849991675     0.5747008983
   10      H       3.4595231923    -2.7729991675    -1.7342991017
   11      H       2.8085231923    -1.6059991675    -2.8812991017
   12      H       2.1983561923    -3.2849491675    -2.8879278017
 ----------------------------------------------------------------
 Nuclear Repulsion Energy =         224.70989964 hartrees
 There are       22 alpha and       22 beta electrons
 Requested basis set is def2-TZVPD
 There are 108 shells and 276 basis functions

 Total QAlloc Memory Limit  96000 MB
 Mega-Array Size      1956 MB
 MEM_STATIC part      2000 MB
 
 Citation of the SMD model:
 Marenich, A.V.; Cramer, C.J.; Truhlar, D.G.
 J. Phys. Chem. B 2009, 113, 6378-6396.
 iSolventCode=           1
 Solvent: water                                                           
 
 vradii
            1           2           3           4           5           6
    1   1.8500000   1.8500000   1.8500000   1.8500000   1.8900000   1.8900000
            7           8           9          10          11          12
    1   1.2000000   1.2000000   1.2000000   1.2000000   1.2000000   1.2000000
 Changing PCM_VDW_RADII to SMD_RADIUS
 Discretize the solute cavity surface with Lebedev spheres
	Using 110 Lebedev grid points for each H atom
	Using 194 Lebedev grid points for other atoms
	Atomic van der Waals radii will be scaled by 1.20
 Remove points where switching function is < 1.0e-08
 Keep 895 surface tesserae and discard 929 interior tesserae
 Molecular Surface Area = 116.245 Angst**2

                       Distance Matrix (Angstroms)
             C (  1)   C (  2)   C (  3)   C (  4)   N (  5)   N (  6)
   C (  2)  3.623926
   C (  3)  1.498407  2.193721
   C (  4)  2.592288  2.200209  1.358901
   N (  5)  2.522871  1.327170  1.378530  2.204704
   N (  6)  3.671224  1.330306  2.195278  1.377780  2.164034
   H (  7)  4.608813  1.080342  3.236532  3.246590  2.137608  2.151378
   H (  8)  4.623974  2.084486  3.177378  2.140144  3.137690  1.013707
   H (  9)  2.978121  3.248149  2.181560  1.083363  3.255620  2.207677
   H ( 10)  1.090386  4.278021  2.113482  2.772319  3.349348  4.040718
   H ( 11)  1.091097  3.928959  2.121465  3.375385  2.679497  4.257870
   H ( 12)  1.100000  4.156082  2.181255  3.168680  3.065048  4.221031
             H (  7)   H (  8)   H (  9)   H ( 10)   H ( 11)
   H (  8)  2.548252
   H (  9)  4.260978  2.632484
   H ( 10)  5.317405  4.890677  2.784102
   H ( 11)  4.789692  5.247115  3.893325  1.761051
   H ( 12)  5.098082  5.148931  3.472294  1.784235  1.786399
 
 A cutoff of  1.0D-14 yielded   5736 shell pairs
 There are     38170 function pairs (     48949 Cartesian)
 Smallest overlap matrix eigenvalue = 1.79E-06

 Scale SEOQF with 1.000000e-01/1.000000e-01/1.000000e-01

 Standard Electronic Orientation quadrupole field applied
 Nucleus-field energy     =     0.0000000067 hartrees
 Guess from superposition of atomic densities
 Warning:  Energy on first SCF cycle will be non-variational
 SAD guess density has 43.559167 electrons

 -----------------------------------------------------------------------
  General SCF calculation program by
  Eric Jon Sundstrom, Paul Horn, Yuezhi Mao, Dmitri Zuev, Alec White,
  David Stuck, Shaama M.S., Shane Yost, Joonho Lee, David Small,
  Daniel Levine, Susi Lehtola, Hugh Burton, Evgeny Epifanovsky
 -----------------------------------------------------------------------
 Exchange:     0.1670 Hartree-Fock + 1.0000 wB97X-V + LR-HF
 Correlation:  1.0000 wB97X-V
 Using Euler-Maclaurin-Lebedev (99,590) quadrature formula
 Nonlocal Correlation:  VV10 with C = 0.0100 and b = 6.00 and scale = 1.00000
 Grid used for NLC:  SG-1 standard quadrature
Energy prior to optimization (guess energy) = -265.145188314010
Begin Timing: Total SCF Calculation
begin iterations for algorithm: DIIS         
the SCF tolerance is set to 1.00e-08
    1    -265.1451883140      7.21e-03     00000 
    2    -265.1064038822      7.35e-03     00000 
    3    -265.5677420716      7.24e-04     00000 
    4    -265.5724134446      3.78e-04     00000 
    5    -265.5738085611      1.12e-04     00000 
    6    -265.5739681856      4.19e-05     00000 
    7    -265.5739928796      1.17e-05     00000 
    8    -265.5739955340      3.37e-06     00000 
    9    -265.5739958294      1.67e-06     00000 
   10    -265.5739958806      4.12e-07     00000 
   11    -265.5739958859      8.09e-08     00000 
   12    -265.5739958862      4.17e-08     00000 
   13    -265.5739958862      1.13e-08     00000 
   14    -265.5739958862      4.42e-09     00000 Convergence criterion met
Timing for Total SCF: 921.00s (wall), 1830.51s (cpu)
(3)  G-ENP(liq) elect-nuc-pol free energy of system     -265.573995886 a.u.
(4)  G-CDS(liq) cavity-dispersion-solvent structure 
     free energy                                                2.1031 kcal/mol
(6)  G-S(liq) free energy of system                     -265.570644374 a.u.
E_pcm = -0.0226262928
E_cds = 0.0033515127
Multipole orders to be included
        2
        3
computing dipole RHS
computing quadrupole RHS
total number of RHS in solve_reponses: 8
RHS batch sizes
        8
Beginning Block Conjugate Gradient Iterations. Batch Number: 0
computing hessian-vector products by finite difference
              1      6.56e-01     00000 Conjugate Gradient Iteration
computing hessian-vector products by finite difference
              2      2.05e-01     00000 Conjugate Gradient Iteration
computing hessian-vector products by finite difference
              3      4.71e-02     00000 Conjugate Gradient Iteration
computing hessian-vector products by finite difference
              4      1.37e-02     00000 Conjugate Gradient Iteration
computing hessian-vector products by finite difference
              5      2.85e-03     00000 Conjugate Gradient Iteration
computing hessian-vector products by finite difference
              6      5.32e-04     00000 Conjugate Gradient Iteration
computing hessian-vector products by finite difference
              7      1.06e-04     00000 Conjugate Gradient Iteration
computing hessian-vector products by finite difference
              8      1.57e-05     00000 Conjugate Gradient Iteration
computing hessian-vector products by finite difference
              9      2.55e-06     00000 Conjugate Gradient Iteration
computing hessian-vector products by finite difference
             10      4.78e-07     00000 Conjugate Gradient Iteration
computing hessian-vector products by finite difference
             11      7.75e-08     00000 Conjugate Gradient Iteration
computing hessian-vector products by finite difference
             12      1.09e-08     00000 Conjugate Gradient Iteration
computing hessian-vector products by finite difference
             13      2.16e-09     00000 CG Converged
batch 0 complete
Done Calculating Responses
TESTING ORTHOGONALIZATION OF MULTIPOLE BASIS
Multipole virts passed orthogonality test
Virts Per Order
           66
          110
 
 --------------------------------------------------------------
 
                    Orbital Energies (a.u.)
 --------------------------------------------------------------
 
 Alpha MOs
 -- Occupied --
-14.4593 -14.3856 -10.3165 -10.2835 -10.2820 -10.2566  -1.1515  -0.9939
 -0.8949  -0.8217  -0.7227  -0.6823  -0.6622  -0.5621  -0.5526  -0.5365
 -0.5082  -0.4946  -0.4747  -0.3774  -0.3769  -0.3209
 -- Virtual --
  0.0689   0.0878   0.0974   0.1067   0.1185   0.1299   0.1365   0.1471
  0.1721   0.1747   0.1794   0.1880   0.2005   0.2056   0.2274   0.2438
  0.2481   0.2544   0.2608   0.2632   0.2708   0.2919   0.2991   0.3093
  0.3146   0.3173   0.3220   0.3269   0.3317   0.3417   0.3518   0.3584
  0.3598   0.3710   0.3803   0.3846   0.3957   0.3980   0.4127   0.4195
  0.4199   0.4288   0.4358   0.4535   0.4618   0.4696   0.4733   0.4827
  0.4888   0.4957   0.4995   0.5188   0.5267   0.5447   0.5541   0.5645
  0.5706   0.5794   0.5878   0.5936   0.6088   0.6150   0.6194   0.6301
  0.6544   0.6613   0.6701   0.6861   0.6987   0.7037   0.7047   0.7281
  0.7336   0.7451   0.7723   0.7780   0.7796   0.7884   0.7917   0.7944
  0.8090   0.8220   0.8271   0.8397   0.8707   0.8795   0.8832   0.8922
  0.9174   0.9380   0.9587   0.9891   1.0035   1.0092   1.0210   1.0410
  1.0689   1.0758   1.1012   1.1024   1.1350   1.1712   1.1795   1.2177
  1.2327   1.2389   1.2796   1.3208   1.3450   1.3631   1.3851   1.4307
  1.4550   1.4658   1.5262   1.5590   1.6150   1.6381   1.6570   1.6814
  1.6994   1.7484   1.8028   1.8328   1.8414   1.8624   1.8767   1.8844
  1.9100   1.9443   1.9508   1.9553   1.9716   1.9973   2.0054   2.0125
  2.0276   2.0668   2.0905   2.1355   2.1898   2.2371   2.2567   2.2680
  2.3048   2.3256   2.3928   2.4002   2.4295   2.4586   2.4734   2.5069
  2.5490   2.5851   2.5942   2.6314   2.6449   2.6531   2.6896   2.7235
  2.7548   2.7663   2.7974   2.8316   2.8621   2.8995   2.9200   2.9961
  3.0123   3.0386   3.0568   3.0729   3.0929   3.1181   3.1473   3.1801
  3.1853   3.2130   3.2343   3.2368   3.2736   3.2924   3.3234   3.3416
  3.3594   3.3654   3.3893   3.4081   3.4122   3.4343   3.4774   3.4921
  3.5086   3.5464   3.5696   3.6037   3.6256   3.6659   3.6936   3.7142
  3.7493   3.7891   3.8255   3.8673   3.8941   3.9486   3.9675   4.0399
  4.0840   4.1210   4.1324   4.2405   4.2969   4.3719   4.4411   4.4786
  4.5106   4.5819   4.6127   4.7480   4.7655   4.8270   4.8338   4.8716
  4.9332   4.9650   5.0185   5.0442   5.0517   5.0879   5.1609   5.1979
  5.2381   5.3047   5.3806   5.4477   5.4903   5.5365   5.5826   5.6045
  5.6708   5.7031   5.7544   5.7931   5.8734   6.0313   6.2450   6.2863
 22.6225  22.8697  23.1275  23.3934  32.6516  32.7743
 --------------------------------------------------------------
 
          Ground-State Mulliken Net Atomic Charges

     Atom                 Charge (a.u.)
  ----------------------------------------
      1 C                    -0.825517
      2 C                    -0.262361
      3 C                     0.546217
      4 C                    -0.579729
      5 N                    -0.540312
      6 N                     0.074622
      7 H                     0.345458
      8 H                     0.198102
      9 H                     0.319565
     10 H                     0.249819
     11 H                     0.252408
     12 H                     0.221727
  ----------------------------------------
  Sum of atomic charges =     0.000000

 -----------------------------------------------------------------
                    Cartesian Multipole Moments
 -----------------------------------------------------------------
    Charge (ESU x 10^10)
                 0.0000
    Dipole Moment (Debye)
         X      -0.5414      Y      -1.6262      Z       4.7143
       Tot       5.0162
    Quadrupole Moments (Debye-Ang)
        XX     -32.6793     XY      -3.9435     YY     -30.7336
        XZ      -0.6417     YZ      -5.2146     ZZ     -38.8042
    Octopole Moments (Debye-Ang^2)
       XXX    -111.0082    XXY      54.5093    XYY     -24.8755
       YYY     181.6625    XXZ      26.9801    XYZ       3.1129
       YYZ      38.2645    XZZ     -37.7222    YZZ      60.1426
       ZZZ     110.1428
    Hexadecapole Moments (Debye-Ang^3)
      XXXX    -497.6544   XXXY     245.8966   XXYY    -192.7446
      XYYY     228.8453   YYYY    -816.1966   XXXZ     163.2449
      XXYZ     -53.3227   XYYZ      52.1197   YYYZ    -189.3964
      XXZZ    -150.7038   XYZZ      82.6708   YYZZ    -192.5561
      XZZZ     165.4461   YZZZ    -188.9283   ZZZZ    -456.1650
 -----------------------------------------------------------------
Archival summary:
1\1\nid00534\SP\ProcedureUnspecified\BasisUnspecified\246\meili\SunSep2613:28:442021SunSep2613:28:442021\0\\#,ProcedureUnspecified,BasisUnspecified,\\0,1\N\C,1,1.32717\H,2,1.08034,1,124.904\N,2,1.33031,1,109.04,3,179.242,0\H,4,1.01371,2,125.02,1,179.588,0\C,4,1.37778,2,108.661,1,0.0757179,0\H,6,1.08336,4,127.128,2,-179.949,0\C,6,1.3589,4,106.673,2,0.236892,0\C,8,1.49841,6,130.192,4,-178.811,0\H,9,1.09039,8,108.422,6,-29.9911,0\H,9,1.0911,8,109.006,6,-146.923,0\H,9,1.1,8,113.276,6,91.2435,0\\\@

 Total job time:  15574.00s(wall), 30897.42s(cpu) 
 Sun Sep 26 13:28:46 2021

        *************************************************************
        *                                                           *
        *  Thank you very much for using Q-Chem.  Have a nice day.  *
        *                                                           *
        *************************************************************


Done Job For Fragment 0
calling putenv with: QCSCRATCH=/global/cscratch1/sd/meili 
calling putenv with: QCLOCALSCR=/tmp 
calling putenv with: QCTHREADS=32 
Creating input file /tmp/qchem63848/Frg2.input
using default PutDataFrgm: nothing
calling putenv with: QCSCRATCH=/tmp/qchem63848/ 
calling putenv with: QCLOCALSCR=/tmp/qchem63848/ 
Spawning Job For Fragment 1
                  Welcome to Q-Chem
     A Quantum Leap Into The Future Of Chemistry


 Q-Chem 5.2, Q-Chem, Inc., Pleasanton, CA (2019)

 License issued to: National Energy Research Scientific Computing Center

 Yihan Shao,  Zhengting Gan,  E. Epifanovsky,  A. T. B. Gilbert,  M. Wormit,  
 J. Kussmann,  A. W. Lange,  A. Behn,  Jia Deng,  Xintian Feng,  D. Ghosh,  
 M. Goldey,  P. R. Horn,  L. D. Jacobson,  I. Kaliman,  T. Kus,  A. Landau,  
 Jie Liu,  E. I. Proynov,  R. M. Richard,  R. P. Steele,  E. J. Sundstrom,  
 H. L. Woodcock III,  P. M. Zimmerman,  D. Zuev,  B. Albrecht,  E. Alguire,  
 S. A. Baeppler,  D. Barton,  Z. Benda,  Y. A. Bernard,  E. J. Berquist,  
 K. B. Bravaya,  H. Burton,  D. Casanova,  Chun-Min Chang,  Yunqing Chen,  
 A. Chien,  K. D. Closser,  M. P. Coons,  S. Coriani,  S. Dasgupta,  
 A. L. Dempwolff,  M. Diedenhofen,  Hainam Do,  R. G. Edgar,  Po-Tung Fang,  
 S. Faraji,  S. Fatehi,  Qingguo Feng,  K. D. Fenk,  J. Fosso-Tande,  
 J. Gayvert,  Qinghui Ge,  A. Ghysels,  G. Gidofalvi,  J. Gomes,  
 J. Gonthier,  A. Gunina,  D. Hait,  M. W. D. Hanson-Heine,  
 P. H. P. Harbach,  A. W. Hauser,  M. F. Herbst,  J. E. Herr,  
 E. G. Hohenstein,  Z. C. Holden,  Kerwin Hui,  B. C. Huynh,  T.-C. Jagau,  
 Hyunjun Ji,  B. Kaduk,  K. Khistyaev,  Jaehoon Kim,  P. Klunzinger,  K. Koh,  
 D. Kosenkov,  L. Koulias,  T. Kowalczyk,  C. M. Krauter,  A. Kunitsa,  
 Ka Un Lao,  A. Laurent,  K. V. Lawler,  Joonho Lee,  D. Lefrancois,  
 S. Lehtola,  D. S. Levine,  Yi-Pei Li,  You-Sheng Lin,  Fenglai Liu,  
 E. Livshits,  A. Luenser,  P. Manohar,  E. Mansoor,  S. F. Manzer,  
 Shan-Ping Mao,  Yuezhi Mao,  N. Mardirossian,  A. V. Marenich,  
 T. Markovich,  L. A. Martinez-Martinez,  S. A. Maurer,  N. J. Mayhall,  
 S. C. McKenzie,  J.-M. Mewes,  P. Morgante,  A. F. Morrison,  
 J. W. Mullinax,  K. Nanda,  T. S. Nguyen-Beck,  R. Olivares-Amaya,  
 J. A. Parkhill,  Zheng Pei,  T. M. Perrine,  F. Plasser,  P. Pokhilko,  
 S. Prager,  A. Prociuk,  E. Ramos,  D. R. Rehn,  F. Rob,  M. Scheurer,  
 M. Schneider,  N. Sergueev,  S. M. Sharada,  S. Sharma,  D. W. Small,  
 T. Stauch,  T. Stein,  Yu-Chuan Su,  A. J. W. Thom,  A. Tkatchenko,  
 T. Tsuchimochi,  N. M. Tubman,  L. Vogt,  M. L. Vidal,  O. Vydrov,  
 M. A. Watson,  J. Wenzel,  M. de Wergifosse,  T. A. Wesolowski,  A. White,  
 J. Witte,  A. Yamada,  Jun Yang,  K. Yao,  S. Yeganeh,  S. R. Yost,  
 Zhi-Qiang You,  A. Zech,  Igor Ying Zhang,  Xing Zhang,  Yan Zhao,  
 Ying Zhu,  B. R. Brooks,  G. K. L. Chan,  C. J. Cramer,  M. S. Gordon,  
 W. J. Hehre,  A. Klamt,  M. W. Schmidt,  C. D. Sherrill,  D. G. Truhlar,  
 A. Aspuru-Guzik,  R. Baer,  A. T. Bell,  N. A. Besley,  Jeng-Da Chai,  
 A. E. DePrince, III,  R. A. DiStasio Jr.,  A. Dreuw,  B. D. Dunietz,  
 T. R. Furlani,  Chao-Ping Hsu,  Yousung Jung,  Jing Kong,  D. S. Lambrecht,  
 WanZhen Liang,  C. Ochsenfeld,  V. A. Rassolov,  L. V. Slipchenko,  
 J. E. Subotnik,  T. Van Voorhis,  J. M. Herbert,  A. I. Krylov,  
 P. M. W. Gill,  M. Head-Gordon

 Contributors to earlier versions of Q-Chem not listed above: 
 R. D. Adamson,  B. Austin,  J. Baker,  G. J. O. Beran,  K. Brandhorst,  
 S. T. Brown,  E. F. C. Byrd,  A. K. Chakraborty,  C.-L. Cheng,  
 Siu Hung Chien,  D. M. Chipman,  D. L. Crittenden,  H. Dachsel,  
 R. J. Doerksen,  A. D. Dutoi,  L. Fusti-Molnar,  W. A. Goddard III,  
 A. Golubeva-Zadorozhnaya,  S. R. Gwaltney,  G. Hawkins,  A. Heyden,  
 S. Hirata,  G. Kedziora,  F. J. Keil,  C. Kelley,  Jihan Kim,  R. A. King,  
 R. Z. Khaliullin,  P. P. Korambath,  W. Kurlancheek,  A. M. Lee,  M. S. Lee,  
 S. V. Levchenko,  Ching Yeh Lin,  D. Liotard,  R. C. Lochan,  I. Lotan,  
 P. E. Maslen,  N. Nair,  D. P. O'Neill,  D. Neuhauser,  E. Neuscamman,  
 C. M. Oana,  R. Olson,  B. Peters,  R. Peverati,  P. A. Pieniazek,  
 Y. M. Rhee,  J. Ritchie,  M. A. Rohrdanz,  E. Rosta,  N. J. Russ,  
 H. F. Schaefer III,  N. E. Schultz,  N. Shenvi,  A. C. Simmonett,  A. Sodt,  
 D. Stuck,  K. S. Thanthiriwatte,  V. Vanovschi,  Tao Wang,  A. Warshel,  
 C. F. Williams,  Q. Wu,  X. Xu,  W. Zhang

 Please cite Q-Chem as follows:
 Y. Shao et al., Mol. Phys. 113, 184-215 (2015)
 DOI: 10.1080/00268976.2014.952696

 Q-Chem 5.2.0 for Intel X86 EM64T Linux

 Parts of Q-Chem use Armadillo 8.300.2 (Tropical Shenanigans).
 http://arma.sourceforge.net/

 Q-Chem begins on Sun Sep 26 13:28:50 2021  

Host: cori01
0

     Scratch files written to /tmp/qchem63848//Frg2//
 May1019 |scratch|qcdevops|jenkins|workspace|build_RNUM -1
Processing $rem in /global/common/cori/software/qchem/5.2/config/preferences:
	 MEM_TOTAL  96000 
NAlpha2: 32
NElect   32
Mult     1
Symmetry turned off for PCM/SM12/SMD calculation

Checking the input file for inconsistencies... 	...done.

--------------------------------------------------------------
User input:
--------------------------------------------------------------
$molecule
0 1
 6	-2.2434768077	3.0520008325	0.0307008983
 6	-1.4264768077	2.4240008325	1.1397008983
 8	-1.5734768077	1.2400008325	1.4347008983
 7	-0.5664768077	3.2080008325	1.7737008983
 1	-1.8424768077	2.7160008325	-0.9262991017
 1	-2.1484768077	4.1380008325	0.0777008983
 1	-0.0324768077	2.8030008325	2.5347008983
 1	-0.4254768077	4.1800008325	1.5207008983
 1	-3.3041638077	2.7692908325	0.1015578983
$end
$rem
EDA2		1
METHOD		WB97X-V
BASIS		DEF2-TZVPD
XC_GRID		000099000590
NL_GRID		1
UNRESTRICTED		FALSE
MAX_SCF_CYCLES		200
SYMMETRY		FALSE
SYM_IGNORE		TRUE
BASIS_LIN_DEP_THRESH		6
THRESH		14
SCF_CONVERGENCE		8
SCF_PRINT_FRGM		TRUE
SOLVENT_METHOD		SMD
!required keywords
JOBTYPE		SP
SYM_IGNORE		TRUE
SUBSYSTEM		TRUE
GEN_SCFMAN		TRUE
CHILD_INSTRUCTION		2
SYM_IGNORE		TRUE
SCFMI		0
RI_K 0		
PARI_K 0		
MIN_PARI_K 0		
IARI_K 0		
OCC_RI_K 0		
PURECART		1111
MEM_STATIC		2000
MEM_TOTAL		96000
GUI		0
CHILD_MP		1
CHILD_MP_ORDERS		232
FRZ_RELAX		0
FRZ_RELAX_METHOD		0
EDA_CLS_ELEC		1
EDA_CLS_DISP		0
FRZ_ORTHO_DECOMP		1
EDA2		FALSE
FRGM_METHOD		FALSE
CIS_N_ROOTS  0
LOCAL_CIS    0
CIS_RLX_DNS  1
$end
$smx
SOLVENT			WATER
$end
--------------------------------------------------------------
 ----------------------------------------------------------------
             Standard Nuclear Orientation (Angstroms)
    I     Atom           X                Y                Z
 ----------------------------------------------------------------
    1      C      -2.2434768077     3.0520008325     0.0307008983
    2      C      -1.4264768077     2.4240008325     1.1397008983
    3      O      -1.5734768077     1.2400008325     1.4347008983
    4      N      -0.5664768077     3.2080008325     1.7737008983
    5      H      -1.8424768077     2.7160008325    -0.9262991017
    6      H      -2.1484768077     4.1380008325     0.0777008983
    7      H      -0.0324768077     2.8030008325     2.5347008983
    8      H      -0.4254768077     4.1800008325     1.5207008983
    9      H      -3.3041638077     2.7692908325     0.1015578983
 ----------------------------------------------------------------
 Nuclear Repulsion Energy =         122.29631981 hartrees
 There are       16 alpha and       16 beta electrons
 Requested basis set is def2-TZVPD
 There are 78 shells and 196 basis functions

 Total QAlloc Memory Limit  96000 MB
 Mega-Array Size      1956 MB
 MEM_STATIC part      2000 MB
 
 Citation of the SMD model:
 Marenich, A.V.; Cramer, C.J.; Truhlar, D.G.
 J. Phys. Chem. B 2009, 113, 6378-6396.
 iSolventCode=           1
 Solvent: water                                                           
 
 vradii
            1           2           3           4           5           6
    1   1.8500000   1.8500000   1.5200000   1.8900000   1.2000000   1.2000000
            7           8           9
    1   1.2000000   1.2000000   1.2000000
 Changing PCM_VDW_RADII to SMD_RADIUS
 Discretize the solute cavity surface with Lebedev spheres
	Using 110 Lebedev grid points for each H atom
	Using 194 Lebedev grid points for other atoms
	Atomic van der Waals radii will be scaled by 1.20
 Remove points where switching function is < 1.0e-08
 Keep 718 surface tesserae and discard 608 interior tesserae
 Molecular Surface Area = 89.833 Angst**2

                       Distance Matrix (Angstroms)
             C (  1)   C (  2)   O (  3)   N (  4)   H (  5)   H (  6)
   C (  2)  1.513854
   O (  3)  2.388192  1.229020
   N (  4)  2.423781  1.325221  2.236514
   H (  5)  1.090663  2.127599  2.797366  3.026589
   H (  6)  1.091160  2.141711  3.251227  2.498808  1.767409
   H (  7)  3.349707  2.008209  2.455127  1.014052  3.906685  3.506641
   H (  8)  2.607222  2.056866  3.157356  1.014236  3.184179  2.247831
   H (  9)  1.100001  2.173172  2.666698  3.237817  1.787696  1.791521
             H (  7)   H (  8)
   H (  8)  1.754644
   H (  9)  4.077408  3.505839
 
 A cutoff of  1.0D-14 yielded   3053 shell pairs
 There are     19543 function pairs (     24701 Cartesian)
 Smallest overlap matrix eigenvalue = 1.12E-05

 Scale SEOQF with 1.000000e-01/1.000000e-01/1.000000e-01

 Standard Electronic Orientation quadrupole field applied
 Nucleus-field energy     =     0.0000000136 hartrees
 Guess from superposition of atomic densities
 Warning:  Energy on first SCF cycle will be non-variational
 SAD guess density has 31.604610 electrons

 -----------------------------------------------------------------------
  General SCF calculation program by
  Eric Jon Sundstrom, Paul Horn, Yuezhi Mao, Dmitri Zuev, Alec White,
  David Stuck, Shaama M.S., Shane Yost, Joonho Lee, David Small,
  Daniel Levine, Susi Lehtola, Hugh Burton, Evgeny Epifanovsky
 -----------------------------------------------------------------------
 Exchange:     0.1670 Hartree-Fock + 1.0000 wB97X-V + LR-HF
 Correlation:  1.0000 wB97X-V
 Using Euler-Maclaurin-Lebedev (99,590) quadrature formula
 Nonlocal Correlation:  VV10 with C = 0.0100 and b = 6.00 and scale = 1.00000
 Grid used for NLC:  SG-1 standard quadrature
Energy prior to optimization (guess energy) = -208.705151816758
Begin Timing: Total SCF Calculation
begin iterations for algorithm: DIIS         
the SCF tolerance is set to 1.00e-08
    1    -208.7051518168      1.25e-02     00000 
    2    -208.3358913070      1.53e-02     00000 
    3    -209.2372909563      2.35e-03     00000 
    4    -209.2557585491      7.72e-04     00000 
    5    -209.2588446228      2.00e-04     00000 
    6    -209.2591179996      6.76e-05     00000 
    7    -209.2591595647      2.05e-05     00000 
    8    -209.2591647525      5.92e-06     00000 
    9    -209.2591655182      2.00e-06     00000 
   10    -209.2591655689      3.65e-07     00000 
   11    -209.2591655702      1.48e-07     00000 
   12    -209.2591655704      2.08e-08     00000 
   13    -209.2591655704      4.72e-09     00000 Convergence criterion met
Timing for Total SCF: 346.00s (wall), 683.00s (cpu)
(3)  G-ENP(liq) elect-nuc-pol free energy of system     -209.259165570 a.u.
(4)  G-CDS(liq) cavity-dispersion-solvent structure 
     free energy                                                3.5450 kcal/mol
(6)  G-S(liq) free energy of system                     -209.253516216 a.u.
E_pcm = -0.0302363282
E_cds = 0.0056493545
Multipole orders to be included
        2
        3
computing dipole RHS
computing quadrupole RHS
total number of RHS in solve_reponses: 8
RHS batch sizes
        8
Beginning Block Conjugate Gradient Iterations. Batch Number: 0
computing hessian-vector products by finite difference
              1      6.97e-01     00000 Conjugate Gradient Iteration
computing hessian-vector products by finite difference
              2      2.22e-01     00000 Conjugate Gradient Iteration
computing hessian-vector products by finite difference
              3      5.91e-02     00000 Conjugate Gradient Iteration
computing hessian-vector products by finite difference
              4      1.49e-02     00000 Conjugate Gradient Iteration
computing hessian-vector products by finite difference
              5      2.10e-03     00000 Conjugate Gradient Iteration
computing hessian-vector products by finite difference
              6      4.82e-04     00000 Conjugate Gradient Iteration
computing hessian-vector products by finite difference
              7      6.33e-05     00000 Conjugate Gradient Iteration
computing hessian-vector products by finite difference
              8      6.89e-06     00000 Conjugate Gradient Iteration
computing hessian-vector products by finite difference
              9      9.93e-07     00000 Conjugate Gradient Iteration
computing hessian-vector products by finite difference
             10      1.10e-07     00000 Conjugate Gradient Iteration
computing hessian-vector products by finite difference
             11      1.20e-08     00000 Conjugate Gradient Iteration
computing hessian-vector products by finite difference
             12      3.22e-09     00000 CG Converged
batch 0 complete
Done Calculating Responses
TESTING ORTHOGONALIZATION OF MULTIPOLE BASIS
Multipole virts passed orthogonality test
Virts Per Order
        48
        80
 
 --------------------------------------------------------------
 
                    Orbital Energies (a.u.)
 --------------------------------------------------------------
 
 Alpha MOs
 -- Occupied --
-19.1827 -14.4284 -10.3777 -10.2627  -1.1764  -1.0410  -0.8628  -0.7086
 -0.6500  -0.5913  -0.5647  -0.5195  -0.4984  -0.4773  -0.3838  -0.3753
 -- Virtual --
  0.0649   0.0960   0.0968   0.1031   0.1321   0.1336   0.1386   0.1509
  0.1825   0.1868   0.1959   0.2171   0.2302   0.2480   0.2532   0.2649
  0.2690   0.2768   0.2999   0.3156   0.3347   0.3400   0.3465   0.3532
  0.3596   0.3699   0.3716   0.3764   0.3922   0.4030   0.4173   0.4225
  0.4368   0.4607   0.4690   0.4709   0.4806   0.4963   0.5029   0.5062
  0.5247   0.5310   0.5538   0.5705   0.5817   0.5967   0.6220   0.6271
  0.6386   0.6535   0.6738   0.6962   0.7138   0.7216   0.7304   0.7701
  0.7741   0.7823   0.7973   0.8119   0.8236   0.8368   0.8533   0.8799
  0.9121   0.9593   0.9713   0.9923   1.0144   1.0314   1.0604   1.0989
  1.1085   1.1795   1.2330   1.2382   1.2925   1.3196   1.3314   1.3878
  1.4844   1.4933   1.5228   1.6196   1.6813   1.7293   1.7365   1.8091
  1.8535   1.8730   1.8933   1.9232   1.9265   1.9632   1.9792   2.0494
  2.0544   2.0871   2.1374   2.1673   2.2016   2.2295   2.3106   2.3835
  2.4172   2.4329   2.4570   2.4713   2.5394   2.5693   2.6076   2.6196
  2.6633   2.6958   2.7888   2.7942   2.8517   2.8943   2.9623   2.9843
  3.0701   3.1030   3.1365   3.1565   3.2073   3.2228   3.2621   3.2944
  3.3166   3.3386   3.3840   3.4147   3.4736   3.4918   3.5469   3.5543
  3.6097   3.6662   3.6774   3.8090   3.8786   3.9417   4.0117   4.0533
  4.0744   4.2112   4.3103   4.4163   4.4741   4.6093   4.6291   4.6773
  4.7738   4.8965   4.8991   4.9354   5.1467   5.1770   5.2633   5.3537
  5.3733   5.3971   5.4050   5.4983   5.5343   5.7663   5.9105   6.1480
  6.2445   6.5243   6.6353   6.7367   6.8272   6.9651   7.2158   7.3164
 22.5870  23.5813  32.4118  44.2960
 --------------------------------------------------------------
 
          Ground-State Mulliken Net Atomic Charges

     Atom                 Charge (a.u.)
  ----------------------------------------
      1 C                    -0.624608
      2 C                     0.435991
      3 O                    -0.695485
      4 N                    -0.299583
      5 H                     0.211791
      6 H                     0.234603
      7 H                     0.250212
      8 H                     0.244248
      9 H                     0.242830
  ----------------------------------------
  Sum of atomic charges =     0.000000

 -----------------------------------------------------------------
                    Cartesian Multipole Moments
 -----------------------------------------------------------------
    Charge (ESU x 10^10)
                -0.0000
    Dipole Moment (Debye)
         X       1.5931      Y       5.7282      Z      -0.5310
       Tot       5.9693
    Quadrupole Moments (Debye-Ang)
        XX     -26.4570     XY      -3.2980     YY       1.5805
        XZ       5.6597     YZ       6.5576     ZZ     -23.3938
    Octopole Moments (Debye-Ang^2)
       XXX     108.1327    XXY     -55.6475    XYY      18.2607
       YYY     -82.2060    XXZ     -34.1597    XYZ       5.2758
       YYZ       6.3042    XZZ      47.5878    YZZ     -48.4045
       ZZZ     -70.1387
    Hexadecapole Moments (Debye-Ang^3)
      XXXX    -402.1748   XXXY     249.4449   XXYY    -221.4317
      XYYY     204.8267   YYYY    -649.2116   XXXZ      92.8755
      XXYZ     -68.3939   XYYZ      30.3911   YYYZ     -53.2344
      XXZZ    -132.5432   XYZZ     107.7947   YYZZ    -172.0355
      XZZZ     103.6425   YZZZ    -148.9108   ZZZZ    -245.0251
 -----------------------------------------------------------------
Archival summary:
1\1\nid00534\SP\ProcedureUnspecified\BasisUnspecified\1125\meili\SunSep2615:08:422021SunSep2615:08:422021\0\\#,ProcedureUnspecified,BasisUnspecified,\\0,1\C\O,1,1.22902\N,1,1.32522,2,122.189\H,3,1.01405,1,117.677,2,-1.03363,0\H,3,1.01424,1,122.537,2,178.555,0\C,1,1.51385,2,120.726,3,-179.403,0\H,6,1.09066,1,108.456,2,-75.5162,0\H,6,1.09116,1,109.532,2,166.59,0\H,6,1.1,1,111.505,2,44.9839,0\\\@

 Total job time:  5995.48s(wall), 11826.16s(cpu) 
 Sun Sep 26 15:08:45 2021

        *************************************************************
        *                                                           *
        *  Thank you very much for using Q-Chem.  Have a nice day.  *
        *                                                           *
        *************************************************************


Done Job For Fragment 1
calling putenv with: QCSCRATCH=/global/cscratch1/sd/meili 
calling putenv with: QCLOCALSCR=/tmp 
calling putenv with: QCTHREADS=32 
Doing General SCFMI
 Exchange:     0.1670 Hartree-Fock + 1.0000 wB97X-V + LR-HF
 Correlation:  1.0000 wB97X-V
 Using Euler-Maclaurin-Lebedev (99,590) quadrature formula
 Nonlocal Correlation:  VV10 with C = 0.0100 and b = 6.00 and scale = 1.00000
 Grid used for NLC:  SG-1 standard quadrature
performing fock build before subrot guess so that all methods have access
Printing subrot_rss_gen Method Specification:
Occupied Subspace Method is 0
Virtual Subspace Method is 0
Energy of the unrelaxed supersystem initial determinant -474.789906161450
performing fock build before subrot guess so that all methods have access
Printing subrot_rss_gen Method Specification:
Occupied Subspace Method is 0
Virtual Subspace Method is 0
Energy of the unrelaxed supersystem initial determinant w/ solvent -474.832988699780
write pseudocanon occs and virts to disk
write pseudocanon orbital energies to disk
Tolerance of ortho_decomp_scf: 1.00e-06
GDM subspace size: 20
Beginning the Orthogonal Decomposition of the Initial Supersystem Wavefunction
    1    -474.7627724981      4.29e-02     ortho_decomp Preconditoned Steepest Descent
    2    -474.7662443544      1.18e-03     ortho_decomp BFGS Step
    3    -474.7662590917      9.93e-05     ortho_decomp BFGS Step
    4    -474.7662591174      4.10e-06     ortho_decomp BFGS Step
    5    -474.7662591175      1.32e-07     ortho_decomp 00000 Convergence criterion met
 Hartree-Fock
 Hartree-Fock
 Hartree-Fock
Doing General SCFMI
 Exchange:     0.1670 Hartree-Fock + 1.0000 wB97X-V + LR-HF
 Correlation:  1.0000 wB97X-V
 Using Euler-Maclaurin-Lebedev (99,590) quadrature formula
 Nonlocal Correlation:  VV10 with C = 0.0100 and b = 6.00 and scale = 1.00000
 Grid used for NLC:  SG-1 standard quadrature
performing fock build at end of subrot_r(subrot) constructor so that all methods have access
<S^2> of initial wavefunction before polarization iterations 0.0000000000
Beginning iterations for the determination of the polarized wavefunction
Energy prior to optimization (guess energy) = -474.832988699780
Begin Timing: Total SCF Calculation
begin iterations for algorithm: DIIS         
the SCF tolerance is set to 1.00e-08
    1    -474.8329886998      4.96e-05     00000 
    2    -474.8331011145      3.70e-05     00000 
    3    -474.8331298596      1.28e-05     00000 
    4    -474.8331359494      3.99e-06     00000 
    5    -474.8331366932      1.44e-06     00000 
    6    -474.8331368721      5.08e-07     00000 
    7    -474.8331368919      2.20e-07     00000 
    8    -474.8331368949      6.35e-08     00000 
    9    -474.8331368952      3.54e-08     00000 
   10    -474.8331368952      8.27e-09     00000 Convergence criterion met
write pseudocanon occs and virts to disk
write pseudocanon orbital energies to disk
Timing for Total SCF: 2582.00s (wall), 5137.84s (cpu)
<S^2> of polarized wavefunction after polarization iterations 0.0000000000
relaxing scfmi constraint to allow all rotations in the entire AO span
Doing General SCFMI
 Exchange:     0.1670 Hartree-Fock + 1.0000 wB97X-V + LR-HF
 Correlation:  1.0000 wB97X-V
 Using Euler-Maclaurin-Lebedev (99,590) quadrature formula
 Nonlocal Correlation:  VV10 with C = 0.0100 and b = 6.00 and scale = 1.00000
 Grid used for NLC:  SG-1 standard quadrature
performing fock build at end of subrot_r(subrot) constructor so that all methods have access
<S^2> of polarized wavefunction before ct-allowed iterations 0.0000000000
Beginning iterations for the determination of the CT-Allowed wavefunction
Energy prior to optimization (guess energy) = -474.833136895203
Begin Timing: Total SCF Calculation
begin iterations for algorithm: DIIS         
the SCF tolerance is set to 1.00e-08
    1    -474.8331368952      7.32e-05     00000 
    2    -474.8338391734      9.43e-06     00000 
    3    -474.8338650873      2.70e-06     00000 
    4    -474.8338658297      2.45e-06     00000 
    5    -474.8338663147      2.40e-07     00000 
    6    -474.8338663263      1.27e-07     00000 
    7    -474.8338663288      3.11e-08     00000 
    8    -474.8338663290      1.05e-08     00000 
    9    -474.8338663290      3.91e-09     00000 Convergence criterion met
write pseudocanon occs and virts to disk
write pseudocanon orbital energies to disk
Timing for Total SCF: 2334.00s (wall), 4645.03s (cpu)
<S^2> of ct_allowed wavefunction after ct-allowed iterations 0.0000000000

================================
        Results of EDA2         
================================
Basic EDA Quantities
--------------------
Fragment Energies (Ha):
1 -265.5706443735
2 -209.2535162159
--------------------
  E_prp (kJ/mol) = 0.0000
  E_sol (kJ/mol) = 23.1592
  E_frz (kJ/mol) = -25.2243
  E_pol (kJ/mol) = -0.3891
  E_vct (kJ/mol) = -1.9152
  E_int (kJ/mol) = -4.3694
--------------------


Initial Wavefunction Decomposition
--------------------
  --------------------
  Orthogonal Fragment Subspace Decomposition:
  --------------------
     E_elec   (ELEC)   (kJ/mol) = -45.4359
     E_pauli  (PAULI)  (kJ/mol) = 29.3297
     E_disp   (DISP)   (kJ/mol) = -9.1182
     --------------------
     Terms summing to E_pauli:
     --------------------
        E_kep_pauli       (kJ/mol) = 36.8617
        E_disp_free_pauli (kJ/mol) = -7.5320
  --------------------
  Classical Frozen Decomposition:
  --------------------
     E_cls_elec  (CLS ELEC)  (kJ/mol) = -31.8065
     E_cls_pauli (CLS PAULI) (kJ/mol) = 6.5822
    [E_mod_pauli (MOD PAULI) (kJ/mol) = 15.7003 (CLS PAULI - DISP from orthogonal decomposition) ]
  --------------------
--------------------

Simplified EDA Summary (kJ/mol)
--------------------
 PREPARATION     0.0000
 SOLVATION       23.1592
 FROZEN          -16.1062      (does not include dispersion)
[PAULI           29.3297]     (if this is negligible, then frozen describes electrostatics)
 DISPERSION      -9.1182
 POLARIZATION    -0.3891
 CHARGE TRANSFER -1.9152
 TOTAL           -4.3694     (PRP + SOL + FRZ + DISP + POL + CT)
--------------------
 
 --------------------------------------------------------------
 
                    Orbital Energies (a.u.)
 --------------------------------------------------------------
 
 Alpha MOs
 -- Occupied --
-19.1826 -14.4580 -14.4283 -14.3843 -10.3775 -10.3135 -10.2826 -10.2811
-10.2628 -10.2563  -1.1765  -1.1502  -1.0410  -0.9927  -0.8939  -0.8629
 -0.8209  -0.7216  -0.7087  -0.6810  -0.6615  -0.6498  -0.5915  -0.5669
 -0.5608  -0.5505  -0.5358  -0.5183  -0.5076  -0.4985  -0.4935  -0.4777
 -0.4730  -0.3836  -0.3772  -0.3758  -0.3743  -0.3196
 -- Virtual --
  0.0613   0.0762   0.0869   0.0933   0.0966   0.1050   0.1102   0.1136
  0.1277   0.1296   0.1326   0.1385   0.1422   0.1550   0.1579   0.1638
  0.1762   0.1791   0.1842   0.1882   0.1935   0.2040   0.2132   0.2200
  0.2215   0.2299   0.2374   0.2384   0.2451   0.2495   0.2546   0.2585
  0.2680   0.2795   0.2829   0.2834   0.2879   0.2969   0.3064   0.3080
  0.3092   0.3144   0.3208   0.3233   0.3259   0.3319   0.3368   0.3426
  0.3439   0.3486   0.3541   0.3591   0.3613   0.3668   0.3678   0.3715
  0.3745   0.3770   0.3836   0.3889   0.3941   0.3977   0.4021   0.4090
  0.4113   0.4184   0.4222   0.4259   0.4297   0.4421   0.4461   0.4486
  0.4526   0.4611   0.4698   0.4710   0.4789   0.4855   0.4884   0.4896
  0.4949   0.4997   0.5025   0.5039   0.5091   0.5111   0.5189   0.5218
  0.5255   0.5309   0.5376   0.5509   0.5555   0.5643   0.5697   0.5719
  0.5776   0.5827   0.5891   0.5935   0.5981   0.6007   0.6149   0.6199
  0.6217   0.6322   0.6377   0.6445   0.6497   0.6538   0.6570   0.6614
  0.6764   0.6861   0.6958   0.6997   0.7102   0.7158   0.7268   0.7306
  0.7314   0.7460   0.7498   0.7539   0.7581   0.7688   0.7734   0.7816
  0.7868   0.7928   0.7988   0.8010   0.8129   0.8151   0.8166   0.8211
  0.8264   0.8345   0.8491   0.8516   0.8542   0.8595   0.8739   0.8833
  0.8877   0.8925   0.9038   0.9099   0.9130   0.9198   0.9349   0.9411
  0.9570   0.9654   0.9731   0.9916   0.9969   1.0115   1.0187   1.0207
  1.0419   1.0533   1.0573   1.0667   1.0882   1.0956   1.1048   1.1175
  1.1230   1.1264   1.1527   1.1558   1.1689   1.1857   1.1992   1.2127
  1.2227   1.2289   1.2490   1.2705   1.2779   1.2835   1.2987   1.3223
  1.3421   1.3551   1.3637   1.3733   1.3873   1.4016   1.4231   1.4487
  1.4784   1.4885   1.5122   1.5350   1.5376   1.5578   1.5804   1.6325
  1.6601   1.6664   1.6826   1.6980   1.7125   1.7367   1.7480   1.7511
  1.7627   1.8128   1.8502   1.8573   1.8708   1.8827   1.8892   1.9003
  1.9061   1.9153   1.9172   1.9337   1.9527   1.9568   1.9592   1.9772
  1.9897   1.9963   2.0119   2.0250   2.0319   2.0441   2.0460   2.0666
  2.0766   2.0863   2.1018   2.1098   2.1267   2.1522   2.1905   2.1964
  2.2215   2.2346   2.2513   2.2545   2.2763   2.2845   2.3224   2.3479
  2.3603   2.4056   2.4174   2.4338   2.4345   2.4415   2.4598   2.4830
  2.4957   2.5022   2.5137   2.5321   2.5528   2.5829   2.5943   2.5961
  2.6083   2.6317   2.6388   2.6414   2.6641   2.6732   2.6902   2.7153
  2.7162   2.7551   2.7715   2.7727   2.8072   2.8217   2.8322   2.8373
  2.8670   2.8700   2.9052   2.9156   2.9302   2.9813   3.0072   3.0150
  3.0339   3.0542   3.0720   3.0920   3.1054   3.1164   3.1311   3.1374
  3.1508   3.1753   3.1826   3.1942   3.1962   3.2215   3.2272   3.2416
  3.2680   3.2743   3.2842   3.2943   3.3072   3.3179   3.3374   3.3413
  3.3566   3.3664   3.3757   3.3788   3.4025   3.4097   3.4197   3.4331
  3.4406   3.4507   3.4798   3.4843   3.5037   3.5206   3.5342   3.5551
  3.5711   3.5764   3.6072   3.6148   3.6205   3.6430   3.6798   3.6841
  3.6928   3.7101   3.7241   3.7615   3.8056   3.8133   3.8434   3.8763
  3.8901   3.9022   3.9545   3.9693   3.9772   4.0243   4.0531   4.0652
  4.0899   4.0972   4.1255   4.1424   4.2189   4.2511   4.3045   4.3260
  4.3764   4.4305   4.4518   4.4816   4.4851   4.5157   4.5862   4.6232
  4.6283   4.6435   4.6828   4.7557   4.7686   4.7954   4.8315   4.8393
  4.8893   4.9069   4.9160   4.9425   4.9481   4.9734   5.0276   5.0606
  5.0686   5.0966   5.1598   5.1723   5.1938   5.2070   5.2512   5.2711
  5.3173   5.3604   5.3796   5.3915   5.4045   5.4110   5.4637   5.5025
  5.5174   5.5484   5.5619   5.5933   5.6192   5.6889   5.7170   5.7709
  5.7801   5.8074   5.9010   5.9174   6.0494   6.1550   6.2522   6.2881
  6.2973   6.5449   6.6861   6.7708   6.8441   7.0178   7.2297   7.3400
 22.6099  22.6248  22.8912  23.1688  23.4074  23.6039  32.4433  32.6889
 32.8085  44.3369
 --------------------------------------------------------------
 
          Ground-State Mulliken Net Atomic Charges

     Atom                 Charge (a.u.)
  ----------------------------------------
      1 C                    -0.862106
      2 C                    -0.381739
      3 C                     0.537537
      4 C                    -0.578844
      5 N                    -0.528444
      6 N                     0.113339
      7 H                     0.425956
      8 H                     0.211292
      9 H                     0.324200
     10 H                     0.250572
     11 H                     0.257716
     12 H                     0.225221
     13 C                    -0.676099
     14 C                     0.464287
     15 O                    -0.691976
     16 N                    -0.306731
     17 H                     0.215882
     18 H                     0.253377
     19 H                     0.261440
     20 H                     0.236243
     21 H                     0.248877
  ----------------------------------------
  Sum of atomic charges =     0.000000

 -----------------------------------------------------------------
                    Cartesian Multipole Moments
 -----------------------------------------------------------------
    Charge (ESU x 10^10)
                 0.0000
    Dipole Moment (Debye)
         X       0.9528      Y       4.1900      Z       4.2382
       Tot       6.0354
    Quadrupole Moments (Debye-Ang)
        XX     -59.2146     XY      -7.1625     YY     -29.3901
        XZ       5.0541     YZ       1.2555     ZZ     -62.3702
    Octopole Moments (Debye-Ang^2)
       XXX      -3.2869    XXY      -0.8125    XYY      -6.9579
       YYY     100.0765    XXZ      -7.0325    XYZ       8.3313
       YYZ      44.6280    XZZ       9.7375    YZZ      11.8892
       ZZZ      40.2345
    Hexadecapole Moments (Debye-Ang^3)
      XXXX    -900.8456   XXXY     496.0536   XXYY    -414.9863
      XYYY     434.4649   YYYY   -1467.7220   XXXZ     256.5840
      XXYZ    -122.1176   XYYZ      82.9002   YYYZ    -243.3431
      XXZZ    -283.8097   XYZZ     190.8721   YYZZ    -365.4304
      XZZZ     269.5636   YZZZ    -338.5222   ZZZZ    -702.5821
 -----------------------------------------------------------------
Archival summary:
1\1\nid00534\SP\ProcedureUnspecified\BasisUnspecified\13611\meili\SunSep2617:42:182021SunSep2617:42:182021\0\\#,ProcedureUnspecified,BasisUnspecified,\\0,1\N\H,1,1.01371\C,1,1.33031,2,125.02\H,3,1.08034,1,126.051,2,-1.18029,0\N,3,1.32717,1,109.04,2,179.588,0\C,1,1.37778,2,126.317,3,179.427,0\H,6,1.08336,1,127.128,2,0.546491,0\C,6,1.3589,1,106.673,2,-179.268,0\C,8,1.49841,6,130.192,1,-178.811,0\H,9,1.09039,8,108.422,6,-29.9911,0\H,9,1.0911,8,109.006,6,-146.923,0\H,9,1.1,8,113.276,6,91.2435,0\O,4,2.38404,3,129.158,1,46.0557,0\C,13,1.22902,4,113.868,3,108.771,0\N,14,1.32522,13,122.189,4,-117.698,0\H,15,1.01405,14,117.677,13,-1.03363,0\H,15,1.01424,14,122.537,13,178.555,0\C,14,1.51385,13,120.726,4,62.8986,0\H,18,1.09066,14,108.456,13,-75.5162,0\H,18,1.09116,14,109.532,13,166.59,0\H,18,1.1,14,111.505,13,44.9839,0\\\@

 Total job time:  30793.98s(wall), 18349.82s(cpu) 
 Sun Sep 26 17:42:22 2021

        *************************************************************
        *                                                           *
        *  Thank you very much for using Q-Chem.  Have a nice day.  *
        *                                                           *
        *************************************************************


