
Running Job 1 of 1 SSI-051GLN-089GLU-2_PCM_TZVPD.in
qchem SSI-051GLN-089GLU-2_PCM_TZVPD.in_23662.0 /tmp/qchem23662/ 0
/global/common/cori/software/qchem/5.2/exe/qcprog.exe_s SSI-051GLN-089GLU-2_PCM_TZVPD.in_23662.0 /tmp/qchem23662/
                  Welcome to Q-Chem
     A Quantum Leap Into The Future Of Chemistry


 Q-Chem 5.2, Q-Chem, Inc., Pleasanton, CA (2019)

 License issued to: National Energy Research Scientific Computing Center

 Yihan Shao,  Zhengting Gan,  E. Epifanovsky,  A. T. B. Gilbert,  M. Wormit,  
 J. Kussmann,  A. W. Lange,  A. Behn,  Jia Deng,  Xintian Feng,  D. Ghosh,  
 M. Goldey,  P. R. Horn,  L. D. Jacobson,  I. Kaliman,  T. Kus,  A. Landau,  
 Jie Liu,  E. I. Proynov,  R. M. Richard,  R. P. Steele,  E. J. Sundstrom,  
 H. L. Woodcock III,  P. M. Zimmerman,  D. Zuev,  B. Albrecht,  E. Alguire,  
 S. A. Baeppler,  D. Barton,  Z. Benda,  Y. A. Bernard,  E. J. Berquist,  
 K. B. Bravaya,  H. Burton,  D. Casanova,  Chun-Min Chang,  Yunqing Chen,  
 A. Chien,  K. D. Closser,  M. P. Coons,  S. Coriani,  S. Dasgupta,  
 A. L. Dempwolff,  M. Diedenhofen,  Hainam Do,  R. G. Edgar,  Po-Tung Fang,  
 S. Faraji,  S. Fatehi,  Qingguo Feng,  K. D. Fenk,  J. Fosso-Tande,  
 J. Gayvert,  Qinghui Ge,  A. Ghysels,  G. Gidofalvi,  J. Gomes,  
 J. Gonthier,  A. Gunina,  D. Hait,  M. W. D. Hanson-Heine,  
 P. H. P. Harbach,  A. W. Hauser,  M. F. Herbst,  J. E. Herr,  
 E. G. Hohenstein,  Z. C. Holden,  Kerwin Hui,  B. C. Huynh,  T.-C. Jagau,  
 Hyunjun Ji,  B. Kaduk,  K. Khistyaev,  Jaehoon Kim,  P. Klunzinger,  K. Koh,  
 D. Kosenkov,  L. Koulias,  T. Kowalczyk,  C. M. Krauter,  A. Kunitsa,  
 Ka Un Lao,  A. Laurent,  K. V. Lawler,  Joonho Lee,  D. Lefrancois,  
 S. Lehtola,  D. S. Levine,  Yi-Pei Li,  You-Sheng Lin,  Fenglai Liu,  
 E. Livshits,  A. Luenser,  P. Manohar,  E. Mansoor,  S. F. Manzer,  
 Shan-Ping Mao,  Yuezhi Mao,  N. Mardirossian,  A. V. Marenich,  
 T. Markovich,  L. A. Martinez-Martinez,  S. A. Maurer,  N. J. Mayhall,  
 S. C. McKenzie,  J.-M. Mewes,  P. Morgante,  A. F. Morrison,  
 J. W. Mullinax,  K. Nanda,  T. S. Nguyen-Beck,  R. Olivares-Amaya,  
 J. A. Parkhill,  Zheng Pei,  T. M. Perrine,  F. Plasser,  P. Pokhilko,  
 S. Prager,  A. Prociuk,  E. Ramos,  D. R. Rehn,  F. Rob,  M. Scheurer,  
 M. Schneider,  N. Sergueev,  S. M. Sharada,  S. Sharma,  D. W. Small,  
 T. Stauch,  T. Stein,  Yu-Chuan Su,  A. J. W. Thom,  A. Tkatchenko,  
 T. Tsuchimochi,  N. M. Tubman,  L. Vogt,  M. L. Vidal,  O. Vydrov,  
 M. A. Watson,  J. Wenzel,  M. de Wergifosse,  T. A. Wesolowski,  A. White,  
 J. Witte,  A. Yamada,  Jun Yang,  K. Yao,  S. Yeganeh,  S. R. Yost,  
 Zhi-Qiang You,  A. Zech,  Igor Ying Zhang,  Xing Zhang,  Yan Zhao,  
 Ying Zhu,  B. R. Brooks,  G. K. L. Chan,  C. J. Cramer,  M. S. Gordon,  
 W. J. Hehre,  A. Klamt,  M. W. Schmidt,  C. D. Sherrill,  D. G. Truhlar,  
 A. Aspuru-Guzik,  R. Baer,  A. T. Bell,  N. A. Besley,  Jeng-Da Chai,  
 A. E. DePrince, III,  R. A. DiStasio Jr.,  A. Dreuw,  B. D. Dunietz,  
 T. R. Furlani,  Chao-Ping Hsu,  Yousung Jung,  Jing Kong,  D. S. Lambrecht,  
 WanZhen Liang,  C. Ochsenfeld,  V. A. Rassolov,  L. V. Slipchenko,  
 J. E. Subotnik,  T. Van Voorhis,  J. M. Herbert,  A. I. Krylov,  
 P. M. W. Gill,  M. Head-Gordon

 Contributors to earlier versions of Q-Chem not listed above: 
 R. D. Adamson,  B. Austin,  J. Baker,  G. J. O. Beran,  K. Brandhorst,  
 S. T. Brown,  E. F. C. Byrd,  A. K. Chakraborty,  C.-L. Cheng,  
 Siu Hung Chien,  D. M. Chipman,  D. L. Crittenden,  H. Dachsel,  
 R. J. Doerksen,  A. D. Dutoi,  L. Fusti-Molnar,  W. A. Goddard III,  
 A. Golubeva-Zadorozhnaya,  S. R. Gwaltney,  G. Hawkins,  A. Heyden,  
 S. Hirata,  G. Kedziora,  F. J. Keil,  C. Kelley,  Jihan Kim,  R. A. King,  
 R. Z. Khaliullin,  P. P. Korambath,  W. Kurlancheek,  A. M. Lee,  M. S. Lee,  
 S. V. Levchenko,  Ching Yeh Lin,  D. Liotard,  R. C. Lochan,  I. Lotan,  
 P. E. Maslen,  N. Nair,  D. P. O'Neill,  D. Neuhauser,  E. Neuscamman,  
 C. M. Oana,  R. Olson,  B. Peters,  R. Peverati,  P. A. Pieniazek,  
 Y. M. Rhee,  J. Ritchie,  M. A. Rohrdanz,  E. Rosta,  N. J. Russ,  
 H. F. Schaefer III,  N. E. Schultz,  N. Shenvi,  A. C. Simmonett,  A. Sodt,  
 D. Stuck,  K. S. Thanthiriwatte,  V. Vanovschi,  Tao Wang,  A. Warshel,  
 C. F. Williams,  Q. Wu,  X. Xu,  W. Zhang

 Please cite Q-Chem as follows:
 Y. Shao et al., Mol. Phys. 113, 184-215 (2015)
 DOI: 10.1080/00268976.2014.952696

 Q-Chem 5.2.0 for Intel X86 EM64T Linux

 Parts of Q-Chem use Armadillo 8.300.2 (Tropical Shenanigans).
 http://arma.sourceforge.net/

 Q-Chem begins on Sun Sep 26 08:20:46 2021  

Host: cori01
0

     Scratch files written to /tmp/qchem23662//
 May1019 |scratch|qcdevops|jenkins|workspace|build_RNUM -1
Processing $rem in /global/common/cori/software/qchem/5.2/config/preferences:
	 MEM_TOTAL  96000 
NAlpha2: 64
NElect   64
Mult     1
Symmetry turned off for PCM/SM12/SMD calculation

 Q-Chem warning in module libgen/rem_setup.C, line 2803:

 Neither GIA nor STOLL is specified by user. Use STOLL as the default


Checking the input file for inconsistencies... 	...done.

--------------------------------------------------------------
User input:
--------------------------------------------------------------
$comment
SSI-051GLN-089GLU-2.pdb
$end

$molecule
-1 1
--
0 1
C   -0.865675094876   -1.470347391104   -1.267235366621
C   -1.106675094876   -0.206347391104   -2.016235366621
O   -1.557675094876   -0.243347391104   -3.171235366621
N   -0.785675094876    0.912652608896   -1.398235366621
H   -0.963675094876    1.790652608896   -1.858235366621
H   -0.427675094876    0.881652608896   -0.442235366621
H   -1.576675094876   -2.207347391104   -1.631235366621
H   -1.062675094876   -1.333347391104   -0.211235366621
H    0.178124905124   -1.798169391104   -1.381355366621
--
-1 1
C    2.020324905124    0.762652608896    2.860764633379
C    1.034324905124    0.197652608896    1.889764633379
O    0.155324905124    0.986652608896    1.405764633379
O    1.100324905124   -1.010347391104    1.638764633379
H    1.543324905124    0.705652608896    3.841764633379
H    2.161324905124    1.829652608896    2.690764633379
H    2.970974905124    0.218619608896    2.962242633379
$end

$rem
JOBTYPE			EDA
EDA2			1
method			wB97X-V
BASIS			def2-TZVPD
XC_GRID			000099000590
NL_GRID			1
UNRESTRICTED		FALSE
MAX_SCF_CYCLES		200
SYMMETRY		FALSE
SYM_IGNORE		TRUE
MEM_STATIC		2000
BASIS_LIN_DEP_THRESH 	6
THRESH 			14
SCF_CONVERGENCE 	8
SCF_PRINT_FRGM 		TRUE
SOLVENT_METHOD          PCM
$end

$PCM
THEORY                  CPCM
METHOD                  SWIG
SOLVER                  INVERSION
RADII                   UFF
HPOINTS                 302
HEAVYPOINTS             302
PRINTLEVEL              0
$END

$SOLVENT
DIELECTRIC              78.390000 ! water
$END
--------------------------------------------------------------
 ----------------------------------------------------------------
             Standard Nuclear Orientation (Angstroms)
    I     Atom           X                Y                Z
 ----------------------------------------------------------------
    1      C      -0.8656750949    -1.4703473911    -1.2672353666
    2      C      -1.1066750949    -0.2063473911    -2.0162353666
    3      O      -1.5576750949    -0.2433473911    -3.1712353666
    4      N      -0.7856750949     0.9126526089    -1.3982353666
    5      H      -0.9636750949     1.7906526089    -1.8582353666
    6      H      -0.4276750949     0.8816526089    -0.4422353666
    7      H      -1.5766750949    -2.2073473911    -1.6312353666
    8      H      -1.0626750949    -1.3333473911    -0.2112353666
    9      H       0.1781249051    -1.7981693911    -1.3813553666
   10      C       2.0203249051     0.7626526089     2.8607646334
   11      C       1.0343249051     0.1976526089     1.8897646334
   12      O       0.1553249051     0.9866526089     1.4057646334
   13      O       1.1003249051    -1.0103473911     1.6387646334
   14      H       1.5433249051     0.7056526089     3.8417646334
   15      H       2.1613249051     1.8296526089     2.6907646334
   16      H       2.9709749051     0.2186196089     2.9622426334
 ----------------------------------------------------------------
 Nuclear Repulsion Energy =         354.24109847 hartrees
 There are       32 alpha and       32 beta electrons
 Requested basis set is def2-TZVPD
 There are 147 shells and 377 basis functions

 Total QAlloc Memory Limit  96000 MB
 Mega-Array Size      1956 MB
 MEM_STATIC part      2000 MB
 Discretize the solute cavity surface with Lebedev spheres
	Using 302 Lebedev grid points for each H atom
	Using 302 Lebedev grid points for other atoms
	Atomic van der Waals radii will be scaled by 1.20
 Remove points where switching function is < 1.0e-08
 Keep 1969 surface tesserae and discard 2863 interior tesserae
 Molecular Surface Area = 212.914 Angst**2
 A cutoff of  1.0D-14 yielded   9758 shell pairs
 There are     64618 function pairs (     81761 Cartesian)
 Smallest overlap matrix eigenvalue = 6.14E-06

 Scale SEOQF with 1.000000e-01/1.000000e-01/1.000000e-01

 Standard Electronic Orientation quadrupole field applied
 Nucleus-field energy     =    -0.0000000219 hartrees

 -----------------------------------------------------------------------
  General SCF calculation program by
  Eric Jon Sundstrom, Paul Horn, Yuezhi Mao, Dmitri Zuev, Alec White,
  David Stuck, Shaama M.S., Shane Yost, Joonho Lee, David Small,
  Daniel Levine, Susi Lehtola, Hugh Burton, Evgeny Epifanovsky
 -----------------------------------------------------------------------
================================================================
                 ALMO-EDA with the EDA2 driver                  
================================================================
 The second-generation ALMO-EDA (for DFT):                      
 P. R. Horn, Y. Mao and M. Head-Gordon, PCCP, 18, 23067 (2016)  
 Decomposition of the frozen energy:                            
 P. R. Horn, Y. Mao and M. Head-Gordon, JCP, 144, 114107 (2016) 
 FERF model for polarization:                                   
 P. R. Horn and M. Head-Gordon, JCP, 143, 114111 (2015)         
Using eda2 option set 1
Option set summary: Frozen orbital wavefunction, initial wavefunction decomposition, and nDQ polarization.
--------------------------------
Printing EDA Options
--------------------------------
eda_child_super_basis      0
fragmo_guess_mode          0
child_mp                   1
child_mp_orders            232
cls_elec                   1
cls_disp                   0
scfmi_mode                 1
scfmi_occs                 0
scfmi_virts                0
frz_relax                  0
frz_relax_method           0
dc_pen_start               0
dc_pen_conv                0
dc_pen_increment           0
dc_pen_steps               0
dc_pen_thresh_factor       0
dc_pen_pre_newton_thresh   0
frz_ortho_decomp           1
frz_ortho_decomp_conv      6
frgm_method                2
scfmi_freeze_ss            0
separate_rehyb             0
plot_diff_den              0
eda_nocv                   0
eda_vct_relax              1
disp_free_x                0
disp_free_c                0
eda_bsse                   0
eda_pct_a                  0
eda_covp                   0
--------------------------------
Attempting to make child job directory: /tmp/qchem23662//Frg1/
Attempting to make child job directory: /tmp/qchem23662//Frg2/
Creating input file /tmp/qchem23662/Frg1.input
using default PutDataFrgm: nothing
calling putenv with: QCSCRATCH=/tmp/qchem23662/ 
calling putenv with: QCLOCALSCR=/tmp/qchem23662/ 
Spawning Job For Fragment 0
                  Welcome to Q-Chem
     A Quantum Leap Into The Future Of Chemistry


 Q-Chem 5.2, Q-Chem, Inc., Pleasanton, CA (2019)

 License issued to: National Energy Research Scientific Computing Center

 Yihan Shao,  Zhengting Gan,  E. Epifanovsky,  A. T. B. Gilbert,  M. Wormit,  
 J. Kussmann,  A. W. Lange,  A. Behn,  Jia Deng,  Xintian Feng,  D. Ghosh,  
 M. Goldey,  P. R. Horn,  L. D. Jacobson,  I. Kaliman,  T. Kus,  A. Landau,  
 Jie Liu,  E. I. Proynov,  R. M. Richard,  R. P. Steele,  E. J. Sundstrom,  
 H. L. Woodcock III,  P. M. Zimmerman,  D. Zuev,  B. Albrecht,  E. Alguire,  
 S. A. Baeppler,  D. Barton,  Z. Benda,  Y. A. Bernard,  E. J. Berquist,  
 K. B. Bravaya,  H. Burton,  D. Casanova,  Chun-Min Chang,  Yunqing Chen,  
 A. Chien,  K. D. Closser,  M. P. Coons,  S. Coriani,  S. Dasgupta,  
 A. L. Dempwolff,  M. Diedenhofen,  Hainam Do,  R. G. Edgar,  Po-Tung Fang,  
 S. Faraji,  S. Fatehi,  Qingguo Feng,  K. D. Fenk,  J. Fosso-Tande,  
 J. Gayvert,  Qinghui Ge,  A. Ghysels,  G. Gidofalvi,  J. Gomes,  
 J. Gonthier,  A. Gunina,  D. Hait,  M. W. D. Hanson-Heine,  
 P. H. P. Harbach,  A. W. Hauser,  M. F. Herbst,  J. E. Herr,  
 E. G. Hohenstein,  Z. C. Holden,  Kerwin Hui,  B. C. Huynh,  T.-C. Jagau,  
 Hyunjun Ji,  B. Kaduk,  K. Khistyaev,  Jaehoon Kim,  P. Klunzinger,  K. Koh,  
 D. Kosenkov,  L. Koulias,  T. Kowalczyk,  C. M. Krauter,  A. Kunitsa,  
 Ka Un Lao,  A. Laurent,  K. V. Lawler,  Joonho Lee,  D. Lefrancois,  
 S. Lehtola,  D. S. Levine,  Yi-Pei Li,  You-Sheng Lin,  Fenglai Liu,  
 E. Livshits,  A. Luenser,  P. Manohar,  E. Mansoor,  S. F. Manzer,  
 Shan-Ping Mao,  Yuezhi Mao,  N. Mardirossian,  A. V. Marenich,  
 T. Markovich,  L. A. Martinez-Martinez,  S. A. Maurer,  N. J. Mayhall,  
 S. C. McKenzie,  J.-M. Mewes,  P. Morgante,  A. F. Morrison,  
 J. W. Mullinax,  K. Nanda,  T. S. Nguyen-Beck,  R. Olivares-Amaya,  
 J. A. Parkhill,  Zheng Pei,  T. M. Perrine,  F. Plasser,  P. Pokhilko,  
 S. Prager,  A. Prociuk,  E. Ramos,  D. R. Rehn,  F. Rob,  M. Scheurer,  
 M. Schneider,  N. Sergueev,  S. M. Sharada,  S. Sharma,  D. W. Small,  
 T. Stauch,  T. Stein,  Yu-Chuan Su,  A. J. W. Thom,  A. Tkatchenko,  
 T. Tsuchimochi,  N. M. Tubman,  L. Vogt,  M. L. Vidal,  O. Vydrov,  
 M. A. Watson,  J. Wenzel,  M. de Wergifosse,  T. A. Wesolowski,  A. White,  
 J. Witte,  A. Yamada,  Jun Yang,  K. Yao,  S. Yeganeh,  S. R. Yost,  
 Zhi-Qiang You,  A. Zech,  Igor Ying Zhang,  Xing Zhang,  Yan Zhao,  
 Ying Zhu,  B. R. Brooks,  G. K. L. Chan,  C. J. Cramer,  M. S. Gordon,  
 W. J. Hehre,  A. Klamt,  M. W. Schmidt,  C. D. Sherrill,  D. G. Truhlar,  
 A. Aspuru-Guzik,  R. Baer,  A. T. Bell,  N. A. Besley,  Jeng-Da Chai,  
 A. E. DePrince, III,  R. A. DiStasio Jr.,  A. Dreuw,  B. D. Dunietz,  
 T. R. Furlani,  Chao-Ping Hsu,  Yousung Jung,  Jing Kong,  D. S. Lambrecht,  
 WanZhen Liang,  C. Ochsenfeld,  V. A. Rassolov,  L. V. Slipchenko,  
 J. E. Subotnik,  T. Van Voorhis,  J. M. Herbert,  A. I. Krylov,  
 P. M. W. Gill,  M. Head-Gordon

 Contributors to earlier versions of Q-Chem not listed above: 
 R. D. Adamson,  B. Austin,  J. Baker,  G. J. O. Beran,  K. Brandhorst,  
 S. T. Brown,  E. F. C. Byrd,  A. K. Chakraborty,  C.-L. Cheng,  
 Siu Hung Chien,  D. M. Chipman,  D. L. Crittenden,  H. Dachsel,  
 R. J. Doerksen,  A. D. Dutoi,  L. Fusti-Molnar,  W. A. Goddard III,  
 A. Golubeva-Zadorozhnaya,  S. R. Gwaltney,  G. Hawkins,  A. Heyden,  
 S. Hirata,  G. Kedziora,  F. J. Keil,  C. Kelley,  Jihan Kim,  R. A. King,  
 R. Z. Khaliullin,  P. P. Korambath,  W. Kurlancheek,  A. M. Lee,  M. S. Lee,  
 S. V. Levchenko,  Ching Yeh Lin,  D. Liotard,  R. C. Lochan,  I. Lotan,  
 P. E. Maslen,  N. Nair,  D. P. O'Neill,  D. Neuhauser,  E. Neuscamman,  
 C. M. Oana,  R. Olson,  B. Peters,  R. Peverati,  P. A. Pieniazek,  
 Y. M. Rhee,  J. Ritchie,  M. A. Rohrdanz,  E. Rosta,  N. J. Russ,  
 H. F. Schaefer III,  N. E. Schultz,  N. Shenvi,  A. C. Simmonett,  A. Sodt,  
 D. Stuck,  K. S. Thanthiriwatte,  V. Vanovschi,  Tao Wang,  A. Warshel,  
 C. F. Williams,  Q. Wu,  X. Xu,  W. Zhang

 Please cite Q-Chem as follows:
 Y. Shao et al., Mol. Phys. 113, 184-215 (2015)
 DOI: 10.1080/00268976.2014.952696

 Q-Chem 5.2.0 for Intel X86 EM64T Linux

 Parts of Q-Chem use Armadillo 8.300.2 (Tropical Shenanigans).
 http://arma.sourceforge.net/

 Q-Chem begins on Sun Sep 26 08:20:50 2021  

Host: cori01
0

     Scratch files written to /tmp/qchem23662//Frg1//
 May1019 |scratch|qcdevops|jenkins|workspace|build_RNUM -1
Processing $rem in /global/common/cori/software/qchem/5.2/config/preferences:
	 MEM_TOTAL  96000 
NAlpha2: 32
NElect   32
Mult     1
Symmetry turned off for PCM/SM12/SMD calculation

Checking the input file for inconsistencies... 	...done.

--------------------------------------------------------------
User input:
--------------------------------------------------------------
$molecule
0 1
 6	-0.8656750949	-1.4703473911	-1.2672353666
 6	-1.1066750949	-0.2063473911	-2.0162353666
 8	-1.5576750949	-0.2433473911	-3.1712353666
 7	-0.7856750949	0.9126526089	-1.3982353666
 1	-0.9636750949	1.7906526089	-1.8582353666
 1	-0.4276750949	0.8816526089	-0.4422353666
 1	-1.5766750949	-2.2073473911	-1.6312353666
 1	-1.0626750949	-1.3333473911	-0.2112353666
 1	0.1781249051	-1.7981693911	-1.3813553666
$end
$rem
EDA2		1
METHOD		WB97X-V
BASIS		DEF2-TZVPD
XC_GRID		000099000590
NL_GRID		1
UNRESTRICTED		FALSE
MAX_SCF_CYCLES		200
SYMMETRY		FALSE
SYM_IGNORE		TRUE
BASIS_LIN_DEP_THRESH		6
THRESH		14
SCF_CONVERGENCE		8
SCF_PRINT_FRGM		TRUE
SOLVENT_METHOD		PCM
!required keywords
JOBTYPE		SP
SYM_IGNORE		TRUE
SUBSYSTEM		TRUE
GEN_SCFMAN		TRUE
CHILD_INSTRUCTION		2
SYM_IGNORE		TRUE
SCFMI		0
RI_K 0		
PARI_K 0		
MIN_PARI_K 0		
IARI_K 0		
OCC_RI_K 0		
PURECART		1111
MEM_STATIC		2000
MEM_TOTAL		96000
GUI		0
CHILD_MP		1
CHILD_MP_ORDERS		232
FRZ_RELAX		0
FRZ_RELAX_METHOD		0
EDA_CLS_ELEC		1
EDA_CLS_DISP		0
FRZ_ORTHO_DECOMP		1
EDA2		FALSE
FRGM_METHOD		FALSE
CIS_N_ROOTS  0
LOCAL_CIS    0
CIS_RLX_DNS  1
$end
$pcm
THEORY                  CPCM
METHOD                  SWIG
SOLVER                  INVERSION
RADII                   UFF
HPOINTS                 302
HEAVYPOINTS             302
PRINTLEVEL              0
$end
$solvent
DIELECTRIC              78.390000 ! water
$end
--------------------------------------------------------------
 ----------------------------------------------------------------
             Standard Nuclear Orientation (Angstroms)
    I     Atom           X                Y                Z
 ----------------------------------------------------------------
    1      C      -0.8656750949    -1.4703473911    -1.2672353666
    2      C      -1.1066750949    -0.2063473911    -2.0162353666
    3      O      -1.5576750949    -0.2433473911    -3.1712353666
    4      N      -0.7856750949     0.9126526089    -1.3982353666
    5      H      -0.9636750949     1.7906526089    -1.8582353666
    6      H      -0.4276750949     0.8816526089    -0.4422353666
    7      H      -1.5766750949    -2.2073473911    -1.6312353666
    8      H      -1.0626750949    -1.3333473911    -0.2112353666
    9      H       0.1781249051    -1.7981693911    -1.3813553666
 ----------------------------------------------------------------
 Nuclear Repulsion Energy =         122.77412419 hartrees
 There are       16 alpha and       16 beta electrons
 Requested basis set is def2-TZVPD
 There are 78 shells and 196 basis functions

 Total QAlloc Memory Limit  96000 MB
 Mega-Array Size      1956 MB
 MEM_STATIC part      2000 MB
 Discretize the solute cavity surface with Lebedev spheres
	Using 302 Lebedev grid points for each H atom
	Using 302 Lebedev grid points for other atoms
	Atomic van der Waals radii will be scaled by 1.20
 Remove points where switching function is < 1.0e-08
 Keep 1192 surface tesserae and discard 1526 interior tesserae
 Molecular Surface Area = 128.214 Angst**2

                       Distance Matrix (Angstroms)
             C (  1)   C (  2)   O (  3)   N (  4)   H (  5)   H (  6)
   C (  2)  1.488885
   O (  3)  2.368461  1.240482
   N (  4)  2.387938  1.318001  2.252964
   H (  5)  3.315570  2.008338  2.492782  1.007059
   H (  6)  2.530686  2.030335  3.160691  1.021304  1.765965
   H (  7)  1.086824  2.091202  2.495848  3.227130  4.051087  3.503690
   H (  8)  1.082919  2.128401  3.192918  2.555428  3.532957  2.315774
   H (  9)  1.100004  2.141887  2.938391  2.877108  3.796151  2.903513
             H (  7)   H (  8)
   H (  8)  1.744842
   H (  9)  1.819118  1.767717
 
 A cutoff of  1.0D-14 yielded   3055 shell pairs
 There are     19545 function pairs (     24703 Cartesian)
 Smallest overlap matrix eigenvalue = 9.95E-06

 Scale SEOQF with 1.000000e-01/1.000000e-01/1.000000e-01

 Standard Electronic Orientation quadrupole field applied
 Nucleus-field energy     =    -0.0000000108 hartrees
 Guess from superposition of atomic densities
 Warning:  Energy on first SCF cycle will be non-variational
 SAD guess density has 31.604610 electrons

 -----------------------------------------------------------------------
  General SCF calculation program by
  Eric Jon Sundstrom, Paul Horn, Yuezhi Mao, Dmitri Zuev, Alec White,
  David Stuck, Shaama M.S., Shane Yost, Joonho Lee, David Small,
  Daniel Levine, Susi Lehtola, Hugh Burton, Evgeny Epifanovsky
 -----------------------------------------------------------------------
 Exchange:     0.1670 Hartree-Fock + 1.0000 wB97X-V + LR-HF
 Correlation:  1.0000 wB97X-V
 Using Euler-Maclaurin-Lebedev (99,590) quadrature formula
 Nonlocal Correlation:  VV10 with C = 0.0100 and b = 6.00 and scale = 1.00000
 Grid used for NLC:  SG-1 standard quadrature
Energy prior to optimization (guess energy) = -208.699989714524
Begin Timing: Total SCF Calculation
begin iterations for algorithm: DIIS         
the SCF tolerance is set to 1.00e-08
    1    -208.6999897145      1.26e-02     00000 
    2    -208.2762637080      1.58e-02     00000 
    3    -209.2200618016      2.59e-03     00000 
    4    -209.2416790840      8.56e-04     00000 
    5    -209.2445922014      1.26e-04     00000 
    6    -209.2446963538      5.09e-05     00000 
    7    -209.2447148128      1.19e-05     00000 
    8    -209.2447161273      2.29e-06     00000 
    9    -209.2447162330      9.07e-07     00000 
   10    -209.2447162400      3.61e-07     00000 
   11    -209.2447162413      7.47e-08     00000 
   12    -209.2447162414      1.65e-08     00000 
   13    -209.2447162414      4.52e-09     00000 Convergence criterion met
Timing for Total SCF: 365.00s (wall), 721.39s (cpu)

************** Final PCM Free Energy Summary **************
 G_electrostatic  =      -0.01273301 hartree =      -7.99008749 kcal/mol
 G_cavitation     =       0.00000000 hartree =       0.00000000 kcal/mol
 G_dispersion     =       0.00000000 hartree =       0.00000000 kcal/mol
 G_repulsion      =       0.00000000 hartree =       0.00000000 kcal/mol
 --------------------------------------------------
 Non-electrostatic Free Energy =       0.00000000 hartree =       0.00000000 kcal/mol
 Total                         =      -0.01273301 hartree =      -7.99008749 kcal/mol
 --------------------------------------------------
 SCF Energy (H0 + V/2)                       =    -209.24471624 
 Solute Internal Energy (H0)                 =    -209.23198323 
 Total Free Energy (H0 + V/2 + non-elec)     =    -209.24471624 hartree
                                             = -131303.04119818 kcal/mol
***********************************************************

E_pcm = -0.0127330150
Multipole orders to be included
        2
        3
computing dipole RHS
computing quadrupole RHS
total number of RHS in solve_reponses: 8
RHS batch sizes
        8
Beginning Block Conjugate Gradient Iterations. Batch Number: 0
computing hessian-vector products by finite difference
              1      6.41e-01     00000 Conjugate Gradient Iteration
computing hessian-vector products by finite difference
              2      2.12e-01     00000 Conjugate Gradient Iteration
computing hessian-vector products by finite difference
              3      5.35e-02     00000 Conjugate Gradient Iteration
computing hessian-vector products by finite difference
              4      1.32e-02     00000 Conjugate Gradient Iteration
computing hessian-vector products by finite difference
              5      2.13e-03     00000 Conjugate Gradient Iteration
computing hessian-vector products by finite difference
              6      4.81e-04     00000 Conjugate Gradient Iteration
computing hessian-vector products by finite difference
              7      7.41e-05     00000 Conjugate Gradient Iteration
computing hessian-vector products by finite difference
              8      8.77e-06     00000 Conjugate Gradient Iteration
computing hessian-vector products by finite difference
              9      1.18e-06     00000 Conjugate Gradient Iteration
computing hessian-vector products by finite difference
             10      1.28e-07     00000 Conjugate Gradient Iteration
computing hessian-vector products by finite difference
             11      1.65e-08     00000 Conjugate Gradient Iteration
computing hessian-vector products by finite difference
             12      2.92e-09     00000 CG Converged
batch 0 complete
Done Calculating Responses
TESTING ORTHOGONALIZATION OF MULTIPOLE BASIS
Multipole virts passed orthogonality test
Virts Per Order
        48
        80
 
 --------------------------------------------------------------
 
                    Orbital Energies (a.u.)
 --------------------------------------------------------------
 
 Alpha MOs
 -- Occupied --
-19.1769 -14.4368 -10.3752 -10.2688  -1.1668  -1.0489  -0.8756  -0.7157
 -0.6620  -0.5924  -0.5724  -0.5154  -0.5051  -0.4816  -0.3831  -0.3671
 -- Virtual --
  0.0590   0.0913   0.0920   0.0973   0.1255   0.1288   0.1361   0.1416
  0.1696   0.1806   0.1939   0.2118   0.2237   0.2404   0.2456   0.2572
  0.2589   0.2698   0.2998   0.3093   0.3272   0.3321   0.3413   0.3462
  0.3557   0.3646   0.3713   0.3767   0.3921   0.4045   0.4152   0.4197
  0.4317   0.4497   0.4564   0.4753   0.4790   0.4861   0.4898   0.5021
  0.5253   0.5319   0.5419   0.5671   0.5849   0.5945   0.6242   0.6318
  0.6440   0.6578   0.6743   0.6940   0.7071   0.7181   0.7279   0.7585
  0.7765   0.7822   0.7904   0.8063   0.8164   0.8403   0.8487   0.8636
  0.9142   0.9467   0.9854   0.9938   1.0068   1.0307   1.0523   1.0988
  1.1061   1.1847   1.2252   1.2504   1.2819   1.3265   1.3410   1.3778
  1.4771   1.4955   1.5034   1.6259   1.6659   1.7293   1.7386   1.8091
  1.8439   1.8599   1.9000   1.9186   1.9260   1.9511   1.9936   2.0195
  2.0565   2.0878   2.1470   2.1862   2.2247   2.2406   2.3055   2.3568
  2.3896   2.3957   2.4483   2.4832   2.5429   2.5539   2.5923   2.6361
  2.6780   2.7062   2.7765   2.8175   2.8250   2.9219   2.9568   2.9873
  3.0509   3.0910   3.1304   3.1747   3.2064   3.2310   3.2615   3.2766
  3.3044   3.3338   3.3391   3.4277   3.4555   3.5314   3.5636   3.5873
  3.6241   3.6483   3.6967   3.7806   3.8999   3.9425   4.0251   4.0682
  4.0753   4.1912   4.3150   4.3834   4.5549   4.6032   4.6267   4.6693
  4.7969   4.8876   4.8884   4.9465   5.1510   5.1851   5.2677   5.3445
  5.3828   5.3968   5.4161   5.4710   5.5320   5.7756   5.9115   6.1287
  6.2446   6.5124   6.6444   6.7404   6.8232   6.9803   7.2281   7.3187
 22.6160  23.5983  32.4118  44.3168
 --------------------------------------------------------------
 
          Ground-State Mulliken Net Atomic Charges

     Atom                 Charge (a.u.)
  ----------------------------------------
      1 C                    -0.621526
      2 C                     0.411187
      3 O                    -0.595423
      4 N                    -0.259690
      5 H                     0.211220
      6 H                     0.203187
      7 H                     0.189191
      8 H                     0.258779
      9 H                     0.203075
  ----------------------------------------
  Sum of atomic charges =     0.000000

 -----------------------------------------------------------------
                    Cartesian Multipole Moments
 -----------------------------------------------------------------
    Charge (ESU x 10^10)
                 0.0000
    Dipole Moment (Debye)
         X       1.8839      Y       1.2231      Z       4.8796
       Tot       5.3718
    Quadrupole Moments (Debye-Ang)
        XX     -29.3169     XY      -1.3861     YY     -20.1037
        XZ      -9.5297     YZ      -2.9349     ZZ     -45.8997
    Octopole Moments (Debye-Ang^2)
       XXX      87.4534    XXY       7.3706    XYY      21.7951
       YYY      28.3832    XXZ      64.2945    XYZ       4.8510
       YYZ      39.5513    XZZ      63.0664    YZZ      17.1907
       ZZZ     220.8281
    Hexadecapole Moments (Debye-Ang^3)
      XXXX    -228.7650   XXXY     -23.6207   XXYY     -59.3494
      XYYY     -28.9123   YYYY    -160.6563   XXXZ    -198.0529
      XXYZ     -15.6861   XYYZ     -48.0625   YYYZ     -46.9751
      XXZZ    -208.8808   XYZZ     -22.9289   YYZZ    -129.0736
      XZZZ    -300.7389   YZZZ     -66.1697   ZZZZ    -944.1651
 -----------------------------------------------------------------
Archival summary:
1\1\nid00506\SP\ProcedureUnspecified\BasisUnspecified\1125\meili\SunSep2610:04:522021SunSep2610:04:522021\0\\#,ProcedureUnspecified,BasisUnspecified,\\0,1\C\O,1,1.24048\N,1,1.318,2,123.398\H,3,1.00706,1,118.88,2,3.81617,0\H,3,1.0213,1,119.902,2,179.348,0\C,1,1.48888,2,120.127,3,-178.266,0\H,6,1.08292,1,110.714,2,-145.666,0\H,6,1.08682,1,107.537,2,-29.0227,0\H,6,1.1,1,110.757,2,94.3696,0\\\@

 Total job time:  6243.32s(wall), 12338.13s(cpu) 
 Sun Sep 26 10:04:54 2021

        *************************************************************
        *                                                           *
        *  Thank you very much for using Q-Chem.  Have a nice day.  *
        *                                                           *
        *************************************************************


Done Job For Fragment 0
calling putenv with: QCSCRATCH=/global/cscratch1/sd/meili 
calling putenv with: QCLOCALSCR=/tmp 
calling putenv with: QCTHREADS=32 
Creating input file /tmp/qchem23662/Frg2.input
using default PutDataFrgm: nothing
calling putenv with: QCSCRATCH=/tmp/qchem23662/ 
calling putenv with: QCLOCALSCR=/tmp/qchem23662/ 
Spawning Job For Fragment 1
                  Welcome to Q-Chem
     A Quantum Leap Into The Future Of Chemistry


 Q-Chem 5.2, Q-Chem, Inc., Pleasanton, CA (2019)

 License issued to: National Energy Research Scientific Computing Center

 Yihan Shao,  Zhengting Gan,  E. Epifanovsky,  A. T. B. Gilbert,  M. Wormit,  
 J. Kussmann,  A. W. Lange,  A. Behn,  Jia Deng,  Xintian Feng,  D. Ghosh,  
 M. Goldey,  P. R. Horn,  L. D. Jacobson,  I. Kaliman,  T. Kus,  A. Landau,  
 Jie Liu,  E. I. Proynov,  R. M. Richard,  R. P. Steele,  E. J. Sundstrom,  
 H. L. Woodcock III,  P. M. Zimmerman,  D. Zuev,  B. Albrecht,  E. Alguire,  
 S. A. Baeppler,  D. Barton,  Z. Benda,  Y. A. Bernard,  E. J. Berquist,  
 K. B. Bravaya,  H. Burton,  D. Casanova,  Chun-Min Chang,  Yunqing Chen,  
 A. Chien,  K. D. Closser,  M. P. Coons,  S. Coriani,  S. Dasgupta,  
 A. L. Dempwolff,  M. Diedenhofen,  Hainam Do,  R. G. Edgar,  Po-Tung Fang,  
 S. Faraji,  S. Fatehi,  Qingguo Feng,  K. D. Fenk,  J. Fosso-Tande,  
 J. Gayvert,  Qinghui Ge,  A. Ghysels,  G. Gidofalvi,  J. Gomes,  
 J. Gonthier,  A. Gunina,  D. Hait,  M. W. D. Hanson-Heine,  
 P. H. P. Harbach,  A. W. Hauser,  M. F. Herbst,  J. E. Herr,  
 E. G. Hohenstein,  Z. C. Holden,  Kerwin Hui,  B. C. Huynh,  T.-C. Jagau,  
 Hyunjun Ji,  B. Kaduk,  K. Khistyaev,  Jaehoon Kim,  P. Klunzinger,  K. Koh,  
 D. Kosenkov,  L. Koulias,  T. Kowalczyk,  C. M. Krauter,  A. Kunitsa,  
 Ka Un Lao,  A. Laurent,  K. V. Lawler,  Joonho Lee,  D. Lefrancois,  
 S. Lehtola,  D. S. Levine,  Yi-Pei Li,  You-Sheng Lin,  Fenglai Liu,  
 E. Livshits,  A. Luenser,  P. Manohar,  E. Mansoor,  S. F. Manzer,  
 Shan-Ping Mao,  Yuezhi Mao,  N. Mardirossian,  A. V. Marenich,  
 T. Markovich,  L. A. Martinez-Martinez,  S. A. Maurer,  N. J. Mayhall,  
 S. C. McKenzie,  J.-M. Mewes,  P. Morgante,  A. F. Morrison,  
 J. W. Mullinax,  K. Nanda,  T. S. Nguyen-Beck,  R. Olivares-Amaya,  
 J. A. Parkhill,  Zheng Pei,  T. M. Perrine,  F. Plasser,  P. Pokhilko,  
 S. Prager,  A. Prociuk,  E. Ramos,  D. R. Rehn,  F. Rob,  M. Scheurer,  
 M. Schneider,  N. Sergueev,  S. M. Sharada,  S. Sharma,  D. W. Small,  
 T. Stauch,  T. Stein,  Yu-Chuan Su,  A. J. W. Thom,  A. Tkatchenko,  
 T. Tsuchimochi,  N. M. Tubman,  L. Vogt,  M. L. Vidal,  O. Vydrov,  
 M. A. Watson,  J. Wenzel,  M. de Wergifosse,  T. A. Wesolowski,  A. White,  
 J. Witte,  A. Yamada,  Jun Yang,  K. Yao,  S. Yeganeh,  S. R. Yost,  
 Zhi-Qiang You,  A. Zech,  Igor Ying Zhang,  Xing Zhang,  Yan Zhao,  
 Ying Zhu,  B. R. Brooks,  G. K. L. Chan,  C. J. Cramer,  M. S. Gordon,  
 W. J. Hehre,  A. Klamt,  M. W. Schmidt,  C. D. Sherrill,  D. G. Truhlar,  
 A. Aspuru-Guzik,  R. Baer,  A. T. Bell,  N. A. Besley,  Jeng-Da Chai,  
 A. E. DePrince, III,  R. A. DiStasio Jr.,  A. Dreuw,  B. D. Dunietz,  
 T. R. Furlani,  Chao-Ping Hsu,  Yousung Jung,  Jing Kong,  D. S. Lambrecht,  
 WanZhen Liang,  C. Ochsenfeld,  V. A. Rassolov,  L. V. Slipchenko,  
 J. E. Subotnik,  T. Van Voorhis,  J. M. Herbert,  A. I. Krylov,  
 P. M. W. Gill,  M. Head-Gordon

 Contributors to earlier versions of Q-Chem not listed above: 
 R. D. Adamson,  B. Austin,  J. Baker,  G. J. O. Beran,  K. Brandhorst,  
 S. T. Brown,  E. F. C. Byrd,  A. K. Chakraborty,  C.-L. Cheng,  
 Siu Hung Chien,  D. M. Chipman,  D. L. Crittenden,  H. Dachsel,  
 R. J. Doerksen,  A. D. Dutoi,  L. Fusti-Molnar,  W. A. Goddard III,  
 A. Golubeva-Zadorozhnaya,  S. R. Gwaltney,  G. Hawkins,  A. Heyden,  
 S. Hirata,  G. Kedziora,  F. J. Keil,  C. Kelley,  Jihan Kim,  R. A. King,  
 R. Z. Khaliullin,  P. P. Korambath,  W. Kurlancheek,  A. M. Lee,  M. S. Lee,  
 S. V. Levchenko,  Ching Yeh Lin,  D. Liotard,  R. C. Lochan,  I. Lotan,  
 P. E. Maslen,  N. Nair,  D. P. O'Neill,  D. Neuhauser,  E. Neuscamman,  
 C. M. Oana,  R. Olson,  B. Peters,  R. Peverati,  P. A. Pieniazek,  
 Y. M. Rhee,  J. Ritchie,  M. A. Rohrdanz,  E. Rosta,  N. J. Russ,  
 H. F. Schaefer III,  N. E. Schultz,  N. Shenvi,  A. C. Simmonett,  A. Sodt,  
 D. Stuck,  K. S. Thanthiriwatte,  V. Vanovschi,  Tao Wang,  A. Warshel,  
 C. F. Williams,  Q. Wu,  X. Xu,  W. Zhang

 Please cite Q-Chem as follows:
 Y. Shao et al., Mol. Phys. 113, 184-215 (2015)
 DOI: 10.1080/00268976.2014.952696

 Q-Chem 5.2.0 for Intel X86 EM64T Linux

 Parts of Q-Chem use Armadillo 8.300.2 (Tropical Shenanigans).
 http://arma.sourceforge.net/

 Q-Chem begins on Sun Sep 26 10:04:55 2021  

Host: cori01
0

     Scratch files written to /tmp/qchem23662//Frg2//
 May1019 |scratch|qcdevops|jenkins|workspace|build_RNUM -1
Processing $rem in /global/common/cori/software/qchem/5.2/config/preferences:
	 MEM_TOTAL  96000 
NAlpha2: 32
NElect   32
Mult     1
Symmetry turned off for PCM/SM12/SMD calculation

Checking the input file for inconsistencies... 	...done.

--------------------------------------------------------------
User input:
--------------------------------------------------------------
$molecule
-1 1
 6	2.0203249051	0.7626526089	2.8607646334
 6	1.0343249051	0.1976526089	1.8897646334
 8	0.1553249051	0.9866526089	1.4057646334
 8	1.1003249051	-1.0103473911	1.6387646334
 1	1.5433249051	0.7056526089	3.8417646334
 1	2.1613249051	1.8296526089	2.6907646334
 1	2.9709749051	0.2186196089	2.9622426334
$end
$rem
EDA2		1
METHOD		WB97X-V
BASIS		DEF2-TZVPD
XC_GRID		000099000590
NL_GRID		1
UNRESTRICTED		FALSE
MAX_SCF_CYCLES		200
SYMMETRY		FALSE
SYM_IGNORE		TRUE
BASIS_LIN_DEP_THRESH		6
THRESH		14
SCF_CONVERGENCE		8
SCF_PRINT_FRGM		TRUE
SOLVENT_METHOD		PCM
!required keywords
JOBTYPE		SP
SYM_IGNORE		TRUE
SUBSYSTEM		TRUE
GEN_SCFMAN		TRUE
CHILD_INSTRUCTION		2
SYM_IGNORE		TRUE
SCFMI		0
RI_K 0		
PARI_K 0		
MIN_PARI_K 0		
IARI_K 0		
OCC_RI_K 0		
PURECART		1111
MEM_STATIC		2000
MEM_TOTAL		96000
GUI		0
CHILD_MP		1
CHILD_MP_ORDERS		232
FRZ_RELAX		0
FRZ_RELAX_METHOD		0
EDA_CLS_ELEC		1
EDA_CLS_DISP		0
FRZ_ORTHO_DECOMP		1
EDA2		FALSE
FRGM_METHOD		FALSE
CIS_N_ROOTS  0
LOCAL_CIS    0
CIS_RLX_DNS  1
$end
$pcm
THEORY                  CPCM
METHOD                  SWIG
SOLVER                  INVERSION
RADII                   UFF
HPOINTS                 302
HEAVYPOINTS             302
PRINTLEVEL              0
$end
$solvent
DIELECTRIC              78.390000 ! water
$end
--------------------------------------------------------------
 ----------------------------------------------------------------
             Standard Nuclear Orientation (Angstroms)
    I     Atom           X                Y                Z
 ----------------------------------------------------------------
    1      C       2.0203249051     0.7626526089     2.8607646334
    2      C       1.0343249051     0.1976526089     1.8897646334
    3      O       0.1553249051     0.9866526089     1.4057646334
    4      O       1.1003249051    -1.0103473911     1.6387646334
    5      H       1.5433249051     0.7056526089     3.8417646334
    6      H       2.1613249051     1.8296526089     2.6907646334
    7      H       2.9709749051     0.2186196089     2.9622426334
 ----------------------------------------------------------------
 Nuclear Repulsion Energy =         112.93852076 hartrees
 There are       16 alpha and       16 beta electrons
 Requested basis set is def2-TZVPD
 There are 69 shells and 181 basis functions

 Total QAlloc Memory Limit  96000 MB
 Mega-Array Size      1956 MB
 MEM_STATIC part      2000 MB
 Discretize the solute cavity surface with Lebedev spheres
	Using 302 Lebedev grid points for each H atom
	Using 302 Lebedev grid points for other atoms
	Atomic van der Waals radii will be scaled by 1.20
 Remove points where switching function is < 1.0e-08
 Keep 1004 surface tesserae and discard 1110 interior tesserae
 Molecular Surface Area = 119.760 Angst**2

                       Distance Matrix (Angstroms)
             C (  1)   C (  2)   O (  3)   O (  4)   H (  5)   H (  6)
   C (  2)  1.494745
   O (  3)  2.376011  1.276487
   O (  4)  2.341626  1.235565  2.221559
   H (  5)  1.092309  2.080252  2.817730  2.827386
   H (  6)  1.089619  2.138961  2.527036  3.209054  1.723398
   H (  7)  1.100002  2.213879  3.307625  2.600247  1.746123  1.823365

 
 A cutoff of  1.0D-14 yielded   2392 shell pairs
 There are     16696 function pairs (     21492 Cartesian)
 Smallest overlap matrix eigenvalue = 1.61E-05

 Scale SEOQF with 1.000000e-01/1.000000e-01/1.000000e-01

 Standard Electronic Orientation quadrupole field applied
 Nucleus-field energy     =    -0.0000000111 hartrees
 Guess from superposition of atomic densities
 Warning:  Energy on first SCF cycle will be non-variational
 SAD guess density has 30.625312 electrons

 -----------------------------------------------------------------------
  General SCF calculation program by
  Eric Jon Sundstrom, Paul Horn, Yuezhi Mao, Dmitri Zuev, Alec White,
  David Stuck, Shaama M.S., Shane Yost, Joonho Lee, David Small,
  Daniel Levine, Susi Lehtola, Hugh Burton, Evgeny Epifanovsky
 -----------------------------------------------------------------------
 Exchange:     0.1670 Hartree-Fock + 1.0000 wB97X-V + LR-HF
 Correlation:  1.0000 wB97X-V
 Using Euler-Maclaurin-Lebedev (99,590) quadrature formula
 Nonlocal Correlation:  VV10 with C = 0.0100 and b = 6.00 and scale = 1.00000
 Grid used for NLC:  SG-1 standard quadrature
Energy prior to optimization (guess energy) = -227.758615355268
Begin Timing: Total SCF Calculation
begin iterations for algorithm: DIIS         
the SCF tolerance is set to 1.00e-08
    1    -227.7586153553      1.66e-02     00000 
    2    -225.5676418465      2.54e-02     00000 
    3    -228.5714536682      4.31e-03     00000 
    4    -228.6303918494      1.89e-03     00000 
    5    -228.6397617423      6.52e-04     00000 
    6    -228.6409472258      2.02e-04     00000 
    7    -228.6410911037      4.23e-05     00000 
    8    -228.6411005154      1.38e-05     00000 
    9    -228.6411017772      3.07e-06     00000 
   10    -228.6411018822      1.06e-06     00000 
   11    -228.6411018905      2.36e-07     00000 
   12    -228.6411018914      6.03e-08     00000 
   13    -228.6411018914      1.68e-08     00000 
   14    -228.6411018914      3.16e-09     00000 Convergence criterion met
Timing for Total SCF: 301.00s (wall), 588.42s (cpu)

************** Final PCM Free Energy Summary **************
 G_electrostatic  =      -0.10174961 hartree =     -63.84884151 kcal/mol
 G_cavitation     =       0.00000000 hartree =       0.00000000 kcal/mol
 G_dispersion     =       0.00000000 hartree =       0.00000000 kcal/mol
 G_repulsion      =       0.00000000 hartree =       0.00000000 kcal/mol
 --------------------------------------------------
 Non-electrostatic Free Energy =       0.00000000 hartree =       0.00000000 kcal/mol
 Total                         =      -0.10174961 hartree =     -63.84884151 kcal/mol
 --------------------------------------------------
 SCF Energy (H0 + V/2)                       =    -228.64110189 
 Solute Internal Energy (H0)                 =    -228.53935229 
 Total Free Energy (H0 + V/2 + non-elec)     =    -228.64110189 hartree
                                             = -143474.45689674 kcal/mol
***********************************************************

E_pcm = -0.1017496061
Multipole orders to be included
        2
        3
computing dipole RHS
computing quadrupole RHS
total number of RHS in solve_reponses: 8
RHS batch sizes
        8
Beginning Block Conjugate Gradient Iterations. Batch Number: 0
computing hessian-vector products by finite difference
              1      7.07e-01     00000 Conjugate Gradient Iteration
computing hessian-vector products by finite difference
              2      2.53e-01     00000 Conjugate Gradient Iteration
computing hessian-vector products by finite difference
              3      6.71e-02     00000 Conjugate Gradient Iteration
computing hessian-vector products by finite difference
              4      1.79e-02     00000 Conjugate Gradient Iteration
computing hessian-vector products by finite difference
              5      3.20e-03     00000 Conjugate Gradient Iteration
computing hessian-vector products by finite difference
              6      7.74e-04     00000 Conjugate Gradient Iteration
computing hessian-vector products by finite difference
              7      1.27e-04     00000 Conjugate Gradient Iteration
computing hessian-vector products by finite difference
              8      1.57e-05     00000 Conjugate Gradient Iteration
computing hessian-vector products by finite difference
              9      2.49e-06     00000 Conjugate Gradient Iteration
computing hessian-vector products by finite difference
             10      2.88e-07     00000 Conjugate Gradient Iteration
computing hessian-vector products by finite difference
             11      4.46e-08     00000 Conjugate Gradient Iteration
computing hessian-vector products by finite difference
             12      7.19e-09     00000 CG Converged
batch 0 complete
Done Calculating Responses
TESTING ORTHOGONALIZATION OF MULTIPOLE BASIS
Multipole virts passed orthogonality test
Virts Per Order
        48
        80
 
 --------------------------------------------------------------
 
                    Orbital Energies (a.u.)
 --------------------------------------------------------------
 
 Alpha MOs
 -- Occupied --
-19.1252 -19.1200 -10.3250 -10.2373  -1.1316  -1.0306  -0.8325  -0.5958
 -0.5269  -0.5217  -0.5173  -0.4645  -0.4356  -0.3295  -0.3258  -0.3104
 -- Virtual --
  0.0632   0.0952   0.0956   0.1051   0.1308   0.1388   0.1415   0.1459
  0.1695   0.1927   0.2008   0.2170   0.2359   0.2367   0.2628   0.2689
  0.3010   0.3087   0.3349   0.3486   0.3567   0.3651   0.3741   0.3752
  0.3870   0.4094   0.4249   0.4288   0.4365   0.4635   0.4725   0.4794
  0.4908   0.4953   0.5042   0.5281   0.5554   0.5783   0.5949   0.6131
  0.6347   0.6443   0.6476   0.6636   0.6700   0.6889   0.6939   0.7163
  0.7213   0.7416   0.7844   0.7959   0.8095   0.8368   0.8442   0.8638
  0.8710   0.9807   0.9852   1.0048   1.0075   1.0375   1.0816   1.0987
  1.1384   1.2447   1.2533   1.2746   1.2943   1.3274   1.3647   1.3881
  1.4414   1.5582   1.6036   1.7593   1.8276   1.8768   1.8871   1.9208
  1.9242   1.9576   1.9648   1.9815   2.0345   2.1143   2.1302   2.1849
  2.2083   2.2413   2.3065   2.3541   2.4194   2.4580   2.4888   2.5121
  2.5593   2.5940   2.6423   2.7138   2.7588   2.8159   2.8617   2.8987
  2.9556   3.0441   3.1076   3.1599   3.2019   3.2356   3.2953   3.3015
  3.3417   3.3488   3.3859   3.4201   3.4494   3.5257   3.5914   3.5961
  3.6157   3.6786   3.7210   3.7361   3.7699   3.8427   3.9663   4.0793
  4.1198   4.2541   4.3736   4.5826   4.6307   4.6972   4.8048   4.8517
  4.9663   5.3315   5.3629   5.3689   5.3820   5.5134   5.7188   5.7495
  5.8151   6.0207   6.2489   6.3324   6.3529   6.6325   6.6331   6.7046
  6.7513   6.7595   6.9545   6.9747   7.0486   7.2386   7.3716   7.3847
  7.4214  22.6203  23.7263  44.2318  44.3702
 --------------------------------------------------------------
 
          Ground-State Mulliken Net Atomic Charges

     Atom                 Charge (a.u.)
  ----------------------------------------
      1 C                    -0.407704
      2 C                     0.281393
      3 O                    -0.699325
      4 O                    -0.649717
      5 H                     0.118963
      6 H                     0.171303
      7 H                     0.185087
  ----------------------------------------
  Sum of atomic charges =    -1.000000

 -----------------------------------------------------------------
                    Cartesian Multipole Moments
 -----------------------------------------------------------------
    Charge (ESU x 10^10)
                -4.8032
    Dipole Moment (Debye)
         X      -1.7989      Y       0.4215      Z      -6.1350
       Tot       6.4072
    Quadrupole Moments (Debye-Ang)
        XX     -28.1189     XY       4.0900     YY     -34.3505
        XZ      -2.5277     YZ       1.5247     ZZ     -33.2243
    Octopole Moments (Debye-Ang^2)
       XXX     -90.4206    XXY      -2.6411    XYY     -34.5522
       YYY     -21.3237    XXZ     -55.7509    XYZ       6.6877
       YYZ     -65.4864    XZZ     -32.9674    YZZ      -3.6208
       ZZZ    -162.9396
    Hexadecapole Moments (Debye-Ang^3)
      XXXX    -317.4940   XXXY     -19.7732   XXYY     -83.9637
      XYYY     -15.9977   YYYY    -158.7638   XXXZ    -213.9811
      XXYZ     -12.9186   XYYZ     -79.1878   YYYZ     -53.9652
      XXZZ    -181.2643   XYZZ       2.5574   YYZZ    -169.1406
      XZZZ    -217.0411   YZZZ     -48.7758   ZZZZ    -722.7922
 -----------------------------------------------------------------
Archival summary:
1\1\nid00506\SP\ProcedureUnspecified\BasisUnspecified\223(1-,1)\meili\SunSep2611:28:132021SunSep2611:28:132021\0\\#,ProcedureUnspecified,BasisUnspecified,\\-1,1\C\O,1,1.23557\O,1,1.27649,2,124.338\C,1,1.49474,2,117.794,3,177.803,0\H,4,1.08962,1,110.742,2,155.641,0\H,4,1.09231,1,105.999,2,-91.7677,0\H,4,1.1,1,116.3,2,25.2045,0\\\@

 Total job time:  4999.05s(wall), 9786.47s(cpu) 
 Sun Sep 26 11:28:14 2021

        *************************************************************
        *                                                           *
        *  Thank you very much for using Q-Chem.  Have a nice day.  *
        *                                                           *
        *************************************************************


Done Job For Fragment 1
calling putenv with: QCSCRATCH=/global/cscratch1/sd/meili 
calling putenv with: QCLOCALSCR=/tmp 
calling putenv with: QCTHREADS=32 
Doing General SCFMI
 Exchange:     0.1670 Hartree-Fock + 1.0000 wB97X-V + LR-HF
 Correlation:  1.0000 wB97X-V
 Using Euler-Maclaurin-Lebedev (99,590) quadrature formula
 Nonlocal Correlation:  VV10 with C = 0.0100 and b = 6.00 and scale = 1.00000
 Grid used for NLC:  SG-1 standard quadrature
performing fock build before subrot guess so that all methods have access
Printing subrot_rss_gen Method Specification:
Occupied Subspace Method is 0
Virtual Subspace Method is 0
Energy of the unrelaxed supersystem initial determinant -437.804608677460
performing fock build before subrot guess so that all methods have access
Printing subrot_rss_gen Method Specification:
Occupied Subspace Method is 0
Virtual Subspace Method is 0
Energy of the unrelaxed supersystem initial determinant w/ solvent -437.890969496478
write pseudocanon occs and virts to disk
write pseudocanon orbital energies to disk
Tolerance of ortho_decomp_scf: 1.00e-06
GDM subspace size: 20
Beginning the Orthogonal Decomposition of the Initial Supersystem Wavefunction
    1    -437.7146595022      8.68e-02     ortho_decomp Preconditoned Steepest Descent
    2    -437.7259001673      2.63e-03     ortho_decomp BFGS Step
    3    -437.7259524751      2.05e-04     ortho_decomp BFGS Step
    4    -437.7259525511      8.81e-06     ortho_decomp BFGS Step
    5    -437.7259525514      3.40e-07     ortho_decomp 00000 Convergence criterion met
 Hartree-Fock
 Hartree-Fock
 Hartree-Fock
Doing General SCFMI
 Exchange:     0.1670 Hartree-Fock + 1.0000 wB97X-V + LR-HF
 Correlation:  1.0000 wB97X-V
 Using Euler-Maclaurin-Lebedev (99,590) quadrature formula
 Nonlocal Correlation:  VV10 with C = 0.0100 and b = 6.00 and scale = 1.00000
 Grid used for NLC:  SG-1 standard quadrature
performing fock build at end of subrot_r(subrot) constructor so that all methods have access
<S^2> of initial wavefunction before polarization iterations 0.0000000000
Beginning iterations for the determination of the polarized wavefunction
Energy prior to optimization (guess energy) = -437.890969496478
Begin Timing: Total SCF Calculation
begin iterations for algorithm: DIIS         
the SCF tolerance is set to 1.00e-08
    1    -437.8909694965      2.59e-04     00000 
    2    -437.8937996062      1.10e-04     00000 
    3    -437.8940804081      7.89e-05     00000 
    4    -437.8942047821      2.43e-05     00000 
    5    -437.8942234334      8.90e-06     00000 
    6    -437.8942270050      4.17e-06     00000 
    7    -437.8942276985      1.72e-06     00000 
    8    -437.8942278008      6.28e-07     00000 
    9    -437.8942278153      2.06e-07     00000 
   10    -437.8942278164      8.02e-08     00000 
   11    -437.8942278166      2.42e-08     00000 
   12    -437.8942278166      8.91e-09     00000 Convergence criterion met
write pseudocanon occs and virts to disk
write pseudocanon orbital energies to disk
Timing for Total SCF: 1733.00s (wall), 3442.65s (cpu)
<S^2> of polarized wavefunction after polarization iterations 0.0000000000
relaxing scfmi constraint to allow all rotations in the entire AO span
Doing General SCFMI
 Exchange:     0.1670 Hartree-Fock + 1.0000 wB97X-V + LR-HF
 Correlation:  1.0000 wB97X-V
 Using Euler-Maclaurin-Lebedev (99,590) quadrature formula
 Nonlocal Correlation:  VV10 with C = 0.0100 and b = 6.00 and scale = 1.00000
 Grid used for NLC:  SG-1 standard quadrature
performing fock build at end of subrot_r(subrot) constructor so that all methods have access
<S^2> of polarized wavefunction before ct-allowed iterations 0.0000000000
Beginning iterations for the determination of the CT-Allowed wavefunction
Energy prior to optimization (guess energy) = -437.894227816591
Begin Timing: Total SCF Calculation
begin iterations for algorithm: DIIS         
the SCF tolerance is set to 1.00e-08
    1    -437.8942278166      2.12e-04     00000 
    2    -437.8982718688      3.52e-05     00000 
    3    -437.8984483772      1.87e-05     00000 
    4    -437.8984655344      8.63e-06     00000 
    5    -437.8984706304      2.31e-06     00000 
    6    -437.8984710014      7.38e-07     00000 
    7    -437.8984710699      3.44e-07     00000 
    8    -437.8984710808      7.61e-08     00000 
    9    -437.8984710818      3.80e-08     00000 
   10    -437.8984710820      1.45e-08     00000 
   11    -437.8984710820      5.47e-09     00000 Convergence criterion met
write pseudocanon occs and virts to disk
write pseudocanon orbital energies to disk
Timing for Total SCF: 1593.00s (wall), 3159.54s (cpu)
<S^2> of ct_allowed wavefunction after ct-allowed iterations 0.0000000000

================================
        Results of EDA2         
================================
Basic EDA Quantities
--------------------
Fragment Energies (Ha):
1 -209.2447162414
2 -228.6411018914
--------------------
  E_prp (kJ/mol) = 0.0000
  E_sol (kJ/mol) = 73.8347
  E_frz (kJ/mol) = -87.3597
  E_pol (kJ/mol) = -8.5548
  E_vct (kJ/mol) = -11.1408
  E_int (kJ/mol) = -33.2207
--------------------


Initial Wavefunction Decomposition
--------------------
  --------------------
  Orthogonal Fragment Subspace Decomposition:
  --------------------
     E_elec   (ELEC)   (kJ/mol) = -166.4389
     E_pauli  (PAULI)  (kJ/mol) = 96.5728
     E_disp   (DISP)   (kJ/mol) = -17.4935
     --------------------
     Terms summing to E_pauli:
     --------------------
        E_kep_pauli       (kJ/mol) = 119.1544
        E_disp_free_pauli (kJ/mol) = -22.5816
  --------------------
  Classical Frozen Decomposition:
  --------------------
     E_cls_elec  (CLS ELEC)  (kJ/mol) = -123.7317
     E_cls_pauli (CLS PAULI) (kJ/mol) = 36.3720
    [E_mod_pauli (MOD PAULI) (kJ/mol) = 53.8655 (CLS PAULI - DISP from orthogonal decomposition) ]
  --------------------
--------------------

Simplified EDA Summary (kJ/mol)
--------------------
 PREPARATION     0.0000
 SOLVATION       73.8347
 FROZEN          -69.8662      (does not include dispersion)
[PAULI           96.5728]     (if this is negligible, then frozen describes electrostatics)
 DISPERSION      -17.4935
 POLARIZATION    -8.5548
 CHARGE TRANSFER -11.1408
 TOTAL           -33.2207     (PRP + SOL + FRZ + DISP + POL + CT)
--------------------
 
 --------------------------------------------------------------
 
                    Orbital Energies (a.u.)
 --------------------------------------------------------------
 
 Alpha MOs
 -- Occupied --
-19.1641 -19.1283 -19.1280 -14.4104 -10.3598 -10.3306 -10.2532 -10.2394
 -1.1530  -1.1372  -1.0387  -1.0276  -0.8599  -0.8354  -0.6962  -0.6419
 -0.5988  -0.5778  -0.5582  -0.5304  -0.5257  -0.5231  -0.5008  -0.4898
 -0.4686  -0.4667  -0.4393  -0.3665  -0.3553  -0.3361  -0.3310  -0.3163
 -- Virtual --
  0.0581   0.0743   0.0867   0.0900   0.0990   0.1099   0.1120   0.1237
  0.1264   0.1348   0.1374   0.1442   0.1520   0.1593   0.1641   0.1779
  0.1909   0.1986   0.2046   0.2068   0.2150   0.2290   0.2352   0.2407
  0.2491   0.2510   0.2661   0.2673   0.2727   0.2822   0.2971   0.3028
  0.3084   0.3200   0.3203   0.3304   0.3338   0.3394   0.3455   0.3520
  0.3600   0.3608   0.3645   0.3738   0.3753   0.3819   0.3855   0.3862
  0.3943   0.3991   0.4039   0.4124   0.4172   0.4263   0.4337   0.4398
  0.4469   0.4503   0.4577   0.4704   0.4739   0.4806   0.4881   0.4941
  0.4974   0.5071   0.5113   0.5189   0.5284   0.5373   0.5383   0.5425
  0.5556   0.5653   0.5692   0.5747   0.5809   0.5920   0.5979   0.6132
  0.6169   0.6280   0.6415   0.6486   0.6524   0.6597   0.6643   0.6667
  0.6752   0.6888   0.6984   0.7032   0.7196   0.7236   0.7259   0.7343
  0.7363   0.7535   0.7544   0.7722   0.7839   0.7924   0.7976   0.8026
  0.8066   0.8124   0.8170   0.8303   0.8342   0.8400   0.8553   0.8597
  0.8616   0.8844   0.8925   0.8998   0.9153   0.9235   0.9519   0.9540
  0.9923   0.9953   1.0075   1.0169   1.0322   1.0429   1.0472   1.0629
  1.0800   1.0902   1.1057   1.1188   1.1269   1.1496   1.1574   1.1654
  1.1744   1.1877   1.2626   1.2707   1.2887   1.3066   1.3158   1.3198
  1.3346   1.3518   1.3662   1.3821   1.3918   1.4016   1.4201   1.4572
  1.4861   1.5205   1.5487   1.5590   1.6116   1.6474   1.6696   1.7606
  1.7681   1.7863   1.8252   1.8446   1.8758   1.8824   1.9042   1.9158
  1.9347   1.9373   1.9385   1.9588   1.9663   1.9776   1.9841   2.0082
  2.0193   2.0227   2.0420   2.0701   2.0805   2.1132   2.1304   2.1612
  2.1896   2.2050   2.2144   2.2221   2.2547   2.2759   2.2902   2.3060
  2.3314   2.3577   2.3638   2.4324   2.4548   2.4571   2.4708   2.4868
  2.4996   2.5452   2.5554   2.5716   2.5914   2.5938   2.6257   2.6340
  2.6574   2.6798   2.6927   2.7257   2.7331   2.7666   2.7823   2.8158
  2.8510   2.8553   2.8759   2.8897   2.9394   2.9643   2.9775   3.0199
  3.0320   3.0742   3.1062   3.1373   3.1659   3.1700   3.1924   3.2046
  3.2177   3.2354   3.2560   3.2665   3.3073   3.3217   3.3270   3.3333
  3.3479   3.3675   3.3813   3.3864   3.4054   3.4308   3.4512   3.4609
  3.4727   3.4969   3.5410   3.5787   3.5984   3.6127   3.6222   3.6423
  3.6544   3.6709   3.6881   3.7035   3.7310   3.7448   3.7589   3.7863
  3.8232   3.8618   3.9327   3.9705   3.9781   4.0587   4.0893   4.0950
  4.1095   4.1366   4.2220   4.2616   4.3516   4.3911   4.4243   4.5794
  4.5914   4.6322   4.6395   4.6658   4.7004   4.7130   4.8238   4.8357
  4.8807   4.9209   4.9543   4.9820   4.9950   5.2049   5.2129   5.2875
  5.3337   5.3583   5.3751   5.3814   5.3889   5.4188   5.4407   5.4794
  5.5076   5.5542   5.5677   5.7171   5.7540   5.7905   5.8134   5.9426
  6.0301   6.1784   6.2590   6.2704   6.3387   6.3717   6.5292   6.6468
  6.6607   6.6927   6.7258   6.7603   6.7822   6.8120   6.8442   6.9783
  7.0032   7.0160   7.0643   7.2446   7.2563   7.3410   7.3893   7.4084
  7.4530  22.6340  22.6738  23.6369  23.7558  32.5441  44.2869  44.3912
 44.4207
 --------------------------------------------------------------
 
          Ground-State Mulliken Net Atomic Charges

     Atom                 Charge (a.u.)
  ----------------------------------------
      1 C                    -0.459183
      2 C                     0.317049
      3 O                    -0.622207
      4 N                    -0.112958
      5 H                     0.197338
      6 H                     0.183216
      7 H                     0.182344
      8 H                     0.206024
      9 H                     0.158430
     10 C                    -0.658827
     11 C                     0.471981
     12 O                    -0.785930
     13 O                    -0.632600
     14 H                     0.159315
     15 H                     0.194076
     16 H                     0.201932
  ----------------------------------------
  Sum of atomic charges =    -1.000000

 -----------------------------------------------------------------
                    Cartesian Multipole Moments
 -----------------------------------------------------------------
    Charge (ESU x 10^10)
                -4.8032
    Dipole Moment (Debye)
         X       0.5636      Y       1.6458      Z      -0.1513
       Tot       1.7462
    Quadrupole Moments (Debye-Ang)
        XX     -57.9067     XY       2.5150     YY     -54.9537
        XZ     -12.9325     YZ      -1.5712     ZZ     -80.8808
    Octopole Moments (Debye-Ang^2)
       XXX      -0.1502    XXY       5.2163    XYY     -11.3110
       YYY       7.9028    XXZ      11.8439    XYZ      11.9023
       YYZ     -23.1442    XZZ      34.5199    YZZ      14.3210
       ZZZ      68.6235
    Hexadecapole Moments (Debye-Ang^3)
      XXXX    -548.2072   XXXY     -44.2215   XXYY    -145.0139
      XYYY     -46.2596   YYYY    -323.5532   XXXZ    -414.7511
      XXYZ     -29.1341   XYYZ    -129.1865   YYYZ    -102.2414
      XXZZ    -394.3992   XYZZ     -20.8623   YYZZ    -301.6636
      XZZZ    -526.0210   YZZZ    -115.3233   ZZZZ   -1687.3713
 -----------------------------------------------------------------
Archival summary:
1\1\nid00506\SP\ProcedureUnspecified\BasisUnspecified\3148(1-,1)\meili\SunSep2613:00:382021SunSep2613:00:382021\0\\#,ProcedureUnspecified,BasisUnspecified,\\-1,1\O\C,1,1.27649\O,2,1.23557,1,124.338\C,2,1.49474,1,117.834,3,-177.802,0\H,4,1.08962,2,110.742,1,-26.4105,0\H,4,1.09231,2,105.999,1,86.1809,0\H,4,1.1,2,116.3,1,-156.847,0\H,1,1.94062,2,122.31,3,-40.3577,0\N,8,1.0213,1,174.295,2,-172.048,0\H,9,1.00706,8,121.064,1,31.5989,0\C,9,1.318,8,119.902,1,-143.834,0\O,11,1.24048,9,123.398,8,179.348,0\C,11,1.48888,9,116.454,8,-2.32734,0\H,13,1.08292,11,110.714,9,35.9511,0\H,13,1.08682,11,107.537,9,152.595,0\H,13,1.1,11,110.757,9,-84.0131,0\\\@

 Total job time:  16793.87s(wall), 11023.49s(cpu) 
 Sun Sep 26 13:00:40 2021

        *************************************************************
        *                                                           *
        *  Thank you very much for using Q-Chem.  Have a nice day.  *
        *                                                           *
        *************************************************************


