
Running Job 1 of 1 SSI-089ASP-092PHE-1_PCM_TZVPD.in
qchem SSI-089ASP-092PHE-1_PCM_TZVPD.in_61452.0 /tmp/qchem61452/ 0
/global/common/cori/software/qchem/5.2/exe/qcprog.exe_s SSI-089ASP-092PHE-1_PCM_TZVPD.in_61452.0 /tmp/qchem61452/
                  Welcome to Q-Chem
     A Quantum Leap Into The Future Of Chemistry


 Q-Chem 5.2, Q-Chem, Inc., Pleasanton, CA (2019)

 License issued to: National Energy Research Scientific Computing Center

 Yihan Shao,  Zhengting Gan,  E. Epifanovsky,  A. T. B. Gilbert,  M. Wormit,  
 J. Kussmann,  A. W. Lange,  A. Behn,  Jia Deng,  Xintian Feng,  D. Ghosh,  
 M. Goldey,  P. R. Horn,  L. D. Jacobson,  I. Kaliman,  T. Kus,  A. Landau,  
 Jie Liu,  E. I. Proynov,  R. M. Richard,  R. P. Steele,  E. J. Sundstrom,  
 H. L. Woodcock III,  P. M. Zimmerman,  D. Zuev,  B. Albrecht,  E. Alguire,  
 S. A. Baeppler,  D. Barton,  Z. Benda,  Y. A. Bernard,  E. J. Berquist,  
 K. B. Bravaya,  H. Burton,  D. Casanova,  Chun-Min Chang,  Yunqing Chen,  
 A. Chien,  K. D. Closser,  M. P. Coons,  S. Coriani,  S. Dasgupta,  
 A. L. Dempwolff,  M. Diedenhofen,  Hainam Do,  R. G. Edgar,  Po-Tung Fang,  
 S. Faraji,  S. Fatehi,  Qingguo Feng,  K. D. Fenk,  J. Fosso-Tande,  
 J. Gayvert,  Qinghui Ge,  A. Ghysels,  G. Gidofalvi,  J. Gomes,  
 J. Gonthier,  A. Gunina,  D. Hait,  M. W. D. Hanson-Heine,  
 P. H. P. Harbach,  A. W. Hauser,  M. F. Herbst,  J. E. Herr,  
 E. G. Hohenstein,  Z. C. Holden,  Kerwin Hui,  B. C. Huynh,  T.-C. Jagau,  
 Hyunjun Ji,  B. Kaduk,  K. Khistyaev,  Jaehoon Kim,  P. Klunzinger,  K. Koh,  
 D. Kosenkov,  L. Koulias,  T. Kowalczyk,  C. M. Krauter,  A. Kunitsa,  
 Ka Un Lao,  A. Laurent,  K. V. Lawler,  Joonho Lee,  D. Lefrancois,  
 S. Lehtola,  D. S. Levine,  Yi-Pei Li,  You-Sheng Lin,  Fenglai Liu,  
 E. Livshits,  A. Luenser,  P. Manohar,  E. Mansoor,  S. F. Manzer,  
 Shan-Ping Mao,  Yuezhi Mao,  N. Mardirossian,  A. V. Marenich,  
 T. Markovich,  L. A. Martinez-Martinez,  S. A. Maurer,  N. J. Mayhall,  
 S. C. McKenzie,  J.-M. Mewes,  P. Morgante,  A. F. Morrison,  
 J. W. Mullinax,  K. Nanda,  T. S. Nguyen-Beck,  R. Olivares-Amaya,  
 J. A. Parkhill,  Zheng Pei,  T. M. Perrine,  F. Plasser,  P. Pokhilko,  
 S. Prager,  A. Prociuk,  E. Ramos,  D. R. Rehn,  F. Rob,  M. Scheurer,  
 M. Schneider,  N. Sergueev,  S. M. Sharada,  S. Sharma,  D. W. Small,  
 T. Stauch,  T. Stein,  Yu-Chuan Su,  A. J. W. Thom,  A. Tkatchenko,  
 T. Tsuchimochi,  N. M. Tubman,  L. Vogt,  M. L. Vidal,  O. Vydrov,  
 M. A. Watson,  J. Wenzel,  M. de Wergifosse,  T. A. Wesolowski,  A. White,  
 J. Witte,  A. Yamada,  Jun Yang,  K. Yao,  S. Yeganeh,  S. R. Yost,  
 Zhi-Qiang You,  A. Zech,  Igor Ying Zhang,  Xing Zhang,  Yan Zhao,  
 Ying Zhu,  B. R. Brooks,  G. K. L. Chan,  C. J. Cramer,  M. S. Gordon,  
 W. J. Hehre,  A. Klamt,  M. W. Schmidt,  C. D. Sherrill,  D. G. Truhlar,  
 A. Aspuru-Guzik,  R. Baer,  A. T. Bell,  N. A. Besley,  Jeng-Da Chai,  
 A. E. DePrince, III,  R. A. DiStasio Jr.,  A. Dreuw,  B. D. Dunietz,  
 T. R. Furlani,  Chao-Ping Hsu,  Yousung Jung,  Jing Kong,  D. S. Lambrecht,  
 WanZhen Liang,  C. Ochsenfeld,  V. A. Rassolov,  L. V. Slipchenko,  
 J. E. Subotnik,  T. Van Voorhis,  J. M. Herbert,  A. I. Krylov,  
 P. M. W. Gill,  M. Head-Gordon

 Contributors to earlier versions of Q-Chem not listed above: 
 R. D. Adamson,  B. Austin,  J. Baker,  G. J. O. Beran,  K. Brandhorst,  
 S. T. Brown,  E. F. C. Byrd,  A. K. Chakraborty,  C.-L. Cheng,  
 Siu Hung Chien,  D. M. Chipman,  D. L. Crittenden,  H. Dachsel,  
 R. J. Doerksen,  A. D. Dutoi,  L. Fusti-Molnar,  W. A. Goddard III,  
 A. Golubeva-Zadorozhnaya,  S. R. Gwaltney,  G. Hawkins,  A. Heyden,  
 S. Hirata,  G. Kedziora,  F. J. Keil,  C. Kelley,  Jihan Kim,  R. A. King,  
 R. Z. Khaliullin,  P. P. Korambath,  W. Kurlancheek,  A. M. Lee,  M. S. Lee,  
 S. V. Levchenko,  Ching Yeh Lin,  D. Liotard,  R. C. Lochan,  I. Lotan,  
 P. E. Maslen,  N. Nair,  D. P. O'Neill,  D. Neuhauser,  E. Neuscamman,  
 C. M. Oana,  R. Olson,  B. Peters,  R. Peverati,  P. A. Pieniazek,  
 Y. M. Rhee,  J. Ritchie,  M. A. Rohrdanz,  E. Rosta,  N. J. Russ,  
 H. F. Schaefer III,  N. E. Schultz,  N. Shenvi,  A. C. Simmonett,  A. Sodt,  
 D. Stuck,  K. S. Thanthiriwatte,  V. Vanovschi,  Tao Wang,  A. Warshel,  
 C. F. Williams,  Q. Wu,  X. Xu,  W. Zhang

 Please cite Q-Chem as follows:
 Y. Shao et al., Mol. Phys. 113, 184-215 (2015)
 DOI: 10.1080/00268976.2014.952696

 Q-Chem 5.2.0 for Intel X86 EM64T Linux

 Parts of Q-Chem use Armadillo 8.300.2 (Tropical Shenanigans).
 http://arma.sourceforge.net/

 Q-Chem begins on Sun Sep 26 12:25:18 2021  

Host: cori01
0

     Scratch files written to /tmp/qchem61452//
 May1019 |scratch|qcdevops|jenkins|workspace|build_RNUM -1
Processing $rem in /global/common/cori/software/qchem/5.2/config/preferences:
	 MEM_TOTAL  96000 
NAlpha2: 90
NElect   90
Mult     1
Symmetry turned off for PCM/SM12/SMD calculation

 Q-Chem warning in module libgen/rem_setup.C, line 2803:

 Neither GIA nor STOLL is specified by user. Use STOLL as the default


Checking the input file for inconsistencies... 	...done.

--------------------------------------------------------------
User input:
--------------------------------------------------------------
$comment
SSI-089ASP-092PHE-1.pdb
$end

$molecule
-1 1
--
-1 1
C    1.294716614235    2.260096437509   -0.157518047643
C    1.592716614235    3.383096437509   -1.152518047643
C    2.527716614235    1.421096437509    0.166481952357
O    3.242716614235    1.019096437509   -0.783518047643
O    2.765716614235    1.160096437509    1.372481952357
H    0.889716614235    2.690096437509    0.760481952357
H    0.530716614235    1.612096437509   -0.587518047643
H    1.970716614235    2.936096437509   -2.072518047643
H    2.354148614235    4.065286437509   -0.746518047643
H    0.671505614235    3.940296437509   -1.378135047643
--
0 1
C   -4.071283385765   -2.093903562491   -0.620518047643
C   -0.111283385765   -0.987903562491    0.628481952357
C   -0.286283385765   -1.835903562491   -0.463518047643
C   -1.220283385765   -0.492903562491    1.311481952357
C   -1.572283385765   -2.196903562491   -0.864518047643
C   -2.506283385765   -0.858903562491    0.908481952357
C   -2.688283385765   -1.715903562491   -0.176518047643
H    0.885716614235   -0.719903562491    0.948481952357
H    0.574716614235   -2.197903562491   -1.002518047643
H   -1.083283385765    0.167096437509    2.158481952357
H   -1.701283385765   -2.851903562491   -1.715518047643
H   -3.362283385765   -0.472903562491    1.445481952357
H   -4.786283385765   -1.872903562491    0.174481952357
H   -4.082283385765   -3.171903562491   -0.786518047643
H   -4.386013385765   -1.583003562491   -1.542434047643
$end

$rem
JOBTYPE			EDA
EDA2			1
method			wB97X-V
BASIS			def2-TZVPD
XC_GRID			000099000590
NL_GRID			1
UNRESTRICTED		FALSE
MAX_SCF_CYCLES		200
SYMMETRY		FALSE
SYM_IGNORE		TRUE
MEM_STATIC		2000
BASIS_LIN_DEP_THRESH 	6
THRESH 			14
SCF_CONVERGENCE 	8
SCF_PRINT_FRGM 		TRUE
SOLVENT_METHOD          PCM
$end

$PCM
THEORY                  CPCM
METHOD                  SWIG
SOLVER                  INVERSION
RADII                   UFF
HPOINTS                 302
HEAVYPOINTS             302
PRINTLEVEL              0
$END

$SOLVENT
DIELECTRIC              78.390000 ! water
$END
--------------------------------------------------------------
 ----------------------------------------------------------------
             Standard Nuclear Orientation (Angstroms)
    I     Atom           X                Y                Z
 ----------------------------------------------------------------
    1      C       1.2947166142     2.2600964375    -0.1575180476
    2      C       1.5927166142     3.3830964375    -1.1525180476
    3      C       2.5277166142     1.4210964375     0.1664819524
    4      O       3.2427166142     1.0190964375    -0.7835180476
    5      O       2.7657166142     1.1600964375     1.3724819524
    6      H       0.8897166142     2.6900964375     0.7604819524
    7      H       0.5307166142     1.6120964375    -0.5875180476
    8      H       1.9707166142     2.9360964375    -2.0725180476
    9      H       2.3541486142     4.0652864375    -0.7465180476
   10      H       0.6715056142     3.9402964375    -1.3781350476
   11      C      -4.0712833858    -2.0939035625    -0.6205180476
   12      C      -0.1112833858    -0.9879035625     0.6284819524
   13      C      -0.2862833858    -1.8359035625    -0.4635180476
   14      C      -1.2202833858    -0.4929035625     1.3114819524
   15      C      -1.5722833858    -2.1969035625    -0.8645180476
   16      C      -2.5062833858    -0.8589035625     0.9084819524
   17      C      -2.6882833858    -1.7159035625    -0.1765180476
   18      H       0.8857166142    -0.7199035625     0.9484819524
   19      H       0.5747166142    -2.1979035625    -1.0025180476
   20      H      -1.0832833858     0.1670964375     2.1584819524
   21      H      -1.7012833858    -2.8519035625    -1.7155180476
   22      H      -3.3622833858    -0.4729035625     1.4454819524
   23      H      -4.7862833858    -1.8729035625     0.1744819524
   24      H      -4.0822833858    -3.1719035625    -0.7865180476
   25      H      -4.3860133858    -1.5830035625    -1.5424340476
 ----------------------------------------------------------------
 Nuclear Repulsion Energy =         631.13944297 hartrees
 There are       45 alpha and       45 beta electrons
 Requested basis set is def2-TZVPD
 There are 223 shells and 567 basis functions

 Total QAlloc Memory Limit  96000 MB
 Mega-Array Size      1956 MB
 MEM_STATIC part      2000 MB
 Discretize the solute cavity surface with Lebedev spheres
	Using 302 Lebedev grid points for each H atom
	Using 302 Lebedev grid points for other atoms
	Atomic van der Waals radii will be scaled by 1.20
 Remove points where switching function is < 1.0e-08
 Keep 2915 surface tesserae and discard 4635 interior tesserae
 Molecular Surface Area = 292.571 Angst**2
 A cutoff of  1.0D-14 yielded  21415 shell pairs
 There are    138995 function pairs (    175310 Cartesian)
 Smallest overlap matrix eigenvalue = 4.91E-07
 Linear dependence detected in AO basis
 Tighter screening thresholds may be required for diffuse basis sets
 Use S2THRESH > 14 and THRESH = 14 in case of SCF convergence issues
 Number of orthogonalized atomic orbitals = 565
 Maximum deviation from orthogonality = 2.588E-10

 Scale SEOQF with 1.000000e-01/1.000000e-01/1.000000e-01

 Standard Electronic Orientation quadrupole field applied
 Nucleus-field energy     =     0.0000000322 hartrees

 -----------------------------------------------------------------------
  General SCF calculation program by
  Eric Jon Sundstrom, Paul Horn, Yuezhi Mao, Dmitri Zuev, Alec White,
  David Stuck, Shaama M.S., Shane Yost, Joonho Lee, David Small,
  Daniel Levine, Susi Lehtola, Hugh Burton, Evgeny Epifanovsky
 -----------------------------------------------------------------------
================================================================
                 ALMO-EDA with the EDA2 driver                  
================================================================
 The second-generation ALMO-EDA (for DFT):                      
 P. R. Horn, Y. Mao and M. Head-Gordon, PCCP, 18, 23067 (2016)  
 Decomposition of the frozen energy:                            
 P. R. Horn, Y. Mao and M. Head-Gordon, JCP, 144, 114107 (2016) 
 FERF model for polarization:                                   
 P. R. Horn and M. Head-Gordon, JCP, 143, 114111 (2015)         
Using eda2 option set 1
Option set summary: Frozen orbital wavefunction, initial wavefunction decomposition, and nDQ polarization.
--------------------------------
Printing EDA Options
--------------------------------
eda_child_super_basis      0
fragmo_guess_mode          0
child_mp                   1
child_mp_orders            232
cls_elec                   1
cls_disp                   0
scfmi_mode                 1
scfmi_occs                 0
scfmi_virts                0
frz_relax                  0
frz_relax_method           0
dc_pen_start               0
dc_pen_conv                0
dc_pen_increment           0
dc_pen_steps               0
dc_pen_thresh_factor       0
dc_pen_pre_newton_thresh   0
frz_ortho_decomp           1
frz_ortho_decomp_conv      6
frgm_method                2
scfmi_freeze_ss            0
separate_rehyb             0
plot_diff_den              0
eda_nocv                   0
eda_vct_relax              1
disp_free_x                0
disp_free_c                0
eda_bsse                   0
eda_pct_a                  0
eda_covp                   0
--------------------------------
Attempting to make child job directory: /tmp/qchem61452//Frg1/
Attempting to make child job directory: /tmp/qchem61452//Frg2/
Creating input file /tmp/qchem61452/Frg1.input
using default PutDataFrgm: nothing
calling putenv with: QCSCRATCH=/tmp/qchem61452/ 
calling putenv with: QCLOCALSCR=/tmp/qchem61452/ 
Spawning Job For Fragment 0
                  Welcome to Q-Chem
     A Quantum Leap Into The Future Of Chemistry


 Q-Chem 5.2, Q-Chem, Inc., Pleasanton, CA (2019)

 License issued to: National Energy Research Scientific Computing Center

 Yihan Shao,  Zhengting Gan,  E. Epifanovsky,  A. T. B. Gilbert,  M. Wormit,  
 J. Kussmann,  A. W. Lange,  A. Behn,  Jia Deng,  Xintian Feng,  D. Ghosh,  
 M. Goldey,  P. R. Horn,  L. D. Jacobson,  I. Kaliman,  T. Kus,  A. Landau,  
 Jie Liu,  E. I. Proynov,  R. M. Richard,  R. P. Steele,  E. J. Sundstrom,  
 H. L. Woodcock III,  P. M. Zimmerman,  D. Zuev,  B. Albrecht,  E. Alguire,  
 S. A. Baeppler,  D. Barton,  Z. Benda,  Y. A. Bernard,  E. J. Berquist,  
 K. B. Bravaya,  H. Burton,  D. Casanova,  Chun-Min Chang,  Yunqing Chen,  
 A. Chien,  K. D. Closser,  M. P. Coons,  S. Coriani,  S. Dasgupta,  
 A. L. Dempwolff,  M. Diedenhofen,  Hainam Do,  R. G. Edgar,  Po-Tung Fang,  
 S. Faraji,  S. Fatehi,  Qingguo Feng,  K. D. Fenk,  J. Fosso-Tande,  
 J. Gayvert,  Qinghui Ge,  A. Ghysels,  G. Gidofalvi,  J. Gomes,  
 J. Gonthier,  A. Gunina,  D. Hait,  M. W. D. Hanson-Heine,  
 P. H. P. Harbach,  A. W. Hauser,  M. F. Herbst,  J. E. Herr,  
 E. G. Hohenstein,  Z. C. Holden,  Kerwin Hui,  B. C. Huynh,  T.-C. Jagau,  
 Hyunjun Ji,  B. Kaduk,  K. Khistyaev,  Jaehoon Kim,  P. Klunzinger,  K. Koh,  
 D. Kosenkov,  L. Koulias,  T. Kowalczyk,  C. M. Krauter,  A. Kunitsa,  
 Ka Un Lao,  A. Laurent,  K. V. Lawler,  Joonho Lee,  D. Lefrancois,  
 S. Lehtola,  D. S. Levine,  Yi-Pei Li,  You-Sheng Lin,  Fenglai Liu,  
 E. Livshits,  A. Luenser,  P. Manohar,  E. Mansoor,  S. F. Manzer,  
 Shan-Ping Mao,  Yuezhi Mao,  N. Mardirossian,  A. V. Marenich,  
 T. Markovich,  L. A. Martinez-Martinez,  S. A. Maurer,  N. J. Mayhall,  
 S. C. McKenzie,  J.-M. Mewes,  P. Morgante,  A. F. Morrison,  
 J. W. Mullinax,  K. Nanda,  T. S. Nguyen-Beck,  R. Olivares-Amaya,  
 J. A. Parkhill,  Zheng Pei,  T. M. Perrine,  F. Plasser,  P. Pokhilko,  
 S. Prager,  A. Prociuk,  E. Ramos,  D. R. Rehn,  F. Rob,  M. Scheurer,  
 M. Schneider,  N. Sergueev,  S. M. Sharada,  S. Sharma,  D. W. Small,  
 T. Stauch,  T. Stein,  Yu-Chuan Su,  A. J. W. Thom,  A. Tkatchenko,  
 T. Tsuchimochi,  N. M. Tubman,  L. Vogt,  M. L. Vidal,  O. Vydrov,  
 M. A. Watson,  J. Wenzel,  M. de Wergifosse,  T. A. Wesolowski,  A. White,  
 J. Witte,  A. Yamada,  Jun Yang,  K. Yao,  S. Yeganeh,  S. R. Yost,  
 Zhi-Qiang You,  A. Zech,  Igor Ying Zhang,  Xing Zhang,  Yan Zhao,  
 Ying Zhu,  B. R. Brooks,  G. K. L. Chan,  C. J. Cramer,  M. S. Gordon,  
 W. J. Hehre,  A. Klamt,  M. W. Schmidt,  C. D. Sherrill,  D. G. Truhlar,  
 A. Aspuru-Guzik,  R. Baer,  A. T. Bell,  N. A. Besley,  Jeng-Da Chai,  
 A. E. DePrince, III,  R. A. DiStasio Jr.,  A. Dreuw,  B. D. Dunietz,  
 T. R. Furlani,  Chao-Ping Hsu,  Yousung Jung,  Jing Kong,  D. S. Lambrecht,  
 WanZhen Liang,  C. Ochsenfeld,  V. A. Rassolov,  L. V. Slipchenko,  
 J. E. Subotnik,  T. Van Voorhis,  J. M. Herbert,  A. I. Krylov,  
 P. M. W. Gill,  M. Head-Gordon

 Contributors to earlier versions of Q-Chem not listed above: 
 R. D. Adamson,  B. Austin,  J. Baker,  G. J. O. Beran,  K. Brandhorst,  
 S. T. Brown,  E. F. C. Byrd,  A. K. Chakraborty,  C.-L. Cheng,  
 Siu Hung Chien,  D. M. Chipman,  D. L. Crittenden,  H. Dachsel,  
 R. J. Doerksen,  A. D. Dutoi,  L. Fusti-Molnar,  W. A. Goddard III,  
 A. Golubeva-Zadorozhnaya,  S. R. Gwaltney,  G. Hawkins,  A. Heyden,  
 S. Hirata,  G. Kedziora,  F. J. Keil,  C. Kelley,  Jihan Kim,  R. A. King,  
 R. Z. Khaliullin,  P. P. Korambath,  W. Kurlancheek,  A. M. Lee,  M. S. Lee,  
 S. V. Levchenko,  Ching Yeh Lin,  D. Liotard,  R. C. Lochan,  I. Lotan,  
 P. E. Maslen,  N. Nair,  D. P. O'Neill,  D. Neuhauser,  E. Neuscamman,  
 C. M. Oana,  R. Olson,  B. Peters,  R. Peverati,  P. A. Pieniazek,  
 Y. M. Rhee,  J. Ritchie,  M. A. Rohrdanz,  E. Rosta,  N. J. Russ,  
 H. F. Schaefer III,  N. E. Schultz,  N. Shenvi,  A. C. Simmonett,  A. Sodt,  
 D. Stuck,  K. S. Thanthiriwatte,  V. Vanovschi,  Tao Wang,  A. Warshel,  
 C. F. Williams,  Q. Wu,  X. Xu,  W. Zhang

 Please cite Q-Chem as follows:
 Y. Shao et al., Mol. Phys. 113, 184-215 (2015)
 DOI: 10.1080/00268976.2014.952696

 Q-Chem 5.2.0 for Intel X86 EM64T Linux

 Parts of Q-Chem use Armadillo 8.300.2 (Tropical Shenanigans).
 http://arma.sourceforge.net/

 Q-Chem begins on Sun Sep 26 12:25:24 2021  

Host: cori01
0

     Scratch files written to /tmp/qchem61452//Frg1//
 May1019 |scratch|qcdevops|jenkins|workspace|build_RNUM -1
Processing $rem in /global/common/cori/software/qchem/5.2/config/preferences:
	 MEM_TOTAL  96000 
NAlpha2: 40
NElect   40
Mult     1
Symmetry turned off for PCM/SM12/SMD calculation

Checking the input file for inconsistencies... 	...done.

--------------------------------------------------------------
User input:
--------------------------------------------------------------
$molecule
-1 1
 6	1.2947166142	2.2600964375	-0.1575180476
 6	1.5927166142	3.3830964375	-1.1525180476
 6	2.5277166142	1.4210964375	0.1664819524
 8	3.2427166142	1.0190964375	-0.7835180476
 8	2.7657166142	1.1600964375	1.3724819524
 1	0.8897166142	2.6900964375	0.7604819524
 1	0.5307166142	1.6120964375	-0.5875180476
 1	1.9707166142	2.9360964375	-2.0725180476
 1	2.3541486142	4.0652864375	-0.7465180476
 1	0.6715056142	3.9402964375	-1.3781350476
$end
$rem
EDA2		1
METHOD		WB97X-V
BASIS		DEF2-TZVPD
XC_GRID		000099000590
NL_GRID		1
UNRESTRICTED		FALSE
MAX_SCF_CYCLES		200
SYMMETRY		FALSE
SYM_IGNORE		TRUE
BASIS_LIN_DEP_THRESH		6
THRESH		14
SCF_CONVERGENCE		8
SCF_PRINT_FRGM		TRUE
SOLVENT_METHOD		PCM
!required keywords
JOBTYPE		SP
SYM_IGNORE		TRUE
SUBSYSTEM		TRUE
GEN_SCFMAN		TRUE
CHILD_INSTRUCTION		2
SYM_IGNORE		TRUE
SCFMI		0
RI_K 0		
PARI_K 0		
MIN_PARI_K 0		
IARI_K 0		
OCC_RI_K 0		
PURECART		1111
MEM_STATIC		2000
MEM_TOTAL		96000
GUI		0
CHILD_MP		1
CHILD_MP_ORDERS		232
FRZ_RELAX		0
FRZ_RELAX_METHOD		0
EDA_CLS_ELEC		1
EDA_CLS_DISP		0
FRZ_ORTHO_DECOMP		1
EDA2		FALSE
FRGM_METHOD		FALSE
CIS_N_ROOTS  0
LOCAL_CIS    0
CIS_RLX_DNS  1
$end
$pcm
THEORY                  CPCM
METHOD                  SWIG
SOLVER                  INVERSION
RADII                   UFF
HPOINTS                 302
HEAVYPOINTS             302
PRINTLEVEL              0
$end
$solvent
DIELECTRIC              78.390000 ! water
$end
--------------------------------------------------------------
 ----------------------------------------------------------------
             Standard Nuclear Orientation (Angstroms)
    I     Atom           X                Y                Z
 ----------------------------------------------------------------
    1      C       1.2947166142     2.2600964375    -0.1575180476
    2      C       1.5927166142     3.3830964375    -1.1525180476
    3      C       2.5277166142     1.4210964375     0.1664819524
    4      O       3.2427166142     1.0190964375    -0.7835180476
    5      O       2.7657166142     1.1600964375     1.3724819524
    6      H       0.8897166142     2.6900964375     0.7604819524
    7      H       0.5307166142     1.6120964375    -0.5875180476
    8      H       1.9707166142     2.9360964375    -2.0725180476
    9      H       2.3541486142     4.0652864375    -0.7465180476
   10      H       0.6715056142     3.9402964375    -1.3781350476
 ----------------------------------------------------------------
 Nuclear Repulsion Energy =         168.82827171 hartrees
 There are       20 alpha and       20 beta electrons
 Requested basis set is def2-TZVPD
 There are 92 shells and 236 basis functions

 Total QAlloc Memory Limit  96000 MB
 Mega-Array Size      1956 MB
 MEM_STATIC part      2000 MB
 Discretize the solute cavity surface with Lebedev spheres
	Using 302 Lebedev grid points for each H atom
	Using 302 Lebedev grid points for other atoms
	Atomic van der Waals radii will be scaled by 1.20
 Remove points where switching function is < 1.0e-08
 Keep 1312 surface tesserae and discard 1708 interior tesserae
 Molecular Surface Area = 143.760 Angst**2

                       Distance Matrix (Angstroms)
             C (  1)   C (  2)   C (  3)   O (  4)   O (  5)   H (  6)
   C (  2)  1.529692
   C (  3)  1.526167  2.542328
   O (  4)  2.393044  2.906399  1.255121
   O (  5)  2.390552  3.562763  1.256663  2.212633
   H (  6)  1.091627  2.152679  2.155514  3.273039  2.496962
   H (  7)  1.090183  2.140913  2.143130  2.782986  3.006847  1.762972
   H (  8)  2.140368  1.090455  2.760180  2.637119  3.956542  3.042198
   H (  9)  2.174403  1.099999  2.802755  3.173357  3.619348  2.511326
   H ( 10)  2.168264  1.100002  3.489660  3.936763  4.436341  2.486825
             H (  7)   H (  8)   H (  9)
   H (  8)  2.455973
   H (  9)  3.060772  1.783358
   H ( 10)  2.462806  1.782845  1.801624
 
 A cutoff of  1.0D-14 yielded   4192 shell pairs
 There are     28050 function pairs (     35746 Cartesian)
 Smallest overlap matrix eigenvalue = 1.02E-05

 Scale SEOQF with 1.000000e-01/1.000000e-01/1.000000e-01

 Standard Electronic Orientation quadrupole field applied
 Nucleus-field energy     =     0.0000000169 hartrees
 Guess from superposition of atomic densities
 Warning:  Energy on first SCF cycle will be non-variational
 SAD guess density has 38.612942 electrons

 -----------------------------------------------------------------------
  General SCF calculation program by
  Eric Jon Sundstrom, Paul Horn, Yuezhi Mao, Dmitri Zuev, Alec White,
  David Stuck, Shaama M.S., Shane Yost, Joonho Lee, David Small,
  Daniel Levine, Susi Lehtola, Hugh Burton, Evgeny Epifanovsky
 -----------------------------------------------------------------------
 Exchange:     0.1670 Hartree-Fock + 1.0000 wB97X-V + LR-HF
 Correlation:  1.0000 wB97X-V
 Using Euler-Maclaurin-Lebedev (99,590) quadrature formula
 Nonlocal Correlation:  VV10 with C = 0.0100 and b = 6.00 and scale = 1.00000
 Grid used for NLC:  SG-1 standard quadrature
Energy prior to optimization (guess energy) = -267.073971898188
Begin Timing: Total SCF Calculation
begin iterations for algorithm: DIIS         
the SCF tolerance is set to 1.00e-08
    1    -267.0739718982      1.28e-02     00000 
    2    -263.1155199507      2.08e-02     00000 
    3    -267.7987586605      4.98e-03     00000 
    4    -267.9312903182      2.16e-03     00000 
    5    -267.9573257501      3.66e-04     00000 
    6    -267.9583310307      2.48e-04     00000 
    7    -267.9586119806      6.04e-05     00000 
    8    -267.9586338562      1.60e-05     00000 
    9    -267.9586358185      5.99e-06     00000 
   10    -267.9586361228      2.07e-06     00000 
   11    -267.9586361822      3.25e-07     00000 
   12    -267.9586361856      1.04e-07     00000 
   13    -267.9586361858      4.55e-08     00000 
   14    -267.9586361858      1.30e-08     00000 
   15    -267.9586361858      2.13e-09     00000 Convergence criterion met
Timing for Total SCF: 647.00s (wall), 1281.80s (cpu)

************** Final PCM Free Energy Summary **************
 G_electrostatic  =      -0.10048239 hartree =     -63.05365185 kcal/mol
 G_cavitation     =       0.00000000 hartree =       0.00000000 kcal/mol
 G_dispersion     =       0.00000000 hartree =       0.00000000 kcal/mol
 G_repulsion      =       0.00000000 hartree =       0.00000000 kcal/mol
 --------------------------------------------------
 Non-electrostatic Free Energy =       0.00000000 hartree =       0.00000000 kcal/mol
 Total                         =      -0.10048239 hartree =     -63.05365185 kcal/mol
 --------------------------------------------------
 SCF Energy (H0 + V/2)                       =    -267.95863619 
 Solute Internal Energy (H0)                 =    -267.85815380 
 Total Free Energy (H0 + V/2 + non-elec)     =    -267.95863619 hartree
                                             = -168146.58204285 kcal/mol
***********************************************************

E_pcm = -0.1004823907
Multipole orders to be included
        2
        3
computing dipole RHS
computing quadrupole RHS
total number of RHS in solve_reponses: 8
RHS batch sizes
        8
Beginning Block Conjugate Gradient Iterations. Batch Number: 0
computing hessian-vector products by finite difference
              1      6.81e-01     00000 Conjugate Gradient Iteration
computing hessian-vector products by finite difference
              2      2.38e-01     00000 Conjugate Gradient Iteration
computing hessian-vector products by finite difference
              3      6.28e-02     00000 Conjugate Gradient Iteration
computing hessian-vector products by finite difference
              4      1.71e-02     00000 Conjugate Gradient Iteration
computing hessian-vector products by finite difference
              5      3.14e-03     00000 Conjugate Gradient Iteration
computing hessian-vector products by finite difference
              6      7.07e-04     00000 Conjugate Gradient Iteration
computing hessian-vector products by finite difference
              7      1.16e-04     00000 Conjugate Gradient Iteration
computing hessian-vector products by finite difference
              8      1.93e-05     00000 Conjugate Gradient Iteration
computing hessian-vector products by finite difference
              9      2.92e-06     00000 Conjugate Gradient Iteration
computing hessian-vector products by finite difference
             10      4.14e-07     00000 Conjugate Gradient Iteration
computing hessian-vector products by finite difference
             11      9.63e-08     00000 Conjugate Gradient Iteration
computing hessian-vector products by finite difference
             12      1.91e-08     00000 Conjugate Gradient Iteration
computing hessian-vector products by finite difference
             13      2.09e-09     00000 CG Converged
batch 0 complete
Done Calculating Responses
TESTING ORTHOGONALIZATION OF MULTIPOLE BASIS
Multipole virts passed orthogonality test
Virts Per Order
           60
          100
 
 --------------------------------------------------------------
 
                    Orbital Energies (a.u.)
 --------------------------------------------------------------
 
 Alpha MOs
 -- Occupied --
-19.1224 -19.1222 -10.3229 -10.2452 -10.2426  -1.1290  -1.0301  -0.8808
 -0.7414  -0.5959  -0.5511  -0.5336  -0.5017  -0.4828  -0.4654  -0.4364
 -0.4253  -0.3286  -0.3217  -0.3093
 -- Virtual --
  0.0637   0.0856   0.0918   0.0990   0.1206   0.1302   0.1386   0.1450
  0.1465   0.1694   0.1823   0.1952   0.1999   0.2072   0.2263   0.2410
  0.2455   0.2625   0.2655   0.2929   0.2957   0.3012   0.3189   0.3300
  0.3442   0.3539   0.3574   0.3641   0.3752   0.3781   0.3809   0.3951
  0.4073   0.4129   0.4185   0.4270   0.4287   0.4441   0.4596   0.4653
  0.4771   0.4936   0.4996   0.5027   0.5173   0.5250   0.5382   0.5465
  0.5506   0.5604   0.5726   0.5995   0.6049   0.6391   0.6496   0.6558
  0.6613   0.6663   0.6951   0.6992   0.7107   0.7170   0.7393   0.7496
  0.7692   0.7808   0.7842   0.7963   0.7979   0.8104   0.8120   0.8201
  0.8482   0.8594   0.8741   0.8952   0.9063   0.9336   0.9874   0.9998
  1.0319   1.0546   1.0696   1.0913   1.1220   1.1359   1.1650   1.2159
  1.2435   1.2962   1.2971   1.3246   1.3411   1.3559   1.4061   1.4208
  1.4498   1.4912   1.5249   1.6199   1.6532   1.7596   1.8589   1.8736
  1.9027   1.9160   1.9294   1.9462   1.9628   1.9713   1.9834   1.9985
  2.0388   2.0525   2.0665   2.1413   2.1613   2.1938   2.2038   2.2691
  2.2902   2.3262   2.3849   2.4171   2.4752   2.4846   2.5063   2.5289
  2.5626   2.6072   2.6181   2.6412   2.6651   2.7251   2.7554   2.7932
  2.8220   2.8479   2.8788   2.9335   2.9560   2.9855   3.0403   3.0777
  3.1185   3.1623   3.2161   3.2534   3.2891   3.3136   3.3452   3.3610
  3.3738   3.3799   3.4604   3.4718   3.5066   3.5136   3.5403   3.5885
  3.6116   3.6322   3.6514   3.6774   3.6977   3.7247   3.7471   3.7718
  3.8155   3.8347   3.9572   4.0798   4.1006   4.1216   4.2140   4.2406
  4.2979   4.4146   4.5514   4.5855   4.6909   4.7479   4.7857   4.8464
  4.9083   5.0312   5.0913   5.3384   5.3689   5.3763   5.3849   5.5108
  5.7245   5.7631   5.8142   6.0203   6.2466   6.3382   6.3560   6.6239
  6.6419   6.7243   6.7634   6.7807   6.9687   6.9938   7.0597   7.2553
  7.3759   7.3913   7.4208  22.6279  22.7596  23.7447  44.2724  44.4176
 --------------------------------------------------------------
 
          Ground-State Mulliken Net Atomic Charges

     Atom                 Charge (a.u.)
  ----------------------------------------
      1 C                     0.156697
      2 C                    -0.720950
      3 C                     0.126127
      4 O                    -0.683300
      5 O                    -0.686484
      6 H                     0.126139
      7 H                     0.125528
      8 H                     0.158575
      9 H                     0.202146
     10 H                     0.195521
  ----------------------------------------
  Sum of atomic charges =    -1.000000

 -----------------------------------------------------------------
                    Cartesian Multipole Moments
 -----------------------------------------------------------------
    Charge (ESU x 10^10)
                -4.8032
    Dipole Moment (Debye)
         X     -15.7472      Y      -4.4531      Z      -1.8211
       Tot      16.4658
    Quadrupole Moments (Debye-Ang)
        XX     -84.1981     XY     -14.3374     YY     -37.3779
        XZ      -3.5308     YZ      -1.7318     ZZ     -43.3013
    Octopole Moments (Debye-Ang^2)
       XXX    -387.9394    XXY    -109.2806    XYY     -86.5135
       YYY    -197.9116    XXZ      -0.6343    XYZ      -3.5832
       YYZ       6.1293    XZZ    -102.9106    YZZ     -76.5642
       ZZZ       7.7162
    Hexadecapole Moments (Debye-Ang^3)
      XXXX   -1703.9453   XXXY    -514.8458   XXYY    -389.0258
      XYYY    -381.2320   YYYY    -987.3825   XXXZ      11.9390
      XXYZ      20.1042   XYYZ       6.7391   YYYZ      95.5463
      XXZZ    -313.6210   XYZZ    -158.3596   YYZZ    -218.5873
      XZZZ      -6.7093   YZZZ      73.6666   ZZZZ    -240.5340
 -----------------------------------------------------------------
Archival summary:
1\1\nid00557\SP\ProcedureUnspecified\BasisUnspecified\235(1-,1)\meili\SunSep2615:19:372021SunSep2615:19:372021\0\\#,ProcedureUnspecified,BasisUnspecified,\\-1,1\C\O,1,1.25512\O,1,1.25666,2,123.503\C,1,1.52617,2,118.4,3,-179.357,0\H,4,1.09018,1,108.854,2,72.9991,0\H,4,1.09163,1,109.74,2,-169.234,0\C,4,1.52969,1,112.599,2,-47.2794,0\H,7,1.09046,4,108.383,1,59.2845,0\H,7,1.1,4,110.491,1,-60.0927,0\H,7,1.1,4,110.007,1,178.321,0\\\@

 Total job time:  10454.15s(wall), 20686.33s(cpu) 
 Sun Sep 26 15:19:38 2021

        *************************************************************
        *                                                           *
        *  Thank you very much for using Q-Chem.  Have a nice day.  *
        *                                                           *
        *************************************************************


Done Job For Fragment 0
calling putenv with: QCSCRATCH=/global/cscratch1/sd/meili 
calling putenv with: QCLOCALSCR=/tmp 
calling putenv with: QCTHREADS=32 
Creating input file /tmp/qchem61452/Frg2.input
using default PutDataFrgm: nothing
calling putenv with: QCSCRATCH=/tmp/qchem61452/ 
calling putenv with: QCLOCALSCR=/tmp/qchem61452/ 
Spawning Job For Fragment 1
                  Welcome to Q-Chem
     A Quantum Leap Into The Future Of Chemistry


 Q-Chem 5.2, Q-Chem, Inc., Pleasanton, CA (2019)

 License issued to: National Energy Research Scientific Computing Center

 Yihan Shao,  Zhengting Gan,  E. Epifanovsky,  A. T. B. Gilbert,  M. Wormit,  
 J. Kussmann,  A. W. Lange,  A. Behn,  Jia Deng,  Xintian Feng,  D. Ghosh,  
 M. Goldey,  P. R. Horn,  L. D. Jacobson,  I. Kaliman,  T. Kus,  A. Landau,  
 Jie Liu,  E. I. Proynov,  R. M. Richard,  R. P. Steele,  E. J. Sundstrom,  
 H. L. Woodcock III,  P. M. Zimmerman,  D. Zuev,  B. Albrecht,  E. Alguire,  
 S. A. Baeppler,  D. Barton,  Z. Benda,  Y. A. Bernard,  E. J. Berquist,  
 K. B. Bravaya,  H. Burton,  D. Casanova,  Chun-Min Chang,  Yunqing Chen,  
 A. Chien,  K. D. Closser,  M. P. Coons,  S. Coriani,  S. Dasgupta,  
 A. L. Dempwolff,  M. Diedenhofen,  Hainam Do,  R. G. Edgar,  Po-Tung Fang,  
 S. Faraji,  S. Fatehi,  Qingguo Feng,  K. D. Fenk,  J. Fosso-Tande,  
 J. Gayvert,  Qinghui Ge,  A. Ghysels,  G. Gidofalvi,  J. Gomes,  
 J. Gonthier,  A. Gunina,  D. Hait,  M. W. D. Hanson-Heine,  
 P. H. P. Harbach,  A. W. Hauser,  M. F. Herbst,  J. E. Herr,  
 E. G. Hohenstein,  Z. C. Holden,  Kerwin Hui,  B. C. Huynh,  T.-C. Jagau,  
 Hyunjun Ji,  B. Kaduk,  K. Khistyaev,  Jaehoon Kim,  P. Klunzinger,  K. Koh,  
 D. Kosenkov,  L. Koulias,  T. Kowalczyk,  C. M. Krauter,  A. Kunitsa,  
 Ka Un Lao,  A. Laurent,  K. V. Lawler,  Joonho Lee,  D. Lefrancois,  
 S. Lehtola,  D. S. Levine,  Yi-Pei Li,  You-Sheng Lin,  Fenglai Liu,  
 E. Livshits,  A. Luenser,  P. Manohar,  E. Mansoor,  S. F. Manzer,  
 Shan-Ping Mao,  Yuezhi Mao,  N. Mardirossian,  A. V. Marenich,  
 T. Markovich,  L. A. Martinez-Martinez,  S. A. Maurer,  N. J. Mayhall,  
 S. C. McKenzie,  J.-M. Mewes,  P. Morgante,  A. F. Morrison,  
 J. W. Mullinax,  K. Nanda,  T. S. Nguyen-Beck,  R. Olivares-Amaya,  
 J. A. Parkhill,  Zheng Pei,  T. M. Perrine,  F. Plasser,  P. Pokhilko,  
 S. Prager,  A. Prociuk,  E. Ramos,  D. R. Rehn,  F. Rob,  M. Scheurer,  
 M. Schneider,  N. Sergueev,  S. M. Sharada,  S. Sharma,  D. W. Small,  
 T. Stauch,  T. Stein,  Yu-Chuan Su,  A. J. W. Thom,  A. Tkatchenko,  
 T. Tsuchimochi,  N. M. Tubman,  L. Vogt,  M. L. Vidal,  O. Vydrov,  
 M. A. Watson,  J. Wenzel,  M. de Wergifosse,  T. A. Wesolowski,  A. White,  
 J. Witte,  A. Yamada,  Jun Yang,  K. Yao,  S. Yeganeh,  S. R. Yost,  
 Zhi-Qiang You,  A. Zech,  Igor Ying Zhang,  Xing Zhang,  Yan Zhao,  
 Ying Zhu,  B. R. Brooks,  G. K. L. Chan,  C. J. Cramer,  M. S. Gordon,  
 W. J. Hehre,  A. Klamt,  M. W. Schmidt,  C. D. Sherrill,  D. G. Truhlar,  
 A. Aspuru-Guzik,  R. Baer,  A. T. Bell,  N. A. Besley,  Jeng-Da Chai,  
 A. E. DePrince, III,  R. A. DiStasio Jr.,  A. Dreuw,  B. D. Dunietz,  
 T. R. Furlani,  Chao-Ping Hsu,  Yousung Jung,  Jing Kong,  D. S. Lambrecht,  
 WanZhen Liang,  C. Ochsenfeld,  V. A. Rassolov,  L. V. Slipchenko,  
 J. E. Subotnik,  T. Van Voorhis,  J. M. Herbert,  A. I. Krylov,  
 P. M. W. Gill,  M. Head-Gordon

 Contributors to earlier versions of Q-Chem not listed above: 
 R. D. Adamson,  B. Austin,  J. Baker,  G. J. O. Beran,  K. Brandhorst,  
 S. T. Brown,  E. F. C. Byrd,  A. K. Chakraborty,  C.-L. Cheng,  
 Siu Hung Chien,  D. M. Chipman,  D. L. Crittenden,  H. Dachsel,  
 R. J. Doerksen,  A. D. Dutoi,  L. Fusti-Molnar,  W. A. Goddard III,  
 A. Golubeva-Zadorozhnaya,  S. R. Gwaltney,  G. Hawkins,  A. Heyden,  
 S. Hirata,  G. Kedziora,  F. J. Keil,  C. Kelley,  Jihan Kim,  R. A. King,  
 R. Z. Khaliullin,  P. P. Korambath,  W. Kurlancheek,  A. M. Lee,  M. S. Lee,  
 S. V. Levchenko,  Ching Yeh Lin,  D. Liotard,  R. C. Lochan,  I. Lotan,  
 P. E. Maslen,  N. Nair,  D. P. O'Neill,  D. Neuhauser,  E. Neuscamman,  
 C. M. Oana,  R. Olson,  B. Peters,  R. Peverati,  P. A. Pieniazek,  
 Y. M. Rhee,  J. Ritchie,  M. A. Rohrdanz,  E. Rosta,  N. J. Russ,  
 H. F. Schaefer III,  N. E. Schultz,  N. Shenvi,  A. C. Simmonett,  A. Sodt,  
 D. Stuck,  K. S. Thanthiriwatte,  V. Vanovschi,  Tao Wang,  A. Warshel,  
 C. F. Williams,  Q. Wu,  X. Xu,  W. Zhang

 Please cite Q-Chem as follows:
 Y. Shao et al., Mol. Phys. 113, 184-215 (2015)
 DOI: 10.1080/00268976.2014.952696

 Q-Chem 5.2.0 for Intel X86 EM64T Linux

 Parts of Q-Chem use Armadillo 8.300.2 (Tropical Shenanigans).
 http://arma.sourceforge.net/

 Q-Chem begins on Sun Sep 26 15:19:39 2021  

Host: cori01
0

     Scratch files written to /tmp/qchem61452//Frg2//
 May1019 |scratch|qcdevops|jenkins|workspace|build_RNUM -1
Processing $rem in /global/common/cori/software/qchem/5.2/config/preferences:
	 MEM_TOTAL  96000 
NAlpha2: 50
NElect   50
Mult     1
Symmetry turned off for PCM/SM12/SMD calculation

Checking the input file for inconsistencies... 	...done.

--------------------------------------------------------------
User input:
--------------------------------------------------------------
$molecule
0 1
 6	-4.0712833858	-2.0939035625	-0.6205180476
 6	-0.1112833858	-0.9879035625	0.6284819524
 6	-0.2862833858	-1.8359035625	-0.4635180476
 6	-1.2202833858	-0.4929035625	1.3114819524
 6	-1.5722833858	-2.1969035625	-0.8645180476
 6	-2.5062833858	-0.8589035625	0.9084819524
 6	-2.6882833858	-1.7159035625	-0.1765180476
 1	0.8857166142	-0.7199035625	0.9484819524
 1	0.5747166142	-2.1979035625	-1.0025180476
 1	-1.0832833858	0.1670964375	2.1584819524
 1	-1.7012833858	-2.8519035625	-1.7155180476
 1	-3.3622833858	-0.4729035625	1.4454819524
 1	-4.7862833858	-1.8729035625	0.1744819524
 1	-4.0822833858	-3.1719035625	-0.7865180476
 1	-4.3860133858	-1.5830035625	-1.5424340476
$end
$rem
EDA2		1
METHOD		WB97X-V
BASIS		DEF2-TZVPD
XC_GRID		000099000590
NL_GRID		1
UNRESTRICTED		FALSE
MAX_SCF_CYCLES		200
SYMMETRY		FALSE
SYM_IGNORE		TRUE
BASIS_LIN_DEP_THRESH		6
THRESH		14
SCF_CONVERGENCE		8
SCF_PRINT_FRGM		TRUE
SOLVENT_METHOD		PCM
!required keywords
JOBTYPE		SP
SYM_IGNORE		TRUE
SUBSYSTEM		TRUE
GEN_SCFMAN		TRUE
CHILD_INSTRUCTION		2
SYM_IGNORE		TRUE
SCFMI		0
RI_K 0		
PARI_K 0		
MIN_PARI_K 0		
IARI_K 0		
OCC_RI_K 0		
PURECART		1111
MEM_STATIC		2000
MEM_TOTAL		96000
GUI		0
CHILD_MP		1
CHILD_MP_ORDERS		232
FRZ_RELAX		0
FRZ_RELAX_METHOD		0
EDA_CLS_ELEC		1
EDA_CLS_DISP		0
FRZ_ORTHO_DECOMP		1
EDA2		FALSE
FRGM_METHOD		FALSE
CIS_N_ROOTS  0
LOCAL_CIS    0
CIS_RLX_DNS  1
$end
$pcm
THEORY                  CPCM
METHOD                  SWIG
SOLVER                  INVERSION
RADII                   UFF
HPOINTS                 302
HEAVYPOINTS             302
PRINTLEVEL              0
$end
$solvent
DIELECTRIC              78.390000 ! water
$end
--------------------------------------------------------------
 ----------------------------------------------------------------
             Standard Nuclear Orientation (Angstroms)
    I     Atom           X                Y                Z
 ----------------------------------------------------------------
    1      C      -4.0712833858    -2.0939035625    -0.6205180476
    2      C      -0.1112833858    -0.9879035625     0.6284819524
    3      C      -0.2862833858    -1.8359035625    -0.4635180476
    4      C      -1.2202833858    -0.4929035625     1.3114819524
    5      C      -1.5722833858    -2.1969035625    -0.8645180476
    6      C      -2.5062833858    -0.8589035625     0.9084819524
    7      C      -2.6882833858    -1.7159035625    -0.1765180476
    8      H       0.8857166142    -0.7199035625     0.9484819524
    9      H       0.5747166142    -2.1979035625    -1.0025180476
   10      H      -1.0832833858     0.1670964375     2.1584819524
   11      H      -1.7012833858    -2.8519035625    -1.7155180476
   12      H      -3.3622833858    -0.4729035625     1.4454819524
   13      H      -4.7862833858    -1.8729035625     0.1744819524
   14      H      -4.0822833858    -3.1719035625    -0.7865180476
   15      H      -4.3860133858    -1.5830035625    -1.5424340476
 ----------------------------------------------------------------
 Nuclear Repulsion Energy =         269.66953464 hartrees
 There are       25 alpha and       25 beta electrons
 Requested basis set is def2-TZVPD
 There are 131 shells and 331 basis functions

 Total QAlloc Memory Limit  96000 MB
 Mega-Array Size      1956 MB
 MEM_STATIC part      2000 MB
 Discretize the solute cavity surface with Lebedev spheres
	Using 302 Lebedev grid points for each H atom
	Using 302 Lebedev grid points for other atoms
	Atomic van der Waals radii will be scaled by 1.20
 Remove points where switching function is < 1.0e-08
 Keep 1794 surface tesserae and discard 2736 interior tesserae
 Molecular Surface Area = 178.158 Angst**2

                       Distance Matrix (Angstroms)
             C (  1)   C (  2)   C (  3)   C (  4)   C (  5)   C (  6)
   C (  2)  4.297073
   C (  3)  3.797030  1.393626
   C (  4)  3.797898  1.393340  2.413841
   C (  5)  2.512995  2.413556  1.394603  2.786126
   C (  6)  2.512427  2.414760  2.786631  1.396482  2.409591
   C (  7)  1.500903  2.796236  2.422060  2.421755  1.396482  1.394560
   H (  8)  5.377870  1.080848  2.147739  2.149077  3.392678  3.395082
   H (  9)  4.662838  2.143562  1.078372  3.388753  2.151431  3.864894
   H ( 10)  4.665094  2.149351  3.394422  1.082487  3.868610  2.154090
   H ( 11)  2.718545  3.390713  2.145224  3.867683  1.081604  3.391968
   H ( 12)  2.720051  3.391418  3.868310  2.146281  3.392989  1.081712
   H ( 13)  1.091829  4.779641  4.545153  3.989176  3.393272  2.601029
   H ( 14)  1.090762  4.747728  4.037182  4.446312  2.693847  3.272120
   H ( 15)  1.100001  4.831184  4.246858  4.399432  2.958635  3.172490
             C (  7)   H (  8)   H (  9)   H ( 10)   H ( 11)   H ( 12)
   H (  8)  3.876998
   H (  9)  3.400260  2.467307
   H ( 10)  3.402049  2.475445  4.281835
   H ( 11)  2.152484  4.281926  2.473108  4.950168
   H ( 12)  2.151792  4.284101  4.946544  2.472208  4.290744
   H ( 13)  2.132945  5.839526  5.498297  4.670125  3.748035  2.367112
   H ( 14)  2.106009  5.805476  4.762665  5.368049  2.575772  3.575587
   H ( 15)  2.183043  5.894128  5.027768  5.260005  2.974532  3.347833
             H ( 13)   H ( 14)
   H ( 14)  1.762537
   H ( 15)  1.786633  1.785571
 
 A cutoff of  1.0D-14 yielded   8361 shell pairs
 There are     54505 function pairs (     69459 Cartesian)
 Smallest overlap matrix eigenvalue = 5.71E-07
 Linear dependence detected in AO basis
 Tighter screening thresholds may be required for diffuse basis sets
 Use S2THRESH > 14 and THRESH = 14 in case of SCF convergence issues
 Number of orthogonalized atomic orbitals = 330
 Maximum deviation from orthogonality = 1.696E-10

 Scale SEOQF with 1.000000e-01/1.000000e-01/1.000000e-01

 Standard Electronic Orientation quadrupole field applied
 Nucleus-field energy     =     0.0000000153 hartrees
 Guess from superposition of atomic densities
 Warning:  Energy on first SCF cycle will be non-variational
 SAD guess density has 49.913408 electrons

 -----------------------------------------------------------------------
  General SCF calculation program by
  Eric Jon Sundstrom, Paul Horn, Yuezhi Mao, Dmitri Zuev, Alec White,
  David Stuck, Shaama M.S., Shane Yost, Joonho Lee, David Small,
  Daniel Levine, Susi Lehtola, Hugh Burton, Evgeny Epifanovsky
 -----------------------------------------------------------------------
 Exchange:     0.1670 Hartree-Fock + 1.0000 wB97X-V + LR-HF
 Correlation:  1.0000 wB97X-V
 Using Euler-Maclaurin-Lebedev (99,590) quadrature formula
 Nonlocal Correlation:  VV10 with C = 0.0100 and b = 6.00 and scale = 1.00000
 Grid used for NLC:  SG-1 standard quadrature
Energy prior to optimization (guess energy) = -271.520534277990
Begin Timing: Total SCF Calculation
begin iterations for algorithm: DIIS         
the SCF tolerance is set to 1.00e-08
    1    -271.5205342780      1.95e-03     00000 
    2    -271.5595053477      1.25e-03     00000 
    3    -271.5813097389      1.38e-04     00000 
    4    -271.5817259056      4.86e-05     00000 
    5    -271.5817603588      1.67e-05     00000 
    6    -271.5817650917      4.29e-06     00000 
    7    -271.5817654431      1.95e-06     00000 
    8    -271.5817655093      3.46e-07     00000 
    9    -271.5817655129      8.04e-08     00000 
   10    -271.5817655132      4.57e-08     00000 
   11    -271.5817655133      1.61e-08     00000 
   12    -271.5817655133      5.18e-09     00000 Convergence criterion met
Timing for Total SCF: 1479.00s (wall), 2928.96s (cpu)

************** Final PCM Free Energy Summary **************
 G_electrostatic  =      -0.00251044 hartree =      -1.57532510 kcal/mol
 G_cavitation     =       0.00000000 hartree =       0.00000000 kcal/mol
 G_dispersion     =       0.00000000 hartree =       0.00000000 kcal/mol
 G_repulsion      =       0.00000000 hartree =       0.00000000 kcal/mol
 --------------------------------------------------
 Non-electrostatic Free Energy =       0.00000000 hartree =       0.00000000 kcal/mol
 Total                         =      -0.00251044 hartree =      -1.57532510 kcal/mol
 --------------------------------------------------
 SCF Energy (H0 + V/2)                       =    -271.58176551 
 Solute Internal Energy (H0)                 =    -271.57925507 
 Total Free Energy (H0 + V/2 + non-elec)     =    -271.58176551 hartree
                                             = -170420.13001050 kcal/mol
***********************************************************

E_pcm = -0.0025104404
Multipole orders to be included
        2
        3
computing dipole RHS
computing quadrupole RHS
total number of RHS in solve_reponses: 8
RHS batch sizes
        8
Beginning Block Conjugate Gradient Iterations. Batch Number: 0
computing hessian-vector products by finite difference
              1      5.85e-01     00000 Conjugate Gradient Iteration
computing hessian-vector products by finite difference
              2      1.90e-01     00000 Conjugate Gradient Iteration
computing hessian-vector products by finite difference
              3      4.45e-02     00000 Conjugate Gradient Iteration
computing hessian-vector products by finite difference
              4      1.07e-02     00000 Conjugate Gradient Iteration
computing hessian-vector products by finite difference
              5      2.32e-03     00000 Conjugate Gradient Iteration
computing hessian-vector products by finite difference
              6      6.25e-04     00000 Conjugate Gradient Iteration
computing hessian-vector products by finite difference
              7      1.72e-04     00000 Conjugate Gradient Iteration
computing hessian-vector products by finite difference
              8      2.49e-05     00000 Conjugate Gradient Iteration
computing hessian-vector products by finite difference
              9      3.27e-06     00000 Conjugate Gradient Iteration
computing hessian-vector products by finite difference
             10      5.40e-07     00000 Conjugate Gradient Iteration
computing hessian-vector products by finite difference
             11      9.53e-08     00000 Conjugate Gradient Iteration
computing hessian-vector products by finite difference
             12      1.23e-08     00000 Conjugate Gradient Iteration
computing hessian-vector products by finite difference
             13      2.45e-09     00000 CG Converged
batch 0 complete
Done Calculating Responses
TESTING ORTHOGONALIZATION OF MULTIPOLE BASIS
Multipole virts passed orthogonality test
Virts Per Order
           75
          125
 
 --------------------------------------------------------------
 
                    Orbital Energies (a.u.)
 --------------------------------------------------------------
 
 Alpha MOs
 -- Occupied --
-10.2824 -10.2742 -10.2740 -10.2709 -10.2707 -10.2706 -10.2625  -0.9967
 -0.9077  -0.8789  -0.8133  -0.7310  -0.7055  -0.6298  -0.5742  -0.5683
 -0.5365  -0.5307  -0.5140  -0.4883  -0.4728  -0.4428  -0.4409  -0.3492
 -0.3378
 -- Virtual --
  0.0618   0.0632   0.0680   0.0790   0.0844   0.1043   0.1102   0.1134
  0.1355   0.1530   0.1651   0.1698   0.1836   0.1900   0.1943   0.2000
  0.2221   0.2257   0.2331   0.2393   0.2482   0.2563   0.2592   0.2699
  0.2791   0.2821   0.2850   0.2906   0.2932   0.3000   0.3033   0.3115
  0.3208   0.3242   0.3299   0.3382   0.3494   0.3525   0.3653   0.3723
  0.3744   0.3811   0.3854   0.3886   0.3912   0.3992   0.4033   0.4045
  0.4127   0.4278   0.4297   0.4349   0.4401   0.4470   0.4505   0.4554
  0.4644   0.4701   0.4759   0.4816   0.4900   0.4961   0.5107   0.5145
  0.5161   0.5237   0.5325   0.5385   0.5440   0.5484   0.5517   0.5662
  0.5756   0.5826   0.5909   0.5954   0.5992   0.6212   0.6361   0.6415
  0.6655   0.6738   0.6810   0.6834   0.6913   0.7010   0.7184   0.7224
  0.7279   0.7306   0.7440   0.7597   0.7633   0.7655   0.7741   0.7837
  0.7900   0.7921   0.7985   0.8002   0.8066   0.8223   0.8259   0.8295
  0.8327   0.8353   0.8471   0.8556   0.8590   0.8669   0.8860   0.8923
  0.9118   0.9230   0.9339   0.9465   0.9509   1.0040   1.0267   1.0395
  1.0456   1.0610   1.0687   1.0727   1.0909   1.0938   1.1008   1.1409
  1.1619   1.1735   1.2571   1.2732   1.2932   1.3247   1.3497   1.3528
  1.3747   1.4365   1.4494   1.4579   1.4606   1.4781   1.5257   1.5343
  1.6018   1.6073   1.6181   1.6250   1.6551   1.6753   1.7336   1.7723
  1.7840   1.7949   1.8014   1.8126   1.8299   1.8605   1.8839   1.9095
  1.9156   1.9235   1.9361   1.9662   1.9870   1.9919   2.0121   2.0232
  2.0340   2.0442   2.0656   2.0881   2.1066   2.1215   2.1727   2.1827
  2.1962   2.2330   2.2452   2.2688   2.2896   2.3095   2.3837   2.3985
  2.4025   2.4159   2.4734   2.5123   2.5402   2.5509   2.5626   2.6019
  2.6120   2.6372   2.6642   2.6732   2.6952   2.7077   2.7552   2.7708
  2.7813   2.8089   2.8129   2.8426   2.8579   2.8964   2.9088   2.9159
  2.9306   2.9355   2.9703   2.9753   2.9903   3.0157   3.0193   3.0492
  3.0609   3.0849   3.0963   3.1312   3.1713   3.1894   3.2005   3.2187
  3.2272   3.2462   3.2847   3.2875   3.3395   3.3578   3.3638   3.3773
  3.4040   3.4351   3.4446   3.4489   3.4574   3.4747   3.4826   3.4973
  3.5052   3.5311   3.5399   3.5424   3.5505   3.5689   3.5763   3.6010
  3.6195   3.6278   3.6553   3.6896   3.7101   3.7457   3.7707   3.8083
  3.8497   3.8975   3.9151   3.9494   3.9590   3.9893   4.0303   4.0510
  4.1195   4.2039   4.2639   4.2707   4.2838   4.3070   4.3229   4.3338
  4.3465   4.3635   4.3795   4.3964   4.4221   4.4430   4.4853   4.5304
  4.5964   4.6166   4.7506   4.7799   4.8168   4.8662   4.9057   4.9441
  5.0182   5.0443   5.1645   5.2608   5.3610   5.3777   5.4975   5.5309
  5.6633   5.8461  22.5806  22.6767  22.8818  22.8919  22.9989  23.0664
 23.4102
 --------------------------------------------------------------
 
          Ground-State Mulliken Net Atomic Charges

     Atom                 Charge (a.u.)
  ----------------------------------------
      1 C                    -1.019864
      2 C                    -0.466122
      3 C                    -0.488155
      4 C                    -0.521238
      5 C                    -0.317016
      6 C                    -0.403591
      7 C                     0.879383
      8 H                     0.332911
      9 H                     0.316961
     10 H                     0.309164
     11 H                     0.339961
     12 H                     0.296385
     13 H                     0.273586
     14 H                     0.250005
     15 H                     0.217629
  ----------------------------------------
  Sum of atomic charges =     0.000000

 -----------------------------------------------------------------
                    Cartesian Multipole Moments
 -----------------------------------------------------------------
    Charge (ESU x 10^10)
                 0.0000
    Dipole Moment (Debye)
         X      -0.4319      Y      -0.1276      Z      -0.1786
       Tot       0.4845
    Quadrupole Moments (Debye-Ang)
        XX     -36.5635     XY       1.0606     YY     -43.0018
        XZ       0.2164     YZ       4.1641     ZZ     -41.1995
    Octopole Moments (Debye-Ang^2)
       XXX     211.8199    XXY      53.7783    XYY      76.4593
       YYY     189.0122    XXZ      -2.8830    XYZ      -5.0947
       YYZ     -14.8331    XZZ      75.2023    YZZ      63.2747
       ZZZ     -10.9503
    Hexadecapole Moments (Debye-Ang^3)
      XXXX   -1358.6735   XXXY    -357.3175   XXYY    -349.6929
      XYYY    -378.4754   YYYY    -732.6392   XXXZ     -28.2122
      XXYZ      -8.6463   XYYZ       7.8907   YYYZ     -29.7527
      XXZZ    -269.0562   XYZZ    -129.7744   YYZZ    -158.5539
      XZZZ     -18.0256   YZZZ     -45.8467   ZZZZ    -244.7157
 -----------------------------------------------------------------
Archival summary:
1\1\nid00557\SP\ProcedureUnspecified\BasisUnspecified\78\meili\SunSep2623:25:272021SunSep2623:25:272021\0\\#,ProcedureUnspecified,BasisUnspecified,\\0,1\C\C,1,1.39456\H,2,1.08171,1,120.149\C,1,1.39648,2,119.385,3,179.527,0\H,4,1.0816,1,120.06,2,-179.206,0\C,4,1.3946,1,120.404,2,0.657004,0\H,6,1.07837,4,120.374,1,-179.249,0\C,6,1.39363,4,119.908,1,-0.131355,0\H,8,1.08085,6,119.914,4,179.085,0\C,8,1.39334,6,120.021,4,-0.529521,0\H,10,1.08249,8,119.962,6,-179.893,0\C,1,1.5009,2,120.343,3,0.886673,0\H,12,1.09076,1,107.651,2,-134.253,0\H,12,1.09183,1,109.697,2,-17.3143,0\H,12,1.1,1,113.241,2,104.955,0\\\@

 Total job time:  29149.57s(wall), 57753.71s(cpu) 
 Sun Sep 26 23:25:28 2021

        *************************************************************
        *                                                           *
        *  Thank you very much for using Q-Chem.  Have a nice day.  *
        *                                                           *
        *************************************************************


Done Job For Fragment 1
calling putenv with: QCSCRATCH=/global/cscratch1/sd/meili 
calling putenv with: QCLOCALSCR=/tmp 
calling putenv with: QCTHREADS=32 
Doing General SCFMI
 Exchange:     0.1670 Hartree-Fock + 1.0000 wB97X-V + LR-HF
 Correlation:  1.0000 wB97X-V
 Using Euler-Maclaurin-Lebedev (99,590) quadrature formula
 Nonlocal Correlation:  VV10 with C = 0.0100 and b = 6.00 and scale = 1.00000
 Grid used for NLC:  SG-1 standard quadrature
performing fock build before subrot guess so that all methods have access
Printing subrot_rss_gen Method Specification:
Occupied Subspace Method is 0
Virtual Subspace Method is 0
Energy of the unrelaxed supersystem initial determinant -539.441134922746
performing fock build before subrot guess so that all methods have access
Printing subrot_rss_gen Method Specification:
Occupied Subspace Method is 0
Virtual Subspace Method is 0
Energy of the unrelaxed supersystem initial determinant w/ solvent -539.542389982692
write pseudocanon occs and virts to disk
write pseudocanon orbital energies to disk
Tolerance of ortho_decomp_scf: 1.00e-06
GDM subspace size: 20
Beginning the Orthogonal Decomposition of the Initial Supersystem Wavefunction
    1    -539.4218534101      2.34e-02     ortho_decomp Preconditoned Steepest Descent
    2    -539.4238961566      7.16e-04     ortho_decomp BFGS Step
    3    -539.4239048570      4.85e-05     ortho_decomp BFGS Step
    4    -539.4239048673      1.95e-06     ortho_decomp BFGS Step
    5    -539.4239048673      7.03e-08     ortho_decomp 00000 Convergence criterion met
 Hartree-Fock
 Hartree-Fock
 Hartree-Fock
Doing General SCFMI
 Exchange:     0.1670 Hartree-Fock + 1.0000 wB97X-V + LR-HF
 Correlation:  1.0000 wB97X-V
 Using Euler-Maclaurin-Lebedev (99,590) quadrature formula
 Nonlocal Correlation:  VV10 with C = 0.0100 and b = 6.00 and scale = 1.00000
 Grid used for NLC:  SG-1 standard quadrature
performing fock build at end of subrot_r(subrot) constructor so that all methods have access
<S^2> of initial wavefunction before polarization iterations 0.0000000000
Beginning iterations for the determination of the polarized wavefunction
Energy prior to optimization (guess energy) = -539.542389982692
Begin Timing: Total SCF Calculation
begin iterations for algorithm: DIIS         
the SCF tolerance is set to 1.00e-08
    1    -539.5423899827      5.35e-05     00000 
    2    -539.5426151167      2.75e-05     00000 
    3    -539.5426460126      1.42e-05     00000 
    4    -539.5426556584      5.24e-06     00000 
    5    -539.5426568528      2.52e-06     00000 
    6    -539.5426571819      8.70e-07     00000 
    7    -539.5426572298      4.21e-07     00000 
    8    -539.5426572393      1.53e-07     00000 
    9    -539.5426572403      6.41e-08     00000 
   10    -539.5426572404      3.03e-08     00000 
   11    -539.5426572404      1.22e-08     00000 
   12    -539.5426572404      5.83e-09     00000 Convergence criterion met
write pseudocanon occs and virts to disk
write pseudocanon orbital energies to disk
Timing for Total SCF: 5884.00s (wall), 11711.82s (cpu)
<S^2> of polarized wavefunction after polarization iterations 0.0000000000
relaxing scfmi constraint to allow all rotations in the entire AO span
Doing General SCFMI
 Exchange:     0.1670 Hartree-Fock + 1.0000 wB97X-V + LR-HF
 Correlation:  1.0000 wB97X-V
 Using Euler-Maclaurin-Lebedev (99,590) quadrature formula
 Nonlocal Correlation:  VV10 with C = 0.0100 and b = 6.00 and scale = 1.00000
 Grid used for NLC:  SG-1 standard quadrature
performing fock build at end of subrot_r(subrot) constructor so that all methods have access
<S^2> of polarized wavefunction before ct-allowed iterations 0.0000000000
Beginning iterations for the determination of the CT-Allowed wavefunction
Energy prior to optimization (guess energy) = -539.542657240443
Begin Timing: Total SCF Calculation
begin iterations for algorithm: DIIS         
the SCF tolerance is set to 1.00e-08
    1    -539.5426572404      6.69e-05     00000 
    2    -539.5433117934      6.83e-06     00000 
    3    -539.5433318088      1.68e-06     00000 
    4    -539.5433323461      1.81e-06     00000 
    5    -539.5433327139      2.01e-07     00000 
    6    -539.5433327239      1.33e-07     00000 
    7    -539.5433327271      3.19e-08     00000 
    8    -539.5433327274      1.19e-08     00000 
    9    -539.5433327274      2.68e-09     00000 Convergence criterion met
write pseudocanon occs and virts to disk
write pseudocanon orbital energies to disk
Timing for Total SCF: 4316.00s (wall), 8590.16s (cpu)
<S^2> of ct_allowed wavefunction after ct-allowed iterations 0.0000000000

================================
        Results of EDA2         
================================
Basic EDA Quantities
--------------------
Fragment Energies (Ha):
1 -267.9586361858
2 -271.5817655133
--------------------
  E_prp (kJ/mol) = -0.0000
  E_sol (kJ/mol) = 4.5626
  E_frz (kJ/mol) = -9.7829
  E_pol (kJ/mol) = -0.7017
  E_vct (kJ/mol) = -1.7735
  E_int (kJ/mol) = -7.6955
--------------------


Initial Wavefunction Decomposition
--------------------
  --------------------
  Orthogonal Fragment Subspace Decomposition:
  --------------------
     E_elec   (ELEC)   (kJ/mol) = -23.0897
     E_pauli  (PAULI)  (kJ/mol) = 27.2698
     E_disp   (DISP)   (kJ/mol) = -13.9630
     --------------------
     Terms summing to E_pauli:
     --------------------
        E_kep_pauli       (kJ/mol) = 35.4552
        E_disp_free_pauli (kJ/mol) = -8.1854
  --------------------
  Classical Frozen Decomposition:
  --------------------
     E_cls_elec  (CLS ELEC)  (kJ/mol) = -9.6322
     E_cls_pauli (CLS PAULI) (kJ/mol) = -0.1507
    [E_mod_pauli (MOD PAULI) (kJ/mol) = 13.8123 (CLS PAULI - DISP from orthogonal decomposition) ]
  --------------------
--------------------

Simplified EDA Summary (kJ/mol)
--------------------
 PREPARATION     -0.0000
 SOLVATION       4.5626
 FROZEN          4.1801      (does not include dispersion)
[PAULI           27.2698]     (if this is negligible, then frozen describes electrostatics)
 DISPERSION      -13.9630
 POLARIZATION    -0.7017
 CHARGE TRANSFER -1.7735
 TOTAL           -7.6955     (PRP + SOL + FRZ + DISP + POL + CT)
--------------------
 
 --------------------------------------------------------------
 
                    Orbital Energies (a.u.)
 --------------------------------------------------------------
 
 Alpha MOs
 -- Occupied --
-19.1223 -19.1223 -10.3225 -10.2793 -10.2703 -10.2701 -10.2679 -10.2678
-10.2645 -10.2609 -10.2444 -10.2408  -1.1289  -1.0300  -0.9933  -0.9043
 -0.8797  -0.8757  -0.8102  -0.7405  -0.7277  -0.7021  -0.6259  -0.5950
 -0.5709  -0.5652  -0.5503  -0.5346  -0.5332  -0.5276  -0.5120  -0.4997
 -0.4862  -0.4820  -0.4701  -0.4640  -0.4395  -0.4376  -0.4346  -0.4239
 -0.3463  -0.3336  -0.3283  -0.3213  -0.3091
 -- Virtual --
  0.0577   0.0635   0.0698   0.0714   0.0784   0.0848   0.0887   0.0973
  0.1079   0.1112   0.1153   0.1217   0.1298   0.1334   0.1476   0.1504
  0.1524   0.1551   0.1658   0.1700   0.1760   0.1809   0.1857   0.1947
  0.1994   0.2048   0.2057   0.2117   0.2192   0.2270   0.2290   0.2347
  0.2368   0.2432   0.2511   0.2541   0.2605   0.2616   0.2620   0.2727
  0.2783   0.2822   0.2832   0.2887   0.2949   0.2989   0.3023   0.3033
  0.3087   0.3129   0.3185   0.3226   0.3276   0.3312   0.3383   0.3443
  0.3483   0.3505   0.3540   0.3579   0.3644   0.3681   0.3687   0.3750
  0.3762   0.3782   0.3837   0.3856   0.3860   0.3926   0.3948   0.3966
  0.4025   0.4071   0.4087   0.4164   0.4194   0.4201   0.4246   0.4276
  0.4314   0.4372   0.4393   0.4401   0.4507   0.4559   0.4577   0.4651
  0.4666   0.4679   0.4719   0.4773   0.4847   0.4867   0.4941   0.4973
  0.5013   0.5034   0.5045   0.5096   0.5180   0.5232   0.5237   0.5281
  0.5310   0.5333   0.5360   0.5425   0.5461   0.5513   0.5580   0.5604
  0.5646   0.5686   0.5758   0.5788   0.5858   0.5919   0.5966   0.6026
  0.6114   0.6161   0.6200   0.6261   0.6357   0.6382   0.6437   0.6544
  0.6589   0.6660   0.6716   0.6792   0.6806   0.6848   0.6936   0.7014
  0.7075   0.7116   0.7182   0.7222   0.7256   0.7333   0.7395   0.7434
  0.7498   0.7504   0.7527   0.7614   0.7672   0.7750   0.7756   0.7774
  0.7817   0.7915   0.7929   0.7969   0.7984   0.8011   0.8050   0.8071
  0.8087   0.8152   0.8207   0.8289   0.8298   0.8348   0.8398   0.8446
  0.8465   0.8571   0.8618   0.8649   0.8706   0.8758   0.8773   0.8832
  0.8878   0.8933   0.9027   0.9053   0.9066   0.9187   0.9328   0.9351
  0.9403   0.9500   0.9539   0.9601   0.9684   0.9796   0.9874   1.0053
  1.0107   1.0155   1.0325   1.0405   1.0455   1.0592   1.0646   1.0754
  1.0909   1.0930   1.1039   1.1105   1.1190   1.1238   1.1334   1.1612
  1.1657   1.1681   1.1788   1.1990   1.2180   1.2224   1.2392   1.2444
  1.2745   1.2823   1.2947   1.3161   1.3257   1.3456   1.3525   1.3616
  1.3662   1.3787   1.3925   1.3967   1.4220   1.4307   1.4423   1.4669
  1.4741   1.4779   1.4831   1.5003   1.5045   1.5311   1.5448   1.5582
  1.5674   1.5862   1.6188   1.6279   1.6305   1.6450   1.6576   1.6716
  1.6942   1.7016   1.7621   1.7727   1.7838   1.8017   1.8070   1.8190
  1.8482   1.8619   1.8807   1.9030   1.9137   1.9196   1.9294   1.9337
  1.9389   1.9529   1.9638   1.9658   1.9757   1.9868   1.9992   1.9999
  2.0053   2.0123   2.0277   2.0359   2.0474   2.0545   2.0598   2.0616
  2.0736   2.0781   2.0837   2.0987   2.1127   2.1168   2.1651   2.1700
  2.1850   2.2010   2.2074   2.2099   2.2420   2.2518   2.2579   2.2588
  2.2836   2.2964   2.3188   2.3305   2.3368   2.3426   2.3633   2.4038
  2.4070   2.4105   2.4315   2.4421   2.4457   2.4862   2.4997   2.5211
  2.5256   2.5340   2.5548   2.5675   2.5749   2.5879   2.5964   2.6132
  2.6203   2.6254   2.6376   2.6570   2.6775   2.6911   2.6996   2.7106
  2.7221   2.7369   2.7505   2.7636   2.7789   2.8019   2.8101   2.8128
  2.8232   2.8268   2.8475   2.8627   2.8674   2.8871   2.9106   2.9222
  2.9359   2.9416   2.9520   2.9549   2.9785   2.9847   2.9915   2.9999
  3.0131   3.0174   3.0262   3.0584   3.0680   3.0753   3.0850   3.1024
  3.1079   3.1339   3.1476   3.1838   3.2015   3.2134   3.2273   3.2316
  3.2466   3.2513   3.2689   3.2774   3.2950   3.2989   3.3148   3.3271
  3.3449   3.3562   3.3667   3.3735   3.3796   3.3955   3.4014   3.4147
  3.4226   3.4247   3.4514   3.4609   3.4710   3.4740   3.4822   3.4909
  3.5008   3.5104   3.5154   3.5241   3.5313   3.5451   3.5529   3.5618
  3.5673   3.5680   3.5803   3.5896   3.6021   3.6057   3.6119   3.6319
  3.6398   3.6492   3.6585   3.6794   3.6956   3.6993   3.7038   3.7232
  3.7266   3.7508   3.7746   3.7809   3.7925   3.8213   3.8303   3.8470
  3.8567   3.8690   3.9088   3.9226   3.9615   3.9673   3.9802   4.0011
  4.0507   4.0724   4.0934   4.1301   4.1373   4.1448   4.2298   4.2439
  4.2535   4.2749   4.2862   4.2988   4.3112   4.3168   4.3385   4.3449
  4.3609   4.3717   4.3930   4.4109   4.4364   4.4492   4.4610   4.4953
  4.5488   4.5638   4.6002   4.6103   4.6255   4.7023   4.7580   4.7673
  4.7886   4.8042   4.8218   4.8709   4.8767   4.9116   4.9348   4.9732
  5.0418   5.0520   5.0699   5.1321   5.1774   5.2785   5.3443   5.3733
  5.3780   5.3797   5.3852   5.3952   5.5034   5.5170   5.5328   5.6836
  5.7303   5.7694   5.8167   5.8224   6.0233   6.2680   6.3479   6.3706
  6.6370   6.6584   6.7542   6.7903   6.8037   6.9824   7.0263   7.0788
  7.2673   7.3815   7.4005   7.4360  22.6252  22.6431  22.6850  22.8408
 22.9090  22.9444  23.0163  23.0840  23.4290  23.7787  44.4345  44.4881
 --------------------------------------------------------------
 
          Ground-State Mulliken Net Atomic Charges

     Atom                 Charge (a.u.)
  ----------------------------------------
      1 C                     0.425359
      2 C                    -0.900791
      3 C                     0.203656
      4 O                    -0.716471
      5 O                    -0.719893
      6 H                     0.119341
      7 H                    -0.007202
      8 H                     0.186318
      9 H                     0.211375
     10 H                     0.226916
     11 C                    -1.091321
     12 C                    -0.380111
     13 C                    -0.451681
     14 C                    -0.452988
     15 C                    -0.309700
     16 C                    -0.331840
     17 C                     0.612153
     18 H                     0.312066
     19 H                     0.321250
     20 H                     0.318828
     21 H                     0.356249
     22 H                     0.322229
     23 H                     0.267715
     24 H                     0.262793
     25 H                     0.215749
  ----------------------------------------
  Sum of atomic charges =    -1.000000

 -----------------------------------------------------------------
                    Cartesian Multipole Moments
 -----------------------------------------------------------------
    Charge (ESU x 10^10)
                -4.8032
    Dipole Moment (Debye)
         X     -15.9434      Y      -4.4600      Z      -1.9237
       Tot      16.6668
    Quadrupole Moments (Debye-Ang)
        XX    -121.4132     XY     -13.6644     YY     -81.0167
        XZ      -3.2062     YZ       2.3940     ZZ     -84.7147
    Octopole Moments (Debye-Ang^2)
       XXX    -173.9331    XXY     -54.6972    XYY      -9.6924
       YYY      -8.6327    XXZ      -3.3310    XYZ      -8.5093
       YYZ      -8.3444    XZZ     -27.2948    YZZ     -13.1295
       ZZZ      -3.1887
    Hexadecapole Moments (Debye-Ang^3)
      XXXX   -3075.0231   XXXY    -877.1829   XXYY    -742.6284
      XYYY    -763.6159   YYYY   -1728.3930   XXXZ     -16.6640
      XXYZ      10.9718   XYYZ      14.5999   YYYZ      66.0168
      XXZZ    -584.3269   XYZZ    -289.0418   YYZZ    -378.6840
      XZZZ     -24.3044   YZZZ      27.8382   ZZZZ    -487.0351
 -----------------------------------------------------------------
Archival summary:
1\1\nid00557\SP\ProcedureUnspecified\BasisUnspecified\21013(1-,1)\meili\MonSep2704:24:162021MonSep2704:24:162021\0\\#,ProcedureUnspecified,BasisUnspecified,\\-1,1\O\C,1,1.25666\O,2,1.25512,1,123.503\C,2,1.52617,1,118.094,3,179.359,0\H,4,1.09018,2,108.854,1,-106.394,0\H,4,1.09163,2,109.74,1,11.3737,0\C,4,1.52969,2,112.599,1,133.328,0\H,7,1.09046,4,108.383,2,59.2845,0\H,7,1.1,4,110.491,2,-60.0927,0\H,7,1.1,4,110.007,2,178.321,0\H,1,2.69232,2,82.0473,3,-99.1486,0\C,11,1.08085,1,149.755,2,-54.7648,0\C,12,1.39334,11,120.064,1,-62.3559,0\H,13,1.08249,12,119.962,11,0.493423,0\C,12,1.39363,11,119.914,1,118.03,0\H,15,1.07837,12,119.713,11,-1.79201,0\C,15,1.3946,12,119.908,11,179.085,0\H,17,1.0816,15,119.536,12,179.732,0\C,17,1.39648,15,120.404,12,-0.131355,0\C,19,1.39456,17,119.385,15,0.657004,0\H,20,1.08171,19,120.149,17,179.527,0\C,19,1.5009,17,120.257,15,179.299,0\H,22,1.09076,19,107.651,17,47.1184,0\H,22,1.09183,19,109.697,17,164.057,0\H,22,1.1,19,113.241,17,-73.6734,0\\\@

 Total job time:  57538.80s(wall), 35698.94s(cpu) 
 Mon Sep 27 04:24:17 2021

        *************************************************************
        *                                                           *
        *  Thank you very much for using Q-Chem.  Have a nice day.  *
        *                                                           *
        *************************************************************


