                  Welcome to Q-Chem
     A Quantum Leap Into The Future Of Chemistry


 Q-Chem 5.2 (devel), Q-Chem, Inc., Pleasanton, CA (2019)

 Yihan Shao,  Zhengting Gan,  E. Epifanovsky,  A. T. B. Gilbert,  M. Wormit,  
 J. Kussmann,  A. W. Lange,  A. Behn,  Jia Deng,  Xintian Feng,  D. Ghosh,  
 M. Goldey,  P. R. Horn,  L. D. Jacobson,  I. Kaliman,  T. Kus,  A. Landau,  
 Jie Liu,  E. I. Proynov,  R. M. Richard,  R. P. Steele,  E. J. Sundstrom,  
 H. L. Woodcock III,  P. M. Zimmerman,  D. Zuev,  B. Albrecht,  E. Alguire,  
 S. A. Baeppler,  D. Barton,  Z. Benda,  Y. A. Bernard,  E. J. Berquist,  
 K. B. Bravaya,  H. Burton,  D. Casanova,  Chun-Min Chang,  Yunqing Chen,  
 A. Chien,  K. D. Closser,  M. P. Coons,  S. Coriani,  S. Dasgupta,  
 A. L. Dempwolff,  M. Diedenhofen,  Hainam Do,  R. G. Edgar,  Po-Tung Fang,  
 S. Faraji,  S. Fatehi,  Qingguo Feng,  K. D. Fenk,  J. Fosso-Tande,  
 J. Gayvert,  Qinghui Ge,  A. Ghysels,  G. Gidofalvi,  J. Gomes,  
 J. Gonthier,  A. Gunina,  D. Hait,  M. W. D. Hanson-Heine,  
 P. H. P. Harbach,  A. W. Hauser,  M. F. Herbst,  J. E. Herr,  
 E. G. Hohenstein,  Z. C. Holden,  Kerwin Hui,  B. C. Huynh,  T.-C. Jagau,  
 Hyunjun Ji,  B. Kaduk,  K. Khistyaev,  Jaehoon Kim,  P. Klunzinger,  K. Koh,  
 D. Kosenkov,  L. Koulias,  T. Kowalczyk,  C. M. Krauter,  A. Kunitsa,  
 Ka Un Lao,  A. Laurent,  K. V. Lawler,  Joonho Lee,  D. Lefrancois,  
 S. Lehtola,  D. S. Levine,  Yi-Pei Li,  You-Sheng Lin,  Fenglai Liu,  
 E. Livshits,  A. Luenser,  P. Manohar,  E. Mansoor,  S. F. Manzer,  
 Shan-Ping Mao,  Yuezhi Mao,  N. Mardirossian,  A. V. Marenich,  
 T. Markovich,  L. A. Martinez-Martinez,  S. A. Maurer,  N. J. Mayhall,  
 S. C. McKenzie,  J.-M. Mewes,  P. Morgante,  A. F. Morrison,  
 J. W. Mullinax,  K. Nanda,  T. S. Nguyen-Beck,  R. Olivares-Amaya,  
 J. A. Parkhill,  Zheng Pei,  T. M. Perrine,  F. Plasser,  P. Pokhilko,  
 S. Prager,  A. Prociuk,  E. Ramos,  D. R. Rehn,  F. Rob,  M. Scheurer,  
 M. Schneider,  N. Sergueev,  S. M. Sharada,  S. Sharma,  D. W. Small,  
 T. Stauch,  T. Stein,  Yu-Chuan Su,  A. J. W. Thom,  A. Tkatchenko,  
 T. Tsuchimochi,  N. M. Tubman,  L. Vogt,  M. L. Vidal,  O. Vydrov,  
 M. A. Watson,  J. Wenzel,  M. de Wergifosse,  T. A. Wesolowski,  A. White,  
 J. Witte,  A. Yamada,  Jun Yang,  K. Yao,  S. Yeganeh,  S. R. Yost,  
 Zhi-Qiang You,  A. Zech,  Igor Ying Zhang,  Xing Zhang,  Yan Zhao,  
 Ying Zhu,  B. R. Brooks,  G. K. L. Chan,  C. J. Cramer,  M. S. Gordon,  
 W. J. Hehre,  A. Klamt,  M. W. Schmidt,  C. D. Sherrill,  D. G. Truhlar,  
 A. Aspuru-Guzik,  R. Baer,  A. T. Bell,  N. A. Besley,  Jeng-Da Chai,  
 A. E. DePrince, III,  R. A. DiStasio Jr.,  A. Dreuw,  B. D. Dunietz,  
 T. R. Furlani,  Chao-Ping Hsu,  Yousung Jung,  Jing Kong,  D. S. Lambrecht,  
 WanZhen Liang,  C. Ochsenfeld,  V. A. Rassolov,  L. V. Slipchenko,  
 J. E. Subotnik,  T. Van Voorhis,  J. M. Herbert,  A. I. Krylov,  
 P. M. W. Gill,  M. Head-Gordon

 Contributors to earlier versions of Q-Chem not listed above: 
 R. D. Adamson,  B. Austin,  J. Baker,  G. J. O. Beran,  K. Brandhorst,  
 S. T. Brown,  E. F. C. Byrd,  A. K. Chakraborty,  C.-L. Cheng,  
 Siu Hung Chien,  D. M. Chipman,  D. L. Crittenden,  H. Dachsel,  
 R. J. Doerksen,  A. D. Dutoi,  L. Fusti-Molnar,  W. A. Goddard III,  
 A. Golubeva-Zadorozhnaya,  S. R. Gwaltney,  G. Hawkins,  A. Heyden,  
 S. Hirata,  G. Kedziora,  F. J. Keil,  C. Kelley,  Jihan Kim,  R. A. King,  
 R. Z. Khaliullin,  P. P. Korambath,  W. Kurlancheek,  A. M. Lee,  M. S. Lee,  
 S. V. Levchenko,  Ching Yeh Lin,  D. Liotard,  R. C. Lochan,  I. Lotan,  
 P. E. Maslen,  N. Nair,  D. P. O'Neill,  D. Neuhauser,  E. Neuscamman,  
 C. M. Oana,  R. Olson,  B. Peters,  R. Peverati,  P. A. Pieniazek,  
 Y. M. Rhee,  J. Ritchie,  M. A. Rohrdanz,  E. Rosta,  N. J. Russ,  
 H. F. Schaefer III,  N. E. Schultz,  N. Shenvi,  A. C. Simmonett,  A. Sodt,  
 D. Stuck,  K. S. Thanthiriwatte,  V. Vanovschi,  Tao Wang,  A. Warshel,  
 C. F. Williams,  Q. Wu,  X. Xu,  W. Zhang

 Please cite Q-Chem as follows:
 Y. Shao et al., Mol. Phys. 113, 184-215 (2015)
 DOI: 10.1080/00268976.2014.952696

 Q-Chem 5.2.1 for Intel X86 EM64T Linux

 Parts of Q-Chem use Armadillo 8.300.2 (Tropical Shenanigans).
 http://arma.sourceforge.net/

 Q-Chem begins on Thu Sep 30 01:46:46 2021  

compute-0-7.local
Host: 0

     Scratch files written to /home/meili/scratch/qchem52881//
NAlpha2: 130
NElect   130
Mult     1
Symmetry turned off for PCM/SM12/SMD calculation

 Q-Chem warning in module libgen/rem_setup.C, line 2813:

 Neither GIA nor STOLL is specified by user. Use STOLL as the default


Checking the input file for inconsistencies... 	...done.

--------------------------------------------------------------
User input:
--------------------------------------------------------------
$comment
SSI-113TRP-124HIE-1.pdb
$end

$molecule
0 1
--
0 1
C   -2.282364501326    0.957177816274   -1.907388098505
C   -3.091364501326    0.038177816274   -2.791388098505
C   -2.348364501326    0.697177816274   -0.432388098505
C   -2.922364501326    1.516177816274    0.480611901495
C   -1.708364501326   -0.368822183726    0.325611901495
C   -1.926364501326   -0.087822183726    1.703611901495
C   -0.958364501326   -1.516822183726   -0.013388098505
C   -1.437364501326   -0.906822183726    2.713611901495
C   -0.470364501326   -2.349822183726    1.013611901495
C   -0.712364501326   -2.035822183726    2.358611901495
N   -2.671364501326    1.068177816274    1.762611901495
H   -1.257364501326    0.941177816274   -2.248388098505
H   -2.637364501326    1.978177816274   -2.057388098505
H   -4.078364501326   -0.097822183726   -2.354388098505
H   -3.448364501326    2.424177816274    0.224611901495
H   -2.872364501326    1.606177816274    2.608611901495
H   -0.749364501326   -1.753822183726   -1.043388098505
H   -1.645364501326   -0.679822183726    3.749611901495
H    0.099635498674   -3.231822183726    0.757611901495
H   -0.331364501326   -2.687822183726    3.131611901495
H   -2.580524501326   -0.925052183726   -2.937125098505
H   -3.190264501326    0.544227816274   -3.763055098505
--
0 1
C    1.527635498674    1.120177816274   -1.634388098505
C    1.739635498674    0.653177816274   -3.105388098505
C    2.532635498674    0.565177816274   -0.642388098505
C    2.329635498674   -0.166822183726    0.488611901495
C    4.499635498674    0.137177816274    0.254611901495
N    3.902635498674    0.743177816274   -0.777388098505
N    3.575635498674   -0.422822183726    1.031611901495
H    1.599635498674    2.201177816274   -1.604388098505
H    0.546635498674    0.833177816274   -1.276388098505
H    2.760635498674    0.869177816274   -3.418388098505
H    1.374635498674   -0.460822183726    0.894611901495
H    5.557635498674    0.127177816274    0.445611901495
H    3.743635498674   -0.908822183726    1.913611901495
H    1.015135498674    1.176177816274   -3.746920098505
H    1.558745498674   -0.430692183726   -3.155513098505
$end

$rem
JOBTYPE			EDA
EDA2			1
method			wB97X-V
BASIS			def2-TZVPD
XC_GRID			000099000590
NL_GRID			1
UNRESTRICTED		FALSE
MAX_SCF_CYCLES		200
SYMMETRY		FALSE
SYM_IGNORE		TRUE
MEM_STATIC		2000
BASIS_LIN_DEP_THRESH 	6
THRESH 			14
SCF_CONVERGENCE 	8
SCF_PRINT_FRGM 		TRUE
SOLVENT_METHOD          PCM
$end

$PCM
THEORY                  CPCM
METHOD                  SWIG
SOLVER                  INVERSION
RADII                   UFF
HPOINTS                 302
HEAVYPOINTS             302
PRINTLEVEL              0
$END

$SOLVENT
DIELECTRIC              78.390000 ! water
$END
--------------------------------------------------------------
 ----------------------------------------------------------------
             Standard Nuclear Orientation (Angstroms)
    I     Atom           X                Y                Z
 ----------------------------------------------------------------
    1      C      -2.2823645013     0.9571778163    -1.9073880985
    2      C      -3.0913645013     0.0381778163    -2.7913880985
    3      C      -2.3483645013     0.6971778163    -0.4323880985
    4      C      -2.9223645013     1.5161778163     0.4806119015
    5      C      -1.7083645013    -0.3688221837     0.3256119015
    6      C      -1.9263645013    -0.0878221837     1.7036119015
    7      C      -0.9583645013    -1.5168221837    -0.0133880985
    8      C      -1.4373645013    -0.9068221837     2.7136119015
    9      C      -0.4703645013    -2.3498221837     1.0136119015
   10      C      -0.7123645013    -2.0358221837     2.3586119015
   11      N      -2.6713645013     1.0681778163     1.7626119015
   12      H      -1.2573645013     0.9411778163    -2.2483880985
   13      H      -2.6373645013     1.9781778163    -2.0573880985
   14      H      -4.0783645013    -0.0978221837    -2.3543880985
   15      H      -3.4483645013     2.4241778163     0.2246119015
   16      H      -2.8723645013     1.6061778163     2.6086119015
   17      H      -0.7493645013    -1.7538221837    -1.0433880985
   18      H      -1.6453645013    -0.6798221837     3.7496119015
   19      H       0.0996354987    -3.2318221837     0.7576119015
   20      H      -0.3313645013    -2.6878221837     3.1316119015
   21      H      -2.5805245013    -0.9250521837    -2.9371250985
   22      H      -3.1902645013     0.5442278163    -3.7630550985
   23      C       1.5276354987     1.1201778163    -1.6343880985
   24      C       1.7396354987     0.6531778163    -3.1053880985
   25      C       2.5326354987     0.5651778163    -0.6423880985
   26      C       2.3296354987    -0.1668221837     0.4886119015
   27      C       4.4996354987     0.1371778163     0.2546119015
   28      N       3.9026354987     0.7431778163    -0.7773880985
   29      N       3.5756354987    -0.4228221837     1.0316119015
   30      H       1.5996354987     2.2011778163    -1.6043880985
   31      H       0.5466354987     0.8331778163    -1.2763880985
   32      H       2.7606354987     0.8691778163    -3.4183880985
   33      H       1.3746354987    -0.4608221837     0.8946119015
   34      H       5.5576354987     0.1271778163     0.4456119015
   35      H       3.7436354987    -0.9088221837     1.9136119015
   36      H       1.0151354987     1.1761778163    -3.7469200985
   37      H       1.5587454987    -0.4306921837    -3.1555130985
 ----------------------------------------------------------------
 Nuclear Repulsion Energy =        1255.94685620 hartrees
 There are       65 alpha and       65 beta electrons
 Requested basis set is def2-TZVPD
 There are 329 shells and 837 basis functions

 Total QAlloc Memory Limit   2000 MB
 Mega-Array Size      1956 MB
 MEM_STATIC part      2000 MB
 Discretize the solute cavity surface with Lebedev spheres
	Using 302 Lebedev grid points for each H atom
	Using 302 Lebedev grid points for other atoms
	Atomic van der Waals radii will be scaled by 1.20
 Remove points where switching function is < 1.0e-08
 Keep 3832 surface tesserae and discard 7342 interior tesserae
 Molecular Surface Area = 368.784 Angst**2
 A cutoff of  1.0D-14 yielded  45885 shell pairs
 There are    297205 function pairs (    375578 Cartesian)
 Smallest overlap matrix eigenvalue = 3.73E-07
 Linear dependence detected in AO basis
 Tighter screening thresholds may be required for diffuse basis sets
 Use S2THRESH > 14 and THRESH = 14 in case of SCF convergence issues
 Number of orthogonalized atomic orbitals = 831
 Maximum deviation from orthogonality = 3.334E-10

 Scale SEOQF with 1.000000e-02/1.000000e-01/1.000000e-01

 Standard Electronic Orientation quadrupole field applied
 Nucleus-field energy     =    -0.0000000277 hartrees

 -----------------------------------------------------------------------
  General SCF calculation program by
  Eric Jon Sundstrom, Paul Horn, Yuezhi Mao, Dmitri Zuev, Alec White,
  David Stuck, Shaama M.S., Shane Yost, Joonho Lee, David Small,
  Daniel Levine, Susi Lehtola, Hugh Burton, Evgeny Epifanovsky,
  Bang C. Huynh
 -----------------------------------------------------------------------
================================================================
                 ALMO-EDA with the EDA2 driver                  
================================================================
 The second-generation ALMO-EDA (for DFT):                      
 P. R. Horn, Y. Mao and M. Head-Gordon, PCCP, 18, 23067 (2016)  
 Decomposition of the frozen energy:                            
 P. R. Horn, Y. Mao and M. Head-Gordon, JCP, 144, 114107 (2016) 
 FERF model for polarization:                                   
 P. R. Horn and M. Head-Gordon, JCP, 143, 114111 (2015)         
Using eda2 option set 1
Option set summary: Frozen orbital wavefunction, initial wavefunction decomposition, and nDQ polarization.
--------------------------------
Printing EDA Options
--------------------------------
eda_child_super_basis      0
fragmo_guess_mode          0
child_mp                   1
child_mp_orders            232
cls_elec                   1
cls_disp                   0
scfmi_mode                 1
scfmi_occs                 0
scfmi_virts                0
frz_relax                  0
frz_relax_method           0
dc_pen_start               0
dc_pen_conv                0
dc_pen_increment           0
dc_pen_steps               0
dc_pen_thresh_factor       0
dc_pen_pre_newton_thresh   0
frz_ortho_decomp           1
frz_ortho_decomp_conv      6
frgm_method                2
scfmi_freeze_ss            0
separate_rehyb             0
plot_diff_den              0
eda_nocv                   0
eda_vct_relax              1
disp_free_x                0
disp_free_c                0
eda_bsse                   0
eda_pct_a                  0
eda_covp                   0
--------------------------------
Attempting to make child job directory: /home/meili/scratch/qchem52881//Frg1/
Attempting to make child job directory: /home/meili/scratch/qchem52881//Frg2/
Creating input file /home/meili/scratch/qchem52881/Frg1.input
using default PutDataFrgm: nothing
calling putenv with: QCSCRATCH=/home/meili/scratch/qchem52881/ 
Spawning Job For Fragment 0
                  Welcome to Q-Chem
     A Quantum Leap Into The Future Of Chemistry


 Q-Chem 5.2 (devel), Q-Chem, Inc., Pleasanton, CA (2019)

 Yihan Shao,  Zhengting Gan,  E. Epifanovsky,  A. T. B. Gilbert,  M. Wormit,  
 J. Kussmann,  A. W. Lange,  A. Behn,  Jia Deng,  Xintian Feng,  D. Ghosh,  
 M. Goldey,  P. R. Horn,  L. D. Jacobson,  I. Kaliman,  T. Kus,  A. Landau,  
 Jie Liu,  E. I. Proynov,  R. M. Richard,  R. P. Steele,  E. J. Sundstrom,  
 H. L. Woodcock III,  P. M. Zimmerman,  D. Zuev,  B. Albrecht,  E. Alguire,  
 S. A. Baeppler,  D. Barton,  Z. Benda,  Y. A. Bernard,  E. J. Berquist,  
 K. B. Bravaya,  H. Burton,  D. Casanova,  Chun-Min Chang,  Yunqing Chen,  
 A. Chien,  K. D. Closser,  M. P. Coons,  S. Coriani,  S. Dasgupta,  
 A. L. Dempwolff,  M. Diedenhofen,  Hainam Do,  R. G. Edgar,  Po-Tung Fang,  
 S. Faraji,  S. Fatehi,  Qingguo Feng,  K. D. Fenk,  J. Fosso-Tande,  
 J. Gayvert,  Qinghui Ge,  A. Ghysels,  G. Gidofalvi,  J. Gomes,  
 J. Gonthier,  A. Gunina,  D. Hait,  M. W. D. Hanson-Heine,  
 P. H. P. Harbach,  A. W. Hauser,  M. F. Herbst,  J. E. Herr,  
 E. G. Hohenstein,  Z. C. Holden,  Kerwin Hui,  B. C. Huynh,  T.-C. Jagau,  
 Hyunjun Ji,  B. Kaduk,  K. Khistyaev,  Jaehoon Kim,  P. Klunzinger,  K. Koh,  
 D. Kosenkov,  L. Koulias,  T. Kowalczyk,  C. M. Krauter,  A. Kunitsa,  
 Ka Un Lao,  A. Laurent,  K. V. Lawler,  Joonho Lee,  D. Lefrancois,  
 S. Lehtola,  D. S. Levine,  Yi-Pei Li,  You-Sheng Lin,  Fenglai Liu,  
 E. Livshits,  A. Luenser,  P. Manohar,  E. Mansoor,  S. F. Manzer,  
 Shan-Ping Mao,  Yuezhi Mao,  N. Mardirossian,  A. V. Marenich,  
 T. Markovich,  L. A. Martinez-Martinez,  S. A. Maurer,  N. J. Mayhall,  
 S. C. McKenzie,  J.-M. Mewes,  P. Morgante,  A. F. Morrison,  
 J. W. Mullinax,  K. Nanda,  T. S. Nguyen-Beck,  R. Olivares-Amaya,  
 J. A. Parkhill,  Zheng Pei,  T. M. Perrine,  F. Plasser,  P. Pokhilko,  
 S. Prager,  A. Prociuk,  E. Ramos,  D. R. Rehn,  F. Rob,  M. Scheurer,  
 M. Schneider,  N. Sergueev,  S. M. Sharada,  S. Sharma,  D. W. Small,  
 T. Stauch,  T. Stein,  Yu-Chuan Su,  A. J. W. Thom,  A. Tkatchenko,  
 T. Tsuchimochi,  N. M. Tubman,  L. Vogt,  M. L. Vidal,  O. Vydrov,  
 M. A. Watson,  J. Wenzel,  M. de Wergifosse,  T. A. Wesolowski,  A. White,  
 J. Witte,  A. Yamada,  Jun Yang,  K. Yao,  S. Yeganeh,  S. R. Yost,  
 Zhi-Qiang You,  A. Zech,  Igor Ying Zhang,  Xing Zhang,  Yan Zhao,  
 Ying Zhu,  B. R. Brooks,  G. K. L. Chan,  C. J. Cramer,  M. S. Gordon,  
 W. J. Hehre,  A. Klamt,  M. W. Schmidt,  C. D. Sherrill,  D. G. Truhlar,  
 A. Aspuru-Guzik,  R. Baer,  A. T. Bell,  N. A. Besley,  Jeng-Da Chai,  
 A. E. DePrince, III,  R. A. DiStasio Jr.,  A. Dreuw,  B. D. Dunietz,  
 T. R. Furlani,  Chao-Ping Hsu,  Yousung Jung,  Jing Kong,  D. S. Lambrecht,  
 WanZhen Liang,  C. Ochsenfeld,  V. A. Rassolov,  L. V. Slipchenko,  
 J. E. Subotnik,  T. Van Voorhis,  J. M. Herbert,  A. I. Krylov,  
 P. M. W. Gill,  M. Head-Gordon

 Contributors to earlier versions of Q-Chem not listed above: 
 R. D. Adamson,  B. Austin,  J. Baker,  G. J. O. Beran,  K. Brandhorst,  
 S. T. Brown,  E. F. C. Byrd,  A. K. Chakraborty,  C.-L. Cheng,  
 Siu Hung Chien,  D. M. Chipman,  D. L. Crittenden,  H. Dachsel,  
 R. J. Doerksen,  A. D. Dutoi,  L. Fusti-Molnar,  W. A. Goddard III,  
 A. Golubeva-Zadorozhnaya,  S. R. Gwaltney,  G. Hawkins,  A. Heyden,  
 S. Hirata,  G. Kedziora,  F. J. Keil,  C. Kelley,  Jihan Kim,  R. A. King,  
 R. Z. Khaliullin,  P. P. Korambath,  W. Kurlancheek,  A. M. Lee,  M. S. Lee,  
 S. V. Levchenko,  Ching Yeh Lin,  D. Liotard,  R. C. Lochan,  I. Lotan,  
 P. E. Maslen,  N. Nair,  D. P. O'Neill,  D. Neuhauser,  E. Neuscamman,  
 C. M. Oana,  R. Olson,  B. Peters,  R. Peverati,  P. A. Pieniazek,  
 Y. M. Rhee,  J. Ritchie,  M. A. Rohrdanz,  E. Rosta,  N. J. Russ,  
 H. F. Schaefer III,  N. E. Schultz,  N. Shenvi,  A. C. Simmonett,  A. Sodt,  
 D. Stuck,  K. S. Thanthiriwatte,  V. Vanovschi,  Tao Wang,  A. Warshel,  
 C. F. Williams,  Q. Wu,  X. Xu,  W. Zhang

 Please cite Q-Chem as follows:
 Y. Shao et al., Mol. Phys. 113, 184-215 (2015)
 DOI: 10.1080/00268976.2014.952696

 Q-Chem 5.2.1 for Intel X86 EM64T Linux

 Parts of Q-Chem use Armadillo 8.300.2 (Tropical Shenanigans).
 http://arma.sourceforge.net/

 Q-Chem begins on Thu Sep 30 01:46:57 2021  

compute-0-7.local
Host: 0

     Scratch files written to /home/meili/scratch/qchem52881//Frg1//
NAlpha2: 78
NElect   78
Mult     1
Symmetry turned off for PCM/SM12/SMD calculation

Checking the input file for inconsistencies... 	...done.

--------------------------------------------------------------
User input:
--------------------------------------------------------------
$molecule
0 1
 6	-2.2823645013	0.9571778163	-1.9073880985
 6	-3.0913645013	0.0381778163	-2.7913880985
 6	-2.3483645013	0.6971778163	-0.4323880985
 6	-2.9223645013	1.5161778163	0.4806119015
 6	-1.7083645013	-0.3688221837	0.3256119015
 6	-1.9263645013	-0.0878221837	1.7036119015
 6	-0.9583645013	-1.5168221837	-0.0133880985
 6	-1.4373645013	-0.9068221837	2.7136119015
 6	-0.4703645013	-2.3498221837	1.0136119015
 6	-0.7123645013	-2.0358221837	2.3586119015
 7	-2.6713645013	1.0681778163	1.7626119015
 1	-1.2573645013	0.9411778163	-2.2483880985
 1	-2.6373645013	1.9781778163	-2.0573880985
 1	-4.0783645013	-0.0978221837	-2.3543880985
 1	-3.4483645013	2.4241778163	0.2246119015
 1	-2.8723645013	1.6061778163	2.6086119015
 1	-0.7493645013	-1.7538221837	-1.0433880985
 1	-1.6453645013	-0.6798221837	3.7496119015
 1	0.0996354987	-3.2318221837	0.7576119015
 1	-0.3313645013	-2.6878221837	3.1316119015
 1	-2.5805245013	-0.9250521837	-2.9371250985
 1	-3.1902645013	0.5442278163	-3.7630550985
$end
$rem
EDA2		1
METHOD		WB97X-V
BASIS		DEF2-TZVPD
XC_GRID		000099000590
NL_GRID		1
UNRESTRICTED		FALSE
MAX_SCF_CYCLES		200
SYMMETRY		FALSE
SYM_IGNORE		TRUE
BASIS_LIN_DEP_THRESH		6
THRESH		14
SCF_CONVERGENCE		8
SCF_PRINT_FRGM		TRUE
SOLVENT_METHOD		PCM
!required keywords
JOBTYPE		SP
SYM_IGNORE		TRUE
SUBSYSTEM		TRUE
GEN_SCFMAN		TRUE
CHILD_INSTRUCTION		2
SYM_IGNORE		TRUE
SCFMI		0
RI_K 0		
PARI_K 0		
MIN_PARI_K 0		
IARI_K 0		
OCC_RI_K 0		
PURECART		1111
MEM_STATIC		2000
MEM_TOTAL		2000
GUI		0
CHILD_MP		1
CHILD_MP_ORDERS		232
FRZ_RELAX		0
FRZ_RELAX_METHOD		0
EDA_CLS_ELEC		1
EDA_CLS_DISP		0
FRZ_ORTHO_DECOMP		1
EDA2		FALSE
FRGM_METHOD		FALSE
CIS_N_ROOTS  0
LOCAL_CIS    0
CIS_RLX_DNS  1
$end
$pcm
THEORY                  CPCM
METHOD                  SWIG
SOLVER                  INVERSION
RADII                   UFF
HPOINTS                 302
HEAVYPOINTS             302
PRINTLEVEL              0
$end
$solvent
DIELECTRIC              78.390000 ! water
$end
--------------------------------------------------------------
 ----------------------------------------------------------------
             Standard Nuclear Orientation (Angstroms)
    I     Atom           X                Y                Z
 ----------------------------------------------------------------
    1      C      -2.2823645013     0.9571778163    -1.9073880985
    2      C      -3.0913645013     0.0381778163    -2.7913880985
    3      C      -2.3483645013     0.6971778163    -0.4323880985
    4      C      -2.9223645013     1.5161778163     0.4806119015
    5      C      -1.7083645013    -0.3688221837     0.3256119015
    6      C      -1.9263645013    -0.0878221837     1.7036119015
    7      C      -0.9583645013    -1.5168221837    -0.0133880985
    8      C      -1.4373645013    -0.9068221837     2.7136119015
    9      C      -0.4703645013    -2.3498221837     1.0136119015
   10      C      -0.7123645013    -2.0358221837     2.3586119015
   11      N      -2.6713645013     1.0681778163     1.7626119015
   12      H      -1.2573645013     0.9411778163    -2.2483880985
   13      H      -2.6373645013     1.9781778163    -2.0573880985
   14      H      -4.0783645013    -0.0978221837    -2.3543880985
   15      H      -3.4483645013     2.4241778163     0.2246119015
   16      H      -2.8723645013     1.6061778163     2.6086119015
   17      H      -0.7493645013    -1.7538221837    -1.0433880985
   18      H      -1.6453645013    -0.6798221837     3.7496119015
   19      H       0.0996354987    -3.2318221837     0.7576119015
   20      H      -0.3313645013    -2.6878221837     3.1316119015
   21      H      -2.5805245013    -0.9250521837    -2.9371250985
   22      H      -3.1902645013     0.5442278163    -3.7630550985
 ----------------------------------------------------------------
 Nuclear Repulsion Energy =         569.08528281 hartrees
 There are       39 alpha and       39 beta electrons
 Requested basis set is def2-TZVPD
 There are 198 shells and 506 basis functions

 Total QAlloc Memory Limit   2000 MB
 Mega-Array Size      1956 MB
 MEM_STATIC part      2000 MB
 Discretize the solute cavity surface with Lebedev spheres
	Using 302 Lebedev grid points for each H atom
	Using 302 Lebedev grid points for other atoms
	Atomic van der Waals radii will be scaled by 1.20
 Remove points where switching function is < 1.0e-08
 Keep 2433 surface tesserae and discard 4211 interior tesserae
 Molecular Surface Area = 238.381 Angst**2
 A cutoff of  1.0D-14 yielded  18180 shell pairs
 There are    121234 function pairs (    155081 Cartesian)
 Smallest overlap matrix eigenvalue = 5.10E-07
 Linear dependence detected in AO basis
 Tighter screening thresholds may be required for diffuse basis sets
 Use S2THRESH > 14 and THRESH = 14 in case of SCF convergence issues
 Number of orthogonalized atomic orbitals = 503
 Maximum deviation from orthogonality = 1.188E-10

 Scale SEOQF with 1.000000e-01/1.000000e-01/1.000000e-01

 Standard Electronic Orientation quadrupole field applied
 Nucleus-field energy     =    -0.0000000056 hartrees
 Guess from superposition of atomic densities
 Warning:  Energy on first SCF cycle will be non-variational
 SAD guess density has 78.000000 electrons

 -----------------------------------------------------------------------
  General SCF calculation program by
  Eric Jon Sundstrom, Paul Horn, Yuezhi Mao, Dmitri Zuev, Alec White,
  David Stuck, Shaama M.S., Shane Yost, Joonho Lee, David Small,
  Daniel Levine, Susi Lehtola, Hugh Burton, Evgeny Epifanovsky,
  Bang C. Huynh
 -----------------------------------------------------------------------
 Exchange:     0.1670 Hartree-Fock + 1.0000 wB97X-V + LR-HF
 Correlation:  1.0000 wB97X-V
 Using Euler-Maclaurin-Lebedev (99,590) quadrature formula
 Nonlocal Correlation:  VV10 with C = 0.0100 and b = 6.00 and scale = 1.00000
 Grid used for NLC:  SG-1 standard quadrature
Energy prior to optimization (guess energy) = -442.387301657345
Begin Timing: Total SCF Calculation
begin iterations for algorithm: DIIS         
the SCF tolerance is set to 1.00e-08
    1    -442.3873016573      1.55e-03     00000 
    2    -442.4400041146      1.12e-03     00000 
    3    -442.4805440197      2.37e-04     00000 
    4    -442.4821637457      1.14e-04     00000 
    5    -442.4825746753      2.25e-05     00000 
    6    -442.4825953262      8.83e-06     00000 
    7    -442.4825981629      2.61e-06     00000 
    8    -442.4825986305      6.25e-07     00000 
    9    -442.4825986865      3.01e-07     00000 
   10    -442.4825986992      1.37e-07     00000 
   11    -442.4825987026      5.57e-08     00000 
   12    -442.4825987031      2.50e-08     00000 
   13    -442.4825987032      8.69e-09     00000 Convergence criterion met
Timing for Total SCF: 2354.00s (wall), 13345.28s (cpu)

************** Final PCM Free Energy Summary **************
 G_electrostatic  =      -0.00656514 hartree =      -4.11968787 kcal/mol
 G_cavitation     =       0.00000000 hartree =       0.00000000 kcal/mol
 G_dispersion     =       0.00000000 hartree =       0.00000000 kcal/mol
 G_repulsion      =       0.00000000 hartree =       0.00000000 kcal/mol
 --------------------------------------------------
 Non-electrostatic Free Energy =       0.00000000 hartree =       0.00000000 kcal/mol
 Total                         =      -0.00656514 hartree =      -4.11968787 kcal/mol
 --------------------------------------------------
 SCF Energy (H0 + V/2)                       =    -442.48259870 
 Solute Internal Energy (H0)                 =    -442.47603356 
 Total Free Energy (H0 + V/2 + non-elec)     =    -442.48259870 hartree
                                             = -277662.02143894 kcal/mol
***********************************************************

E_pcm = -0.0065651406
Multipole orders to be included
        2
        3
computing dipole RHS
computing quadrupole RHS
total number of RHS in solve_reponses: 8
RHS batch sizes
        8
Beginning Block Conjugate Gradient Iterations. Batch Number: 0
computing hessian-vector products by finite difference
              1      5.89e-01     00000 Conjugate Gradient Iteration
computing hessian-vector products by finite difference
              2      1.97e-01     00000 Conjugate Gradient Iteration
computing hessian-vector products by finite difference
              3      5.40e-02     00000 Conjugate Gradient Iteration
computing hessian-vector products by finite difference
              4      1.92e-02     00000 Conjugate Gradient Iteration
computing hessian-vector products by finite difference
              5      6.53e-03     00000 Conjugate Gradient Iteration
computing hessian-vector products by finite difference
              6      2.32e-03     00000 Conjugate Gradient Iteration
computing hessian-vector products by finite difference
              7      5.50e-04     00000 Conjugate Gradient Iteration
computing hessian-vector products by finite difference
              8      1.08e-04     00000 Conjugate Gradient Iteration
computing hessian-vector products by finite difference
              9      1.76e-05     00000 Conjugate Gradient Iteration
computing hessian-vector products by finite difference
             10      3.06e-06     00000 Conjugate Gradient Iteration
computing hessian-vector products by finite difference
             11      6.21e-07     00000 Conjugate Gradient Iteration
computing hessian-vector products by finite difference
             12      1.21e-07     00000 Conjugate Gradient Iteration
computing hessian-vector products by finite difference
             13      2.56e-08     00000 Conjugate Gradient Iteration
computing hessian-vector products by finite difference
             14      5.27e-09     00000 CG Converged
batch 0 complete
Done Calculating Responses
TESTING ORTHOGONALIZATION OF MULTIPOLE BASIS
Multipole virts passed orthogonality test
Virts Per Order
          117
          195

 --------------------------------------------------------------

                    Orbital Energies (a.u.)
 --------------------------------------------------------------

 Alpha MOs
 -- Occupied --
-14.4506 -10.3050 -10.2969 -10.2755 -10.2730 -10.2722 -10.2706 -10.2679
-10.2637 -10.2615 -10.2539  -1.1132  -0.9771  -0.9403  -0.8855  -0.8662
 -0.8468  -0.7570  -0.7438  -0.7144  -0.6737  -0.6491  -0.6031  -0.5858
 -0.5638  -0.5570  -0.5387  -0.5361  -0.5309  -0.4971  -0.4812  -0.4661
 -0.4609  -0.4510  -0.4436  -0.4222  -0.3767  -0.3173  -0.2938
 -- Virtual --
  0.0512   0.0598   0.0735   0.0752   0.0881   0.0918   0.0950   0.0983
  0.1055   0.1223   0.1306   0.1394   0.1468   0.1597   0.1617   0.1675
  0.1710   0.1791   0.1834   0.1900   0.1978   0.2080   0.2114   0.2201
  0.2242   0.2309   0.2394   0.2434   0.2540   0.2546   0.2563   0.2634
  0.2693   0.2731   0.2761   0.2788   0.2826   0.2907   0.2931   0.2978
  0.3064   0.3078   0.3118   0.3148   0.3198   0.3239   0.3264   0.3334
  0.3354   0.3371   0.3415   0.3473   0.3532   0.3590   0.3642   0.3655
  0.3703   0.3759   0.3807   0.3838   0.3867   0.3925   0.3957   0.4014
  0.4069   0.4089   0.4119   0.4210   0.4215   0.4277   0.4351   0.4375
  0.4443   0.4477   0.4535   0.4567   0.4602   0.4662   0.4680   0.4734
  0.4779   0.4839   0.4875   0.4958   0.5003   0.5054   0.5083   0.5165
  0.5172   0.5242   0.5322   0.5366   0.5399   0.5463   0.5493   0.5520
  0.5551   0.5594   0.5657   0.5681   0.5791   0.5875   0.5942   0.6008
  0.6080   0.6113   0.6152   0.6246   0.6261   0.6325   0.6365   0.6378
  0.6457   0.6578   0.6622   0.6742   0.6792   0.6867   0.6884   0.6945
  0.7033   0.7069   0.7083   0.7189   0.7238   0.7280   0.7334   0.7382
  0.7425   0.7549   0.7590   0.7623   0.7697   0.7738   0.7767   0.7803
  0.7886   0.7897   0.7937   0.8000   0.8034   0.8072   0.8101   0.8120
  0.8176   0.8232   0.8252   0.8258   0.8295   0.8430   0.8441   0.8587
  0.8617   0.8628   0.8665   0.8743   0.8812   0.8959   0.8992   0.9026
  0.9087   0.9160   0.9302   0.9370   0.9543   0.9670   0.9806   0.9894
  0.9974   1.0183   1.0291   1.0370   1.0466   1.0599   1.0660   1.0758
  1.0834   1.0857   1.0919   1.0985   1.1131   1.1292   1.1389   1.1434
  1.1545   1.1772   1.1864   1.1921   1.2087   1.2136   1.2229   1.2515
  1.2612   1.2788   1.3079   1.3122   1.3346   1.3440   1.3491   1.3617
  1.3753   1.3982   1.4034   1.4329   1.4511   1.4626   1.4693   1.4908
  1.5041   1.5258   1.5344   1.5557   1.5602   1.5907   1.6112   1.6205
  1.6294   1.6451   1.6586   1.6725   1.6986   1.7119   1.7345   1.7672
  1.7739   1.7765   1.8041   1.8276   1.8358   1.8464   1.8599   1.8763
  1.8855   1.8993   1.9058   1.9215   1.9308   1.9368   1.9424   1.9546
  1.9736   1.9836   1.9889   1.9916   2.0000   2.0095   2.0176   2.0215
  2.0243   2.0543   2.0632   2.0709   2.0849   2.0941   2.1163   2.1239
  2.1734   2.1775   2.1869   2.1928   2.2137   2.2229   2.2526   2.2855
  2.2941   2.3085   2.3157   2.3334   2.3446   2.3913   2.4068   2.4142
  2.4275   2.4455   2.4702   2.4859   2.4896   2.4996   2.5243   2.5311
  2.5580   2.5959   2.6074   2.6082   2.6152   2.6242   2.6484   2.6656
  2.6818   2.6902   2.7043   2.7368   2.7549   2.7573   2.7736   2.7867
  2.7914   2.8055   2.8209   2.8304   2.8377   2.8448   2.8564   2.8595
  2.8892   2.8952   2.9109   2.9267   2.9347   2.9431   2.9668   2.9716
  2.9779   2.9932   3.0077   3.0196   3.0315   3.0455   3.0607   3.0783
  3.0838   3.0935   3.1059   3.1251   3.1450   3.1514   3.1753   3.1868
  3.2088   3.2099   3.2299   3.2422   3.2700   3.2797   3.2992   3.3103
  3.3286   3.3302   3.3458   3.3575   3.3704   3.3753   3.3959   3.4002
  3.4189   3.4282   3.4334   3.4478   3.4584   3.4673   3.4737   3.4789
  3.4883   3.5043   3.5181   3.5263   3.5271   3.5376   3.5499   3.5595
  3.5793   3.5934   3.5972   3.6147   3.6280   3.6301   3.6493   3.6630
  3.6745   3.6866   3.6989   3.7021   3.7117   3.7258   3.7402   3.7478
  3.7726   3.7789   3.7939   3.8075   3.8488   3.8679   3.8880   3.9137
  3.9298   3.9575   3.9744   4.0247   4.0410   4.0498   4.0825   4.1274
  4.1378   4.1674   4.1805   4.1961   4.2227   4.2401   4.2660   4.2729
  4.2836   4.2929   4.3147   4.3382   4.3390   4.3542   4.3989   4.4065
  4.4171   4.4524   4.4786   4.4917   4.5177   4.5539   4.5949   4.6128
  4.6191   4.6400   4.7044   4.7310   4.7568   4.8059   4.8591   4.8714
  4.9249   4.9268   4.9570   4.9829   4.9977   5.0063   5.0583   5.0781
  5.1145   5.1235   5.1527   5.1875   5.2021   5.2151   5.2805   5.3756
  5.4054   5.4634   5.4841   5.5421   5.6175   5.6341   5.7087   5.8051
  5.8181   5.9402   5.9760   6.2539   6.3214  22.6837  22.7568  22.7900
 22.9248  22.9365  22.9811  23.1673  23.2506  23.4742  23.7692  32.8438
 --------------------------------------------------------------

          Ground-State Mulliken Net Atomic Charges

     Atom                 Charge (a.u.)
  ----------------------------------------
      1 C                    -0.468634
      2 C                    -0.760511
      3 C                     0.537529
      4 C                    -0.568506
      5 C                     0.501130
      6 C                    -0.147498
      7 C                    -0.388593
      8 C                    -0.769974
      9 C                    -0.633148
     10 C                    -0.443543
     11 N                     0.150937
     12 H                     0.232965
     13 H                     0.245240
     14 H                     0.248393
     15 H                     0.243466
     16 H                     0.217111
     17 H                     0.349173
     18 H                     0.342233
     19 H                     0.345875
     20 H                     0.345616
     21 H                     0.214767
     22 H                     0.205973
  ----------------------------------------
  Sum of atomic charges =     0.000000

 -----------------------------------------------------------------
                    Cartesian Multipole Moments
 -----------------------------------------------------------------
    Charge (ESU x 10^10)
                -0.0000
    Dipole Moment (Debye)
         X      -0.9650      Y       2.3406      Z       0.9977
       Tot       2.7212
    Quadrupole Moments (Debye-Ang)
        XX     -64.6554     XY     -10.6124     YY     -61.7157
        XZ      -4.7613     YZ       3.4417     ZZ     -56.0300
    Octopole Moments (Debye-Ang^2)
       XXX     372.0050    XXY      52.0791    XYY     116.9298
       YYY      61.8087    XXZ     -11.7235    XYZ     -12.9155
       YYZ     -17.4899    XZZ     102.5158    YZZ      27.8054
       ZZZ     -39.9921
    Hexadecapole Moments (Debye-Ang^3)
      XXXX   -1836.2021   XXXY      10.0392   XXYY    -396.9487
      XYYY      39.2710   YYYY    -757.1686   XXXZ     -61.1847
      XXYZ      96.8854   XYYZ     -16.1017   YYYZ     186.2345
      XXZZ    -493.6579   XYZZ     -14.7990   YYZZ    -328.1646
      XZZZ    -103.7249   YZZZ     184.7190   ZZZZ   -1255.9004
 -----------------------------------------------------------------
Archival summary:
1\1\compute-0-7.local\SP\ProcedureUnspecified\BasisUnspecified\11011\meili\ThuSep3016:28:182021ThuSep3016:28:182021\0\\#,ProcedureUnspecified,BasisUnspecified,\\0,1\C\C,1,1.41256\H,2,1.07738,1,120.745\C,2,1.40953,1,119.292,3,179.387,0\H,4,1.08091,2,119.488,1,179.691,0\C,4,1.40221,2,120.451,1,-0.7353,0\H,6,1.08065,4,119.352,2,179.897,0\C,6,1.38791,4,121.175,2,0.206292,0\H,8,1.08078,6,121.102,4,178.378,0\C,8,1.38924,6,118.52,4,0.163409,0\N,10,1.37653,8,130.876,6,179.464,0\H,11,1.02253,10,125.711,8,10.2637,0\C,11,1.38102,10,109.33,8,-179.614,0\H,13,1.08013,11,125.537,10,-177.234,0\C,13,1.35418,11,110.648,10,-0.798469,0\C,15,1.49919,13,125.247,11,-172.731,0\H,16,1.08035,15,110.472,13,123.482,0\H,16,1.09131,15,106.449,13,8.59331,0\C,16,1.51013,15,116.539,13,-112.347,0\H,19,1.08795,16,109.084,15,44.513,0\H,19,1.1,16,106.576,15,162.427,0\H,19,1.1,16,111.202,15,-78.7541,0\\\@

 Total job time:  52881.17s(wall), 299232.57s(cpu) 
 Thu Sep 30 16:28:18 2021

        *************************************************************
        *                                                           *
        *  Thank you very much for using Q-Chem.  Have a nice day.  *
        *                                                           *
        *************************************************************


Done Job For Fragment 0
calling putenv with: QCSCRATCH=/home/meili/scratch 
calling putenv with: QCTHREADS=8 
Creating input file /home/meili/scratch/qchem52881/Frg2.input
using default PutDataFrgm: nothing
calling putenv with: QCSCRATCH=/home/meili/scratch/qchem52881/ 
Spawning Job For Fragment 1
                  Welcome to Q-Chem
     A Quantum Leap Into The Future Of Chemistry


 Q-Chem 5.2 (devel), Q-Chem, Inc., Pleasanton, CA (2019)

 Yihan Shao,  Zhengting Gan,  E. Epifanovsky,  A. T. B. Gilbert,  M. Wormit,  
 J. Kussmann,  A. W. Lange,  A. Behn,  Jia Deng,  Xintian Feng,  D. Ghosh,  
 M. Goldey,  P. R. Horn,  L. D. Jacobson,  I. Kaliman,  T. Kus,  A. Landau,  
 Jie Liu,  E. I. Proynov,  R. M. Richard,  R. P. Steele,  E. J. Sundstrom,  
 H. L. Woodcock III,  P. M. Zimmerman,  D. Zuev,  B. Albrecht,  E. Alguire,  
 S. A. Baeppler,  D. Barton,  Z. Benda,  Y. A. Bernard,  E. J. Berquist,  
 K. B. Bravaya,  H. Burton,  D. Casanova,  Chun-Min Chang,  Yunqing Chen,  
 A. Chien,  K. D. Closser,  M. P. Coons,  S. Coriani,  S. Dasgupta,  
 A. L. Dempwolff,  M. Diedenhofen,  Hainam Do,  R. G. Edgar,  Po-Tung Fang,  
 S. Faraji,  S. Fatehi,  Qingguo Feng,  K. D. Fenk,  J. Fosso-Tande,  
 J. Gayvert,  Qinghui Ge,  A. Ghysels,  G. Gidofalvi,  J. Gomes,  
 J. Gonthier,  A. Gunina,  D. Hait,  M. W. D. Hanson-Heine,  
 P. H. P. Harbach,  A. W. Hauser,  M. F. Herbst,  J. E. Herr,  
 E. G. Hohenstein,  Z. C. Holden,  Kerwin Hui,  B. C. Huynh,  T.-C. Jagau,  
 Hyunjun Ji,  B. Kaduk,  K. Khistyaev,  Jaehoon Kim,  P. Klunzinger,  K. Koh,  
 D. Kosenkov,  L. Koulias,  T. Kowalczyk,  C. M. Krauter,  A. Kunitsa,  
 Ka Un Lao,  A. Laurent,  K. V. Lawler,  Joonho Lee,  D. Lefrancois,  
 S. Lehtola,  D. S. Levine,  Yi-Pei Li,  You-Sheng Lin,  Fenglai Liu,  
 E. Livshits,  A. Luenser,  P. Manohar,  E. Mansoor,  S. F. Manzer,  
 Shan-Ping Mao,  Yuezhi Mao,  N. Mardirossian,  A. V. Marenich,  
 T. Markovich,  L. A. Martinez-Martinez,  S. A. Maurer,  N. J. Mayhall,  
 S. C. McKenzie,  J.-M. Mewes,  P. Morgante,  A. F. Morrison,  
 J. W. Mullinax,  K. Nanda,  T. S. Nguyen-Beck,  R. Olivares-Amaya,  
 J. A. Parkhill,  Zheng Pei,  T. M. Perrine,  F. Plasser,  P. Pokhilko,  
 S. Prager,  A. Prociuk,  E. Ramos,  D. R. Rehn,  F. Rob,  M. Scheurer,  
 M. Schneider,  N. Sergueev,  S. M. Sharada,  S. Sharma,  D. W. Small,  
 T. Stauch,  T. Stein,  Yu-Chuan Su,  A. J. W. Thom,  A. Tkatchenko,  
 T. Tsuchimochi,  N. M. Tubman,  L. Vogt,  M. L. Vidal,  O. Vydrov,  
 M. A. Watson,  J. Wenzel,  M. de Wergifosse,  T. A. Wesolowski,  A. White,  
 J. Witte,  A. Yamada,  Jun Yang,  K. Yao,  S. Yeganeh,  S. R. Yost,  
 Zhi-Qiang You,  A. Zech,  Igor Ying Zhang,  Xing Zhang,  Yan Zhao,  
 Ying Zhu,  B. R. Brooks,  G. K. L. Chan,  C. J. Cramer,  M. S. Gordon,  
 W. J. Hehre,  A. Klamt,  M. W. Schmidt,  C. D. Sherrill,  D. G. Truhlar,  
 A. Aspuru-Guzik,  R. Baer,  A. T. Bell,  N. A. Besley,  Jeng-Da Chai,  
 A. E. DePrince, III,  R. A. DiStasio Jr.,  A. Dreuw,  B. D. Dunietz,  
 T. R. Furlani,  Chao-Ping Hsu,  Yousung Jung,  Jing Kong,  D. S. Lambrecht,  
 WanZhen Liang,  C. Ochsenfeld,  V. A. Rassolov,  L. V. Slipchenko,  
 J. E. Subotnik,  T. Van Voorhis,  J. M. Herbert,  A. I. Krylov,  
 P. M. W. Gill,  M. Head-Gordon

 Contributors to earlier versions of Q-Chem not listed above: 
 R. D. Adamson,  B. Austin,  J. Baker,  G. J. O. Beran,  K. Brandhorst,  
 S. T. Brown,  E. F. C. Byrd,  A. K. Chakraborty,  C.-L. Cheng,  
 Siu Hung Chien,  D. M. Chipman,  D. L. Crittenden,  H. Dachsel,  
 R. J. Doerksen,  A. D. Dutoi,  L. Fusti-Molnar,  W. A. Goddard III,  
 A. Golubeva-Zadorozhnaya,  S. R. Gwaltney,  G. Hawkins,  A. Heyden,  
 S. Hirata,  G. Kedziora,  F. J. Keil,  C. Kelley,  Jihan Kim,  R. A. King,  
 R. Z. Khaliullin,  P. P. Korambath,  W. Kurlancheek,  A. M. Lee,  M. S. Lee,  
 S. V. Levchenko,  Ching Yeh Lin,  D. Liotard,  R. C. Lochan,  I. Lotan,  
 P. E. Maslen,  N. Nair,  D. P. O'Neill,  D. Neuhauser,  E. Neuscamman,  
 C. M. Oana,  R. Olson,  B. Peters,  R. Peverati,  P. A. Pieniazek,  
 Y. M. Rhee,  J. Ritchie,  M. A. Rohrdanz,  E. Rosta,  N. J. Russ,  
 H. F. Schaefer III,  N. E. Schultz,  N. Shenvi,  A. C. Simmonett,  A. Sodt,  
 D. Stuck,  K. S. Thanthiriwatte,  V. Vanovschi,  Tao Wang,  A. Warshel,  
 C. F. Williams,  Q. Wu,  X. Xu,  W. Zhang

 Please cite Q-Chem as follows:
 Y. Shao et al., Mol. Phys. 113, 184-215 (2015)
 DOI: 10.1080/00268976.2014.952696

 Q-Chem 5.2.1 for Intel X86 EM64T Linux

 Parts of Q-Chem use Armadillo 8.300.2 (Tropical Shenanigans).
 http://arma.sourceforge.net/

 Q-Chem begins on Thu Sep 30 16:28:19 2021  

compute-0-7.local
Host: 0

     Scratch files written to /home/meili/scratch/qchem52881//Frg2//
NAlpha2: 52
NElect   52
Mult     1
Symmetry turned off for PCM/SM12/SMD calculation

Checking the input file for inconsistencies... 	...done.

--------------------------------------------------------------
User input:
--------------------------------------------------------------
$molecule
0 1
 6	1.5276354987	1.1201778163	-1.6343880985
 6	1.7396354987	0.6531778163	-3.1053880985
 6	2.5326354987	0.5651778163	-0.6423880985
 6	2.3296354987	-0.1668221837	0.4886119015
 6	4.4996354987	0.1371778163	0.2546119015
 7	3.9026354987	0.7431778163	-0.7773880985
 7	3.5756354987	-0.4228221837	1.0316119015
 1	1.5996354987	2.2011778163	-1.6043880985
 1	0.5466354987	0.8331778163	-1.2763880985
 1	2.7606354987	0.8691778163	-3.4183880985
 1	1.3746354987	-0.4608221837	0.8946119015
 1	5.5576354987	0.1271778163	0.4456119015
 1	3.7436354987	-0.9088221837	1.9136119015
 1	1.0151354987	1.1761778163	-3.7469200985
 1	1.5587454987	-0.4306921837	-3.1555130985
$end
$rem
EDA2		1
METHOD		WB97X-V
BASIS		DEF2-TZVPD
XC_GRID		000099000590
NL_GRID		1
UNRESTRICTED		FALSE
MAX_SCF_CYCLES		200
SYMMETRY		FALSE
SYM_IGNORE		TRUE
BASIS_LIN_DEP_THRESH		6
THRESH		14
SCF_CONVERGENCE		8
SCF_PRINT_FRGM		TRUE
SOLVENT_METHOD		PCM
!required keywords
JOBTYPE		SP
SYM_IGNORE		TRUE
SUBSYSTEM		TRUE
GEN_SCFMAN		TRUE
CHILD_INSTRUCTION		2
SYM_IGNORE		TRUE
SCFMI		0
RI_K 0		
PARI_K 0		
MIN_PARI_K 0		
IARI_K 0		
OCC_RI_K 0		
PURECART		1111
MEM_STATIC		2000
MEM_TOTAL		2000
GUI		0
CHILD_MP		1
CHILD_MP_ORDERS		232
FRZ_RELAX		0
FRZ_RELAX_METHOD		0
EDA_CLS_ELEC		1
EDA_CLS_DISP		0
FRZ_ORTHO_DECOMP		1
EDA2		FALSE
FRGM_METHOD		FALSE
CIS_N_ROOTS  0
LOCAL_CIS    0
CIS_RLX_DNS  1
$end
$pcm
THEORY                  CPCM
METHOD                  SWIG
SOLVER                  INVERSION
RADII                   UFF
HPOINTS                 302
HEAVYPOINTS             302
PRINTLEVEL              0
$end
$solvent
DIELECTRIC              78.390000 ! water
$end
--------------------------------------------------------------
 ----------------------------------------------------------------
             Standard Nuclear Orientation (Angstroms)
    I     Atom           X                Y                Z
 ----------------------------------------------------------------
    1      C       1.5276354987     1.1201778163    -1.6343880985
    2      C       1.7396354987     0.6531778163    -3.1053880985
    3      C       2.5326354987     0.5651778163    -0.6423880985
    4      C       2.3296354987    -0.1668221837     0.4886119015
    5      C       4.4996354987     0.1371778163     0.2546119015
    6      N       3.9026354987     0.7431778163    -0.7773880985
    7      N       3.5756354987    -0.4228221837     1.0316119015
    8      H       1.5996354987     2.2011778163    -1.6043880985
    9      H       0.5466354987     0.8331778163    -1.2763880985
   10      H       2.7606354987     0.8691778163    -3.4183880985
   11      H       1.3746354987    -0.4608221837     0.8946119015
   12      H       5.5576354987     0.1271778163     0.4456119015
   13      H       3.7436354987    -0.9088221837     1.9136119015
   14      H       1.0151354987     1.1761778163    -3.7469200985
   15      H       1.5587454987    -0.4306921837    -3.1555130985
 ----------------------------------------------------------------
 Nuclear Repulsion Energy =         289.29120020 hartrees
 There are       26 alpha and       26 beta electrons
 Requested basis set is def2-TZVPD
 There are 131 shells and 331 basis functions

 Total QAlloc Memory Limit   2000 MB
 Mega-Array Size      1956 MB
 MEM_STATIC part      2000 MB
 Discretize the solute cavity surface with Lebedev spheres
	Using 302 Lebedev grid points for each H atom
	Using 302 Lebedev grid points for other atoms
	Atomic van der Waals radii will be scaled by 1.20
 Remove points where switching function is < 1.0e-08
 Keep 1811 surface tesserae and discard 2719 interior tesserae
 Molecular Surface Area = 181.621 Angst**2

                       Distance Matrix (Angstroms)
             C (  1)   C (  2)   C (  3)   C (  4)   C (  5)   N (  6)
   C (  2)  1.557843
   C (  3)  1.517272  2.589008
   C (  4)  2.608966  3.733274  1.362422
   C (  5)  3.656145  4.378751  2.203833  2.203650
   N (  6)  2.552881  3.179033  1.388095  2.214765  1.337411
   N (  7)  3.699015  4.652251  2.205962  1.383077  1.330829  2.176917
   H (  8)  1.083810  2.160765  2.114812  3.243605  4.015716  2.848421
   H (  9)  1.083002  2.191093  2.101898  2.700799  4.295880  3.394089
   H ( 10)  2.183105  1.089526  2.801888  4.064936  4.129270  2.880090
   H ( 11)  2.986438  4.168240  2.180828  1.078562  3.245432  3.261286
   H ( 12)  4.642558  5.240554  3.244413  3.241646  1.075149  2.148071
   H ( 13)  4.649280  5.625497  3.189410  2.140230  2.101888  3.161624
   H ( 14)  2.174531  1.099997  3.509166  4.633712  5.406803  4.164525
   H ( 15)  2.172553  1.100004  2.873328  3.734106  4.538751  3.539388
             N (  7)   H (  8)   H (  9)   H ( 10)   H ( 11)   H ( 12)
   H (  8)  4.211704
   H (  9)  4.009893  1.757219
   H ( 10)  4.704890  2.532339  3.080788
   H ( 11)  2.205587  3.658124  2.659560  4.721426
   H ( 12)  2.138743  4.916273  5.345450  4.827450  4.247921
   H ( 13)  1.020952  5.161895  4.840607  5.705944  2.617485  2.553217
   H ( 14)  5.652197  2.445958  2.537847  1.802485  4.934859  6.269931
   H ( 15)  4.647572  3.055225  2.480493  1.789778  4.054419  5.410216
             H ( 13)   H ( 14)
   H ( 14)  6.620692
   H ( 15)  5.540612  1.796470

 A cutoff of  1.0D-14 yielded   8276 shell pairs
 There are     53826 function pairs (     68538 Cartesian)
 Smallest overlap matrix eigenvalue = 1.50E-06

 Scale SEOQF with 1.000000e-02/1.000000e-01/1.000000e-01

 Standard Electronic Orientation quadrupole field applied
 Nucleus-field energy     =    -0.0000000108 hartrees
 Guess from superposition of atomic densities
 Warning:  Energy on first SCF cycle will be non-variational
 SAD guess density has 52.000000 electrons

 -----------------------------------------------------------------------
  General SCF calculation program by
  Eric Jon Sundstrom, Paul Horn, Yuezhi Mao, Dmitri Zuev, Alec White,
  David Stuck, Shaama M.S., Shane Yost, Joonho Lee, David Small,
  Daniel Levine, Susi Lehtola, Hugh Burton, Evgeny Epifanovsky,
  Bang C. Huynh
 -----------------------------------------------------------------------
 Exchange:     0.1670 Hartree-Fock + 1.0000 wB97X-V + LR-HF
 Correlation:  1.0000 wB97X-V
 Using Euler-Maclaurin-Lebedev (99,590) quadrature formula
 Nonlocal Correlation:  VV10 with C = 0.0100 and b = 6.00 and scale = 1.00000
 Grid used for NLC:  SG-1 standard quadrature
Energy prior to optimization (guess energy) = -304.790636304331
Begin Timing: Total SCF Calculation
begin iterations for algorithm: DIIS         
the SCF tolerance is set to 1.00e-08
    1    -304.7906363043      2.33e-03     00000 
    2    -304.8049319204      2.44e-03     00000 
    3    -304.8784899740      3.69e-04     00000 
    4    -304.8804802362      1.38e-04     00000 
    5    -304.8808541240      4.87e-05     00000 
    6    -304.8808989601      1.81e-05     00000 
    7    -304.8809044412      6.95e-06     00000 
    8    -304.8809054215      1.31e-06     00000 
    9    -304.8809054984      5.75e-07     00000 
   10    -304.8809055064      1.96e-07     00000 
   11    -304.8809055075      5.23e-08     00000 
   12    -304.8809055076      2.14e-08     00000 
   13    -304.8809055076      5.20e-09     00000 Convergence criterion met
Timing for Total SCF: 839.00s (wall), 4678.09s (cpu)

************** Final PCM Free Energy Summary **************
 G_electrostatic  =      -0.01040216 hartree =      -6.52745696 kcal/mol
 G_cavitation     =       0.00000000 hartree =       0.00000000 kcal/mol
 G_dispersion     =       0.00000000 hartree =       0.00000000 kcal/mol
 G_repulsion      =       0.00000000 hartree =       0.00000000 kcal/mol
 --------------------------------------------------
 Non-electrostatic Free Energy =       0.00000000 hartree =       0.00000000 kcal/mol
 Total                         =      -0.01040216 hartree =      -6.52745696 kcal/mol
 --------------------------------------------------
 SCF Energy (H0 + V/2)                       =    -304.88090551 
 Solute Internal Energy (H0)                 =    -304.87050334 
 Total Free Energy (H0 + V/2 + non-elec)     =    -304.88090551 hartree
                                             = -191315.65573305 kcal/mol
***********************************************************

E_pcm = -0.0104021648
Multipole orders to be included
        2
        3
computing dipole RHS
computing quadrupole RHS
total number of RHS in solve_reponses: 8
RHS batch sizes
        8
Beginning Block Conjugate Gradient Iterations. Batch Number: 0
computing hessian-vector products by finite difference
              1      5.69e-01     00000 Conjugate Gradient Iteration
computing hessian-vector products by finite difference
              2      1.78e-01     00000 Conjugate Gradient Iteration
computing hessian-vector products by finite difference
              3      4.32e-02     00000 Conjugate Gradient Iteration
computing hessian-vector products by finite difference
              4      1.29e-02     00000 Conjugate Gradient Iteration
computing hessian-vector products by finite difference
              5      2.75e-03     00000 Conjugate Gradient Iteration
computing hessian-vector products by finite difference
              6      5.94e-04     00000 Conjugate Gradient Iteration
computing hessian-vector products by finite difference
              7      1.25e-04     00000 Conjugate Gradient Iteration
computing hessian-vector products by finite difference
              8      1.82e-05     00000 Conjugate Gradient Iteration
computing hessian-vector products by finite difference
              9      3.49e-06     00000 Conjugate Gradient Iteration
computing hessian-vector products by finite difference
             10      6.62e-07     00000 Conjugate Gradient Iteration
computing hessian-vector products by finite difference
             11      1.86e-07     00000 Conjugate Gradient Iteration
computing hessian-vector products by finite difference
             12      3.49e-08     00000 Conjugate Gradient Iteration
computing hessian-vector products by finite difference
             13      1.04e-08     00000 Conjugate Gradient Iteration
computing hessian-vector products by finite difference
             14      1.99e-09     00000 CG Converged
batch 0 complete
Done Calculating Responses
TESTING ORTHOGONALIZATION OF MULTIPOLE BASIS
Multipole virts passed orthogonality test
Virts Per Order
           78
          130

 --------------------------------------------------------------

                    Orbital Energies (a.u.)
 --------------------------------------------------------------

 Alpha MOs
 -- Occupied --
-14.4686 -14.3896 -10.3244 -10.2909 -10.2868 -10.2705 -10.2590  -1.1533
 -0.9962  -0.9118  -0.8607  -0.7617  -0.7303  -0.6869  -0.6615  -0.5720
 -0.5635  -0.5468  -0.5370  -0.5178  -0.4745  -0.4556  -0.4533  -0.3774
 -0.3756  -0.3253
 -- Virtual --
  0.0628   0.0803   0.0869   0.0945   0.1025   0.1133   0.1217   0.1346
  0.1404   0.1579   0.1668   0.1687   0.1801   0.1871   0.1957   0.2036
  0.2134   0.2217   0.2321   0.2435   0.2471   0.2588   0.2656   0.2688
  0.2748   0.2858   0.2915   0.2987   0.3038   0.3066   0.3113   0.3202
  0.3221   0.3361   0.3408   0.3467   0.3509   0.3584   0.3614   0.3634
  0.3702   0.3727   0.3861   0.3928   0.4017   0.4030   0.4045   0.4111
  0.4174   0.4256   0.4266   0.4386   0.4464   0.4563   0.4683   0.4704
  0.4728   0.4862   0.4899   0.4960   0.5092   0.5130   0.5225   0.5287
  0.5395   0.5497   0.5545   0.5567   0.5616   0.5828   0.5863   0.5934
  0.5980   0.6087   0.6191   0.6291   0.6377   0.6412   0.6490   0.6614
  0.6678   0.6867   0.6984   0.7009   0.7155   0.7231   0.7242   0.7455
  0.7525   0.7574   0.7632   0.7735   0.7796   0.7836   0.7954   0.7996
  0.8098   0.8127   0.8187   0.8239   0.8386   0.8416   0.8537   0.8677
  0.8777   0.8883   0.8937   0.9224   0.9416   0.9621   0.9727   0.9911
  1.0011   1.0209   1.0232   1.0535   1.0773   1.0841   1.0933   1.0995
  1.1260   1.1437   1.1678   1.1801   1.1924   1.1982   1.2193   1.2551
  1.2604   1.2848   1.3356   1.3462   1.3639   1.3861   1.4181   1.4254
  1.4478   1.4659   1.4900   1.5278   1.5577   1.5874   1.6130   1.6617
  1.6666   1.7037   1.7136   1.7578   1.8125   1.8391   1.8512   1.8658
  1.8697   1.8950   1.9098   1.9180   1.9321   1.9469   1.9680   1.9790
  1.9887   1.9931   2.0027   2.0093   2.0195   2.0237   2.0427   2.0934
  2.1141   2.1806   2.1972   2.2150   2.2706   2.2739   2.3005   2.3252
  2.3308   2.3614   2.3834   2.4321   2.4614   2.4704   2.5062   2.5254
  2.5312   2.5781   2.6064   2.6125   2.6380   2.6491   2.6688   2.6879
  2.6993   2.7302   2.7430   2.7545   2.7871   2.8072   2.8192   2.8471
  2.8810   2.8925   2.9252   2.9664   2.9843   3.0177   3.0262   3.0464
  3.0755   3.0881   3.1094   3.1181   3.1190   3.1500   3.1900   3.2139
  3.2462   3.2630   3.2745   3.2994   3.3001   3.3082   3.3312   3.3466
  3.3790   3.3858   3.4029   3.4146   3.4299   3.4537   3.4833   3.5044
  3.5200   3.5382   3.5729   3.5942   3.6017   3.6282   3.6351   3.6510
  3.6804   3.6875   3.7097   3.7351   3.7664   3.7922   3.8323   3.8720
  3.8866   3.9234   3.9811   3.9892   4.0413   4.0903   4.1128   4.1329
  4.1576   4.2345   4.3011   4.3194   4.4410   4.4648   4.5185   4.5417
  4.5781   4.6084   4.6400   4.6593   4.7720   4.7823   4.8269   4.8520
  4.8680   4.9528   4.9690   4.9944   5.0296   5.0449   5.0632   5.1205
  5.1561   5.2121   5.2234   5.3023   5.3716   5.4361   5.4954   5.5272
  5.5768   5.5946   5.6795   5.6926   5.7648   5.7958   5.8780   6.0517
  6.2413   6.2472  22.6037  22.7506  22.8924  23.1239  23.3732  32.6468
 32.8058
 --------------------------------------------------------------

          Ground-State Mulliken Net Atomic Charges

     Atom                 Charge (a.u.)
  ----------------------------------------
      1 C                    -0.129744
      2 C                    -0.813473
      3 C                     0.412332
      4 C                    -0.575291
      5 C                    -0.282676
      6 N                    -0.459513
      7 N                     0.099140
      8 H                     0.178305
      9 H                     0.170810
     10 H                     0.221873
     11 H                     0.261505
     12 H                     0.291319
     13 H                     0.181703
     14 H                     0.201699
     15 H                     0.242011
  ----------------------------------------
  Sum of atomic charges =     0.000000

 -----------------------------------------------------------------
                    Cartesian Multipole Moments
 -----------------------------------------------------------------
    Charge (ESU x 10^10)
                -0.0000
    Dipole Moment (Debye)
         X      -0.8558      Y      -2.2464      Z       3.7951
       Tot       4.4924
    Quadrupole Moments (Debye-Ang)
        XX     -43.5985     XY      -9.6662     YY     -44.7760
        XZ      16.8263     YZ      -2.0862     ZZ     -40.7134
    Octopole Moments (Debye-Ang^2)
       XXX    -339.0883    XXY     -57.4962    XYY    -129.1504
       YYY     -53.2104    XXZ     104.6456    XYZ      -3.1882
       YYZ      34.0569    XZZ    -115.4751    YZZ     -22.7055
       ZZZ     108.9360
    Hexadecapole Moments (Debye-Ang^3)
      XXXX   -2164.1051   XXXY    -275.5573   XXYY    -471.7184
      XYYY    -122.7526   YYYY    -178.0599   XXXZ     459.9415
      XXYZ      33.9203   XYYZ      62.4143   YYYZ     110.1489
      XXZZ    -507.0101   XYZZ     -64.5851   YYZZ    -142.4450
      XZZZ     197.2102   YZZZ      96.2905   ZZZZ    -714.6357
 -----------------------------------------------------------------
Archival summary:
1\1\compute-0-7.local\SP\ProcedureUnspecified\BasisUnspecified\258\meili\ThuSep3020:33:402021ThuSep3020:33:402021\0\\#,ProcedureUnspecified,BasisUnspecified,\\0,1\N\C,1,1.33741\H,2,1.07515,1,125.49\N,2,1.33083,1,109.345,3,178.31,0\H,4,1.02095,2,126.188,1,-176.608,0\C,4,1.38308,2,108.565,1,-0.277727,0\H,6,1.07856,4,126.83,2,-178.188,0\C,6,1.36242,4,106.926,2,0.0528846,0\C,8,1.51727,6,129.836,4,179.876,0\H,9,1.083,8,106.674,6,0.56552,0\H,9,1.08381,8,107.622,6,116.703,0\C,9,1.55784,8,114.681,6,-122.568,0\H,12,1.08953,9,109.838,8,-54.0264,0\H,12,1.1,9,108.575,8,-175.347,0\H,12,1.1,9,108.423,8,65.7794,0\\\@

 Total job time:  14720.73s(wall), 84162.98s(cpu) 
 Thu Sep 30 20:33:40 2021

        *************************************************************
        *                                                           *
        *  Thank you very much for using Q-Chem.  Have a nice day.  *
        *                                                           *
        *************************************************************


Done Job For Fragment 1
calling putenv with: QCSCRATCH=/home/meili/scratch 
calling putenv with: QCTHREADS=8 
Doing General SCFMI
 Exchange:     0.1670 Hartree-Fock + 1.0000 wB97X-V + LR-HF
 Correlation:  1.0000 wB97X-V
 Using Euler-Maclaurin-Lebedev (99,590) quadrature formula
 Nonlocal Correlation:  VV10 with C = 0.0100 and b = 6.00 and scale = 1.00000
 Grid used for NLC:  SG-1 standard quadrature
performing fock build before subrot guess so that all methods have access
Printing subrot_rss_gen Method Specification:
Occupied Subspace Method is 0
Virtual Subspace Method is 0
Energy of the unrelaxed supersystem initial determinant -747.350882015908
performing fock build before subrot guess so that all methods have access
Printing subrot_rss_gen Method Specification:
Occupied Subspace Method is 0
Virtual Subspace Method is 0
Energy of the unrelaxed supersystem initial determinant w/ solvent -747.366342810008
write pseudocanon occs and virts to disk
write pseudocanon orbital energies to disk
Tolerance of ortho_decomp_scf: 1.00e-06
GDM subspace size: 20
Beginning the Orthogonal Decomposition of the Initial Supersystem Wavefunction
    1    -747.3172999985      2.03e-02     ortho_decomp Preconditoned Steepest Descent
    2    -747.3202913486      5.30e-04     ortho_decomp BFGS Step
    3    -747.3203016065      4.24e-05     ortho_decomp BFGS Step
    4    -747.3203016294      1.92e-06     ortho_decomp BFGS Step
    5    -747.3203016294      7.69e-08     ortho_decomp 00000 Convergence criterion met
 Hartree-Fock
 Hartree-Fock
 Hartree-Fock
Doing General SCFMI
 Exchange:     0.1670 Hartree-Fock + 1.0000 wB97X-V + LR-HF
 Correlation:  1.0000 wB97X-V
 Using Euler-Maclaurin-Lebedev (99,590) quadrature formula
 Nonlocal Correlation:  VV10 with C = 0.0100 and b = 6.00 and scale = 1.00000
 Grid used for NLC:  SG-1 standard quadrature
performing fock build at end of subrot_r(subrot) constructor so that all methods have access
<S^2> of initial wavefunction before polarization iterations 0.0000000000
Beginning iterations for the determination of the polarized wavefunction
Energy prior to optimization (guess energy) = -747.366342810008
Begin Timing: Total SCF Calculation
begin iterations for algorithm: DIIS         
the SCF tolerance is set to 1.00e-08
    1    -747.3663428100      5.52e-05     00000 
    2    -747.3669110493      2.08e-05     00000 
    3    -747.3669598061      1.14e-05     00000 
    4    -747.3669748949      3.79e-06     00000 
    5    -747.3669768102      1.83e-06     00000 
    6    -747.3669773163      1.02e-06     00000 
    7    -747.3669774219      5.52e-07     00000 
    8    -747.3669774438      2.96e-07     00000 
    9    -747.3669774492      1.37e-07     00000 
   10    -747.3669774508      7.49e-08     00000 
   11    -747.3669774514      3.54e-08     00000 
   12    -747.3669774516      1.65e-08     00000 
   13    -747.3669774516      8.76e-09     00000 Convergence criterion met
write pseudocanon occs and virts to disk
write pseudocanon orbital energies to disk
Timing for Total SCF: 7838.00s (wall), 56139.08s (cpu)
<S^2> of polarized wavefunction after polarization iterations 0.0000000000
relaxing scfmi constraint to allow all rotations in the entire AO span
Doing General SCFMI
 Exchange:     0.1670 Hartree-Fock + 1.0000 wB97X-V + LR-HF
 Correlation:  1.0000 wB97X-V
 Using Euler-Maclaurin-Lebedev (99,590) quadrature formula
 Nonlocal Correlation:  VV10 with C = 0.0100 and b = 6.00 and scale = 1.00000
 Grid used for NLC:  SG-1 standard quadrature
performing fock build at end of subrot_r(subrot) constructor so that all methods have access
<S^2> of polarized wavefunction before ct-allowed iterations 0.0000000000
Beginning iterations for the determination of the CT-Allowed wavefunction
Energy prior to optimization (guess energy) = -747.366977451627
Begin Timing: Total SCF Calculation
begin iterations for algorithm: DIIS         
the SCF tolerance is set to 1.00e-08
    1    -747.3669774516      7.01e-05     00000 
    2    -747.3686839587      7.62e-06     00000 
    3    -747.3687346560      1.35e-06     00000 
    4    -747.3687361583      8.07e-07     00000 
    5    -747.3687364015      1.56e-07     00000 
    6    -747.3687364169      7.73e-08     00000 
    7    -747.3687364194      1.96e-08     00000 
    8    -747.3687364196      9.67e-09     00000 Convergence criterion met
write pseudocanon occs and virts to disk
write pseudocanon orbital energies to disk
Timing for Total SCF: 4623.00s (wall), 33016.25s (cpu)
<S^2> of ct_allowed wavefunction after ct-allowed iterations 0.0000000000

================================
        Results of EDA2         
================================
Basic EDA Quantities
--------------------
Fragment Energies (Ha):
1 -442.4825987032
2 -304.8809055076
--------------------
  E_prp (kJ/mol) = 0.0000
  E_sol (kJ/mol) = 3.9554
  E_frz (kJ/mol) = -11.4082
  E_pol (kJ/mol) = -1.6663
  E_vct (kJ/mol) = -4.6182
  E_int (kJ/mol) = -13.7373
--------------------


Initial Wavefunction Decomposition
--------------------
  --------------------
  Orthogonal Fragment Subspace Decomposition:
  --------------------
     E_elec   (ELEC)   (kJ/mol) = -37.4710
     E_pauli  (PAULI)  (kJ/mol) = 53.5041
     E_disp   (DISP)   (kJ/mol) = -27.4413
     --------------------
     Terms summing to E_pauli:
     --------------------
        E_kep_pauli       (kJ/mol) = 68.8815
        E_disp_free_pauli (kJ/mol) = -15.3775
  --------------------
  Classical Frozen Decomposition:
  --------------------
     E_cls_elec  (CLS ELEC)  (kJ/mol) = -17.7097
     E_cls_pauli (CLS PAULI) (kJ/mol) = 6.3014
    [E_mod_pauli (MOD PAULI) (kJ/mol) = 33.7427 (CLS PAULI - DISP from orthogonal decomposition) ]
  --------------------
--------------------

Simplified EDA Summary (kJ/mol)
--------------------
 PREPARATION     0.0000
 SOLVATION       3.9554
 FROZEN          16.0331      (does not include dispersion)
[PAULI           53.5041]     (if this is negligible, then frozen describes electrostatics)
 DISPERSION      -27.4413
 POLARIZATION    -1.6663
 CHARGE TRANSFER -4.6182
 TOTAL           -13.7373     (PRP + SOL + FRZ + DISP + POL + CT)
--------------------

 --------------------------------------------------------------

                    Orbital Energies (a.u.)
 --------------------------------------------------------------

 Alpha MOs
 -- Occupied --
-14.4665 -14.4523 -14.3880 -10.3225 -10.3072 -10.2987 -10.2863 -10.2841
-10.2772 -10.2753 -10.2746 -10.2726 -10.2696 -10.2688 -10.2646 -10.2631
-10.2591 -10.2544  -1.1512  -1.1150  -0.9943  -0.9795  -0.9420  -0.9103
 -0.8871  -0.8684  -0.8589  -0.8485  -0.7611  -0.7581  -0.7455  -0.7283
 -0.7164  -0.6844  -0.6756  -0.6600  -0.6507  -0.6050  -0.5882  -0.5735
 -0.5642  -0.5625  -0.5575  -0.5460  -0.5407  -0.5378  -0.5337  -0.5325
 -0.5169  -0.4987  -0.4828  -0.4736  -0.4681  -0.4625  -0.4562  -0.4550
 -0.4490  -0.4410  -0.4233  -0.3791  -0.3758  -0.3736  -0.3250  -0.3174
 -0.2953
 -- Virtual --
  0.0481   0.0561   0.0672   0.0685   0.0754   0.0843   0.0877   0.0898
  0.0924   0.0929   0.1026   0.1053   0.1107   0.1153   0.1170   0.1219
  0.1347   0.1372   0.1418   0.1434   0.1469   0.1500   0.1562   0.1578
  0.1672   0.1755   0.1777   0.1789   0.1842   0.1850   0.1981   0.1986
  0.1998   0.2050   0.2114   0.2135   0.2179   0.2237   0.2252   0.2318
  0.2354   0.2380   0.2417   0.2461   0.2483   0.2506   0.2558   0.2584
  0.2644   0.2669   0.2691   0.2722   0.2744   0.2794   0.2806   0.2828
  0.2864   0.2875   0.2902   0.2938   0.2951   0.2985   0.3012   0.3049
  0.3075   0.3101   0.3122   0.3162   0.3185   0.3193   0.3270   0.3276
  0.3297   0.3309   0.3330   0.3365   0.3404   0.3430   0.3464   0.3510
  0.3553   0.3558   0.3590   0.3599   0.3645   0.3676   0.3715   0.3730
  0.3742   0.3775   0.3791   0.3834   0.3857   0.3878   0.3884   0.3923
  0.3956   0.4003   0.4018   0.4036   0.4094   0.4113   0.4165   0.4225
  0.4233   0.4242   0.4279   0.4294   0.4340   0.4377   0.4387   0.4433
  0.4445   0.4467   0.4534   0.4564   0.4581   0.4615   0.4636   0.4664
  0.4671   0.4732   0.4733   0.4775   0.4796   0.4833   0.4874   0.4913
  0.4922   0.4963   0.5018   0.5044   0.5061   0.5078   0.5152   0.5176
  0.5212   0.5263   0.5289   0.5319   0.5356   0.5384   0.5450   0.5480
  0.5497   0.5534   0.5569   0.5590   0.5617   0.5683   0.5714   0.5737
  0.5768   0.5777   0.5800   0.5839   0.5868   0.5894   0.5938   0.5988
  0.6020   0.6037   0.6083   0.6140   0.6166   0.6195   0.6208   0.6261
  0.6297   0.6332   0.6341   0.6402   0.6431   0.6493   0.6517   0.6574
  0.6606   0.6644   0.6686   0.6715   0.6737   0.6750   0.6788   0.6816
  0.6864   0.6897   0.6920   0.6949   0.6962   0.6989   0.7058   0.7101
  0.7116   0.7154   0.7173   0.7215   0.7293   0.7326   0.7357   0.7378
  0.7429   0.7465   0.7474   0.7504   0.7563   0.7627   0.7669   0.7675
  0.7715   0.7756   0.7767   0.7815   0.7845   0.7861   0.7903   0.7907
  0.7961   0.7995   0.8027   0.8057   0.8069   0.8087   0.8145   0.8160
  0.8180   0.8234   0.8261   0.8275   0.8322   0.8370   0.8395   0.8416
  0.8455   0.8467   0.8544   0.8613   0.8620   0.8652   0.8673   0.8704
  0.8751   0.8774   0.8797   0.8850   0.8896   0.8926   0.8954   0.8993
  0.9087   0.9127   0.9152   0.9278   0.9303   0.9349   0.9380   0.9414
  0.9451   0.9554   0.9572   0.9607   0.9714   0.9742   0.9762   0.9841
  0.9893   0.9914   0.9982   1.0083   1.0108   1.0131   1.0202   1.0272
  1.0389   1.0419   1.0424   1.0520   1.0622   1.0666   1.0668   1.0762
  1.0794   1.0827   1.0892   1.0960   1.1026   1.1074   1.1137   1.1207
  1.1286   1.1333   1.1409   1.1455   1.1498   1.1564   1.1637   1.1699
  1.1794   1.1844   1.1853   1.1998   1.2014   1.2038   1.2156   1.2178
  1.2252   1.2366   1.2380   1.2489   1.2520   1.2608   1.2719   1.2808
  1.2816   1.2907   1.2981   1.3060   1.3128   1.3269   1.3310   1.3445
  1.3486   1.3561   1.3695   1.3850   1.3904   1.3948   1.3983   1.4059
  1.4187   1.4257   1.4324   1.4477   1.4487   1.4506   1.4601   1.4697
  1.4743   1.4883   1.4939   1.5035   1.5113   1.5208   1.5288   1.5465
  1.5543   1.5566   1.5700   1.5790   1.5836   1.5996   1.6031   1.6165
  1.6324   1.6447   1.6511   1.6534   1.6679   1.6753   1.6793   1.6903
  1.6968   1.7121   1.7198   1.7331   1.7428   1.7583   1.7832   1.7933
  1.8010   1.8111   1.8309   1.8427   1.8480   1.8584   1.8664   1.8745
  1.8797   1.8873   1.8989   1.9070   1.9100   1.9287   1.9311   1.9371
  1.9471   1.9502   1.9540   1.9584   1.9662   1.9677   1.9787   1.9855
  1.9948   1.9973   1.9986   2.0086   2.0111   2.0172   2.0202   2.0297
  2.0372   2.0392   2.0431   2.0441   2.0509   2.0603   2.0633   2.0714
  2.0773   2.0815   2.0942   2.1038   2.1081   2.1217   2.1246   2.1402
  2.1438   2.1508   2.1611   2.1797   2.1865   2.2068   2.2118   2.2221
  2.2338   2.2385   2.2550   2.2607   2.2719   2.2831   2.2938   2.3033
  2.3100   2.3227   2.3261   2.3392   2.3518   2.3564   2.3614   2.3652
  2.3816   2.3839   2.3962   2.4100   2.4248   2.4381   2.4463   2.4563
  2.4595   2.4751   2.4891   2.4921   2.5013   2.5111   2.5188   2.5295
  2.5427   2.5487   2.5653   2.5765   2.5845   2.5932   2.6012   2.6079
  2.6268   2.6330   2.6354   2.6447   2.6476   2.6591   2.6687   2.6755
  2.6865   2.6940   2.6985   2.7070   2.7192   2.7297   2.7395   2.7429
  2.7472   2.7542   2.7644   2.7812   2.7877   2.7952   2.8019   2.8055
  2.8064   2.8220   2.8278   2.8334   2.8385   2.8540   2.8599   2.8626
  2.8785   2.8827   2.8849   2.9011   2.9113   2.9153   2.9257   2.9298
  2.9439   2.9580   2.9626   2.9686   2.9739   2.9779   2.9953   3.0029
  3.0136   3.0157   3.0194   3.0244   3.0384   3.0421   3.0528   3.0677
  3.0726   3.0728   3.0841   3.0921   3.1019   3.1083   3.1130   3.1230
  3.1319   3.1388   3.1533   3.1585   3.1649   3.1761   3.1785   3.1850
  3.1939   3.2115   3.2215   3.2306   3.2389   3.2409   3.2482   3.2618
  3.2686   3.2869   3.2920   3.3086   3.3146   3.3203   3.3306   3.3382
  3.3429   3.3496   3.3634   3.3675   3.3722   3.3762   3.3845   3.3939
  3.3969   3.4041   3.4072   3.4183   3.4271   3.4323   3.4362   3.4381
  3.4458   3.4517   3.4606   3.4654   3.4755   3.4798   3.4826   3.4913
  3.5004   3.5022   3.5110   3.5243   3.5279   3.5394   3.5443   3.5510
  3.5533   3.5543   3.5676   3.5733   3.5796   3.5843   3.5924   3.6099
  3.6158   3.6192   3.6285   3.6368   3.6426   3.6485   3.6533   3.6606
  3.6704   3.6770   3.6788   3.6837   3.6923   3.6982   3.7052   3.7086
  3.7155   3.7301   3.7377   3.7409   3.7482   3.7525   3.7641   3.7764
  3.7839   3.7943   3.7995   3.8093   3.8253   3.8270   3.8413   3.8589
  3.8667   3.8849   3.8951   3.9027   3.9302   3.9328   3.9447   3.9571
  3.9751   3.9957   4.0001   4.0281   4.0423   4.0652   4.0731   4.0832
  4.0985   4.1367   4.1443   4.1453   4.1626   4.1762   4.1868   4.2003
  4.2085   4.2146   4.2359   4.2555   4.2652   4.2775   4.2827   4.3006
  4.3182   4.3302   4.3354   4.3513   4.3565   4.3605   4.3765   4.4120
  4.4229   4.4360   4.4653   4.4825   4.4871   4.4977   4.5071   4.5319
  4.5648   4.5660   4.5800   4.6045   4.6086   4.6207   4.6295   4.6395
  4.6573   4.6782   4.6901   4.7157   4.7372   4.7688   4.7849   4.8219
  4.8266   4.8482   4.8672   4.8751   4.8873   4.8935   4.9321   4.9335
  4.9658   4.9714   4.9938   4.9977   5.0175   5.0235   5.0370   5.0475
  5.0609   5.0692   5.0886   5.0979   5.1239   5.1321   5.1516   5.1691
  5.1832   5.2022   5.2094   5.2253   5.2347   5.2430   5.2881   5.3150
  5.3808   5.3890   5.4132   5.4559   5.4780   5.4888   5.5191   5.5377
  5.5455   5.5914   5.6198   5.6259   5.6427   5.6849   5.7120   5.7294
  5.8034   5.8113   5.8188   5.8336   5.8990   5.9363   5.9770   6.0752
  6.2555   6.2615   6.2773   6.3171  22.6726  22.7084  22.8288  22.8572
 22.8937  22.9468  22.9788  22.9977  23.0457  23.1602  23.1948  23.2815
 23.4232  23.4880  23.7721  32.7553  32.8593  32.8770
 --------------------------------------------------------------

          Ground-State Mulliken Net Atomic Charges

     Atom                 Charge (a.u.)
  ----------------------------------------
      1 C                     0.128463
      2 C                    -0.923520
      3 C                     0.382696
      4 C                    -0.429722
      5 C                     0.314253
      6 C                    -0.225592
      7 C                    -0.151864
      8 C                    -0.489758
      9 C                    -0.583615
     10 C                    -0.508946
     11 N                     0.133518
     12 H                    -0.407355
     13 H                     0.340824
     14 H                     0.259471
     15 H                     0.260544
     16 H                     0.215731
     17 H                     0.284499
     18 H                     0.340681
     19 H                     0.355980
     20 H                     0.352192
     21 H                     0.237450
     22 H                     0.240813
     23 C                     0.772179
     24 C                    -0.861356
     25 C                    -0.178657
     26 C                    -0.575082
     27 C                    -0.378180
     28 N                    -0.500594
     29 N                     0.123406
     30 H                     0.280816
     31 H                    -0.513570
     32 H                     0.261627
     33 H                     0.487487
     34 H                     0.282644
     35 H                     0.194928
     36 H                     0.241416
     37 H                     0.236193
  ----------------------------------------
  Sum of atomic charges =     0.000000

 -----------------------------------------------------------------
                    Cartesian Multipole Moments
 -----------------------------------------------------------------
    Charge (ESU x 10^10)
                -0.0000
    Dipole Moment (Debye)
         X      -2.1638      Y      -0.0060      Z       4.9343
       Tot       5.3879
    Quadrupole Moments (Debye-Ang)
        XX    -108.6501     XY     -20.5301     YY    -106.3008
        XZ      11.8783     YZ       1.3432     ZZ     -96.6588
    Octopole Moments (Debye-Ang^2)
       XXX      26.1678    XXY      -5.3976    XYY     -13.0623
       YYY       7.8965    XXZ      93.2359    XYZ     -15.9503
       YYZ      17.1080    XZZ     -14.3815    YZZ       4.5924
       ZZZ      70.4725
    Hexadecapole Moments (Debye-Ang^3)
      XXXX   -4017.5473   XXXY    -268.6793   XXYY    -868.6222
      XYYY     -84.8789   YYYY    -933.1190   XXXZ     397.7176
      XXYZ     131.1455   XYYZ      46.0958   YYYZ     295.8211
      XXZZ    -999.8777   XYZZ     -79.3720   YYZZ    -469.6961
      XZZZ      91.9080   YZZZ     280.1645   ZZZZ   -1968.1669
 -----------------------------------------------------------------
Archival summary:
1\1\compute-0-7.local\SP\ProcedureUnspecified\BasisUnspecified\31519\meili\FriOct103:09:362021FriOct103:09:362021\0\\#,ProcedureUnspecified,BasisUnspecified,\\0,1\C\C,1,1.41256\H,2,1.07738,1,120.745\C,2,1.40953,1,119.292,3,179.387,0\H,4,1.08091,2,119.488,1,179.691,0\C,4,1.40221,2,120.451,1,-0.7353,0\H,6,1.08065,4,119.352,2,179.897,0\C,6,1.38791,4,121.175,2,0.206292,0\H,8,1.08078,6,121.102,4,178.378,0\C,8,1.38924,6,118.52,4,0.163409,0\N,10,1.37653,8,130.876,6,179.464,0\H,11,1.02253,10,125.711,8,10.2637,0\C,11,1.38102,10,109.33,8,-179.614,0\H,13,1.08013,11,125.537,10,-177.234,0\C,13,1.35418,11,110.648,10,-0.798469,0\C,15,1.49919,13,125.247,11,-172.731,0\H,16,1.08035,15,110.472,13,123.482,0\H,16,1.09131,15,106.449,13,8.59331,0\C,16,1.51013,15,116.539,13,-112.347,0\H,19,1.08795,16,109.084,15,44.513,0\H,19,1.1,16,106.576,15,162.427,0\H,19,1.1,16,111.202,15,-78.7541,0\H,17,2.05204,16,133.263,15,-7.64709,0\C,23,1.083,17,128.741,16,-159.186,0\H,24,1.08381,23,108.381,17,76.0595,0\C,24,1.51727,23,106.674,17,-168.311,0\C,26,1.36242,24,129.836,23,0.56552,0\H,27,1.07856,26,126.219,24,-1.86901,0\N,27,1.38308,26,106.926,24,179.876,0\H,29,1.02095,27,125.136,26,176.431,0\C,29,1.33083,27,108.565,26,0.0528846,0\H,31,1.07515,29,125.141,27,178.039,0\N,31,1.33741,29,109.345,27,-0.277727,0\C,24,1.55784,23,110.852,17,-42.8226,0\H,34,1.08953,24,109.838,23,-174.887,0\H,34,1.1,24,108.575,23,63.7919,0\H,34,1.1,24,108.423,23,-55.0815,0\\\@

 Total job time:  91370.38s(wall), 171188.74s(cpu) 
 Fri Oct  1 03:09:36 2021

        *************************************************************
        *                                                           *
        *  Thank you very much for using Q-Chem.  Have a nice day.  *
        *                                                           *
        *************************************************************


