
Running Job 1 of 1 SSI-033GLU-036ARG-1_PCM_TZVPD.in
qchem SSI-033GLU-036ARG-1_PCM_TZVPD.in_22152.0 /tmp/qchem22152/ 0
/global/common/cori/software/qchem/5.2/exe/qcprog.exe_s SSI-033GLU-036ARG-1_PCM_TZVPD.in_22152.0 /tmp/qchem22152/
                  Welcome to Q-Chem
     A Quantum Leap Into The Future Of Chemistry


 Q-Chem 5.2, Q-Chem, Inc., Pleasanton, CA (2019)

 License issued to: National Energy Research Scientific Computing Center

 Yihan Shao,  Zhengting Gan,  E. Epifanovsky,  A. T. B. Gilbert,  M. Wormit,  
 J. Kussmann,  A. W. Lange,  A. Behn,  Jia Deng,  Xintian Feng,  D. Ghosh,  
 M. Goldey,  P. R. Horn,  L. D. Jacobson,  I. Kaliman,  T. Kus,  A. Landau,  
 Jie Liu,  E. I. Proynov,  R. M. Richard,  R. P. Steele,  E. J. Sundstrom,  
 H. L. Woodcock III,  P. M. Zimmerman,  D. Zuev,  B. Albrecht,  E. Alguire,  
 S. A. Baeppler,  D. Barton,  Z. Benda,  Y. A. Bernard,  E. J. Berquist,  
 K. B. Bravaya,  H. Burton,  D. Casanova,  Chun-Min Chang,  Yunqing Chen,  
 A. Chien,  K. D. Closser,  M. P. Coons,  S. Coriani,  S. Dasgupta,  
 A. L. Dempwolff,  M. Diedenhofen,  Hainam Do,  R. G. Edgar,  Po-Tung Fang,  
 S. Faraji,  S. Fatehi,  Qingguo Feng,  K. D. Fenk,  J. Fosso-Tande,  
 J. Gayvert,  Qinghui Ge,  A. Ghysels,  G. Gidofalvi,  J. Gomes,  
 J. Gonthier,  A. Gunina,  D. Hait,  M. W. D. Hanson-Heine,  
 P. H. P. Harbach,  A. W. Hauser,  M. F. Herbst,  J. E. Herr,  
 E. G. Hohenstein,  Z. C. Holden,  Kerwin Hui,  B. C. Huynh,  T.-C. Jagau,  
 Hyunjun Ji,  B. Kaduk,  K. Khistyaev,  Jaehoon Kim,  P. Klunzinger,  K. Koh,  
 D. Kosenkov,  L. Koulias,  T. Kowalczyk,  C. M. Krauter,  A. Kunitsa,  
 Ka Un Lao,  A. Laurent,  K. V. Lawler,  Joonho Lee,  D. Lefrancois,  
 S. Lehtola,  D. S. Levine,  Yi-Pei Li,  You-Sheng Lin,  Fenglai Liu,  
 E. Livshits,  A. Luenser,  P. Manohar,  E. Mansoor,  S. F. Manzer,  
 Shan-Ping Mao,  Yuezhi Mao,  N. Mardirossian,  A. V. Marenich,  
 T. Markovich,  L. A. Martinez-Martinez,  S. A. Maurer,  N. J. Mayhall,  
 S. C. McKenzie,  J.-M. Mewes,  P. Morgante,  A. F. Morrison,  
 J. W. Mullinax,  K. Nanda,  T. S. Nguyen-Beck,  R. Olivares-Amaya,  
 J. A. Parkhill,  Zheng Pei,  T. M. Perrine,  F. Plasser,  P. Pokhilko,  
 S. Prager,  A. Prociuk,  E. Ramos,  D. R. Rehn,  F. Rob,  M. Scheurer,  
 M. Schneider,  N. Sergueev,  S. M. Sharada,  S. Sharma,  D. W. Small,  
 T. Stauch,  T. Stein,  Yu-Chuan Su,  A. J. W. Thom,  A. Tkatchenko,  
 T. Tsuchimochi,  N. M. Tubman,  L. Vogt,  M. L. Vidal,  O. Vydrov,  
 M. A. Watson,  J. Wenzel,  M. de Wergifosse,  T. A. Wesolowski,  A. White,  
 J. Witte,  A. Yamada,  Jun Yang,  K. Yao,  S. Yeganeh,  S. R. Yost,  
 Zhi-Qiang You,  A. Zech,  Igor Ying Zhang,  Xing Zhang,  Yan Zhao,  
 Ying Zhu,  B. R. Brooks,  G. K. L. Chan,  C. J. Cramer,  M. S. Gordon,  
 W. J. Hehre,  A. Klamt,  M. W. Schmidt,  C. D. Sherrill,  D. G. Truhlar,  
 A. Aspuru-Guzik,  R. Baer,  A. T. Bell,  N. A. Besley,  Jeng-Da Chai,  
 A. E. DePrince, III,  R. A. DiStasio Jr.,  A. Dreuw,  B. D. Dunietz,  
 T. R. Furlani,  Chao-Ping Hsu,  Yousung Jung,  Jing Kong,  D. S. Lambrecht,  
 WanZhen Liang,  C. Ochsenfeld,  V. A. Rassolov,  L. V. Slipchenko,  
 J. E. Subotnik,  T. Van Voorhis,  J. M. Herbert,  A. I. Krylov,  
 P. M. W. Gill,  M. Head-Gordon

 Contributors to earlier versions of Q-Chem not listed above: 
 R. D. Adamson,  B. Austin,  J. Baker,  G. J. O. Beran,  K. Brandhorst,  
 S. T. Brown,  E. F. C. Byrd,  A. K. Chakraborty,  C.-L. Cheng,  
 Siu Hung Chien,  D. M. Chipman,  D. L. Crittenden,  H. Dachsel,  
 R. J. Doerksen,  A. D. Dutoi,  L. Fusti-Molnar,  W. A. Goddard III,  
 A. Golubeva-Zadorozhnaya,  S. R. Gwaltney,  G. Hawkins,  A. Heyden,  
 S. Hirata,  G. Kedziora,  F. J. Keil,  C. Kelley,  Jihan Kim,  R. A. King,  
 R. Z. Khaliullin,  P. P. Korambath,  W. Kurlancheek,  A. M. Lee,  M. S. Lee,  
 S. V. Levchenko,  Ching Yeh Lin,  D. Liotard,  R. C. Lochan,  I. Lotan,  
 P. E. Maslen,  N. Nair,  D. P. O'Neill,  D. Neuhauser,  E. Neuscamman,  
 C. M. Oana,  R. Olson,  B. Peters,  R. Peverati,  P. A. Pieniazek,  
 Y. M. Rhee,  J. Ritchie,  M. A. Rohrdanz,  E. Rosta,  N. J. Russ,  
 H. F. Schaefer III,  N. E. Schultz,  N. Shenvi,  A. C. Simmonett,  A. Sodt,  
 D. Stuck,  K. S. Thanthiriwatte,  V. Vanovschi,  Tao Wang,  A. Warshel,  
 C. F. Williams,  Q. Wu,  X. Xu,  W. Zhang

 Please cite Q-Chem as follows:
 Y. Shao et al., Mol. Phys. 113, 184-215 (2015)
 DOI: 10.1080/00268976.2014.952696

 Q-Chem 5.2.0 for Intel X86 EM64T Linux

 Parts of Q-Chem use Armadillo 8.300.2 (Tropical Shenanigans).
 http://arma.sourceforge.net/

 Q-Chem begins on Sun Sep 26 05:23:25 2021  

Host: cori01
0

     Scratch files written to /tmp/qchem22152//
 May1019 |scratch|qcdevops|jenkins|workspace|build_RNUM -1
Processing $rem in /global/common/cori/software/qchem/5.2/config/preferences:
	 MEM_TOTAL  96000 
NAlpha2: 72
NElect   72
Mult     1
Symmetry turned off for PCM/SM12/SMD calculation

 Q-Chem warning in module libgen/rem_setup.C, line 2803:

 Neither GIA nor STOLL is specified by user. Use STOLL as the default


Checking the input file for inconsistencies... 	...done.

--------------------------------------------------------------
User input:
--------------------------------------------------------------
$comment
SSI-033GLU-036ARG-1.pdb
$end

$molecule
0 1
--
-1 1
C    0.884597811201    1.607126547600   -3.166208856648
C    0.979597811201    0.907126547600   -1.804208856648
O    0.768597811201   -0.326873452400   -1.678208856648
O    1.290597811201    1.620126547600   -0.827208856648
H    1.889597811201    1.925126547600   -3.453208856648
H    0.288597811201    2.516126547600   -3.077208856648
H    0.495497811201    0.984416547600   -3.985258856648
--
1 1
C   -1.544402188799   -2.355873452400    0.587791143352
C   -0.597402188799   -0.368873452400    1.704791143352
N   -0.751402188799   -1.128873452400    0.633791143352
N   -1.122402188799   -0.713873452400    2.872791143352
N    0.095597811201    0.743126547600    1.597791143352
H   -0.241402188799   -0.850873452400   -0.208208856648
H   -1.370402188799   -2.966873452400    1.471791143352
H   -1.253402188799   -2.940873452400   -0.287208856648
H   -1.566402188799   -1.613873452400    3.015791143352
H   -1.065402188799   -0.037873452400    3.630791143352
H    0.520597811201    0.994126547600    0.702791143352
H    0.241597811201    1.336126547600    2.411791143352
H   -2.607342188799   -2.085596452400    0.503511143352
$end

$rem
JOBTYPE			EDA
EDA2			1
method			wB97X-V
BASIS			def2-TZVPD
XC_GRID			000099000590
NL_GRID			1
UNRESTRICTED		FALSE
MAX_SCF_CYCLES		200
SYMMETRY		FALSE
SYM_IGNORE		TRUE
MEM_STATIC		2000
BASIS_LIN_DEP_THRESH 	6
THRESH 			14
SCF_CONVERGENCE 	8
SCF_PRINT_FRGM 		TRUE
SOLVENT_METHOD          PCM
$end

$PCM
THEORY                  CPCM
METHOD                  SWIG
SOLVER                  INVERSION
RADII                   UFF
HPOINTS                 302
HEAVYPOINTS             302
PRINTLEVEL              0
$END

$SOLVENT
DIELECTRIC              78.390000 ! water
$END
--------------------------------------------------------------
 ----------------------------------------------------------------
             Standard Nuclear Orientation (Angstroms)
    I     Atom           X                Y                Z
 ----------------------------------------------------------------
    1      C       0.8845978112     1.6071265476    -3.1662088566
    2      C       0.9795978112     0.9071265476    -1.8042088566
    3      O       0.7685978112    -0.3268734524    -1.6782088566
    4      O       1.2905978112     1.6201265476    -0.8272088566
    5      H       1.8895978112     1.9251265476    -3.4532088566
    6      H       0.2885978112     2.5161265476    -3.0772088566
    7      H       0.4954978112     0.9844165476    -3.9852588566
    8      C      -1.5444021888    -2.3558734524     0.5877911434
    9      C      -0.5974021888    -0.3688734524     1.7047911434
   10      N      -0.7514021888    -1.1288734524     0.6337911434
   11      N      -1.1224021888    -0.7138734524     2.8727911434
   12      N       0.0955978112     0.7431265476     1.5977911434
   13      H      -0.2414021888    -0.8508734524    -0.2082088566
   14      H      -1.3704021888    -2.9668734524     1.4717911434
   15      H      -1.2534021888    -2.9408734524    -0.2872088566
   16      H      -1.5664021888    -1.6138734524     3.0157911434
   17      H      -1.0654021888    -0.0378734524     3.6307911434
   18      H       0.5205978112     0.9941265476     0.7027911434
   19      H       0.2415978112     1.3361265476     2.4117911434
   20      H      -2.6073421888    -2.0855964524     0.5035111434
 ----------------------------------------------------------------
 Nuclear Repulsion Energy =         464.78971068 hartrees
 There are       36 alpha and       36 beta electrons
 Requested basis set is def2-TZVPD
 There are 174 shells and 438 basis functions

 Total QAlloc Memory Limit  96000 MB
 Mega-Array Size      1956 MB
 MEM_STATIC part      2000 MB
 Discretize the solute cavity surface with Lebedev spheres
	Using 302 Lebedev grid points for each H atom
	Using 302 Lebedev grid points for other atoms
	Atomic van der Waals radii will be scaled by 1.20
 Remove points where switching function is < 1.0e-08
 Keep 2324 surface tesserae and discard 3716 interior tesserae
 Molecular Surface Area = 232.297 Angst**2
 A cutoff of  1.0D-14 yielded  13632 shell pairs
 There are     87462 function pairs (    110085 Cartesian)
 Smallest overlap matrix eigenvalue = 9.97E-06

 Scale SEOQF with 1.000000e-01/1.000000e-01/1.000000e-01

 Standard Electronic Orientation quadrupole field applied
 Nucleus-field energy     =    -0.0000000172 hartrees

 -----------------------------------------------------------------------
  General SCF calculation program by
  Eric Jon Sundstrom, Paul Horn, Yuezhi Mao, Dmitri Zuev, Alec White,
  David Stuck, Shaama M.S., Shane Yost, Joonho Lee, David Small,
  Daniel Levine, Susi Lehtola, Hugh Burton, Evgeny Epifanovsky
 -----------------------------------------------------------------------
================================================================
                 ALMO-EDA with the EDA2 driver                  
================================================================
 The second-generation ALMO-EDA (for DFT):                      
 P. R. Horn, Y. Mao and M. Head-Gordon, PCCP, 18, 23067 (2016)  
 Decomposition of the frozen energy:                            
 P. R. Horn, Y. Mao and M. Head-Gordon, JCP, 144, 114107 (2016) 
 FERF model for polarization:                                   
 P. R. Horn and M. Head-Gordon, JCP, 143, 114111 (2015)         
Using eda2 option set 1
Option set summary: Frozen orbital wavefunction, initial wavefunction decomposition, and nDQ polarization.
--------------------------------
Printing EDA Options
--------------------------------
eda_child_super_basis      0
fragmo_guess_mode          0
child_mp                   1
child_mp_orders            232
cls_elec                   1
cls_disp                   0
scfmi_mode                 1
scfmi_occs                 0
scfmi_virts                0
frz_relax                  0
frz_relax_method           0
dc_pen_start               0
dc_pen_conv                0
dc_pen_increment           0
dc_pen_steps               0
dc_pen_thresh_factor       0
dc_pen_pre_newton_thresh   0
frz_ortho_decomp           1
frz_ortho_decomp_conv      6
frgm_method                2
scfmi_freeze_ss            0
separate_rehyb             0
plot_diff_den              0
eda_nocv                   0
eda_vct_relax              1
disp_free_x                0
disp_free_c                0
eda_bsse                   0
eda_pct_a                  0
eda_covp                   0
--------------------------------
Attempting to make child job directory: /tmp/qchem22152//Frg1/
Attempting to make child job directory: /tmp/qchem22152//Frg2/
Creating input file /tmp/qchem22152/Frg1.input
using default PutDataFrgm: nothing
calling putenv with: QCSCRATCH=/tmp/qchem22152/ 
calling putenv with: QCLOCALSCR=/tmp/qchem22152/ 
Spawning Job For Fragment 0
                  Welcome to Q-Chem
     A Quantum Leap Into The Future Of Chemistry


 Q-Chem 5.2, Q-Chem, Inc., Pleasanton, CA (2019)

 License issued to: National Energy Research Scientific Computing Center

 Yihan Shao,  Zhengting Gan,  E. Epifanovsky,  A. T. B. Gilbert,  M. Wormit,  
 J. Kussmann,  A. W. Lange,  A. Behn,  Jia Deng,  Xintian Feng,  D. Ghosh,  
 M. Goldey,  P. R. Horn,  L. D. Jacobson,  I. Kaliman,  T. Kus,  A. Landau,  
 Jie Liu,  E. I. Proynov,  R. M. Richard,  R. P. Steele,  E. J. Sundstrom,  
 H. L. Woodcock III,  P. M. Zimmerman,  D. Zuev,  B. Albrecht,  E. Alguire,  
 S. A. Baeppler,  D. Barton,  Z. Benda,  Y. A. Bernard,  E. J. Berquist,  
 K. B. Bravaya,  H. Burton,  D. Casanova,  Chun-Min Chang,  Yunqing Chen,  
 A. Chien,  K. D. Closser,  M. P. Coons,  S. Coriani,  S. Dasgupta,  
 A. L. Dempwolff,  M. Diedenhofen,  Hainam Do,  R. G. Edgar,  Po-Tung Fang,  
 S. Faraji,  S. Fatehi,  Qingguo Feng,  K. D. Fenk,  J. Fosso-Tande,  
 J. Gayvert,  Qinghui Ge,  A. Ghysels,  G. Gidofalvi,  J. Gomes,  
 J. Gonthier,  A. Gunina,  D. Hait,  M. W. D. Hanson-Heine,  
 P. H. P. Harbach,  A. W. Hauser,  M. F. Herbst,  J. E. Herr,  
 E. G. Hohenstein,  Z. C. Holden,  Kerwin Hui,  B. C. Huynh,  T.-C. Jagau,  
 Hyunjun Ji,  B. Kaduk,  K. Khistyaev,  Jaehoon Kim,  P. Klunzinger,  K. Koh,  
 D. Kosenkov,  L. Koulias,  T. Kowalczyk,  C. M. Krauter,  A. Kunitsa,  
 Ka Un Lao,  A. Laurent,  K. V. Lawler,  Joonho Lee,  D. Lefrancois,  
 S. Lehtola,  D. S. Levine,  Yi-Pei Li,  You-Sheng Lin,  Fenglai Liu,  
 E. Livshits,  A. Luenser,  P. Manohar,  E. Mansoor,  S. F. Manzer,  
 Shan-Ping Mao,  Yuezhi Mao,  N. Mardirossian,  A. V. Marenich,  
 T. Markovich,  L. A. Martinez-Martinez,  S. A. Maurer,  N. J. Mayhall,  
 S. C. McKenzie,  J.-M. Mewes,  P. Morgante,  A. F. Morrison,  
 J. W. Mullinax,  K. Nanda,  T. S. Nguyen-Beck,  R. Olivares-Amaya,  
 J. A. Parkhill,  Zheng Pei,  T. M. Perrine,  F. Plasser,  P. Pokhilko,  
 S. Prager,  A. Prociuk,  E. Ramos,  D. R. Rehn,  F. Rob,  M. Scheurer,  
 M. Schneider,  N. Sergueev,  S. M. Sharada,  S. Sharma,  D. W. Small,  
 T. Stauch,  T. Stein,  Yu-Chuan Su,  A. J. W. Thom,  A. Tkatchenko,  
 T. Tsuchimochi,  N. M. Tubman,  L. Vogt,  M. L. Vidal,  O. Vydrov,  
 M. A. Watson,  J. Wenzel,  M. de Wergifosse,  T. A. Wesolowski,  A. White,  
 J. Witte,  A. Yamada,  Jun Yang,  K. Yao,  S. Yeganeh,  S. R. Yost,  
 Zhi-Qiang You,  A. Zech,  Igor Ying Zhang,  Xing Zhang,  Yan Zhao,  
 Ying Zhu,  B. R. Brooks,  G. K. L. Chan,  C. J. Cramer,  M. S. Gordon,  
 W. J. Hehre,  A. Klamt,  M. W. Schmidt,  C. D. Sherrill,  D. G. Truhlar,  
 A. Aspuru-Guzik,  R. Baer,  A. T. Bell,  N. A. Besley,  Jeng-Da Chai,  
 A. E. DePrince, III,  R. A. DiStasio Jr.,  A. Dreuw,  B. D. Dunietz,  
 T. R. Furlani,  Chao-Ping Hsu,  Yousung Jung,  Jing Kong,  D. S. Lambrecht,  
 WanZhen Liang,  C. Ochsenfeld,  V. A. Rassolov,  L. V. Slipchenko,  
 J. E. Subotnik,  T. Van Voorhis,  J. M. Herbert,  A. I. Krylov,  
 P. M. W. Gill,  M. Head-Gordon

 Contributors to earlier versions of Q-Chem not listed above: 
 R. D. Adamson,  B. Austin,  J. Baker,  G. J. O. Beran,  K. Brandhorst,  
 S. T. Brown,  E. F. C. Byrd,  A. K. Chakraborty,  C.-L. Cheng,  
 Siu Hung Chien,  D. M. Chipman,  D. L. Crittenden,  H. Dachsel,  
 R. J. Doerksen,  A. D. Dutoi,  L. Fusti-Molnar,  W. A. Goddard III,  
 A. Golubeva-Zadorozhnaya,  S. R. Gwaltney,  G. Hawkins,  A. Heyden,  
 S. Hirata,  G. Kedziora,  F. J. Keil,  C. Kelley,  Jihan Kim,  R. A. King,  
 R. Z. Khaliullin,  P. P. Korambath,  W. Kurlancheek,  A. M. Lee,  M. S. Lee,  
 S. V. Levchenko,  Ching Yeh Lin,  D. Liotard,  R. C. Lochan,  I. Lotan,  
 P. E. Maslen,  N. Nair,  D. P. O'Neill,  D. Neuhauser,  E. Neuscamman,  
 C. M. Oana,  R. Olson,  B. Peters,  R. Peverati,  P. A. Pieniazek,  
 Y. M. Rhee,  J. Ritchie,  M. A. Rohrdanz,  E. Rosta,  N. J. Russ,  
 H. F. Schaefer III,  N. E. Schultz,  N. Shenvi,  A. C. Simmonett,  A. Sodt,  
 D. Stuck,  K. S. Thanthiriwatte,  V. Vanovschi,  Tao Wang,  A. Warshel,  
 C. F. Williams,  Q. Wu,  X. Xu,  W. Zhang

 Please cite Q-Chem as follows:
 Y. Shao et al., Mol. Phys. 113, 184-215 (2015)
 DOI: 10.1080/00268976.2014.952696

 Q-Chem 5.2.0 for Intel X86 EM64T Linux

 Parts of Q-Chem use Armadillo 8.300.2 (Tropical Shenanigans).
 http://arma.sourceforge.net/

 Q-Chem begins on Sun Sep 26 05:23:29 2021  

Host: cori01
0

     Scratch files written to /tmp/qchem22152//Frg1//
 May1019 |scratch|qcdevops|jenkins|workspace|build_RNUM -1
Processing $rem in /global/common/cori/software/qchem/5.2/config/preferences:
	 MEM_TOTAL  96000 
NAlpha2: 32
NElect   32
Mult     1
Symmetry turned off for PCM/SM12/SMD calculation

Checking the input file for inconsistencies... 	...done.

--------------------------------------------------------------
User input:
--------------------------------------------------------------
$molecule
-1 1
 6	0.8845978112	1.6071265476	-3.1662088566
 6	0.9795978112	0.9071265476	-1.8042088566
 8	0.7685978112	-0.3268734524	-1.6782088566
 8	1.2905978112	1.6201265476	-0.8272088566
 1	1.8895978112	1.9251265476	-3.4532088566
 1	0.2885978112	2.5161265476	-3.0772088566
 1	0.4954978112	0.9844165476	-3.9852588566
$end
$rem
EDA2		1
METHOD		WB97X-V
BASIS		DEF2-TZVPD
XC_GRID		000099000590
NL_GRID		1
UNRESTRICTED		FALSE
MAX_SCF_CYCLES		200
SYMMETRY		FALSE
SYM_IGNORE		TRUE
BASIS_LIN_DEP_THRESH		6
THRESH		14
SCF_CONVERGENCE		8
SCF_PRINT_FRGM		TRUE
SOLVENT_METHOD		PCM
!required keywords
JOBTYPE		SP
SYM_IGNORE		TRUE
SUBSYSTEM		TRUE
GEN_SCFMAN		TRUE
CHILD_INSTRUCTION		2
SYM_IGNORE		TRUE
SCFMI		0
RI_K 0		
PARI_K 0		
MIN_PARI_K 0		
IARI_K 0		
OCC_RI_K 0		
PURECART		1111
MEM_STATIC		2000
MEM_TOTAL		96000
GUI		0
CHILD_MP		1
CHILD_MP_ORDERS		232
FRZ_RELAX		0
FRZ_RELAX_METHOD		0
EDA_CLS_ELEC		1
EDA_CLS_DISP		0
FRZ_ORTHO_DECOMP		1
EDA2		FALSE
FRGM_METHOD		FALSE
CIS_N_ROOTS  0
LOCAL_CIS    0
CIS_RLX_DNS  1
$end
$pcm
THEORY                  CPCM
METHOD                  SWIG
SOLVER                  INVERSION
RADII                   UFF
HPOINTS                 302
HEAVYPOINTS             302
PRINTLEVEL              0
$end
$solvent
DIELECTRIC              78.390000 ! water
$end
--------------------------------------------------------------
 ----------------------------------------------------------------
             Standard Nuclear Orientation (Angstroms)
    I     Atom           X                Y                Z
 ----------------------------------------------------------------
    1      C       0.8845978112     1.6071265476    -3.1662088566
    2      C       0.9795978112     0.9071265476    -1.8042088566
    3      O       0.7685978112    -0.3268734524    -1.6782088566
    4      O       1.2905978112     1.6201265476    -0.8272088566
    5      H       1.8895978112     1.9251265476    -3.4532088566
    6      H       0.2885978112     2.5161265476    -3.0772088566
    7      H       0.4954978112     0.9844165476    -3.9852588566
 ----------------------------------------------------------------
 Nuclear Repulsion Energy =         112.22603524 hartrees
 There are       16 alpha and       16 beta electrons
 Requested basis set is def2-TZVPD
 There are 69 shells and 181 basis functions

 Total QAlloc Memory Limit  96000 MB
 Mega-Array Size      1956 MB
 MEM_STATIC part      2000 MB
 Discretize the solute cavity surface with Lebedev spheres
	Using 302 Lebedev grid points for each H atom
	Using 302 Lebedev grid points for other atoms
	Atomic van der Waals radii will be scaled by 1.20
 Remove points where switching function is < 1.0e-08
 Keep 1024 surface tesserae and discard 1090 interior tesserae
 Molecular Surface Area = 120.599 Angst**2

                       Distance Matrix (Angstroms)
             C (  1)   C (  2)   O (  3)   O (  4)   H (  5)   H (  6)
   C (  2)  1.534298
   O (  3)  2.442940  1.258234
   O (  4)  2.374011  1.248847  2.188034
   H (  5)  1.092482  2.140940  3.078761  2.710664
   H (  6)  1.090604  2.164923  3.204723  2.620939  1.747529
   H (  7)  1.100004  2.235465  2.667685  3.318070  1.763952  1.792623

 
 A cutoff of  1.0D-14 yielded   2390 shell pairs
 There are     16694 function pairs (     21490 Cartesian)
 Smallest overlap matrix eigenvalue = 1.72E-05

 Scale SEOQF with 1.000000e-01/1.000000e-01/1.000000e-01

 Standard Electronic Orientation quadrupole field applied
 Nucleus-field energy     =    -0.0000000106 hartrees
 Guess from superposition of atomic densities
 Warning:  Energy on first SCF cycle will be non-variational
 SAD guess density has 30.625312 electrons

 -----------------------------------------------------------------------
  General SCF calculation program by
  Eric Jon Sundstrom, Paul Horn, Yuezhi Mao, Dmitri Zuev, Alec White,
  David Stuck, Shaama M.S., Shane Yost, Joonho Lee, David Small,
  Daniel Levine, Susi Lehtola, Hugh Burton, Evgeny Epifanovsky
 -----------------------------------------------------------------------
 Exchange:     0.1670 Hartree-Fock + 1.0000 wB97X-V + LR-HF
 Correlation:  1.0000 wB97X-V
 Using Euler-Maclaurin-Lebedev (99,590) quadrature formula
 Nonlocal Correlation:  VV10 with C = 0.0100 and b = 6.00 and scale = 1.00000
 Grid used for NLC:  SG-1 standard quadrature
Energy prior to optimization (guess energy) = -227.756327045556
Begin Timing: Total SCF Calculation
begin iterations for algorithm: DIIS         
the SCF tolerance is set to 1.00e-08
    1    -227.7563270456      1.67e-02     00000 
    2    -225.5547519817      2.56e-02     00000 
    3    -228.5754849054      4.16e-03     00000 
    4    -228.6346564043      1.45e-03     00000 
    5    -228.6411323714      3.70e-04     00000 
    6    -228.6414732105      2.58e-04     00000 
    7    -228.6416627177      4.69e-05     00000 
    8    -228.6416734004      1.44e-05     00000 
    9    -228.6416747863      3.00e-06     00000 
   10    -228.6416748934      4.95e-07     00000 
   11    -228.6416748966      2.29e-07     00000 
   12    -228.6416748971      6.73e-08     00000 
   13    -228.6416748972      1.65e-08     00000 
   14    -228.6416748972      2.91e-09     00000 Convergence criterion met
Timing for Total SCF: 332.00s (wall), 656.76s (cpu)

************** Final PCM Free Energy Summary **************
 G_electrostatic  =      -0.10223504 hartree =     -64.15345489 kcal/mol
 G_cavitation     =       0.00000000 hartree =       0.00000000 kcal/mol
 G_dispersion     =       0.00000000 hartree =       0.00000000 kcal/mol
 G_repulsion      =       0.00000000 hartree =       0.00000000 kcal/mol
 --------------------------------------------------
 Non-electrostatic Free Energy =       0.00000000 hartree =       0.00000000 kcal/mol
 Total                         =      -0.10223504 hartree =     -64.15345489 kcal/mol
 --------------------------------------------------
 SCF Energy (H0 + V/2)                       =    -228.64167490 
 Solute Internal Energy (H0)                 =    -228.53943986 
 Total Free Energy (H0 + V/2 + non-elec)     =    -228.64167490 hartree
                                             = -143474.81646327 kcal/mol
***********************************************************

E_pcm = -0.1022350384
Multipole orders to be included
        2
        3
computing dipole RHS
computing quadrupole RHS
total number of RHS in solve_reponses: 8
RHS batch sizes
        8
Beginning Block Conjugate Gradient Iterations. Batch Number: 0
computing hessian-vector products by finite difference
              1      7.04e-01     00000 Conjugate Gradient Iteration
computing hessian-vector products by finite difference
              2      2.54e-01     00000 Conjugate Gradient Iteration
computing hessian-vector products by finite difference
              3      6.85e-02     00000 Conjugate Gradient Iteration
computing hessian-vector products by finite difference
              4      1.83e-02     00000 Conjugate Gradient Iteration
computing hessian-vector products by finite difference
              5      3.17e-03     00000 Conjugate Gradient Iteration
computing hessian-vector products by finite difference
              6      7.45e-04     00000 Conjugate Gradient Iteration
computing hessian-vector products by finite difference
              7      1.20e-04     00000 Conjugate Gradient Iteration
computing hessian-vector products by finite difference
              8      1.45e-05     00000 Conjugate Gradient Iteration
computing hessian-vector products by finite difference
              9      2.29e-06     00000 Conjugate Gradient Iteration
computing hessian-vector products by finite difference
             10      2.69e-07     00000 Conjugate Gradient Iteration
computing hessian-vector products by finite difference
             11      6.70e-08     00000 Conjugate Gradient Iteration
computing hessian-vector products by finite difference
             12      1.25e-08     00000 Conjugate Gradient Iteration
computing hessian-vector products by finite difference
             13      1.91e-09     00000 CG Converged
batch 0 complete
Done Calculating Responses
TESTING ORTHOGONALIZATION OF MULTIPOLE BASIS
Multipole virts passed orthogonality test
Virts Per Order
        48
        80
 
 --------------------------------------------------------------
 
                    Orbital Energies (a.u.)
 --------------------------------------------------------------
 
 Alpha MOs
 -- Occupied --
-19.1226 -19.1207 -10.3273 -10.2425  -1.1316  -1.0288  -0.8284  -0.5940
 -0.5267  -0.5184  -0.5144  -0.4636  -0.4422  -0.3281  -0.3280  -0.3072
 -- Virtual --
  0.0632   0.0948   0.0956   0.1056   0.1302   0.1401   0.1426   0.1452
  0.1689   0.1903   0.1979   0.2236   0.2305   0.2353   0.2647   0.2656
  0.2988   0.3120   0.3345   0.3479   0.3523   0.3616   0.3700   0.3831
  0.3909   0.3997   0.4240   0.4255   0.4316   0.4615   0.4752   0.4796
  0.4891   0.4932   0.5049   0.5242   0.5591   0.5773   0.5986   0.6166
  0.6253   0.6384   0.6431   0.6651   0.6749   0.6765   0.6941   0.7122
  0.7202   0.7424   0.7754   0.7968   0.8100   0.8230   0.8447   0.8574
  0.8714   0.9824   0.9834   0.9946   1.0070   1.0514   1.0613   1.1266
  1.1623   1.2019   1.2565   1.2912   1.2979   1.3137   1.3472   1.3532
  1.4568   1.5661   1.6098   1.7426   1.8234   1.8599   1.8752   1.9201
  1.9275   1.9593   1.9671   1.9703   2.0296   2.1050   2.1322   2.1729
  2.2166   2.2237   2.3117   2.3390   2.4154   2.4325   2.4857   2.5169
  2.5745   2.5965   2.6284   2.6792   2.7744   2.8113   2.8739   2.9348
  2.9492   3.0091   3.0369   3.1850   3.2007   3.2435   3.2847   3.3227
  3.3393   3.3462   3.3892   3.4154   3.4264   3.5295   3.5681   3.5872
  3.5974   3.6630   3.7050   3.7460   3.7690   3.8704   3.9412   4.0306
  4.0773   4.1841   4.3771   4.5579   4.6071   4.6431   4.8068   4.8354
  4.9858   5.3349   5.3591   5.3694   5.3765   5.4906   5.7044   5.7851
  5.8186   6.0319   6.2217   6.3447   6.3549   6.6068   6.6296   6.7321
  6.7431   6.7581   6.9414   6.9836   7.0372   7.2536   7.3325   7.3907
  7.4124  22.5842  23.7122  44.2251  44.3432
 --------------------------------------------------------------
 
          Ground-State Mulliken Net Atomic Charges

     Atom                 Charge (a.u.)
  ----------------------------------------
      1 C                    -0.415618
      2 C                     0.301803
      3 O                    -0.680150
      4 O                    -0.672131
      5 H                     0.134554
      6 H                     0.157730
      7 H                     0.173811
  ----------------------------------------
  Sum of atomic charges =    -1.000000

 -----------------------------------------------------------------
                    Cartesian Multipole Moments
 -----------------------------------------------------------------
    Charge (ESU x 10^10)
                -4.8032
    Dipole Moment (Debye)
         X      -5.0234      Y      -2.2900      Z       4.5223
       Tot       7.1365
    Quadrupole Moments (Debye-Ang)
        XX     -31.4534     XY      -4.6535     YY     -34.8223
        XZ       3.6448     YZ      -1.8125     ZZ     -31.2085
    Octopole Moments (Debye-Ang^2)
       XXX     -81.8864    XXY     -32.5001    XYY     -38.0977
       YYY     -93.4314    XXZ      53.1113    XYZ       0.2167
       YYZ      56.4572    XZZ     -27.8084    YZZ     -18.5197
       ZZZ     159.9740
    Hexadecapole Moments (Debye-Ang^3)
      XXXX    -195.8222   XXXY     -92.4747   XXYY     -97.8712
      XYYY    -108.9439   YYYY    -329.7907   XXXZ     138.2465
      XXYZ      54.5255   XYYZ      55.9075   YYYZ     174.4520
      XXZZ    -156.8018   XYZZ     -21.1598   YYZZ    -181.5049
      XZZZ     141.5184   YZZZ     152.3967   ZZZZ    -781.4530
 -----------------------------------------------------------------
Archival summary:
1\1\nid00535\SP\ProcedureUnspecified\BasisUnspecified\223(1-,1)\meili\SunSep2606:49:332021SunSep2606:49:332021\0\\#,ProcedureUnspecified,BasisUnspecified,\\-1,1\C\O,1,1.24885\O,1,1.25823,2,121.557\C,1,1.5343,2,116.706,3,-179.282,0\H,4,1.0906,1,109.978,2,-48.4235,0\H,4,1.09248,1,108.002,2,67.243,0\H,4,1.1,1,115.125,2,-173.12,0\\\@

 Total job time:  5165.75s(wall), 9842.68s(cpu) 
 Sun Sep 26 06:49:35 2021

        *************************************************************
        *                                                           *
        *  Thank you very much for using Q-Chem.  Have a nice day.  *
        *                                                           *
        *************************************************************


Done Job For Fragment 0
calling putenv with: QCSCRATCH=/global/cscratch1/sd/meili 
calling putenv with: QCLOCALSCR=/tmp 
calling putenv with: QCTHREADS=32 
Creating input file /tmp/qchem22152/Frg2.input
using default PutDataFrgm: nothing
calling putenv with: QCSCRATCH=/tmp/qchem22152/ 
calling putenv with: QCLOCALSCR=/tmp/qchem22152/ 
Spawning Job For Fragment 1
                  Welcome to Q-Chem
     A Quantum Leap Into The Future Of Chemistry


 Q-Chem 5.2, Q-Chem, Inc., Pleasanton, CA (2019)

 License issued to: National Energy Research Scientific Computing Center

 Yihan Shao,  Zhengting Gan,  E. Epifanovsky,  A. T. B. Gilbert,  M. Wormit,  
 J. Kussmann,  A. W. Lange,  A. Behn,  Jia Deng,  Xintian Feng,  D. Ghosh,  
 M. Goldey,  P. R. Horn,  L. D. Jacobson,  I. Kaliman,  T. Kus,  A. Landau,  
 Jie Liu,  E. I. Proynov,  R. M. Richard,  R. P. Steele,  E. J. Sundstrom,  
 H. L. Woodcock III,  P. M. Zimmerman,  D. Zuev,  B. Albrecht,  E. Alguire,  
 S. A. Baeppler,  D. Barton,  Z. Benda,  Y. A. Bernard,  E. J. Berquist,  
 K. B. Bravaya,  H. Burton,  D. Casanova,  Chun-Min Chang,  Yunqing Chen,  
 A. Chien,  K. D. Closser,  M. P. Coons,  S. Coriani,  S. Dasgupta,  
 A. L. Dempwolff,  M. Diedenhofen,  Hainam Do,  R. G. Edgar,  Po-Tung Fang,  
 S. Faraji,  S. Fatehi,  Qingguo Feng,  K. D. Fenk,  J. Fosso-Tande,  
 J. Gayvert,  Qinghui Ge,  A. Ghysels,  G. Gidofalvi,  J. Gomes,  
 J. Gonthier,  A. Gunina,  D. Hait,  M. W. D. Hanson-Heine,  
 P. H. P. Harbach,  A. W. Hauser,  M. F. Herbst,  J. E. Herr,  
 E. G. Hohenstein,  Z. C. Holden,  Kerwin Hui,  B. C. Huynh,  T.-C. Jagau,  
 Hyunjun Ji,  B. Kaduk,  K. Khistyaev,  Jaehoon Kim,  P. Klunzinger,  K. Koh,  
 D. Kosenkov,  L. Koulias,  T. Kowalczyk,  C. M. Krauter,  A. Kunitsa,  
 Ka Un Lao,  A. Laurent,  K. V. Lawler,  Joonho Lee,  D. Lefrancois,  
 S. Lehtola,  D. S. Levine,  Yi-Pei Li,  You-Sheng Lin,  Fenglai Liu,  
 E. Livshits,  A. Luenser,  P. Manohar,  E. Mansoor,  S. F. Manzer,  
 Shan-Ping Mao,  Yuezhi Mao,  N. Mardirossian,  A. V. Marenich,  
 T. Markovich,  L. A. Martinez-Martinez,  S. A. Maurer,  N. J. Mayhall,  
 S. C. McKenzie,  J.-M. Mewes,  P. Morgante,  A. F. Morrison,  
 J. W. Mullinax,  K. Nanda,  T. S. Nguyen-Beck,  R. Olivares-Amaya,  
 J. A. Parkhill,  Zheng Pei,  T. M. Perrine,  F. Plasser,  P. Pokhilko,  
 S. Prager,  A. Prociuk,  E. Ramos,  D. R. Rehn,  F. Rob,  M. Scheurer,  
 M. Schneider,  N. Sergueev,  S. M. Sharada,  S. Sharma,  D. W. Small,  
 T. Stauch,  T. Stein,  Yu-Chuan Su,  A. J. W. Thom,  A. Tkatchenko,  
 T. Tsuchimochi,  N. M. Tubman,  L. Vogt,  M. L. Vidal,  O. Vydrov,  
 M. A. Watson,  J. Wenzel,  M. de Wergifosse,  T. A. Wesolowski,  A. White,  
 J. Witte,  A. Yamada,  Jun Yang,  K. Yao,  S. Yeganeh,  S. R. Yost,  
 Zhi-Qiang You,  A. Zech,  Igor Ying Zhang,  Xing Zhang,  Yan Zhao,  
 Ying Zhu,  B. R. Brooks,  G. K. L. Chan,  C. J. Cramer,  M. S. Gordon,  
 W. J. Hehre,  A. Klamt,  M. W. Schmidt,  C. D. Sherrill,  D. G. Truhlar,  
 A. Aspuru-Guzik,  R. Baer,  A. T. Bell,  N. A. Besley,  Jeng-Da Chai,  
 A. E. DePrince, III,  R. A. DiStasio Jr.,  A. Dreuw,  B. D. Dunietz,  
 T. R. Furlani,  Chao-Ping Hsu,  Yousung Jung,  Jing Kong,  D. S. Lambrecht,  
 WanZhen Liang,  C. Ochsenfeld,  V. A. Rassolov,  L. V. Slipchenko,  
 J. E. Subotnik,  T. Van Voorhis,  J. M. Herbert,  A. I. Krylov,  
 P. M. W. Gill,  M. Head-Gordon

 Contributors to earlier versions of Q-Chem not listed above: 
 R. D. Adamson,  B. Austin,  J. Baker,  G. J. O. Beran,  K. Brandhorst,  
 S. T. Brown,  E. F. C. Byrd,  A. K. Chakraborty,  C.-L. Cheng,  
 Siu Hung Chien,  D. M. Chipman,  D. L. Crittenden,  H. Dachsel,  
 R. J. Doerksen,  A. D. Dutoi,  L. Fusti-Molnar,  W. A. Goddard III,  
 A. Golubeva-Zadorozhnaya,  S. R. Gwaltney,  G. Hawkins,  A. Heyden,  
 S. Hirata,  G. Kedziora,  F. J. Keil,  C. Kelley,  Jihan Kim,  R. A. King,  
 R. Z. Khaliullin,  P. P. Korambath,  W. Kurlancheek,  A. M. Lee,  M. S. Lee,  
 S. V. Levchenko,  Ching Yeh Lin,  D. Liotard,  R. C. Lochan,  I. Lotan,  
 P. E. Maslen,  N. Nair,  D. P. O'Neill,  D. Neuhauser,  E. Neuscamman,  
 C. M. Oana,  R. Olson,  B. Peters,  R. Peverati,  P. A. Pieniazek,  
 Y. M. Rhee,  J. Ritchie,  M. A. Rohrdanz,  E. Rosta,  N. J. Russ,  
 H. F. Schaefer III,  N. E. Schultz,  N. Shenvi,  A. C. Simmonett,  A. Sodt,  
 D. Stuck,  K. S. Thanthiriwatte,  V. Vanovschi,  Tao Wang,  A. Warshel,  
 C. F. Williams,  Q. Wu,  X. Xu,  W. Zhang

 Please cite Q-Chem as follows:
 Y. Shao et al., Mol. Phys. 113, 184-215 (2015)
 DOI: 10.1080/00268976.2014.952696

 Q-Chem 5.2.0 for Intel X86 EM64T Linux

 Parts of Q-Chem use Armadillo 8.300.2 (Tropical Shenanigans).
 http://arma.sourceforge.net/

 Q-Chem begins on Sun Sep 26 06:49:38 2021  

Host: cori01
0

     Scratch files written to /tmp/qchem22152//Frg2//
 May1019 |scratch|qcdevops|jenkins|workspace|build_RNUM -1
Processing $rem in /global/common/cori/software/qchem/5.2/config/preferences:
	 MEM_TOTAL  96000 
NAlpha2: 40
NElect   40
Mult     1
Symmetry turned off for PCM/SM12/SMD calculation

Checking the input file for inconsistencies... 	...done.

--------------------------------------------------------------
User input:
--------------------------------------------------------------
$molecule
1 1
 6	-1.5444021888	-2.3558734524	0.5877911434
 6	-0.5974021888	-0.3688734524	1.7047911434
 7	-0.7514021888	-1.1288734524	0.6337911434
 7	-1.1224021888	-0.7138734524	2.8727911434
 7	0.0955978112	0.7431265476	1.5977911434
 1	-0.2414021888	-0.8508734524	-0.2082088566
 1	-1.3704021888	-2.9668734524	1.4717911434
 1	-1.2534021888	-2.9408734524	-0.2872088566
 1	-1.5664021888	-1.6138734524	3.0157911434
 1	-1.0654021888	-0.0378734524	3.6307911434
 1	0.5205978112	0.9941265476	0.7027911434
 1	0.2415978112	1.3361265476	2.4117911434
 1	-2.6073421888	-2.0855964524	0.5035111434
$end
$rem
EDA2		1
METHOD		WB97X-V
BASIS		DEF2-TZVPD
XC_GRID		000099000590
NL_GRID		1
UNRESTRICTED		FALSE
MAX_SCF_CYCLES		200
SYMMETRY		FALSE
SYM_IGNORE		TRUE
BASIS_LIN_DEP_THRESH		6
THRESH		14
SCF_CONVERGENCE		8
SCF_PRINT_FRGM		TRUE
SOLVENT_METHOD		PCM
!required keywords
JOBTYPE		SP
SYM_IGNORE		TRUE
SUBSYSTEM		TRUE
GEN_SCFMAN		TRUE
CHILD_INSTRUCTION		2
SYM_IGNORE		TRUE
SCFMI		0
RI_K 0		
PARI_K 0		
MIN_PARI_K 0		
IARI_K 0		
OCC_RI_K 0		
PURECART		1111
MEM_STATIC		2000
MEM_TOTAL		96000
GUI		0
CHILD_MP		1
CHILD_MP_ORDERS		232
FRZ_RELAX		0
FRZ_RELAX_METHOD		0
EDA_CLS_ELEC		1
EDA_CLS_DISP		0
FRZ_ORTHO_DECOMP		1
EDA2		FALSE
FRGM_METHOD		FALSE
CIS_N_ROOTS  0
LOCAL_CIS    0
CIS_RLX_DNS  1
$end
$pcm
THEORY                  CPCM
METHOD                  SWIG
SOLVER                  INVERSION
RADII                   UFF
HPOINTS                 302
HEAVYPOINTS             302
PRINTLEVEL              0
$end
$solvent
DIELECTRIC              78.390000 ! water
$end
--------------------------------------------------------------
 ----------------------------------------------------------------
             Standard Nuclear Orientation (Angstroms)
    I     Atom           X                Y                Z
 ----------------------------------------------------------------
    1      C      -1.5444021888    -2.3558734524     0.5877911434
    2      C      -0.5974021888    -0.3688734524     1.7047911434
    3      N      -0.7514021888    -1.1288734524     0.6337911434
    4      N      -1.1224021888    -0.7138734524     2.8727911434
    5      N       0.0955978112     0.7431265476     1.5977911434
    6      H      -0.2414021888    -0.8508734524    -0.2082088566
    7      H      -1.3704021888    -2.9668734524     1.4717911434
    8      H      -1.2534021888    -2.9408734524    -0.2872088566
    9      H      -1.5664021888    -1.6138734524     3.0157911434
   10      H      -1.0654021888    -0.0378734524     3.6307911434
   11      H       0.5205978112     0.9941265476     0.7027911434
   12      H       0.2415978112     1.3361265476     2.4117911434
   13      H      -2.6073421888    -2.0855964524     0.5035111434
 ----------------------------------------------------------------
 Nuclear Repulsion Energy =         194.15409828 hartrees
 There are       20 alpha and       20 beta electrons
 Requested basis set is def2-TZVPD
 There are 105 shells and 257 basis functions

 Total QAlloc Memory Limit  96000 MB
 Mega-Array Size      1956 MB
 MEM_STATIC part      2000 MB
 Discretize the solute cavity surface with Lebedev spheres
	Using 302 Lebedev grid points for each H atom
	Using 302 Lebedev grid points for other atoms
	Atomic van der Waals radii will be scaled by 1.20
 Remove points where switching function is < 1.0e-08
 Keep 1568 surface tesserae and discard 2358 interior tesserae
 Molecular Surface Area = 152.646 Angst**2

                       Distance Matrix (Angstroms)
             C (  1)   C (  2)   N (  3)   N (  4)   N (  5)   H (  6)
   C (  2)  2.468333
   N (  3)  1.461675  1.322255
   N (  4)  2.845254  1.326225  2.307160
   N (  5)  3.648767  1.314626  2.269601  2.287356
   H (  6)  2.143933  2.004652  1.022912  3.207412  2.432291
   H (  7)  1.088601  2.720555  2.112735  2.664641  3.991132  2.928224
   H (  8)  1.092031  3.318672  2.093702  3.868112  4.352572  2.323464
   H (  9)  2.538943  2.051270  2.563859  1.013699  3.213785  3.568189
   H ( 10)  3.855180  2.009493  3.204822  1.017246  2.467989  4.009721
   H ( 11)  3.936998  2.027732  2.475858  3.213349  1.022082  2.194217
   H ( 12)  4.488612  2.027510  3.197430  2.505098  1.017625  3.446833
   H ( 13)  1.099997  2.903458  2.092082  3.114508  4.062635  2.762021
             H (  7)   H (  8)   H (  9)   H ( 10)   H ( 11)   H ( 12)
   H (  8)  1.763079
   H (  9)  2.062271  3.573333
   H ( 10)  3.651486  4.879905  1.764370
   H ( 11)  4.456093  4.428476  4.062906  3.486202
   H ( 12)  4.690198  5.273742  3.512290  2.254348  1.765074
   H ( 13)  1.801176  1.786026  2.760005  4.043591  4.394134  4.844190

 
 A cutoff of  1.0D-14 yielded   5442 shell pairs
 There are     33178 function pairs (     41514 Cartesian)
 Smallest overlap matrix eigenvalue = 1.65E-05

 Scale SEOQF with 1.000000e-01/1.000000e-01/1.000000e-01

 Standard Electronic Orientation quadrupole field applied
 Nucleus-field energy     =    -0.0000000067 hartrees
 Guess from superposition of atomic densities
 Warning:  Energy on first SCF cycle will be non-variational
 SAD guess density has 40.388232 electrons

 -----------------------------------------------------------------------
  General SCF calculation program by
  Eric Jon Sundstrom, Paul Horn, Yuezhi Mao, Dmitri Zuev, Alec White,
  David Stuck, Shaama M.S., Shane Yost, Joonho Lee, David Small,
  Daniel Levine, Susi Lehtola, Hugh Burton, Evgeny Epifanovsky
 -----------------------------------------------------------------------
 Exchange:     0.1670 Hartree-Fock + 1.0000 wB97X-V + LR-HF
 Correlation:  1.0000 wB97X-V
 Using Euler-Maclaurin-Lebedev (99,590) quadrature formula
 Nonlocal Correlation:  VV10 with C = 0.0100 and b = 6.00 and scale = 1.00000
 Grid used for NLC:  SG-1 standard quadrature
Energy prior to optimization (guess energy) = -244.724323709709
Begin Timing: Total SCF Calculation
begin iterations for algorithm: DIIS         
the SCF tolerance is set to 1.00e-08
    1    -244.7243237097      7.92e-03     00000 
    2    -244.9378058231      6.25e-03     00000 
    3    -245.1793072358      3.03e-04     00000 
    4    -245.1798962685      1.77e-04     00000 
    5    -245.1801066610      3.50e-05     00000 
    6    -245.1801157214      1.35e-05     00000 
    7    -245.1801172726      2.20e-06     00000 
    8    -245.1801173504      7.76e-07     00000 
    9    -245.1801173606      3.17e-07     00000 
   10    -245.1801173623      8.99e-08     00000 
   11    -245.1801173625      4.02e-08     00000 
   12    -245.1801173625      1.06e-08     00000 
   13    -245.1801173625      1.56e-09     00000 Convergence criterion met
Timing for Total SCF: 791.00s (wall), 1548.81s (cpu)

************** Final PCM Free Energy Summary **************
 G_electrostatic  =      -0.08152396 hartree =     -51.15705884 kcal/mol
 G_cavitation     =       0.00000000 hartree =       0.00000000 kcal/mol
 G_dispersion     =       0.00000000 hartree =       0.00000000 kcal/mol
 G_repulsion      =       0.00000000 hartree =       0.00000000 kcal/mol
 --------------------------------------------------
 Non-electrostatic Free Energy =       0.00000000 hartree =       0.00000000 kcal/mol
 Total                         =      -0.08152396 hartree =     -51.15705884 kcal/mol
 --------------------------------------------------
 SCF Energy (H0 + V/2)                       =    -245.18011736 
 Solute Internal Energy (H0)                 =    -245.09859340 
 Total Free Energy (H0 + V/2 + non-elec)     =    -245.18011736 hartree
                                             = -153852.84574586 kcal/mol
***********************************************************

E_pcm = -0.0815239629
Multipole orders to be included
        2
        3
computing dipole RHS
computing quadrupole RHS
total number of RHS in solve_reponses: 8
RHS batch sizes
        8
Beginning Block Conjugate Gradient Iterations. Batch Number: 0
computing hessian-vector products by finite difference
              1      4.55e-01     00000 Conjugate Gradient Iteration
computing hessian-vector products by finite difference
              2      1.80e-01     00000 Conjugate Gradient Iteration
computing hessian-vector products by finite difference
              3      4.86e-02     00000 Conjugate Gradient Iteration
computing hessian-vector products by finite difference
              4      1.24e-02     00000 Conjugate Gradient Iteration
computing hessian-vector products by finite difference
              5      1.78e-03     00000 Conjugate Gradient Iteration
computing hessian-vector products by finite difference
              6      3.01e-04     00000 Conjugate Gradient Iteration
computing hessian-vector products by finite difference
              7      4.14e-05     00000 Conjugate Gradient Iteration
computing hessian-vector products by finite difference
              8      7.06e-06     00000 Conjugate Gradient Iteration
computing hessian-vector products by finite difference
              9      1.61e-06     00000 Conjugate Gradient Iteration
computing hessian-vector products by finite difference
             10      3.74e-07     00000 Conjugate Gradient Iteration
computing hessian-vector products by finite difference
             11      4.50e-08     00000 Conjugate Gradient Iteration
computing hessian-vector products by finite difference
             12      5.02e-09     00000 CG Converged
batch 0 complete
Done Calculating Responses
TESTING ORTHOGONALIZATION OF MULTIPOLE BASIS
Multipole virts passed orthogonality test
Virts Per Order
           60
          100
 
 --------------------------------------------------------------
 
                    Orbital Energies (a.u.)
 --------------------------------------------------------------
 
 Alpha MOs
 -- Occupied --
-14.4817 -14.4779 -14.4761 -10.4484 -10.3301  -1.2003  -1.0815  -1.0691
 -0.8789  -0.7912  -0.7493  -0.7146  -0.6460  -0.6428  -0.6183  -0.5946
 -0.5524  -0.5329  -0.4256  -0.4010
 -- Virtual --
  0.0476   0.0750   0.0800   0.0860   0.1123   0.1148   0.1221   0.1416
  0.1582   0.1686   0.1774   0.1865   0.1896   0.1958   0.2075   0.2221
  0.2319   0.2334   0.2391   0.2577   0.2635   0.2730   0.2843   0.2871
  0.2933   0.3059   0.3097   0.3149   0.3233   0.3306   0.3392   0.3498
  0.3526   0.3623   0.3649   0.3862   0.3941   0.3978   0.4052   0.4149
  0.4269   0.4401   0.4456   0.4471   0.4589   0.4638   0.4786   0.4864
  0.4890   0.4932   0.5023   0.5055   0.5153   0.5218   0.5300   0.5399
  0.5422   0.5575   0.5684   0.5789   0.5969   0.6114   0.6174   0.6406
  0.6504   0.6577   0.6642   0.6850   0.7045   0.7137   0.7333   0.7493
  0.7731   0.7805   0.7952   0.8144   0.8197   0.8258   0.8405   0.8499
  0.8613   0.8722   0.8840   0.9038   0.9134   0.9593   0.9700   0.9808
  1.0174   1.0524   1.0618   1.0689   1.0884   1.0923   1.0964   1.1131
  1.1311   1.1641   1.1999   1.2322   1.2477   1.3137   1.3401   1.3962
  1.4071   1.4280   1.4498   1.4767   1.5266   1.5496   1.6058   1.6506
  1.6692   1.6846   1.7330   1.7774   1.8167   1.8347   1.8475   1.8671
  1.8889   1.9036   1.9082   1.9468   1.9603   1.9814   2.0116   2.0475
  2.0949   2.1024   2.1498   2.1665   2.1865   2.2120   2.2348   2.2801
  2.3048   2.3244   2.3496   2.3874   2.4084   2.4540   2.4685   2.5051
  2.5352   2.5493   2.5835   2.6045   2.6228   2.6521   2.6742   2.7307
  2.7646   2.7942   2.8123   2.8488   2.8718   2.8935   2.9141   2.9274
  3.0230   3.0990   3.1198   3.1241   3.1554   3.1657   3.1927   3.2180
  3.2525   3.2780   3.2856   3.2932   3.3324   3.3647   3.3994   3.4122
  3.4336   3.4747   3.4907   3.5525   3.5843   3.6272   3.6700   3.7090
  3.7898   3.8575   3.9265   3.9520   4.0718   4.1136   4.1452   4.1951
  4.2640   4.2911   4.3053   4.3216   4.3390   4.4774   4.5474   4.5992
  4.6522   4.8155   4.8383   4.8430   4.9152   4.9659   4.9880   5.0268
  5.0862   5.1002   5.1085   5.1354   5.1727   5.1990   5.2738   5.3242
  5.3525   5.3792   5.3981   5.4220   5.4567   5.4740   5.5500   5.6197
  5.6710   5.7574   5.7907   5.8565   6.1247   6.1446   6.3418   6.4478
 22.6482  23.6351  32.3048  32.4286  32.8007
 --------------------------------------------------------------
 
          Ground-State Mulliken Net Atomic Charges

     Atom                 Charge (a.u.)
  ----------------------------------------
      1 C                    -0.811057
      2 C                     0.563764
      3 N                    -0.094731
      4 N                    -0.242519
      5 N                    -0.279608
      6 H                     0.250034
      7 H                     0.292199
      8 H                     0.262815
      9 H                     0.167157
     10 H                     0.209298
     11 H                     0.205375
     12 H                     0.199916
     13 H                     0.277357
  ----------------------------------------
  Sum of atomic charges =     1.000000

 -----------------------------------------------------------------
                    Cartesian Multipole Moments
 -----------------------------------------------------------------
    Charge (ESU x 10^10)
                 4.8032
    Dipole Moment (Debye)
         X      -2.9126      Y      -2.3414      Z       7.7756
       Tot       8.6270
    Quadrupole Moments (Debye-Ang)
        XX     -25.4908     XY       8.2629     YY     -17.5008
        XZ      -7.6787     YZ      -0.6596     ZZ      -4.1157
    Octopole Moments (Debye-Ang^2)
       XXX      66.0818    XXY      14.2752    XYY      10.7503
       YYY      53.7056    XXZ     -34.8476    XYZ      12.0575
       YYZ     -27.2408    XZZ      -1.5070    YZZ      21.4945
       ZZZ     -45.9757
    Hexadecapole Moments (Debye-Ang^3)
      XXXX    -208.4503   XXXY     -98.3994   XXYY     -76.5965
      XYYY     -77.4777   YYYY    -312.6727   XXXZ      90.5212
      XXYZ       4.6784   XYYZ      14.6176   YYYZ      49.1921
      XXZZ    -102.6804   XYZZ      -7.8260   YYZZ    -109.5788
      XZZZ       9.3611   YZZZ      59.6386   ZZZZ    -274.4304
 -----------------------------------------------------------------
Archival summary:
1\1\nid00535\SP\ProcedureUnspecified\BasisUnspecified\328(1+,1)\meili\SunSep2610:51:192021SunSep2610:51:192021\0\\#,ProcedureUnspecified,BasisUnspecified,\\1,1\C\N,1,1.31463\H,2,1.01763,1,120.228\H,2,1.02208,1,119.881,3,177.557,0\N,1,1.32225,2,118.793,3,-178.923,0\H,5,1.02291,1,116.901,2,5.72707,0\N,1,1.32623,2,120.026,3,0.783923,0\H,7,1.0137,1,121.91,2,-172.616,0\H,7,1.01725,1,117.464,2,7.42089,0\C,5,1.46168,1,124.832,2,-177.041,0\H,10,1.0886,5,111.032,1,-43.1734,0\H,10,1.09203,5,109.289,1,-162.087,0\H,10,1.1,5,108.687,1,78.9051,0\\\@

 Total job time:  14506.01s(wall), 28606.30s(cpu) 
 Sun Sep 26 10:51:24 2021

        *************************************************************
        *                                                           *
        *  Thank you very much for using Q-Chem.  Have a nice day.  *
        *                                                           *
        *************************************************************


Done Job For Fragment 1
calling putenv with: QCSCRATCH=/global/cscratch1/sd/meili 
calling putenv with: QCLOCALSCR=/tmp 
calling putenv with: QCTHREADS=32 
Doing General SCFMI
 Exchange:     0.1670 Hartree-Fock + 1.0000 wB97X-V + LR-HF
 Correlation:  1.0000 wB97X-V
 Using Euler-Maclaurin-Lebedev (99,590) quadrature formula
 Nonlocal Correlation:  VV10 with C = 0.0100 and b = 6.00 and scale = 1.00000
 Grid used for NLC:  SG-1 standard quadrature
performing fock build before subrot guess so that all methods have access
Printing subrot_rss_gen Method Specification:
Occupied Subspace Method is 0
Virtual Subspace Method is 0
Energy of the unrelaxed supersystem initial determinant -473.792610039844
performing fock build before subrot guess so that all methods have access
Printing subrot_rss_gen Method Specification:
Occupied Subspace Method is 0
Virtual Subspace Method is 0
Energy of the unrelaxed supersystem initial determinant w/ solvent -473.836435809240
write pseudocanon occs and virts to disk
write pseudocanon orbital energies to disk
Tolerance of ortho_decomp_scf: 1.00e-06
GDM subspace size: 20
Beginning the Orthogonal Decomposition of the Initial Supersystem Wavefunction
    1    -473.5283049443      1.12e-01     ortho_decomp Preconditoned Steepest Descent
    2    -473.5487658873      3.20e-03     ortho_decomp BFGS Step
    3    -473.5488550614      2.78e-04     ortho_decomp BFGS Step
    4    -473.5488552399      1.24e-05     ortho_decomp BFGS Step
    5    -473.5488552407      4.54e-07     ortho_decomp 00000 Convergence criterion met
 Hartree-Fock
 Hartree-Fock
 Hartree-Fock
Doing General SCFMI
 Exchange:     0.1670 Hartree-Fock + 1.0000 wB97X-V + LR-HF
 Correlation:  1.0000 wB97X-V
 Using Euler-Maclaurin-Lebedev (99,590) quadrature formula
 Nonlocal Correlation:  VV10 with C = 0.0100 and b = 6.00 and scale = 1.00000
 Grid used for NLC:  SG-1 standard quadrature
performing fock build at end of subrot_r(subrot) constructor so that all methods have access
<S^2> of initial wavefunction before polarization iterations 0.0000000000
Beginning iterations for the determination of the polarized wavefunction
Energy prior to optimization (guess energy) = -473.836435809240
Begin Timing: Total SCF Calculation
begin iterations for algorithm: DIIS         
the SCF tolerance is set to 1.00e-08
    1    -473.8364358092      3.72e-04     00000 
    2    -473.8438613599      1.26e-04     00000 
    3    -473.8445724181      7.36e-05     00000 
    4    -473.8447548698      2.53e-05     00000 
    5    -473.8447842316      9.35e-06     00000 
    6    -473.8447900586      4.82e-06     00000 
    7    -473.8447911052      2.15e-06     00000 
    8    -473.8447913021      1.05e-06     00000 
    9    -473.8447913443      2.90e-07     00000 
   10    -473.8447913472      1.50e-07     00000 
   11    -473.8447913479      4.55e-08     00000 
   12    -473.8447913480      2.31e-08     00000 
   13    -473.8447913480      9.39e-09     00000 Convergence criterion met
write pseudocanon occs and virts to disk
write pseudocanon orbital energies to disk
Timing for Total SCF: 3184.00s (wall), 6322.38s (cpu)
<S^2> of polarized wavefunction after polarization iterations 0.0000000000
relaxing scfmi constraint to allow all rotations in the entire AO span
Doing General SCFMI
 Exchange:     0.1670 Hartree-Fock + 1.0000 wB97X-V + LR-HF
 Correlation:  1.0000 wB97X-V
 Using Euler-Maclaurin-Lebedev (99,590) quadrature formula
 Nonlocal Correlation:  VV10 with C = 0.0100 and b = 6.00 and scale = 1.00000
 Grid used for NLC:  SG-1 standard quadrature
performing fock build at end of subrot_r(subrot) constructor so that all methods have access
<S^2> of polarized wavefunction before ct-allowed iterations 0.0000000000
Beginning iterations for the determination of the CT-Allowed wavefunction
Energy prior to optimization (guess energy) = -473.844791348024
Begin Timing: Total SCF Calculation
begin iterations for algorithm: DIIS         
the SCF tolerance is set to 1.00e-08
    1    -473.8447913480      3.01e-04     00000 
    2    -473.8560742719      5.37e-05     00000 
    3    -473.8565994214      2.64e-05     00000 
    4    -473.8566494706      1.04e-05     00000 
    5    -473.8566603257      2.73e-06     00000 
    6    -473.8566611598      8.18e-07     00000 
    7    -473.8566612778      4.62e-07     00000 
    8    -473.8566612975      1.31e-07     00000 
    9    -473.8566613001      4.91e-08     00000 
   10    -473.8566613006      1.84e-08     00000 
   11    -473.8566613007      5.66e-09     00000 Convergence criterion met
write pseudocanon occs and virts to disk
write pseudocanon orbital energies to disk
Timing for Total SCF: 2678.00s (wall), 5285.23s (cpu)
<S^2> of ct_allowed wavefunction after ct-allowed iterations 0.0000000000

================================
        Results of EDA2         
================================
Basic EDA Quantities
--------------------
Fragment Energies (Ha):
1 -228.6416748972
2 -245.1801173625
--------------------
  E_prp (kJ/mol) = -0.0000
  E_sol (kJ/mol) = 367.3991
  E_frz (kJ/mol) = -405.8462
  E_pol (kJ/mol) = -21.9377
  E_vct (kJ/mol) = -31.1649
  E_int (kJ/mol) = -91.5498
--------------------


Initial Wavefunction Decomposition
--------------------
  --------------------
  Orthogonal Fragment Subspace Decomposition:
  --------------------
     E_elec   (ELEC)   (kJ/mol) = -573.5659
     E_pauli  (PAULI)  (kJ/mol) = 193.3980
     E_disp   (DISP)   (kJ/mol) = -25.6783
     --------------------
     Terms summing to E_pauli:
     --------------------
        E_kep_pauli       (kJ/mol) = 234.1397
        E_disp_free_pauli (kJ/mol) = -40.7416
  --------------------
  Classical Frozen Decomposition:
  --------------------
     E_cls_elec  (CLS ELEC)  (kJ/mol) = -505.1059
     E_cls_pauli (CLS PAULI) (kJ/mol) = 99.2597
    [E_mod_pauli (MOD PAULI) (kJ/mol) = 124.9380 (CLS PAULI - DISP from orthogonal decomposition) ]
  --------------------
--------------------

Simplified EDA Summary (kJ/mol)
--------------------
 PREPARATION     -0.0000
 SOLVATION       367.3991
 FROZEN          -380.1679      (does not include dispersion)
[PAULI           193.3980]     (if this is negligible, then frozen describes electrostatics)
 DISPERSION      -25.6783
 POLARIZATION    -21.9377
 CHARGE TRANSFER -31.1649
 TOTAL           -91.5498     (PRP + SOL + FRZ + DISP + POL + CT)
--------------------
 
 --------------------------------------------------------------
 
                    Orbital Energies (a.u.)
 --------------------------------------------------------------
 
 Alpha MOs
 -- Occupied --
-19.1483 -19.1470 -14.4611 -14.4479 -14.4398 -10.4233 -10.3514 -10.3172
-10.2527  -1.1761  -1.1599  -1.0605  -1.0543  -1.0438  -0.8604  -0.8413
 -0.7685  -0.7255  -0.6915  -0.6340  -0.6266  -0.6004  -0.5985  -0.5740
 -0.5430  -0.5404  -0.5367  -0.5337  -0.5169  -0.4807  -0.4597  -0.4057
 -0.3765  -0.3556  -0.3528  -0.3352
 -- Virtual --
  0.0514   0.0716   0.0766   0.0891   0.0987   0.0999   0.1074   0.1145
  0.1264   0.1296   0.1373   0.1414   0.1496   0.1505   0.1576   0.1652
  0.1778   0.1856   0.1891   0.1996   0.2016   0.2049   0.2197   0.2216
  0.2277   0.2359   0.2438   0.2500   0.2553   0.2618   0.2625   0.2703
  0.2783   0.2854   0.2899   0.2919   0.2998   0.3084   0.3136   0.3193
  0.3230   0.3258   0.3342   0.3352   0.3396   0.3412   0.3476   0.3536
  0.3589   0.3624   0.3663   0.3685   0.3769   0.3792   0.3837   0.3904
  0.3981   0.3994   0.4063   0.4098   0.4209   0.4235   0.4353   0.4391
  0.4427   0.4452   0.4488   0.4565   0.4631   0.4701   0.4801   0.4832
  0.4875   0.4889   0.4953   0.4997   0.5014   0.5055   0.5128   0.5256
  0.5294   0.5354   0.5418   0.5485   0.5544   0.5625   0.5690   0.5761
  0.5781   0.5807   0.5920   0.5991   0.6015   0.6113   0.6163   0.6265
  0.6375   0.6414   0.6531   0.6587   0.6691   0.6736   0.6758   0.6813
  0.6898   0.7037   0.7082   0.7143   0.7215   0.7317   0.7320   0.7456
  0.7514   0.7597   0.7610   0.7708   0.7781   0.7911   0.8015   0.8040
  0.8123   0.8169   0.8209   0.8292   0.8346   0.8439   0.8536   0.8626
  0.8710   0.8767   0.8845   0.8896   0.9011   0.9093   0.9154   0.9319
  0.9450   0.9527   0.9580   0.9712   0.9857   0.9870   1.0157   1.0314
  1.0477   1.0519   1.0701   1.0791   1.0825   1.0906   1.1152   1.1184
  1.1322   1.1419   1.1510   1.1659   1.1689   1.1757   1.1939   1.2040
  1.2283   1.2383   1.2445   1.2595   1.2789   1.2853   1.3153   1.3249
  1.3339   1.3511   1.3709   1.3793   1.3971   1.4133   1.4285   1.4354
  1.4729   1.4960   1.5012   1.5288   1.5428   1.5989   1.6087   1.6531
  1.6657   1.6761   1.7154   1.7276   1.7398   1.7492   1.7649   1.8425
  1.8656   1.8722   1.8801   1.8905   1.9141   1.9179   1.9244   1.9276
  1.9369   1.9554   1.9584   1.9770   1.9852   1.9931   2.0015   2.0163
  2.0350   2.0435   2.0585   2.0720   2.1152   2.1248   2.1497   2.1668
  2.1830   2.2043   2.2202   2.2271   2.2378   2.2513   2.2594   2.2800
  2.3032   2.3277   2.3398   2.3633   2.3696   2.4006   2.4340   2.4357
  2.4547   2.4702   2.4970   2.5168   2.5380   2.5461   2.5687   2.5741
  2.5863   2.5987   2.6322   2.6341   2.6621   2.6714   2.6840   2.6851
  2.7035   2.7290   2.7561   2.7683   2.7903   2.8212   2.8425   2.8583
  2.8706   2.8866   2.9003   2.9145   2.9256   2.9700   2.9795   2.9942
  3.0117   3.0479   3.0912   3.1129   3.1551   3.1821   3.1902   3.1999
  3.2159   3.2275   3.2357   3.2476   3.2578   3.2666   3.2780   3.3056
  3.3154   3.3312   3.3421   3.3506   3.3616   3.3788   3.4062   3.4144
  3.4283   3.4330   3.4575   3.4635   3.4696   3.4936   3.5085   3.5243
  3.5401   3.5741   3.5989   3.6153   3.6351   3.6487   3.6718   3.6852
  3.7207   3.7385   3.7493   3.7658   3.7720   3.8229   3.8888   3.9013
  3.9415   3.9759   3.9984   4.0319   4.0868   4.1184   4.1614   4.1866
  4.2059   4.2375   4.3099   4.3252   4.3485   4.3625   4.3775   4.3922
  4.5103   4.5720   4.5869   4.6192   4.6380   4.6443   4.6858   4.8315
  4.8477   4.8615   4.8720   4.8943   4.9791   4.9938   5.0160   5.0318
  5.0825   5.1271   5.1505   5.1577   5.1853   5.2070   5.2397   5.3187
  5.3376   5.3510   5.3619   5.3668   5.3943   5.4166   5.4179   5.4445
  5.4709   5.4972   5.5242   5.5408   5.5971   5.6888   5.7121   5.7235
  5.7737   5.7960   5.8108   5.8391   5.9073   6.0238   6.1686   6.1942
  6.2330   6.3273   6.3728   6.4013   6.4943   6.6131   6.7065   6.7358
  6.7687   6.8282   6.9568   7.0244   7.0621   7.2610   7.3409   7.4048
  7.4426  22.5926  22.6827  23.6980  23.7210  32.3821  32.5516  32.9681
 44.3022  44.3923
 --------------------------------------------------------------
 
          Ground-State Mulliken Net Atomic Charges

     Atom                 Charge (a.u.)
  ----------------------------------------
      1 C                    -0.633290
      2 C                     0.546687
      3 O                    -0.780412
      4 O                    -0.767489
      5 H                     0.184923
      6 H                     0.196219
      7 H                     0.193313
      8 C                    -0.876793
      9 C                     0.462118
     10 N                     0.119907
     11 N                    -0.221895
     12 N                    -0.088755
     13 H                     0.151799
     14 H                     0.314920
     15 H                     0.263207
     16 H                     0.158660
     17 H                     0.215691
     18 H                     0.070994
     19 H                     0.218423
     20 H                     0.271775
  ----------------------------------------
  Sum of atomic charges =     0.000000

 -----------------------------------------------------------------
                    Cartesian Multipole Moments
 -----------------------------------------------------------------
    Charge (ESU x 10^10)
                -0.0000
    Dipole Moment (Debye)
         X      -6.7975      Y      -3.7423      Z      10.2772
       Tot      12.8776
    Quadrupole Moments (Debye-Ang)
        XX     -56.8471     XY       3.3565     YY     -52.3700
        XZ      -4.1115     YZ      -3.0946     ZZ     -35.4379
    Octopole Moments (Debye-Ang^2)
       XXX      -9.8923    XXY     -14.6178    XYY     -22.5080
       YYY     -31.3943    XXZ      13.9579    XYZ      10.1035
       YYZ      23.3098    XZZ     -23.4951    YZZ       7.5648
       ZZZ      92.5645
    Hexadecapole Moments (Debye-Ang^3)
      XXXX    -404.1222   XXXY    -192.2163   XXYY    -175.3886
      XYYY    -188.9989   YYYY    -645.3314   XXXZ     227.7045
      XXYZ      58.4814   XYYZ      69.3404   YYYZ     218.9166
      XXZZ    -258.5110   XYZZ     -28.2429   YYZZ    -286.7341
      XZZZ     149.0401   YZZZ     201.8936   ZZZZ   -1046.8573
 -----------------------------------------------------------------
Archival summary:
1\1\nid00535\SP\ProcedureUnspecified\BasisUnspecified\23411\meili\SunSep2613:32:402021SunSep2613:32:402021\0\\#,ProcedureUnspecified,BasisUnspecified,\\0,1\N\H,1,1.02291\C,1,1.32225,2,116.901\N,3,1.31463,1,118.793,2,5.72707,0\H,4,1.01763,3,120.228,1,-178.923,0\H,4,1.02208,3,119.881,1,-1.36567,0\N,3,1.32623,1,121.179,2,-173.976,0\H,7,1.0137,3,121.91,1,7.08362,0\H,7,1.01725,3,117.464,1,-172.879,0\C,1,1.46168,2,118.211,3,-177.422,0\H,10,1.0886,1,111.032,2,134.026,0\H,10,1.09203,1,109.289,2,15.1118,0\H,10,1.1,1,108.687,2,-103.896,0\O,6,1.82364,4,174.007,3,161.308,0\C,14,1.24885,6,110.807,4,-154.395,0\O,15,1.25823,14,121.557,6,-31.7443,0\C,15,1.5343,14,116.706,6,148.974,0\H,17,1.0906,15,109.978,14,-48.4235,0\H,17,1.09248,15,108.002,14,67.243,0\H,17,1.1,15,115.125,14,-173.12,0\\\@

 Total job time:  29359.08s(wall), 19211.95s(cpu) 
 Sun Sep 26 13:32:44 2021

        *************************************************************
        *                                                           *
        *  Thank you very much for using Q-Chem.  Have a nice day.  *
        *                                                           *
        *************************************************************


