
Running Job 1 of 1 SSI-046ARG-182GLU-1_SMD_TZVPD.in
qchem SSI-046ARG-182GLU-1_SMD_TZVPD.in_50027.0 /tmp/qchem50027/ 0
/global/common/cori/software/qchem/5.2/exe/qcprog.exe_s SSI-046ARG-182GLU-1_SMD_TZVPD.in_50027.0 /tmp/qchem50027/
                  Welcome to Q-Chem
     A Quantum Leap Into The Future Of Chemistry


 Q-Chem 5.2, Q-Chem, Inc., Pleasanton, CA (2019)

 License issued to: National Energy Research Scientific Computing Center

 Yihan Shao,  Zhengting Gan,  E. Epifanovsky,  A. T. B. Gilbert,  M. Wormit,  
 J. Kussmann,  A. W. Lange,  A. Behn,  Jia Deng,  Xintian Feng,  D. Ghosh,  
 M. Goldey,  P. R. Horn,  L. D. Jacobson,  I. Kaliman,  T. Kus,  A. Landau,  
 Jie Liu,  E. I. Proynov,  R. M. Richard,  R. P. Steele,  E. J. Sundstrom,  
 H. L. Woodcock III,  P. M. Zimmerman,  D. Zuev,  B. Albrecht,  E. Alguire,  
 S. A. Baeppler,  D. Barton,  Z. Benda,  Y. A. Bernard,  E. J. Berquist,  
 K. B. Bravaya,  H. Burton,  D. Casanova,  Chun-Min Chang,  Yunqing Chen,  
 A. Chien,  K. D. Closser,  M. P. Coons,  S. Coriani,  S. Dasgupta,  
 A. L. Dempwolff,  M. Diedenhofen,  Hainam Do,  R. G. Edgar,  Po-Tung Fang,  
 S. Faraji,  S. Fatehi,  Qingguo Feng,  K. D. Fenk,  J. Fosso-Tande,  
 J. Gayvert,  Qinghui Ge,  A. Ghysels,  G. Gidofalvi,  J. Gomes,  
 J. Gonthier,  A. Gunina,  D. Hait,  M. W. D. Hanson-Heine,  
 P. H. P. Harbach,  A. W. Hauser,  M. F. Herbst,  J. E. Herr,  
 E. G. Hohenstein,  Z. C. Holden,  Kerwin Hui,  B. C. Huynh,  T.-C. Jagau,  
 Hyunjun Ji,  B. Kaduk,  K. Khistyaev,  Jaehoon Kim,  P. Klunzinger,  K. Koh,  
 D. Kosenkov,  L. Koulias,  T. Kowalczyk,  C. M. Krauter,  A. Kunitsa,  
 Ka Un Lao,  A. Laurent,  K. V. Lawler,  Joonho Lee,  D. Lefrancois,  
 S. Lehtola,  D. S. Levine,  Yi-Pei Li,  You-Sheng Lin,  Fenglai Liu,  
 E. Livshits,  A. Luenser,  P. Manohar,  E. Mansoor,  S. F. Manzer,  
 Shan-Ping Mao,  Yuezhi Mao,  N. Mardirossian,  A. V. Marenich,  
 T. Markovich,  L. A. Martinez-Martinez,  S. A. Maurer,  N. J. Mayhall,  
 S. C. McKenzie,  J.-M. Mewes,  P. Morgante,  A. F. Morrison,  
 J. W. Mullinax,  K. Nanda,  T. S. Nguyen-Beck,  R. Olivares-Amaya,  
 J. A. Parkhill,  Zheng Pei,  T. M. Perrine,  F. Plasser,  P. Pokhilko,  
 S. Prager,  A. Prociuk,  E. Ramos,  D. R. Rehn,  F. Rob,  M. Scheurer,  
 M. Schneider,  N. Sergueev,  S. M. Sharada,  S. Sharma,  D. W. Small,  
 T. Stauch,  T. Stein,  Yu-Chuan Su,  A. J. W. Thom,  A. Tkatchenko,  
 T. Tsuchimochi,  N. M. Tubman,  L. Vogt,  M. L. Vidal,  O. Vydrov,  
 M. A. Watson,  J. Wenzel,  M. de Wergifosse,  T. A. Wesolowski,  A. White,  
 J. Witte,  A. Yamada,  Jun Yang,  K. Yao,  S. Yeganeh,  S. R. Yost,  
 Zhi-Qiang You,  A. Zech,  Igor Ying Zhang,  Xing Zhang,  Yan Zhao,  
 Ying Zhu,  B. R. Brooks,  G. K. L. Chan,  C. J. Cramer,  M. S. Gordon,  
 W. J. Hehre,  A. Klamt,  M. W. Schmidt,  C. D. Sherrill,  D. G. Truhlar,  
 A. Aspuru-Guzik,  R. Baer,  A. T. Bell,  N. A. Besley,  Jeng-Da Chai,  
 A. E. DePrince, III,  R. A. DiStasio Jr.,  A. Dreuw,  B. D. Dunietz,  
 T. R. Furlani,  Chao-Ping Hsu,  Yousung Jung,  Jing Kong,  D. S. Lambrecht,  
 WanZhen Liang,  C. Ochsenfeld,  V. A. Rassolov,  L. V. Slipchenko,  
 J. E. Subotnik,  T. Van Voorhis,  J. M. Herbert,  A. I. Krylov,  
 P. M. W. Gill,  M. Head-Gordon

 Contributors to earlier versions of Q-Chem not listed above: 
 R. D. Adamson,  B. Austin,  J. Baker,  G. J. O. Beran,  K. Brandhorst,  
 S. T. Brown,  E. F. C. Byrd,  A. K. Chakraborty,  C.-L. Cheng,  
 Siu Hung Chien,  D. M. Chipman,  D. L. Crittenden,  H. Dachsel,  
 R. J. Doerksen,  A. D. Dutoi,  L. Fusti-Molnar,  W. A. Goddard III,  
 A. Golubeva-Zadorozhnaya,  S. R. Gwaltney,  G. Hawkins,  A. Heyden,  
 S. Hirata,  G. Kedziora,  F. J. Keil,  C. Kelley,  Jihan Kim,  R. A. King,  
 R. Z. Khaliullin,  P. P. Korambath,  W. Kurlancheek,  A. M. Lee,  M. S. Lee,  
 S. V. Levchenko,  Ching Yeh Lin,  D. Liotard,  R. C. Lochan,  I. Lotan,  
 P. E. Maslen,  N. Nair,  D. P. O'Neill,  D. Neuhauser,  E. Neuscamman,  
 C. M. Oana,  R. Olson,  B. Peters,  R. Peverati,  P. A. Pieniazek,  
 Y. M. Rhee,  J. Ritchie,  M. A. Rohrdanz,  E. Rosta,  N. J. Russ,  
 H. F. Schaefer III,  N. E. Schultz,  N. Shenvi,  A. C. Simmonett,  A. Sodt,  
 D. Stuck,  K. S. Thanthiriwatte,  V. Vanovschi,  Tao Wang,  A. Warshel,  
 C. F. Williams,  Q. Wu,  X. Xu,  W. Zhang

 Please cite Q-Chem as follows:
 Y. Shao et al., Mol. Phys. 113, 184-215 (2015)
 DOI: 10.1080/00268976.2014.952696

 Q-Chem 5.2.0 for Intel X86 EM64T Linux

 Parts of Q-Chem use Armadillo 8.300.2 (Tropical Shenanigans).
 http://arma.sourceforge.net/

 Q-Chem begins on Sun Sep 26 07:54:24 2021  

Host: cori01
0

     Scratch files written to /tmp/qchem50027//
 May1019 |scratch|qcdevops|jenkins|workspace|build_RNUM -1
Processing $rem in /global/common/cori/software/qchem/5.2/config/preferences:
	 MEM_TOTAL  96000 
NAlpha2: 72
NElect   72
Mult     1
Symmetry turned off for PCM/SM12/SMD calculation

 Q-Chem warning in module libgen/rem_setup.C, line 2803:

 Neither GIA nor STOLL is specified by user. Use STOLL as the default


Checking the input file for inconsistencies... 	...done.

--------------------------------------------------------------
User input:
--------------------------------------------------------------
$comment
SSI-046ARG-182GLU-1.pdb
$end

$molecule
0 1
--
1 1
C   -2.969742184000    1.130588972047   -2.368918059683
C   -1.050742184000    1.420588972047   -0.859918059683
N   -0.374742184000    1.058588972047    0.219081940317
N   -2.131742184000    0.745588972047   -1.238918059683
N   -0.672742184000    2.490588972047   -1.536918059683
H   -0.678742184000    0.272588972047    0.779081940317
H    0.446257816000    1.588588972047    0.502081940317
H   -2.373742184000   -0.095411027953   -0.733918059683
H   -1.201742184000    2.797588972047   -2.342918059683
H    0.164257816000    2.995588972047   -1.249918059683
H   -3.566742184000    0.273588972047   -2.667918059683
H   -2.319742184000    1.415588972047   -3.198918059683
H   -3.628362184000    1.972198972047   -2.108318059683
--
-1 1
C    1.688257816000   -2.343411027953    0.142081940317
C    1.807257816000   -1.688411027953    1.524081940317
O    0.836257816000   -1.018411027953    1.959081940317
O    2.858257816000   -1.865411027953    2.184081940317
H    0.911257816000   -1.839411027953   -0.428918059683
H    1.418257816000   -3.393411027953    0.265081940317
H    2.618397816000   -2.262371027953   -0.439528059683
$end

$rem
JOBTYPE			EDA
EDA2			1
method			wB97X-V
BASIS			def2-TZVPD
XC_GRID			000099000590
NL_GRID			1
UNRESTRICTED		FALSE
MAX_SCF_CYCLES		200
SYMMETRY		FALSE
SYM_IGNORE		TRUE
MEM_STATIC		2000
BASIS_LIN_DEP_THRESH 	6
THRESH 			14
SCF_CONVERGENCE 	8
SCF_PRINT_FRGM 		TRUE
SOLVENT_METHOD          SMD
$end

$SMX
SOLVENT			WATER
$END
--------------------------------------------------------------
 ----------------------------------------------------------------
             Standard Nuclear Orientation (Angstroms)
    I     Atom           X                Y                Z
 ----------------------------------------------------------------
    1      C      -2.9697421840     1.1305889720    -2.3689180597
    2      C      -1.0507421840     1.4205889720    -0.8599180597
    3      N      -0.3747421840     1.0585889720     0.2190819403
    4      N      -2.1317421840     0.7455889720    -1.2389180597
    5      N      -0.6727421840     2.4905889720    -1.5369180597
    6      H      -0.6787421840     0.2725889720     0.7790819403
    7      H       0.4462578160     1.5885889720     0.5020819403
    8      H      -2.3737421840    -0.0954110280    -0.7339180597
    9      H      -1.2017421840     2.7975889720    -2.3429180597
   10      H       0.1642578160     2.9955889720    -1.2499180597
   11      H      -3.5667421840     0.2735889720    -2.6679180597
   12      H      -2.3197421840     1.4155889720    -3.1989180597
   13      H      -3.6283621840     1.9721989720    -2.1083180597
   14      C       1.6882578160    -2.3434110280     0.1420819403
   15      C       1.8072578160    -1.6884110280     1.5240819403
   16      O       0.8362578160    -1.0184110280     1.9590819403
   17      O       2.8582578160    -1.8654110280     2.1840819403
   18      H       0.9112578160    -1.8394110280    -0.4289180597
   19      H       1.4182578160    -3.3934110280     0.2650819403
   20      H       2.6183978160    -2.2623710280    -0.4395280597
 ----------------------------------------------------------------
 Nuclear Repulsion Energy =         438.27630369 hartrees
 There are       36 alpha and       36 beta electrons
 Requested basis set is def2-TZVPD
 There are 174 shells and 438 basis functions

 Total QAlloc Memory Limit  96000 MB
 Mega-Array Size      1956 MB
 MEM_STATIC part      2000 MB
 
 Citation of the SMD model:
 Marenich, A.V.; Cramer, C.J.; Truhlar, D.G.
 J. Phys. Chem. B 2009, 113, 6378-6396.
 iSolventCode=           1
 Solvent: water                                                           
 
 vradii
            1           2           3           4           5           6
    1   1.8500000   1.8500000   1.8900000   1.8900000   1.8900000   1.2000000
            7           8           9          10          11          12
    1   1.2000000   1.2000000   1.2000000   1.2000000   1.2000000   1.2000000
           13          14          15          16          17          18
    1   1.2000000   1.8500000   1.8500000   1.5200000   1.5200000   1.2000000
           19          20
    1   1.2000000   1.2000000
 Changing PCM_VDW_RADII to SMD_RADIUS
 Discretize the solute cavity surface with Lebedev spheres
	Using 110 Lebedev grid points for each H atom
	Using 194 Lebedev grid points for other atoms
	Atomic van der Waals radii will be scaled by 1.20
 Remove points where switching function is < 1.0e-08
 Keep 1530 surface tesserae and discard 1426 interior tesserae
 Molecular Surface Area = 188.211 Angst**2
 A cutoff of  1.0D-14 yielded  13186 shell pairs
 There are     83192 function pairs (    104096 Cartesian)
 Smallest overlap matrix eigenvalue = 1.16E-05

 Scale SEOQF with 1.000000e-01/1.000000e-01/1.000000e-01

 Standard Electronic Orientation quadrupole field applied
 Nucleus-field energy     =     0.0000000045 hartrees

 -----------------------------------------------------------------------
  General SCF calculation program by
  Eric Jon Sundstrom, Paul Horn, Yuezhi Mao, Dmitri Zuev, Alec White,
  David Stuck, Shaama M.S., Shane Yost, Joonho Lee, David Small,
  Daniel Levine, Susi Lehtola, Hugh Burton, Evgeny Epifanovsky
 -----------------------------------------------------------------------
================================================================
                 ALMO-EDA with the EDA2 driver                  
================================================================
 The second-generation ALMO-EDA (for DFT):                      
 P. R. Horn, Y. Mao and M. Head-Gordon, PCCP, 18, 23067 (2016)  
 Decomposition of the frozen energy:                            
 P. R. Horn, Y. Mao and M. Head-Gordon, JCP, 144, 114107 (2016) 
 FERF model for polarization:                                   
 P. R. Horn and M. Head-Gordon, JCP, 143, 114111 (2015)         
Using eda2 option set 1
Option set summary: Frozen orbital wavefunction, initial wavefunction decomposition, and nDQ polarization.
--------------------------------
Printing EDA Options
--------------------------------
eda_child_super_basis      0
fragmo_guess_mode          0
child_mp                   1
child_mp_orders            232
cls_elec                   1
cls_disp                   0
scfmi_mode                 1
scfmi_occs                 0
scfmi_virts                0
frz_relax                  0
frz_relax_method           0
dc_pen_start               0
dc_pen_conv                0
dc_pen_increment           0
dc_pen_steps               0
dc_pen_thresh_factor       0
dc_pen_pre_newton_thresh   0
frz_ortho_decomp           1
frz_ortho_decomp_conv      6
frgm_method                2
scfmi_freeze_ss            0
separate_rehyb             0
plot_diff_den              0
eda_nocv                   0
eda_vct_relax              1
disp_free_x                0
disp_free_c                0
eda_bsse                   0
eda_pct_a                  0
eda_covp                   0
--------------------------------
Attempting to make child job directory: /tmp/qchem50027//Frg1/
Attempting to make child job directory: /tmp/qchem50027//Frg2/
Creating input file /tmp/qchem50027/Frg1.input
using default PutDataFrgm: nothing
calling putenv with: QCSCRATCH=/tmp/qchem50027/ 
calling putenv with: QCLOCALSCR=/tmp/qchem50027/ 
Spawning Job For Fragment 0
                  Welcome to Q-Chem
     A Quantum Leap Into The Future Of Chemistry


 Q-Chem 5.2, Q-Chem, Inc., Pleasanton, CA (2019)

 License issued to: National Energy Research Scientific Computing Center

 Yihan Shao,  Zhengting Gan,  E. Epifanovsky,  A. T. B. Gilbert,  M. Wormit,  
 J. Kussmann,  A. W. Lange,  A. Behn,  Jia Deng,  Xintian Feng,  D. Ghosh,  
 M. Goldey,  P. R. Horn,  L. D. Jacobson,  I. Kaliman,  T. Kus,  A. Landau,  
 Jie Liu,  E. I. Proynov,  R. M. Richard,  R. P. Steele,  E. J. Sundstrom,  
 H. L. Woodcock III,  P. M. Zimmerman,  D. Zuev,  B. Albrecht,  E. Alguire,  
 S. A. Baeppler,  D. Barton,  Z. Benda,  Y. A. Bernard,  E. J. Berquist,  
 K. B. Bravaya,  H. Burton,  D. Casanova,  Chun-Min Chang,  Yunqing Chen,  
 A. Chien,  K. D. Closser,  M. P. Coons,  S. Coriani,  S. Dasgupta,  
 A. L. Dempwolff,  M. Diedenhofen,  Hainam Do,  R. G. Edgar,  Po-Tung Fang,  
 S. Faraji,  S. Fatehi,  Qingguo Feng,  K. D. Fenk,  J. Fosso-Tande,  
 J. Gayvert,  Qinghui Ge,  A. Ghysels,  G. Gidofalvi,  J. Gomes,  
 J. Gonthier,  A. Gunina,  D. Hait,  M. W. D. Hanson-Heine,  
 P. H. P. Harbach,  A. W. Hauser,  M. F. Herbst,  J. E. Herr,  
 E. G. Hohenstein,  Z. C. Holden,  Kerwin Hui,  B. C. Huynh,  T.-C. Jagau,  
 Hyunjun Ji,  B. Kaduk,  K. Khistyaev,  Jaehoon Kim,  P. Klunzinger,  K. Koh,  
 D. Kosenkov,  L. Koulias,  T. Kowalczyk,  C. M. Krauter,  A. Kunitsa,  
 Ka Un Lao,  A. Laurent,  K. V. Lawler,  Joonho Lee,  D. Lefrancois,  
 S. Lehtola,  D. S. Levine,  Yi-Pei Li,  You-Sheng Lin,  Fenglai Liu,  
 E. Livshits,  A. Luenser,  P. Manohar,  E. Mansoor,  S. F. Manzer,  
 Shan-Ping Mao,  Yuezhi Mao,  N. Mardirossian,  A. V. Marenich,  
 T. Markovich,  L. A. Martinez-Martinez,  S. A. Maurer,  N. J. Mayhall,  
 S. C. McKenzie,  J.-M. Mewes,  P. Morgante,  A. F. Morrison,  
 J. W. Mullinax,  K. Nanda,  T. S. Nguyen-Beck,  R. Olivares-Amaya,  
 J. A. Parkhill,  Zheng Pei,  T. M. Perrine,  F. Plasser,  P. Pokhilko,  
 S. Prager,  A. Prociuk,  E. Ramos,  D. R. Rehn,  F. Rob,  M. Scheurer,  
 M. Schneider,  N. Sergueev,  S. M. Sharada,  S. Sharma,  D. W. Small,  
 T. Stauch,  T. Stein,  Yu-Chuan Su,  A. J. W. Thom,  A. Tkatchenko,  
 T. Tsuchimochi,  N. M. Tubman,  L. Vogt,  M. L. Vidal,  O. Vydrov,  
 M. A. Watson,  J. Wenzel,  M. de Wergifosse,  T. A. Wesolowski,  A. White,  
 J. Witte,  A. Yamada,  Jun Yang,  K. Yao,  S. Yeganeh,  S. R. Yost,  
 Zhi-Qiang You,  A. Zech,  Igor Ying Zhang,  Xing Zhang,  Yan Zhao,  
 Ying Zhu,  B. R. Brooks,  G. K. L. Chan,  C. J. Cramer,  M. S. Gordon,  
 W. J. Hehre,  A. Klamt,  M. W. Schmidt,  C. D. Sherrill,  D. G. Truhlar,  
 A. Aspuru-Guzik,  R. Baer,  A. T. Bell,  N. A. Besley,  Jeng-Da Chai,  
 A. E. DePrince, III,  R. A. DiStasio Jr.,  A. Dreuw,  B. D. Dunietz,  
 T. R. Furlani,  Chao-Ping Hsu,  Yousung Jung,  Jing Kong,  D. S. Lambrecht,  
 WanZhen Liang,  C. Ochsenfeld,  V. A. Rassolov,  L. V. Slipchenko,  
 J. E. Subotnik,  T. Van Voorhis,  J. M. Herbert,  A. I. Krylov,  
 P. M. W. Gill,  M. Head-Gordon

 Contributors to earlier versions of Q-Chem not listed above: 
 R. D. Adamson,  B. Austin,  J. Baker,  G. J. O. Beran,  K. Brandhorst,  
 S. T. Brown,  E. F. C. Byrd,  A. K. Chakraborty,  C.-L. Cheng,  
 Siu Hung Chien,  D. M. Chipman,  D. L. Crittenden,  H. Dachsel,  
 R. J. Doerksen,  A. D. Dutoi,  L. Fusti-Molnar,  W. A. Goddard III,  
 A. Golubeva-Zadorozhnaya,  S. R. Gwaltney,  G. Hawkins,  A. Heyden,  
 S. Hirata,  G. Kedziora,  F. J. Keil,  C. Kelley,  Jihan Kim,  R. A. King,  
 R. Z. Khaliullin,  P. P. Korambath,  W. Kurlancheek,  A. M. Lee,  M. S. Lee,  
 S. V. Levchenko,  Ching Yeh Lin,  D. Liotard,  R. C. Lochan,  I. Lotan,  
 P. E. Maslen,  N. Nair,  D. P. O'Neill,  D. Neuhauser,  E. Neuscamman,  
 C. M. Oana,  R. Olson,  B. Peters,  R. Peverati,  P. A. Pieniazek,  
 Y. M. Rhee,  J. Ritchie,  M. A. Rohrdanz,  E. Rosta,  N. J. Russ,  
 H. F. Schaefer III,  N. E. Schultz,  N. Shenvi,  A. C. Simmonett,  A. Sodt,  
 D. Stuck,  K. S. Thanthiriwatte,  V. Vanovschi,  Tao Wang,  A. Warshel,  
 C. F. Williams,  Q. Wu,  X. Xu,  W. Zhang

 Please cite Q-Chem as follows:
 Y. Shao et al., Mol. Phys. 113, 184-215 (2015)
 DOI: 10.1080/00268976.2014.952696

 Q-Chem 5.2.0 for Intel X86 EM64T Linux

 Parts of Q-Chem use Armadillo 8.300.2 (Tropical Shenanigans).
 http://arma.sourceforge.net/

 Q-Chem begins on Sun Sep 26 07:54:30 2021  

Host: cori01
0

     Scratch files written to /tmp/qchem50027//Frg1//
 May1019 |scratch|qcdevops|jenkins|workspace|build_RNUM -1
Processing $rem in /global/common/cori/software/qchem/5.2/config/preferences:
	 MEM_TOTAL  96000 
NAlpha2: 40
NElect   40
Mult     1
Symmetry turned off for PCM/SM12/SMD calculation

Checking the input file for inconsistencies... 	...done.

--------------------------------------------------------------
User input:
--------------------------------------------------------------
$molecule
1 1
 6	-2.9697421840	1.1305889720	-2.3689180597
 6	-1.0507421840	1.4205889720	-0.8599180597
 7	-0.3747421840	1.0585889720	0.2190819403
 7	-2.1317421840	0.7455889720	-1.2389180597
 7	-0.6727421840	2.4905889720	-1.5369180597
 1	-0.6787421840	0.2725889720	0.7790819403
 1	0.4462578160	1.5885889720	0.5020819403
 1	-2.3737421840	-0.0954110280	-0.7339180597
 1	-1.2017421840	2.7975889720	-2.3429180597
 1	0.1642578160	2.9955889720	-1.2499180597
 1	-3.5667421840	0.2735889720	-2.6679180597
 1	-2.3197421840	1.4155889720	-3.1989180597
 1	-3.6283621840	1.9721989720	-2.1083180597
$end
$rem
EDA2		1
METHOD		WB97X-V
BASIS		DEF2-TZVPD
XC_GRID		000099000590
NL_GRID		1
UNRESTRICTED		FALSE
MAX_SCF_CYCLES		200
SYMMETRY		FALSE
SYM_IGNORE		TRUE
BASIS_LIN_DEP_THRESH		6
THRESH		14
SCF_CONVERGENCE		8
SCF_PRINT_FRGM		TRUE
SOLVENT_METHOD		SMD
!required keywords
JOBTYPE		SP
SYM_IGNORE		TRUE
SUBSYSTEM		TRUE
GEN_SCFMAN		TRUE
CHILD_INSTRUCTION		2
SYM_IGNORE		TRUE
SCFMI		0
RI_K 0		
PARI_K 0		
MIN_PARI_K 0		
IARI_K 0		
OCC_RI_K 0		
PURECART		1111
MEM_STATIC		2000
MEM_TOTAL		96000
GUI		0
CHILD_MP		1
CHILD_MP_ORDERS		232
FRZ_RELAX		0
FRZ_RELAX_METHOD		0
EDA_CLS_ELEC		1
EDA_CLS_DISP		0
FRZ_ORTHO_DECOMP		1
EDA2		FALSE
FRGM_METHOD		FALSE
CIS_N_ROOTS  0
LOCAL_CIS    0
CIS_RLX_DNS  1
$end
$smx
SOLVENT			WATER
$end
--------------------------------------------------------------
 ----------------------------------------------------------------
             Standard Nuclear Orientation (Angstroms)
    I     Atom           X                Y                Z
 ----------------------------------------------------------------
    1      C      -2.9697421840     1.1305889720    -2.3689180597
    2      C      -1.0507421840     1.4205889720    -0.8599180597
    3      N      -0.3747421840     1.0585889720     0.2190819403
    4      N      -2.1317421840     0.7455889720    -1.2389180597
    5      N      -0.6727421840     2.4905889720    -1.5369180597
    6      H      -0.6787421840     0.2725889720     0.7790819403
    7      H       0.4462578160     1.5885889720     0.5020819403
    8      H      -2.3737421840    -0.0954110280    -0.7339180597
    9      H      -1.2017421840     2.7975889720    -2.3429180597
   10      H       0.1642578160     2.9955889720    -1.2499180597
   11      H      -3.5667421840     0.2735889720    -2.6679180597
   12      H      -2.3197421840     1.4155889720    -3.1989180597
   13      H      -3.6283621840     1.9721989720    -2.1083180597
 ----------------------------------------------------------------
 Nuclear Repulsion Energy =         194.31784843 hartrees
 There are       20 alpha and       20 beta electrons
 Requested basis set is def2-TZVPD
 There are 105 shells and 257 basis functions

 Total QAlloc Memory Limit  96000 MB
 Mega-Array Size      1956 MB
 MEM_STATIC part      2000 MB
 
 Citation of the SMD model:
 Marenich, A.V.; Cramer, C.J.; Truhlar, D.G.
 J. Phys. Chem. B 2009, 113, 6378-6396.
 iSolventCode=           1
 Solvent: water                                                           
 
 vradii
            1           2           3           4           5           6
    1   1.8500000   1.8500000   1.8900000   1.8900000   1.8900000   1.2000000
            7           8           9          10          11          12
    1   1.2000000   1.2000000   1.2000000   1.2000000   1.2000000   1.2000000
           13
    1   1.2000000
 Changing PCM_VDW_RADII to SMD_RADIUS
 Discretize the solute cavity surface with Lebedev spheres
	Using 110 Lebedev grid points for each H atom
	Using 194 Lebedev grid points for other atoms
	Atomic van der Waals radii will be scaled by 1.20
 Remove points where switching function is < 1.0e-08
 Keep 905 surface tesserae and discard 945 interior tesserae
 Molecular Surface Area = 113.518 Angst**2

                       Distance Matrix (Angstroms)
             C (  1)   C (  2)   N (  3)   N (  4)   N (  5)   H (  6)
   C (  2)  2.458402
   N (  3)  3.665645  1.323730
   N (  4)  1.458550  1.329597  2.304513
   N (  5)  2.796075  1.321406  2.285380  2.294016
   H (  6)  3.986822  2.035340  1.011836  2.531257  3.206777
   H (  7)  4.485695  2.030832  1.017364  3.223013  2.494651  1.753343
   H (  8)  2.128736  2.016051  2.497184  1.010381  3.197750  2.301655
   H (  9)  2.430101  2.029340  3.204980  2.508868  1.011793  4.049202
   H ( 10)  3.814753  2.027055  2.490070  3.214691  1.018805  3.498888
   H ( 11)  1.086397  3.303745  4.374912  2.079435  3.817000  4.496927
   H ( 12)  1.092074  2.661073  3.948822  2.079866  2.574971  4.452394
   H ( 13)  1.100000  2.916659  4.103354  2.121391  3.054655  4.463856
             H (  7)   H (  8)   H (  9)   H ( 10)   H ( 11)   H ( 12)
   H (  8)  3.509409
   H (  9)  3.503086  3.511683
   H ( 10)  2.264658  4.032615  1.760627
   H ( 11)  5.280369  2.302122  3.474108  4.831187
   H ( 12)  4.623644  2.891758  1.972963  3.530617  1.772324
   H ( 13)  4.854263  2.781736  2.573867  4.020963  1.789476  1.792124

 
 A cutoff of  1.0D-14 yielded   5441 shell pairs
 There are     33169 function pairs (     41505 Cartesian)
 Smallest overlap matrix eigenvalue = 1.66E-05

 Scale SEOQF with 1.000000e-01/1.000000e-01/1.000000e-01

 Standard Electronic Orientation quadrupole field applied
 Nucleus-field energy     =     0.0000000017 hartrees
 Guess from superposition of atomic densities
 Warning:  Energy on first SCF cycle will be non-variational
 SAD guess density has 40.388232 electrons

 -----------------------------------------------------------------------
  General SCF calculation program by
  Eric Jon Sundstrom, Paul Horn, Yuezhi Mao, Dmitri Zuev, Alec White,
  David Stuck, Shaama M.S., Shane Yost, Joonho Lee, David Small,
  Daniel Levine, Susi Lehtola, Hugh Burton, Evgeny Epifanovsky
 -----------------------------------------------------------------------
 Exchange:     0.1670 Hartree-Fock + 1.0000 wB97X-V + LR-HF
 Correlation:  1.0000 wB97X-V
 Using Euler-Maclaurin-Lebedev (99,590) quadrature formula
 Nonlocal Correlation:  VV10 with C = 0.0100 and b = 6.00 and scale = 1.00000
 Grid used for NLC:  SG-1 standard quadrature
Energy prior to optimization (guess energy) = -244.725645977674
Begin Timing: Total SCF Calculation
begin iterations for algorithm: DIIS         
the SCF tolerance is set to 1.00e-08
    1    -244.7256459777      7.93e-03     00000 
    2    -244.9631993294      6.26e-03     00000 
    3    -245.2058528020      3.31e-04     00000 
    4    -245.2067912766      1.72e-04     00000 
    5    -245.2070219539      4.52e-05     00000 
    6    -245.2070394203      1.93e-05     00000 
    7    -245.2070424476      3.24e-06     00000 
    8    -245.2070426221      9.24e-07     00000 
    9    -245.2070426347      3.80e-07     00000 
   10    -245.2070426372      9.99e-08     00000 
   11    -245.2070426374      4.93e-08     00000 
   12    -245.2070426375      1.51e-08     00000 
   13    -245.2070426375      2.09e-09     00000 Convergence criterion met
Timing for Total SCF: 710.00s (wall), 1410.80s (cpu)
(3)  G-ENP(liq) elect-nuc-pol free energy of system     -245.207042637 a.u.
(4)  G-CDS(liq) cavity-dispersion-solvent structure 
     free energy                                                2.7223 kcal/mol
(6)  G-S(liq) free energy of system                     -245.202704357 a.u.
E_pcm = -0.1082981201
E_cds = 0.0043382800
Multipole orders to be included
        2
        3
computing dipole RHS
computing quadrupole RHS
total number of RHS in solve_reponses: 8
RHS batch sizes
        8
Beginning Block Conjugate Gradient Iterations. Batch Number: 0
computing hessian-vector products by finite difference
              1      4.66e-01     00000 Conjugate Gradient Iteration
computing hessian-vector products by finite difference
              2      1.62e-01     00000 Conjugate Gradient Iteration
computing hessian-vector products by finite difference
              3      4.62e-02     00000 Conjugate Gradient Iteration
computing hessian-vector products by finite difference
              4      1.27e-02     00000 Conjugate Gradient Iteration
computing hessian-vector products by finite difference
              5      1.78e-03     00000 Conjugate Gradient Iteration
computing hessian-vector products by finite difference
              6      3.02e-04     00000 Conjugate Gradient Iteration
computing hessian-vector products by finite difference
              7      4.11e-05     00000 Conjugate Gradient Iteration
computing hessian-vector products by finite difference
              8      5.52e-06     00000 Conjugate Gradient Iteration
computing hessian-vector products by finite difference
              9      1.30e-06     00000 Conjugate Gradient Iteration
computing hessian-vector products by finite difference
             10      2.63e-07     00000 Conjugate Gradient Iteration
computing hessian-vector products by finite difference
             11      3.81e-08     00000 Conjugate Gradient Iteration
computing hessian-vector products by finite difference
             12      5.30e-09     00000 CG Converged
batch 0 complete
Done Calculating Responses
TESTING ORTHOGONALIZATION OF MULTIPOLE BASIS
Multipole virts passed orthogonality test
Virts Per Order
           60
          100
 
 --------------------------------------------------------------
 
                    Orbital Energies (a.u.)
 --------------------------------------------------------------
 
 Alpha MOs
 -- Occupied --
-14.4540 -14.4493 -14.4466 -10.4229 -10.3043  -1.1713  -1.0549  -1.0400
 -0.8522  -0.7637  -0.7236  -0.6843  -0.6142  -0.6111  -0.5960  -0.5686
 -0.5252  -0.5087  -0.3988  -0.3756
 -- Virtual --
  0.0588   0.0847   0.0979   0.1029   0.1235   0.1253   0.1369   0.1502
  0.1728   0.1793   0.1917   0.2012   0.2022   0.2113   0.2216   0.2405
  0.2421   0.2451   0.2507   0.2731   0.2803   0.2866   0.2943   0.3045
  0.3137   0.3187   0.3233   0.3295   0.3389   0.3438   0.3530   0.3597
  0.3672   0.3768   0.3792   0.3997   0.4076   0.4113   0.4143   0.4326
  0.4428   0.4478   0.4602   0.4632   0.4703   0.4773   0.4901   0.5008
  0.5013   0.5088   0.5201   0.5231   0.5299   0.5377   0.5486   0.5529
  0.5605   0.5715   0.5811   0.5870   0.6137   0.6271   0.6402   0.6570
  0.6591   0.6776   0.6822   0.7042   0.7222   0.7302   0.7526   0.7641
  0.7934   0.8006   0.8156   0.8349   0.8381   0.8481   0.8581   0.8692
  0.8829   0.8936   0.9042   0.9230   0.9378   0.9801   0.9887   1.0035
  1.0391   1.0663   1.0793   1.0960   1.1143   1.1198   1.1327   1.1476
  1.1527   1.1724   1.2265   1.2529   1.2677   1.3382   1.3700   1.4196
  1.4276   1.4521   1.4748   1.4943   1.5609   1.5649   1.6575   1.6679
  1.6756   1.7074   1.7552   1.8022   1.8413   1.8562   1.8741   1.8921
  1.9082   1.9251   1.9324   1.9814   1.9962   2.0159   2.0357   2.0697
  2.1166   2.1266   2.1784   2.1986   2.2115   2.2504   2.2661   2.3175
  2.3302   2.3474   2.3893   2.4189   2.4350   2.4856   2.4912   2.5294
  2.5605   2.5842   2.6245   2.6287   2.6528   2.6702   2.7074   2.7446
  2.7944   2.8181   2.8493   2.8919   2.9024   2.9202   2.9483   2.9680
  3.0617   3.1337   3.1479   3.1534   3.1748   3.2131   3.2299   3.2560
  3.2664   3.3041   3.3158   3.3252   3.3597   3.4043   3.4332   3.4366
  3.4694   3.5052   3.5324   3.5845   3.6160   3.6387   3.6891   3.7475
  3.8130   3.8804   3.9552   3.9688   4.0945   4.1552   4.1666   4.2544
  4.2923   4.3068   4.3383   4.3513   4.3663   4.4930   4.5855   4.6149
  4.6910   4.8453   4.8636   4.8728   4.9395   4.9993   5.0183   5.0584
  5.1231   5.1235   5.1440   5.1780   5.1935   5.2170   5.2754   5.3672
  5.3875   5.4118   5.4287   5.4449   5.4991   5.5069   5.5760   5.6488
  5.6978   5.7848   5.8108   5.8905   6.1564   6.1675   6.3812   6.4605
 22.6810  23.6291  32.3365  32.4544  32.8156
 --------------------------------------------------------------
 
          Ground-State Mulliken Net Atomic Charges

     Atom                 Charge (a.u.)
  ----------------------------------------
      1 C                    -0.810359
      2 C                     0.437302
      3 N                    -0.315281
      4 N                    -0.098582
      5 N                    -0.290786
      6 H                     0.248341
      7 H                     0.252077
      8 H                     0.286009
      9 H                     0.201430
     10 H                     0.246599
     11 H                     0.281028
     12 H                     0.299400
     13 H                     0.262823
  ----------------------------------------
  Sum of atomic charges =     1.000000

 -----------------------------------------------------------------
                    Cartesian Multipole Moments
 -----------------------------------------------------------------
    Charge (ESU x 10^10)
                 4.8032
    Dipole Moment (Debye)
         X      -5.4798      Y       6.7544      Z      -4.4246
       Tot       9.7584
    Quadrupole Moments (Debye-Ang)
        XX     -14.0630     XY      -1.6852     YY     -12.0739
        XZ      11.3142     YZ     -11.1866     ZZ     -17.0802
    Octopole Moments (Debye-Ang^2)
       XXX      91.7701    XXY     -31.2814    XYY      40.1684
       YYY     -76.0108    XXZ       6.2599    XYZ      15.4040
       YYZ       5.3630    XZZ      18.1020    YZZ     -15.4402
       ZZZ      80.2123
    Hexadecapole Moments (Debye-Ang^3)
      XXXX    -508.9814   XXXY     133.4077   XXYY    -154.6381
      XYYY     150.4130   YYYY    -322.5918   XXXZ    -142.1035
      XXYZ      23.2383   XYYZ     -43.8817   YYYZ      74.3657
      XXZZ    -112.4126   XYZZ      14.0798   YYZZ     -83.5608
      XZZZ    -164.7123   YZZZ      99.3142   ZZZZ    -381.0219
 -----------------------------------------------------------------
Archival summary:
1\1\nid00571\SP\ProcedureUnspecified\BasisUnspecified\328(1+,1)\meili\SunSep2611:27:202021SunSep2611:27:202021\0\\#,ProcedureUnspecified,BasisUnspecified,\\1,1\C\N,1,1.32141\H,2,1.01179,1,120.282\H,2,1.0188,1,119.476,3,-179.026,0\N,1,1.32373,2,119.536,3,-177.693,0\H,5,1.01184,1,120.673,2,176.629,0\H,5,1.01736,1,119.761,2,-1.89802,0\N,1,1.3296,2,119.843,3,-0.0733478,0\H,8,1.01038,1,118.348,2,176.956,0\C,8,1.45855,1,123.639,2,-1.26873,0\H,10,1.0864,8,108.707,1,161.551,0\H,10,1.09207,8,108.406,1,43.3262,0\H,10,1.1,8,111.249,1,-77.3509,0\\\@

 Total job time:  12771.62s(wall), 25264.75s(cpu) 
 Sun Sep 26 11:27:22 2021

        *************************************************************
        *                                                           *
        *  Thank you very much for using Q-Chem.  Have a nice day.  *
        *                                                           *
        *************************************************************


Done Job For Fragment 0
calling putenv with: QCSCRATCH=/global/cscratch1/sd/meili 
calling putenv with: QCLOCALSCR=/tmp 
calling putenv with: QCTHREADS=32 
Creating input file /tmp/qchem50027/Frg2.input
using default PutDataFrgm: nothing
calling putenv with: QCSCRATCH=/tmp/qchem50027/ 
calling putenv with: QCLOCALSCR=/tmp/qchem50027/ 
Spawning Job For Fragment 1
                  Welcome to Q-Chem
     A Quantum Leap Into The Future Of Chemistry


 Q-Chem 5.2, Q-Chem, Inc., Pleasanton, CA (2019)

 License issued to: National Energy Research Scientific Computing Center

 Yihan Shao,  Zhengting Gan,  E. Epifanovsky,  A. T. B. Gilbert,  M. Wormit,  
 J. Kussmann,  A. W. Lange,  A. Behn,  Jia Deng,  Xintian Feng,  D. Ghosh,  
 M. Goldey,  P. R. Horn,  L. D. Jacobson,  I. Kaliman,  T. Kus,  A. Landau,  
 Jie Liu,  E. I. Proynov,  R. M. Richard,  R. P. Steele,  E. J. Sundstrom,  
 H. L. Woodcock III,  P. M. Zimmerman,  D. Zuev,  B. Albrecht,  E. Alguire,  
 S. A. Baeppler,  D. Barton,  Z. Benda,  Y. A. Bernard,  E. J. Berquist,  
 K. B. Bravaya,  H. Burton,  D. Casanova,  Chun-Min Chang,  Yunqing Chen,  
 A. Chien,  K. D. Closser,  M. P. Coons,  S. Coriani,  S. Dasgupta,  
 A. L. Dempwolff,  M. Diedenhofen,  Hainam Do,  R. G. Edgar,  Po-Tung Fang,  
 S. Faraji,  S. Fatehi,  Qingguo Feng,  K. D. Fenk,  J. Fosso-Tande,  
 J. Gayvert,  Qinghui Ge,  A. Ghysels,  G. Gidofalvi,  J. Gomes,  
 J. Gonthier,  A. Gunina,  D. Hait,  M. W. D. Hanson-Heine,  
 P. H. P. Harbach,  A. W. Hauser,  M. F. Herbst,  J. E. Herr,  
 E. G. Hohenstein,  Z. C. Holden,  Kerwin Hui,  B. C. Huynh,  T.-C. Jagau,  
 Hyunjun Ji,  B. Kaduk,  K. Khistyaev,  Jaehoon Kim,  P. Klunzinger,  K. Koh,  
 D. Kosenkov,  L. Koulias,  T. Kowalczyk,  C. M. Krauter,  A. Kunitsa,  
 Ka Un Lao,  A. Laurent,  K. V. Lawler,  Joonho Lee,  D. Lefrancois,  
 S. Lehtola,  D. S. Levine,  Yi-Pei Li,  You-Sheng Lin,  Fenglai Liu,  
 E. Livshits,  A. Luenser,  P. Manohar,  E. Mansoor,  S. F. Manzer,  
 Shan-Ping Mao,  Yuezhi Mao,  N. Mardirossian,  A. V. Marenich,  
 T. Markovich,  L. A. Martinez-Martinez,  S. A. Maurer,  N. J. Mayhall,  
 S. C. McKenzie,  J.-M. Mewes,  P. Morgante,  A. F. Morrison,  
 J. W. Mullinax,  K. Nanda,  T. S. Nguyen-Beck,  R. Olivares-Amaya,  
 J. A. Parkhill,  Zheng Pei,  T. M. Perrine,  F. Plasser,  P. Pokhilko,  
 S. Prager,  A. Prociuk,  E. Ramos,  D. R. Rehn,  F. Rob,  M. Scheurer,  
 M. Schneider,  N. Sergueev,  S. M. Sharada,  S. Sharma,  D. W. Small,  
 T. Stauch,  T. Stein,  Yu-Chuan Su,  A. J. W. Thom,  A. Tkatchenko,  
 T. Tsuchimochi,  N. M. Tubman,  L. Vogt,  M. L. Vidal,  O. Vydrov,  
 M. A. Watson,  J. Wenzel,  M. de Wergifosse,  T. A. Wesolowski,  A. White,  
 J. Witte,  A. Yamada,  Jun Yang,  K. Yao,  S. Yeganeh,  S. R. Yost,  
 Zhi-Qiang You,  A. Zech,  Igor Ying Zhang,  Xing Zhang,  Yan Zhao,  
 Ying Zhu,  B. R. Brooks,  G. K. L. Chan,  C. J. Cramer,  M. S. Gordon,  
 W. J. Hehre,  A. Klamt,  M. W. Schmidt,  C. D. Sherrill,  D. G. Truhlar,  
 A. Aspuru-Guzik,  R. Baer,  A. T. Bell,  N. A. Besley,  Jeng-Da Chai,  
 A. E. DePrince, III,  R. A. DiStasio Jr.,  A. Dreuw,  B. D. Dunietz,  
 T. R. Furlani,  Chao-Ping Hsu,  Yousung Jung,  Jing Kong,  D. S. Lambrecht,  
 WanZhen Liang,  C. Ochsenfeld,  V. A. Rassolov,  L. V. Slipchenko,  
 J. E. Subotnik,  T. Van Voorhis,  J. M. Herbert,  A. I. Krylov,  
 P. M. W. Gill,  M. Head-Gordon

 Contributors to earlier versions of Q-Chem not listed above: 
 R. D. Adamson,  B. Austin,  J. Baker,  G. J. O. Beran,  K. Brandhorst,  
 S. T. Brown,  E. F. C. Byrd,  A. K. Chakraborty,  C.-L. Cheng,  
 Siu Hung Chien,  D. M. Chipman,  D. L. Crittenden,  H. Dachsel,  
 R. J. Doerksen,  A. D. Dutoi,  L. Fusti-Molnar,  W. A. Goddard III,  
 A. Golubeva-Zadorozhnaya,  S. R. Gwaltney,  G. Hawkins,  A. Heyden,  
 S. Hirata,  G. Kedziora,  F. J. Keil,  C. Kelley,  Jihan Kim,  R. A. King,  
 R. Z. Khaliullin,  P. P. Korambath,  W. Kurlancheek,  A. M. Lee,  M. S. Lee,  
 S. V. Levchenko,  Ching Yeh Lin,  D. Liotard,  R. C. Lochan,  I. Lotan,  
 P. E. Maslen,  N. Nair,  D. P. O'Neill,  D. Neuhauser,  E. Neuscamman,  
 C. M. Oana,  R. Olson,  B. Peters,  R. Peverati,  P. A. Pieniazek,  
 Y. M. Rhee,  J. Ritchie,  M. A. Rohrdanz,  E. Rosta,  N. J. Russ,  
 H. F. Schaefer III,  N. E. Schultz,  N. Shenvi,  A. C. Simmonett,  A. Sodt,  
 D. Stuck,  K. S. Thanthiriwatte,  V. Vanovschi,  Tao Wang,  A. Warshel,  
 C. F. Williams,  Q. Wu,  X. Xu,  W. Zhang

 Please cite Q-Chem as follows:
 Y. Shao et al., Mol. Phys. 113, 184-215 (2015)
 DOI: 10.1080/00268976.2014.952696

 Q-Chem 5.2.0 for Intel X86 EM64T Linux

 Parts of Q-Chem use Armadillo 8.300.2 (Tropical Shenanigans).
 http://arma.sourceforge.net/

 Q-Chem begins on Sun Sep 26 11:27:25 2021  

Host: cori01
0

     Scratch files written to /tmp/qchem50027//Frg2//
 May1019 |scratch|qcdevops|jenkins|workspace|build_RNUM -1
Processing $rem in /global/common/cori/software/qchem/5.2/config/preferences:
	 MEM_TOTAL  96000 
NAlpha2: 32
NElect   32
Mult     1
Symmetry turned off for PCM/SM12/SMD calculation

Checking the input file for inconsistencies... 	...done.

--------------------------------------------------------------
User input:
--------------------------------------------------------------
$molecule
-1 1
 6	1.6882578160	-2.3434110280	0.1420819403
 6	1.8072578160	-1.6884110280	1.5240819403
 8	0.8362578160	-1.0184110280	1.9590819403
 8	2.8582578160	-1.8654110280	2.1840819403
 1	0.9112578160	-1.8394110280	-0.4289180597
 1	1.4182578160	-3.3934110280	0.2650819403
 1	2.6183978160	-2.2623710280	-0.4395280597
$end
$rem
EDA2		1
METHOD		WB97X-V
BASIS		DEF2-TZVPD
XC_GRID		000099000590
NL_GRID		1
UNRESTRICTED		FALSE
MAX_SCF_CYCLES		200
SYMMETRY		FALSE
SYM_IGNORE		TRUE
BASIS_LIN_DEP_THRESH		6
THRESH		14
SCF_CONVERGENCE		8
SCF_PRINT_FRGM		TRUE
SOLVENT_METHOD		SMD
!required keywords
JOBTYPE		SP
SYM_IGNORE		TRUE
SUBSYSTEM		TRUE
GEN_SCFMAN		TRUE
CHILD_INSTRUCTION		2
SYM_IGNORE		TRUE
SCFMI		0
RI_K 0		
PARI_K 0		
MIN_PARI_K 0		
IARI_K 0		
OCC_RI_K 0		
PURECART		1111
MEM_STATIC		2000
MEM_TOTAL		96000
GUI		0
CHILD_MP		1
CHILD_MP_ORDERS		232
FRZ_RELAX		0
FRZ_RELAX_METHOD		0
EDA_CLS_ELEC		1
EDA_CLS_DISP		0
FRZ_ORTHO_DECOMP		1
EDA2		FALSE
FRGM_METHOD		FALSE
CIS_N_ROOTS  0
LOCAL_CIS    0
CIS_RLX_DNS  1
$end
$smx
SOLVENT			WATER
$end
--------------------------------------------------------------
 ----------------------------------------------------------------
             Standard Nuclear Orientation (Angstroms)
    I     Atom           X                Y                Z
 ----------------------------------------------------------------
    1      C       1.6882578160    -2.3434110280     0.1420819403
    2      C       1.8072578160    -1.6884110280     1.5240819403
    3      O       0.8362578160    -1.0184110280     1.9590819403
    4      O       2.8582578160    -1.8654110280     2.1840819403
    5      H       0.9112578160    -1.8394110280    -0.4289180597
    6      H       1.4182578160    -3.3934110280     0.2650819403
    7      H       2.6183978160    -2.2623710280    -0.4395280597
 ----------------------------------------------------------------
 Nuclear Repulsion Energy =         112.17152128 hartrees
 There are       16 alpha and       16 beta electrons
 Requested basis set is def2-TZVPD
 There are 69 shells and 181 basis functions

 Total QAlloc Memory Limit  96000 MB
 Mega-Array Size      1956 MB
 MEM_STATIC part      2000 MB
 
 Citation of the SMD model:
 Marenich, A.V.; Cramer, C.J.; Truhlar, D.G.
 J. Phys. Chem. B 2009, 113, 6378-6396.
 iSolventCode=           1
 Solvent: water                                                           
 
 vradii
            1           2           3           4           5           6
    1   1.8500000   1.8500000   1.5200000   1.5200000   1.2000000   1.2000000
            7
    1   1.2000000
 Changing PCM_VDW_RADII to SMD_RADIUS
 Discretize the solute cavity surface with Lebedev spheres
	Using 110 Lebedev grid points for each H atom
	Using 194 Lebedev grid points for other atoms
	Atomic van der Waals radii will be scaled by 1.20
 Remove points where switching function is < 1.0e-08
 Keep 642 surface tesserae and discard 464 interior tesserae
 Molecular Surface Area = 80.146 Angst**2

                       Distance Matrix (Angstroms)
             C (  1)   C (  2)   O (  3)   O (  4)   H (  5)   H (  6)
   C (  2)  1.533985
   O (  3)  2.404791  1.257365
   O (  4)  2.401489  1.253607  2.203751
   H (  5)  1.088019  2.154026  2.526304  3.258720
   H (  6)  1.091114  2.154861  2.974724  2.844459  1.775838
   H (  7)  1.099999  2.200714  3.236787  2.664290  1.758788  1.793338

 
 A cutoff of  1.0D-14 yielded   2391 shell pairs
 There are     16695 function pairs (     21491 Cartesian)
 Smallest overlap matrix eigenvalue = 1.74E-05

 Scale SEOQF with 1.000000e-01/1.000000e-01/1.000000e-01

 Standard Electronic Orientation quadrupole field applied
 Nucleus-field energy     =     0.0000000028 hartrees
 Guess from superposition of atomic densities
 Warning:  Energy on first SCF cycle will be non-variational
 SAD guess density has 30.625312 electrons

 -----------------------------------------------------------------------
  General SCF calculation program by
  Eric Jon Sundstrom, Paul Horn, Yuezhi Mao, Dmitri Zuev, Alec White,
  David Stuck, Shaama M.S., Shane Yost, Joonho Lee, David Small,
  Daniel Levine, Susi Lehtola, Hugh Burton, Evgeny Epifanovsky
 -----------------------------------------------------------------------
 Exchange:     0.1670 Hartree-Fock + 1.0000 wB97X-V + LR-HF
 Correlation:  1.0000 wB97X-V
 Using Euler-Maclaurin-Lebedev (99,590) quadrature formula
 Nonlocal Correlation:  VV10 with C = 0.0100 and b = 6.00 and scale = 1.00000
 Grid used for NLC:  SG-1 standard quadrature
Energy prior to optimization (guess energy) = -227.760519840686
Begin Timing: Total SCF Calculation
begin iterations for algorithm: DIIS         
the SCF tolerance is set to 1.00e-08
    1    -227.7605198407      1.66e-02     00000 
    2    -225.6280106444      2.50e-02     00000 
    3    -228.6069203290      4.07e-03     00000 
    4    -228.6594606319      1.38e-03     00000 
    5    -228.6654271374      2.60e-04     00000 
    6    -228.6656832140      1.76e-04     00000 
    7    -228.6657642425      5.37e-05     00000 
    8    -228.6657747806      1.35e-05     00000 
    9    -228.6657759100      3.99e-06     00000 
   10    -228.6657760262      1.13e-06     00000 
   11    -228.6657760374      2.13e-07     00000 
   12    -228.6657760377      4.53e-08     00000 
   13    -228.6657760377      1.07e-08     00000 
   14    -228.6657760377      2.69e-09     00000 Convergence criterion met
Timing for Total SCF: 275.00s (wall), 541.37s (cpu)
(3)  G-ENP(liq) elect-nuc-pol free energy of system     -228.665776038 a.u.
(4)  G-CDS(liq) cavity-dispersion-solvent structure 
     free energy                                                3.9034 kcal/mol
(6)  G-S(liq) free energy of system                     -228.659555589 a.u.
E_pcm = -0.1311156467
E_cds = 0.0062204485
Multipole orders to be included
        2
        3
computing dipole RHS
computing quadrupole RHS
total number of RHS in solve_reponses: 8
RHS batch sizes
        8
Beginning Block Conjugate Gradient Iterations. Batch Number: 0
computing hessian-vector products by finite difference
              1      7.47e-01     00000 Conjugate Gradient Iteration
computing hessian-vector products by finite difference
              2      2.30e-01     00000 Conjugate Gradient Iteration
computing hessian-vector products by finite difference
              3      6.39e-02     00000 Conjugate Gradient Iteration
computing hessian-vector products by finite difference
              4      1.72e-02     00000 Conjugate Gradient Iteration
computing hessian-vector products by finite difference
              5      2.55e-03     00000 Conjugate Gradient Iteration
computing hessian-vector products by finite difference
              6      6.78e-04     00000 Conjugate Gradient Iteration
computing hessian-vector products by finite difference
              7      9.70e-05     00000 Conjugate Gradient Iteration
computing hessian-vector products by finite difference
              8      1.19e-05     00000 Conjugate Gradient Iteration
computing hessian-vector products by finite difference
              9      1.83e-06     00000 Conjugate Gradient Iteration
computing hessian-vector products by finite difference
             10      1.79e-07     00000 Conjugate Gradient Iteration
computing hessian-vector products by finite difference
             11      2.73e-08     00000 Conjugate Gradient Iteration
computing hessian-vector products by finite difference
             12      8.48e-09     00000 CG Converged
batch 0 complete
Done Calculating Responses
TESTING ORTHOGONALIZATION OF MULTIPOLE BASIS
Multipole virts passed orthogonality test
Virts Per Order
        48
        80
 
 --------------------------------------------------------------
 
                    Orbital Energies (a.u.)
 --------------------------------------------------------------
 
 Alpha MOs
 -- Occupied --
-19.1542 -19.1540 -10.3567 -10.2477  -1.1637  -1.0642  -0.8389  -0.6180
 -0.5469  -0.5456  -0.5402  -0.4801  -0.4656  -0.3657  -0.3578  -0.3452
 -- Virtual --
  0.0669   0.1001   0.1007   0.1073   0.1351   0.1435   0.1464   0.1508
  0.1548   0.1885   0.2041   0.2227   0.2343   0.2393   0.2583   0.2667
  0.2970   0.3140   0.3326   0.3460   0.3560   0.3625   0.3713   0.3802
  0.3840   0.4025   0.4171   0.4226   0.4288   0.4520   0.4661   0.4730
  0.4832   0.4892   0.5051   0.5076   0.5468   0.5617   0.5739   0.5970
  0.6153   0.6278   0.6300   0.6396   0.6494   0.6636   0.6855   0.6892
  0.7072   0.7197   0.7753   0.7932   0.8006   0.8099   0.8326   0.8423
  0.8575   0.9569   0.9753   0.9852   0.9936   1.0258   1.0443   1.0895
  1.1363   1.2083   1.2384   1.2529   1.2596   1.2958   1.3347   1.3608
  1.4224   1.5372   1.5771   1.7373   1.8001   1.8515   1.8549   1.8946
  1.9149   1.9292   1.9410   1.9599   2.0031   2.0853   2.1092   2.1723
  2.1812   2.2000   2.2914   2.3199   2.4012   2.4307   2.4482   2.4632
  2.5513   2.5809   2.6076   2.6452   2.7768   2.7975   2.8581   2.8987
  2.9371   2.9955   3.0388   3.1317   3.2059   3.2246   3.2574   3.2819
  3.3323   3.3389   3.3701   3.3902   3.4060   3.5075   3.5572   3.5775
  3.5826   3.6378   3.6726   3.7113   3.7284   3.8252   3.9482   4.0271
  4.0661   4.1827   4.2994   4.5234   4.6240   4.6531   4.7800   4.7976
  4.9798   5.2956   5.3225   5.3302   5.3385   5.4611   5.6704   5.7309
  5.7750   5.9793   6.1985   6.2952   6.3162   6.5769   6.5961   6.6846
  6.7114   6.7240   6.9052   6.9451   7.0074   7.2060   7.3072   7.3427
  7.3768  22.5738  23.6634  44.1845  44.3229
 --------------------------------------------------------------
 
          Ground-State Mulliken Net Atomic Charges

     Atom                 Charge (a.u.)
  ----------------------------------------
      1 C                    -0.600292
      2 C                     0.506204
      3 O                    -0.772599
      4 O                    -0.771777
      5 H                     0.209239
      6 H                     0.198744
      7 H                     0.230481
  ----------------------------------------
  Sum of atomic charges =    -1.000000

 -----------------------------------------------------------------
                    Cartesian Multipole Moments
 -----------------------------------------------------------------
    Charge (ESU x 10^10)
                -4.8032
    Dipole Moment (Debye)
         X      -9.0390      Y       5.9327      Z     -12.0563
       Tot      16.1943
    Quadrupole Moments (Debye-Ang)
        XX     -51.4281     XY      15.2012     YY     -33.4813
        XZ     -23.6576     YZ      16.1317     ZZ     -53.6761
    Octopole Moments (Debye-Ang^2)
       XXX    -217.9675    XXY      94.1587    XYY     -73.2486
       YYY     144.9571    XXZ    -100.1136    XYZ      39.8627
       YYZ     -59.1247    XZZ    -102.2792    YZZ      84.2329
       ZZZ    -170.8853
    Hexadecapole Moments (Debye-Ang^3)
      XXXX    -861.0218   XXXY     414.4567   XXYY    -290.1462
      XYYY     308.5875   YYYY    -554.3836   XXXZ    -393.0117
      XXYZ     173.6349   XYYZ    -137.9424   YYYZ     197.9679
      XXZZ    -325.6419   XYZZ     180.3717   YYZZ    -227.5066
      XZZZ    -332.9286   YZZZ     252.1335   ZZZZ    -598.3809
 -----------------------------------------------------------------
Archival summary:
1\1\nid00571\SP\ProcedureUnspecified\BasisUnspecified\223(1-,1)\meili\SunSep2612:41:442021SunSep2612:41:442021\0\\#,ProcedureUnspecified,BasisUnspecified,\\-1,1\C\O,1,1.25361\O,1,1.25736,2,122.72\C,1,1.53399,2,118.625,3,-178.544,0\H,4,1.08802,1,109.294,2,-160.746,0\H,4,1.09111,1,109.18,2,79.9164,0\H,4,1.1,1,112.29,2,-42.1805,0\\\@

 Total job time:  4461.80s(wall), 8766.47s(cpu) 
 Sun Sep 26 12:41:47 2021

        *************************************************************
        *                                                           *
        *  Thank you very much for using Q-Chem.  Have a nice day.  *
        *                                                           *
        *************************************************************


Done Job For Fragment 1
calling putenv with: QCSCRATCH=/global/cscratch1/sd/meili 
calling putenv with: QCLOCALSCR=/tmp 
calling putenv with: QCTHREADS=32 
Doing General SCFMI
 Exchange:     0.1670 Hartree-Fock + 1.0000 wB97X-V + LR-HF
 Correlation:  1.0000 wB97X-V
 Using Euler-Maclaurin-Lebedev (99,590) quadrature formula
 Nonlocal Correlation:  VV10 with C = 0.0100 and b = 6.00 and scale = 1.00000
 Grid used for NLC:  SG-1 standard quadrature
performing fock build before subrot guess so that all methods have access
Printing subrot_rss_gen Method Specification:
Occupied Subspace Method is 0
Virtual Subspace Method is 0
Energy of the unrelaxed supersystem initial determinant -473.747230697179
performing fock build before subrot guess so that all methods have access
Printing subrot_rss_gen Method Specification:
Occupied Subspace Method is 0
Virtual Subspace Method is 0
Energy of the unrelaxed supersystem initial determinant w/ solvent -473.874564364368
write pseudocanon occs and virts to disk
write pseudocanon orbital energies to disk
Tolerance of ortho_decomp_scf: 1.00e-06
GDM subspace size: 20
Beginning the Orthogonal Decomposition of the Initial Supersystem Wavefunction
    1    -473.6092833056      5.11e-02     ortho_decomp Preconditoned Steepest Descent
    2    -473.6135394797      1.30e-03     ortho_decomp BFGS Step
    3    -473.6135538112      9.79e-05     ortho_decomp BFGS Step
    4    -473.6135538349      3.92e-06     ortho_decomp BFGS Step
    5    -473.6135538350      1.20e-07     ortho_decomp 00000 Convergence criterion met
 Hartree-Fock
 Hartree-Fock
 Hartree-Fock
Doing General SCFMI
 Exchange:     0.1670 Hartree-Fock + 1.0000 wB97X-V + LR-HF
 Correlation:  1.0000 wB97X-V
 Using Euler-Maclaurin-Lebedev (99,590) quadrature formula
 Nonlocal Correlation:  VV10 with C = 0.0100 and b = 6.00 and scale = 1.00000
 Grid used for NLC:  SG-1 standard quadrature
performing fock build at end of subrot_r(subrot) constructor so that all methods have access
<S^2> of initial wavefunction before polarization iterations 0.0000000000
Beginning iterations for the determination of the polarized wavefunction
Energy prior to optimization (guess energy) = -473.874564364368
Begin Timing: Total SCF Calculation
begin iterations for algorithm: DIIS         
the SCF tolerance is set to 1.00e-08
    1    -473.8745643644      7.15e-05     00000 
    2    -473.8747634088      5.22e-05     00000 
    3    -473.8748147335      1.80e-05     00000 
    4    -473.8748249404      6.88e-06     00000 
    5    -473.8748263500      2.56e-06     00000 
    6    -473.8748266730      9.62e-07     00000 
    7    -473.8748267259      3.73e-07     00000 
    8    -473.8748267339      1.37e-07     00000 
    9    -473.8748267348      5.32e-08     00000 
   10    -473.8748267349      1.33e-08     00000 
   11    -473.8748267349      6.77e-09     00000 Convergence criterion met
write pseudocanon occs and virts to disk
write pseudocanon orbital energies to disk
Timing for Total SCF: 2151.00s (wall), 4279.76s (cpu)
<S^2> of polarized wavefunction after polarization iterations 0.0000000000
relaxing scfmi constraint to allow all rotations in the entire AO span
Doing General SCFMI
 Exchange:     0.1670 Hartree-Fock + 1.0000 wB97X-V + LR-HF
 Correlation:  1.0000 wB97X-V
 Using Euler-Maclaurin-Lebedev (99,590) quadrature formula
 Nonlocal Correlation:  VV10 with C = 0.0100 and b = 6.00 and scale = 1.00000
 Grid used for NLC:  SG-1 standard quadrature
performing fock build at end of subrot_r(subrot) constructor so that all methods have access
<S^2> of polarized wavefunction before ct-allowed iterations 0.0000000000
Beginning iterations for the determination of the CT-Allowed wavefunction
Energy prior to optimization (guess energy) = -473.874826734902
Begin Timing: Total SCF Calculation
begin iterations for algorithm: DIIS         
the SCF tolerance is set to 1.00e-08
    1    -473.8748267349      9.49e-05     00000 
    2    -473.8758325613      1.28e-05     00000 
    3    -473.8758713332      4.45e-06     00000 
    4    -473.8758729033      3.59e-06     00000 
    5    -473.8758738797      5.01e-07     00000 
    6    -473.8758739146      2.85e-07     00000 
    7    -473.8758739253      7.79e-08     00000 
    8    -473.8758739262      2.59e-08     00000 
    9    -473.8758739263      8.01e-09     00000 Convergence criterion met
write pseudocanon occs and virts to disk
write pseudocanon orbital energies to disk
Timing for Total SCF: 1757.00s (wall), 3476.73s (cpu)
<S^2> of ct_allowed wavefunction after ct-allowed iterations 0.0000000000

================================
        Results of EDA2         
================================
Basic EDA Quantities
--------------------
Fragment Energies (Ha):
1 -245.2027043575
2 -228.6595555892
--------------------
  E_prp (kJ/mol) = 0.0000
  E_sol (kJ/mol) = 292.4738
  E_frz (kJ/mol) = -298.8532
  E_pol (kJ/mol) = -0.6889
  E_vct (kJ/mol) = -2.7494
  E_int (kJ/mol) = -9.8177
--------------------


Initial Wavefunction Decomposition
--------------------
  --------------------
  Orthogonal Fragment Subspace Decomposition:
  --------------------
     E_elec   (ELEC)   (kJ/mol) = -330.6555
     E_pauli  (PAULI)  (kJ/mol) = 42.3943
     E_disp   (DISP)   (kJ/mol) = -10.5920
     --------------------
     Terms summing to E_pauli:
     --------------------
        E_kep_pauli       (kJ/mol) = 52.1196
        E_disp_free_pauli (kJ/mol) = -9.7253
  --------------------
  Classical Frozen Decomposition:
  --------------------
     E_cls_elec  (CLS ELEC)  (kJ/mol) = -311.6919
     E_cls_pauli (CLS PAULI) (kJ/mol) = 12.8387
    [E_mod_pauli (MOD PAULI) (kJ/mol) = 23.4307 (CLS PAULI - DISP from orthogonal decomposition) ]
  --------------------
--------------------

Simplified EDA Summary (kJ/mol)
--------------------
 PREPARATION     0.0000
 SOLVATION       292.4738
 FROZEN          -288.2612      (does not include dispersion)
[PAULI           42.3943]     (if this is negligible, then frozen describes electrostatics)
 DISPERSION      -10.5920
 POLARIZATION    -0.6889
 CHARGE TRANSFER -2.7494
 TOTAL           -9.8177     (PRP + SOL + FRZ + DISP + POL + CT)
--------------------
 
 --------------------------------------------------------------
 
                    Orbital Energies (a.u.)
 --------------------------------------------------------------
 
 Alpha MOs
 -- Occupied --
-19.1555 -19.1552 -14.4515 -14.4467 -14.4400 -10.4190 -10.3581 -10.3029
-10.2493  -1.1681  -1.1650  -1.0659  -1.0518  -1.0360  -0.8499  -0.8405
 -0.7609  -0.7204  -0.6806  -0.6215  -0.6113  -0.6061  -0.5935  -0.5663
 -0.5484  -0.5463  -0.5414  -0.5229  -0.5072  -0.4813  -0.4670  -0.3956
 -0.3737  -0.3659  -0.3589  -0.3461
 -- Virtual --
  0.0562   0.0728   0.0873   0.0911   0.0950   0.1089   0.1091   0.1183
  0.1247   0.1319   0.1342   0.1460   0.1505   0.1543   0.1628   0.1660
  0.1777   0.1833   0.1862   0.1928   0.2026   0.2092   0.2134   0.2167
  0.2261   0.2343   0.2431   0.2459   0.2496   0.2539   0.2591   0.2628
  0.2765   0.2805   0.2835   0.2924   0.3027   0.3057   0.3086   0.3160
  0.3198   0.3256   0.3295   0.3340   0.3408   0.3450   0.3474   0.3532
  0.3554   0.3637   0.3678   0.3736   0.3810   0.3892   0.3919   0.3953
  0.4000   0.4056   0.4120   0.4171   0.4181   0.4239   0.4255   0.4339
  0.4394   0.4468   0.4508   0.4558   0.4615   0.4661   0.4712   0.4735
  0.4771   0.4825   0.4857   0.4955   0.4968   0.5063   0.5109   0.5150
  0.5223   0.5295   0.5340   0.5415   0.5457   0.5479   0.5569   0.5597
  0.5641   0.5705   0.5768   0.5886   0.6014   0.6097   0.6197   0.6206
  0.6244   0.6312   0.6342   0.6386   0.6446   0.6485   0.6556   0.6676
  0.6690   0.6752   0.6799   0.6940   0.6987   0.7063   0.7121   0.7197
  0.7246   0.7298   0.7403   0.7498   0.7559   0.7588   0.7736   0.7835
  0.7907   0.8063   0.8133   0.8159   0.8291   0.8337   0.8364   0.8407
  0.8636   0.8668   0.8761   0.8767   0.8853   0.8927   0.9053   0.9208
  0.9338   0.9411   0.9520   0.9613   0.9836   0.9908   1.0049   1.0116
  1.0166   1.0293   1.0316   1.0489   1.0609   1.0657   1.0883   1.1023
  1.1133   1.1176   1.1294   1.1337   1.1530   1.1583   1.1758   1.1775
  1.1825   1.2173   1.2232   1.2379   1.2594   1.2721   1.2847   1.2924
  1.3184   1.3315   1.3552   1.3616   1.3643   1.3817   1.3929   1.4533
  1.4584   1.4630   1.4975   1.5024   1.5325   1.5691   1.5970   1.6068
  1.6390   1.6712   1.6849   1.6988   1.7470   1.7616   1.7791   1.8101
  1.8511   1.8661   1.8736   1.8819   1.8857   1.8943   1.9108   1.9261
  1.9348   1.9389   1.9481   1.9606   1.9818   1.9878   2.0016   2.0142
  2.0176   2.0223   2.0496   2.0696   2.0979   2.1166   2.1343   2.1367
  2.1482   2.1933   2.2053   2.2085   2.2247   2.2373   2.2579   2.2818
  2.3017   2.3186   2.3387   2.3401   2.3619   2.3720   2.4164   2.4286
  2.4436   2.4609   2.4643   2.4810   2.4958   2.5106   2.5464   2.5557
  2.5836   2.5867   2.6011   2.6097   2.6335   2.6431   2.6472   2.6776
  2.6960   2.7081   2.7303   2.7551   2.8134   2.8192   2.8236   2.8278
  2.8590   2.8859   2.9148   2.9292   2.9369   2.9435   2.9498   2.9749
  2.9850   3.0436   3.0681   3.0924   3.1483   3.1571   3.1756   3.1894
  3.2081   3.2178   3.2333   3.2426   3.2486   3.2698   3.2734   3.2919
  3.3177   3.3236   3.3252   3.3433   3.3700   3.3764   3.3919   3.4023
  3.4183   3.4246   3.4387   3.4513   3.4559   3.4816   3.5120   3.5368
  3.5461   3.5918   3.5943   3.6020   3.6070   3.6343   3.6518   3.6580
  3.6893   3.7069   3.7242   3.7379   3.7587   3.8292   3.8483   3.8891
  3.9662   3.9757   3.9881   4.0512   4.0738   4.1029   4.1665   4.1852
  4.2018   4.2690   4.3022   4.3127   4.3325   4.3477   4.3633   4.3732
  4.4995   4.5401   4.5970   4.6242   4.6437   4.6741   4.6968   4.7871
  4.8458   4.8607   4.8823   4.9015   4.9613   5.0032   5.0256   5.0370
  5.0774   5.1403   5.1413   5.1613   5.1873   5.2029   5.2431   5.2842
  5.3050   5.3243   5.3401   5.3439   5.3849   5.4074   5.4189   5.4506
  5.4576   5.4646   5.5109   5.5227   5.5953   5.6679   5.6763   5.7129
  5.7414   5.7746   5.8085   5.8256   5.9026   5.9911   6.1699   6.1824
  6.2113   6.3080   6.3393   6.4012   6.4747   6.5908   6.6244   6.7131
  6.7395   6.7417   6.9232   6.9693   7.0273   7.2195   7.3181   7.3547
  7.3976  22.5988  22.6918  23.6514  23.6787  32.3968  32.5106  32.8459
 44.2386  44.3564
 --------------------------------------------------------------
 
          Ground-State Mulliken Net Atomic Charges

     Atom                 Charge (a.u.)
  ----------------------------------------
      1 C                    -0.834680
      2 C                     0.477511
      3 N                    -0.249916
      4 N                    -0.097699
      5 N                    -0.296778
      6 H                     0.198211
      7 H                     0.219464
      8 H                     0.287157
      9 H                     0.192507
     10 H                     0.251086
     11 H                     0.277388
     12 H                     0.314036
     13 H                     0.267677
     14 C                    -0.571611
     15 C                     0.493643
     16 O                    -0.747889
     17 O                    -0.781130
     18 H                     0.150138
     19 H                     0.213843
     20 H                     0.237042
  ----------------------------------------
  Sum of atomic charges =     0.000000

 -----------------------------------------------------------------
                    Cartesian Multipole Moments
 -----------------------------------------------------------------
    Charge (ESU x 10^10)
                 0.0000
    Dipole Moment (Debye)
         X     -14.4108      Y      12.5591      Z     -16.3514
       Tot      25.1549
    Quadrupole Moments (Debye-Ang)
        XX     -65.6796     XY      13.5800     YY     -45.8027
        XZ     -12.4655     YZ       5.0863     ZZ     -70.9457
    Octopole Moments (Debye-Ang^2)
       XXX    -125.4005    XXY      62.4408    XYY     -32.6520
       YYY      67.9078    XXZ     -93.4053    XYZ      55.0353
       YYZ     -53.3564    XZZ     -83.7666    YZZ      68.4204
       ZZZ     -90.1744
    Hexadecapole Moments (Debye-Ang^3)
      XXXX   -1372.2310   XXXY     548.3550   XXYY    -445.0875
      XYYY     459.2154   YYYY    -878.8415   XXXZ    -536.4009
      XXYZ     197.2604   XYYZ    -182.1742   YYYZ     273.3537
      XXZZ    -439.1203   XYZZ     194.8775   YYZZ    -312.0703
      XZZZ    -498.6448   YZZZ     352.3591   ZZZZ    -981.3172
 -----------------------------------------------------------------
Archival summary:
1\1\nid00571\SP\ProcedureUnspecified\BasisUnspecified\23411\meili\SunSep2614:40:212021SunSep2614:40:212021\0\\#,ProcedureUnspecified,BasisUnspecified,\\0,1\O\C,1,1.25736\O,2,1.25361,1,122.72\C,2,1.53399,1,118.64,3,178.544,0\H,4,1.08802,2,109.294,1,20.6497,0\H,4,1.09111,2,109.18,1,-98.6882,0\H,4,1.1,2,112.29,1,139.215,0\H,1,2.31394,2,128.791,3,148.235,0\N,8,1.01184,1,121.26,2,-59.849,0\H,9,1.01736,8,119.55,1,-31.2883,0\C,9,1.32373,8,120.673,1,150.181,0\N,11,1.32141,9,119.536,8,176.629,0\H,12,1.01179,11,120.282,9,-177.693,0\H,12,1.0188,11,119.476,9,3.28153,0\N,11,1.3296,9,120.578,8,-0.972165,0\H,15,1.01038,11,118.348,9,-5.44983,0\C,15,1.45855,11,123.639,9,176.326,0\H,17,1.0864,15,108.707,11,161.551,0\H,17,1.09207,15,108.406,11,43.3262,0\H,17,1.1,15,111.249,11,-77.3509,0\\\@

 Total job time:  24360.52s(wall), 14149.48s(cpu) 
 Sun Sep 26 14:40:25 2021

        *************************************************************
        *                                                           *
        *  Thank you very much for using Q-Chem.  Have a nice day.  *
        *                                                           *
        *************************************************************


