                  Welcome to Q-Chem
     A Quantum Leap Into The Future Of Chemistry


 Q-Chem 5.2 (devel), Q-Chem, Inc., Pleasanton, CA (2019)

 Yihan Shao,  Zhengting Gan,  E. Epifanovsky,  A. T. B. Gilbert,  M. Wormit,  
 J. Kussmann,  A. W. Lange,  A. Behn,  Jia Deng,  Xintian Feng,  D. Ghosh,  
 M. Goldey,  P. R. Horn,  L. D. Jacobson,  I. Kaliman,  T. Kus,  A. Landau,  
 Jie Liu,  E. I. Proynov,  R. M. Richard,  R. P. Steele,  E. J. Sundstrom,  
 H. L. Woodcock III,  P. M. Zimmerman,  D. Zuev,  B. Albrecht,  E. Alguire,  
 S. A. Baeppler,  D. Barton,  Z. Benda,  Y. A. Bernard,  E. J. Berquist,  
 K. B. Bravaya,  H. Burton,  D. Casanova,  Chun-Min Chang,  Yunqing Chen,  
 A. Chien,  K. D. Closser,  M. P. Coons,  S. Coriani,  S. Dasgupta,  
 A. L. Dempwolff,  M. Diedenhofen,  Hainam Do,  R. G. Edgar,  Po-Tung Fang,  
 S. Faraji,  S. Fatehi,  Qingguo Feng,  K. D. Fenk,  J. Fosso-Tande,  
 J. Gayvert,  Qinghui Ge,  A. Ghysels,  G. Gidofalvi,  J. Gomes,  
 J. Gonthier,  A. Gunina,  D. Hait,  M. W. D. Hanson-Heine,  
 P. H. P. Harbach,  A. W. Hauser,  M. F. Herbst,  J. E. Herr,  
 E. G. Hohenstein,  Z. C. Holden,  Kerwin Hui,  B. C. Huynh,  T.-C. Jagau,  
 Hyunjun Ji,  B. Kaduk,  K. Khistyaev,  Jaehoon Kim,  P. Klunzinger,  K. Koh,  
 D. Kosenkov,  L. Koulias,  T. Kowalczyk,  C. M. Krauter,  A. Kunitsa,  
 Ka Un Lao,  A. Laurent,  K. V. Lawler,  Joonho Lee,  D. Lefrancois,  
 S. Lehtola,  D. S. Levine,  Yi-Pei Li,  You-Sheng Lin,  Fenglai Liu,  
 E. Livshits,  A. Luenser,  P. Manohar,  E. Mansoor,  S. F. Manzer,  
 Shan-Ping Mao,  Yuezhi Mao,  N. Mardirossian,  A. V. Marenich,  
 T. Markovich,  L. A. Martinez-Martinez,  S. A. Maurer,  N. J. Mayhall,  
 S. C. McKenzie,  J.-M. Mewes,  P. Morgante,  A. F. Morrison,  
 J. W. Mullinax,  K. Nanda,  T. S. Nguyen-Beck,  R. Olivares-Amaya,  
 J. A. Parkhill,  Zheng Pei,  T. M. Perrine,  F. Plasser,  P. Pokhilko,  
 S. Prager,  A. Prociuk,  E. Ramos,  D. R. Rehn,  F. Rob,  M. Scheurer,  
 M. Schneider,  N. Sergueev,  S. M. Sharada,  S. Sharma,  D. W. Small,  
 T. Stauch,  T. Stein,  Yu-Chuan Su,  A. J. W. Thom,  A. Tkatchenko,  
 T. Tsuchimochi,  N. M. Tubman,  L. Vogt,  M. L. Vidal,  O. Vydrov,  
 M. A. Watson,  J. Wenzel,  M. de Wergifosse,  T. A. Wesolowski,  A. White,  
 J. Witte,  A. Yamada,  Jun Yang,  K. Yao,  S. Yeganeh,  S. R. Yost,  
 Zhi-Qiang You,  A. Zech,  Igor Ying Zhang,  Xing Zhang,  Yan Zhao,  
 Ying Zhu,  B. R. Brooks,  G. K. L. Chan,  C. J. Cramer,  M. S. Gordon,  
 W. J. Hehre,  A. Klamt,  M. W. Schmidt,  C. D. Sherrill,  D. G. Truhlar,  
 A. Aspuru-Guzik,  R. Baer,  A. T. Bell,  N. A. Besley,  Jeng-Da Chai,  
 A. E. DePrince, III,  R. A. DiStasio Jr.,  A. Dreuw,  B. D. Dunietz,  
 T. R. Furlani,  Chao-Ping Hsu,  Yousung Jung,  Jing Kong,  D. S. Lambrecht,  
 WanZhen Liang,  C. Ochsenfeld,  V. A. Rassolov,  L. V. Slipchenko,  
 J. E. Subotnik,  T. Van Voorhis,  J. M. Herbert,  A. I. Krylov,  
 P. M. W. Gill,  M. Head-Gordon

 Contributors to earlier versions of Q-Chem not listed above: 
 R. D. Adamson,  B. Austin,  J. Baker,  G. J. O. Beran,  K. Brandhorst,  
 S. T. Brown,  E. F. C. Byrd,  A. K. Chakraborty,  C.-L. Cheng,  
 Siu Hung Chien,  D. M. Chipman,  D. L. Crittenden,  H. Dachsel,  
 R. J. Doerksen,  A. D. Dutoi,  L. Fusti-Molnar,  W. A. Goddard III,  
 A. Golubeva-Zadorozhnaya,  S. R. Gwaltney,  G. Hawkins,  A. Heyden,  
 S. Hirata,  G. Kedziora,  F. J. Keil,  C. Kelley,  Jihan Kim,  R. A. King,  
 R. Z. Khaliullin,  P. P. Korambath,  W. Kurlancheek,  A. M. Lee,  M. S. Lee,  
 S. V. Levchenko,  Ching Yeh Lin,  D. Liotard,  R. C. Lochan,  I. Lotan,  
 P. E. Maslen,  N. Nair,  D. P. O'Neill,  D. Neuhauser,  E. Neuscamman,  
 C. M. Oana,  R. Olson,  B. Peters,  R. Peverati,  P. A. Pieniazek,  
 Y. M. Rhee,  J. Ritchie,  M. A. Rohrdanz,  E. Rosta,  N. J. Russ,  
 H. F. Schaefer III,  N. E. Schultz,  N. Shenvi,  A. C. Simmonett,  A. Sodt,  
 D. Stuck,  K. S. Thanthiriwatte,  V. Vanovschi,  Tao Wang,  A. Warshel,  
 C. F. Williams,  Q. Wu,  X. Xu,  W. Zhang

 Please cite Q-Chem as follows:
 Y. Shao et al., Mol. Phys. 113, 184-215 (2015)
 DOI: 10.1080/00268976.2014.952696

 Q-Chem 5.2.1 for Intel X86 EM64T Linux

 Parts of Q-Chem use Armadillo 8.300.2 (Tropical Shenanigans).
 http://arma.sourceforge.net/

 Q-Chem begins on Wed Sep 29 09:57:15 2021  

compute-0-0.local
Host: 0

     Scratch files written to /home/meili/scratch/qchem55222//
NAlpha2: 124
NElect   124
Mult     1
Symmetry turned off for PCM/SM12/SMD calculation

 Q-Chem warning in module libgen/rem_setup.C, line 2813:

 Neither GIA nor STOLL is specified by user. Use STOLL as the default


Checking the input file for inconsistencies... 	...done.

--------------------------------------------------------------
User input:
--------------------------------------------------------------
$comment
SSI-056TYR-062TYR-1.pdb
$end

$molecule
0 1
--
0 1
C    2.492380706284    1.439787080256   -2.393082642088
C    1.537380706284   -1.109212919744    0.274917357912
C    1.606380706284   -0.410212919744   -0.936082642088
C    2.274380706284   -0.677212919744    1.371917357912
C    2.432380706284    0.701787080256   -1.080082642088
C    3.100380706284    0.437787080256    1.246917357912
C    3.177380706284    1.125787080256    0.023917357912
O    2.206380706284   -1.360212919744    2.548917357912
H    0.894380706284   -1.971212919744    0.356917357912
H    1.012380706284   -0.749212919744   -1.774082642088
H    1.598380706284   -2.113212919744    2.458917357912
H    3.679380706284    0.766787080256    2.096917357912
H    2.729380706284    2.486787080256   -2.205082642088
H    1.501380706284    1.404787080256   -2.850082642088
H    3.820380706284    1.990787080256   -0.060082642088
H    3.228307706284    1.025738080256   -3.098046642088
--
0 1
C   -1.678619293716   -0.618212919744    2.271917357912
C   -2.998619293716   -0.517212919744    3.028917357912
C   -1.809619293716   -0.265212919744    0.812917357912
C   -2.200619293716   -1.223212919744   -0.122082642088
C   -1.545619293716    1.029787080256    0.375917357912
C   -2.340619293716   -0.891212919744   -1.466082642088
C   -1.674619293716    1.365787080256   -0.966082642088
C   -2.072619293716    0.409787080256   -1.886082642088
O   -2.181619293716    0.760787080256   -3.200082642088
H   -0.939619293716    0.036787080256    2.733917357912
H   -1.304619293716   -1.639212919744    2.349917357912
H   -3.701619293716   -1.197212919744    2.546917357912
H   -2.409619293716   -2.233212919744    0.201917357912
H   -1.245619293716    1.782787080256    1.089917357912
H   -2.651619293716   -1.640212919744   -2.180082642088
H   -1.465619293716    2.366787080256   -1.306082642088
H   -2.466619293716    0.019787080256   -3.743082642088
H   -3.377307293716    0.515299080256    3.006241357912
H   -2.863295293716   -0.850768919744    4.068353357912
$end

$rem
JOBTYPE			EDA
EDA2			1
method			wB97X-V
BASIS			def2-TZVPD
XC_GRID			000099000590
NL_GRID			1
UNRESTRICTED		FALSE
MAX_SCF_CYCLES		200
SYMMETRY		FALSE
SYM_IGNORE		TRUE
MEM_STATIC		2000
BASIS_LIN_DEP_THRESH 	6
THRESH 			14
SCF_CONVERGENCE 	8
SCF_PRINT_FRGM 		TRUE
SOLVENT_METHOD          SMD
$end

$SMX
SOLVENT			WATER
$END
--------------------------------------------------------------
 ----------------------------------------------------------------
             Standard Nuclear Orientation (Angstroms)
    I     Atom           X                Y                Z
 ----------------------------------------------------------------
    1      C       2.4923807063     1.4397870803    -2.3930826421
    2      C       1.5373807063    -1.1092129197     0.2749173579
    3      C       1.6063807063    -0.4102129197    -0.9360826421
    4      C       2.2743807063    -0.6772129197     1.3719173579
    5      C       2.4323807063     0.7017870803    -1.0800826421
    6      C       3.1003807063     0.4377870803     1.2469173579
    7      C       3.1773807063     1.1257870803     0.0239173579
    8      O       2.2063807063    -1.3602129197     2.5489173579
    9      H       0.8943807063    -1.9712129197     0.3569173579
   10      H       1.0123807063    -0.7492129197    -1.7740826421
   11      H       1.5983807063    -2.1132129197     2.4589173579
   12      H       3.6793807063     0.7667870803     2.0969173579
   13      H       2.7293807063     2.4867870803    -2.2050826421
   14      H       1.5013807063     1.4047870803    -2.8500826421
   15      H       3.8203807063     1.9907870803    -0.0600826421
   16      H       3.2283077063     1.0257380803    -3.0980466421
   17      C      -1.6786192937    -0.6182129197     2.2719173579
   18      C      -2.9986192937    -0.5172129197     3.0289173579
   19      C      -1.8096192937    -0.2652129197     0.8129173579
   20      C      -2.2006192937    -1.2232129197    -0.1220826421
   21      C      -1.5456192937     1.0297870803     0.3759173579
   22      C      -2.3406192937    -0.8912129197    -1.4660826421
   23      C      -1.6746192937     1.3657870803    -0.9660826421
   24      C      -2.0726192937     0.4097870803    -1.8860826421
   25      O      -2.1816192937     0.7607870803    -3.2000826421
   26      H      -0.9396192937     0.0367870803     2.7339173579
   27      H      -1.3046192937    -1.6392129197     2.3499173579
   28      H      -3.7016192937    -1.1972129197     2.5469173579
   29      H      -2.4096192937    -2.2332129197     0.2019173579
   30      H      -1.2456192937     1.7827870803     1.0899173579
   31      H      -2.6516192937    -1.6402129197    -2.1800826421
   32      H      -1.4656192937     2.3667870803    -1.3060826421
   33      H      -2.4666192937     0.0197870803    -3.7430826421
   34      H      -3.3773072937     0.5152990803     3.0062413579
   35      H      -2.8632952937    -0.8507689197     4.0683533579
 ----------------------------------------------------------------
 Nuclear Repulsion Energy =        1160.62648553 hartrees
 There are       62 alpha and       62 beta electrons
 Requested basis set is def2-TZVPD
 There are 313 shells and 797 basis functions

 Total QAlloc Memory Limit   2000 MB
 Mega-Array Size      1956 MB
 MEM_STATIC part      2000 MB

 Citation of the SMD model:
 Marenich, A.V.; Cramer, C.J.; Truhlar, D.G.
 J. Phys. Chem. B 2009, 113, 6378-6396.
 iSolventCode=           1
 Solvent: water                                                           

 vradii
            1           2           3           4           5           6
    1   1.8500000   1.8500000   1.8500000   1.8500000   1.8500000   1.8500000
            7           8           9          10          11          12
    1   1.8500000   1.5200000   1.2000000   1.2000000   1.2000000   1.2000000
           13          14          15          16          17          18
    1   1.2000000   1.2000000   1.2000000   1.2000000   1.8500000   1.8500000
           19          20          21          22          23          24
    1   1.8500000   1.8500000   1.8500000   1.8500000   1.8500000   1.8500000
           25          26          27          28          29          30
    1   1.5200000   1.2000000   1.2000000   1.2000000   1.2000000   1.2000000
           31          32          33          34          35
    1   1.2000000   1.2000000   1.2000000   1.2000000   1.2000000
 Changing PCM_VDW_RADII to SMD_RADIUS
 Discretize the solute cavity surface with Lebedev spheres
	Using 110 Lebedev grid points for each H atom
	Using 194 Lebedev grid points for other atoms
	Atomic van der Waals radii will be scaled by 1.20
 Remove points where switching function is < 1.0e-08
 Keep 2548 surface tesserae and discard 2730 interior tesserae
 Molecular Surface Area = 300.066 Angst**2
 A cutoff of  1.0D-14 yielded  42225 shell pairs
 There are    275941 function pairs (    348832 Cartesian)
 Smallest overlap matrix eigenvalue = 3.70E-07
 Linear dependence detected in AO basis
 Tighter screening thresholds may be required for diffuse basis sets
 Use S2THRESH > 14 and THRESH = 14 in case of SCF convergence issues
 Number of orthogonalized atomic orbitals = 792
 Maximum deviation from orthogonality = 1.943E-10

 Scale SEOQF with 1.000000e-01/1.000000e-01/1.000000e-01

 Standard Electronic Orientation quadrupole field applied
 Nucleus-field energy     =    -0.0000000138 hartrees

 -----------------------------------------------------------------------
  General SCF calculation program by
  Eric Jon Sundstrom, Paul Horn, Yuezhi Mao, Dmitri Zuev, Alec White,
  David Stuck, Shaama M.S., Shane Yost, Joonho Lee, David Small,
  Daniel Levine, Susi Lehtola, Hugh Burton, Evgeny Epifanovsky,
  Bang C. Huynh
 -----------------------------------------------------------------------
================================================================
                 ALMO-EDA with the EDA2 driver                  
================================================================
 The second-generation ALMO-EDA (for DFT):                      
 P. R. Horn, Y. Mao and M. Head-Gordon, PCCP, 18, 23067 (2016)  
 Decomposition of the frozen energy:                            
 P. R. Horn, Y. Mao and M. Head-Gordon, JCP, 144, 114107 (2016) 
 FERF model for polarization:                                   
 P. R. Horn and M. Head-Gordon, JCP, 143, 114111 (2015)         
Using eda2 option set 1
Option set summary: Frozen orbital wavefunction, initial wavefunction decomposition, and nDQ polarization.
--------------------------------
Printing EDA Options
--------------------------------
eda_child_super_basis      0
fragmo_guess_mode          0
child_mp                   1
child_mp_orders            232
cls_elec                   1
cls_disp                   0
scfmi_mode                 1
scfmi_occs                 0
scfmi_virts                0
frz_relax                  0
frz_relax_method           0
dc_pen_start               0
dc_pen_conv                0
dc_pen_increment           0
dc_pen_steps               0
dc_pen_thresh_factor       0
dc_pen_pre_newton_thresh   0
frz_ortho_decomp           1
frz_ortho_decomp_conv      6
frgm_method                2
scfmi_freeze_ss            0
separate_rehyb             0
plot_diff_den              0
eda_nocv                   0
eda_vct_relax              1
disp_free_x                0
disp_free_c                0
eda_bsse                   0
eda_pct_a                  0
eda_covp                   0
--------------------------------
Attempting to make child job directory: /home/meili/scratch/qchem55222//Frg1/
Attempting to make child job directory: /home/meili/scratch/qchem55222//Frg2/
Creating input file /home/meili/scratch/qchem55222/Frg1.input
using default PutDataFrgm: nothing
calling putenv with: QCSCRATCH=/home/meili/scratch/qchem55222/ 
Spawning Job For Fragment 0
                  Welcome to Q-Chem
     A Quantum Leap Into The Future Of Chemistry


 Q-Chem 5.2 (devel), Q-Chem, Inc., Pleasanton, CA (2019)

 Yihan Shao,  Zhengting Gan,  E. Epifanovsky,  A. T. B. Gilbert,  M. Wormit,  
 J. Kussmann,  A. W. Lange,  A. Behn,  Jia Deng,  Xintian Feng,  D. Ghosh,  
 M. Goldey,  P. R. Horn,  L. D. Jacobson,  I. Kaliman,  T. Kus,  A. Landau,  
 Jie Liu,  E. I. Proynov,  R. M. Richard,  R. P. Steele,  E. J. Sundstrom,  
 H. L. Woodcock III,  P. M. Zimmerman,  D. Zuev,  B. Albrecht,  E. Alguire,  
 S. A. Baeppler,  D. Barton,  Z. Benda,  Y. A. Bernard,  E. J. Berquist,  
 K. B. Bravaya,  H. Burton,  D. Casanova,  Chun-Min Chang,  Yunqing Chen,  
 A. Chien,  K. D. Closser,  M. P. Coons,  S. Coriani,  S. Dasgupta,  
 A. L. Dempwolff,  M. Diedenhofen,  Hainam Do,  R. G. Edgar,  Po-Tung Fang,  
 S. Faraji,  S. Fatehi,  Qingguo Feng,  K. D. Fenk,  J. Fosso-Tande,  
 J. Gayvert,  Qinghui Ge,  A. Ghysels,  G. Gidofalvi,  J. Gomes,  
 J. Gonthier,  A. Gunina,  D. Hait,  M. W. D. Hanson-Heine,  
 P. H. P. Harbach,  A. W. Hauser,  M. F. Herbst,  J. E. Herr,  
 E. G. Hohenstein,  Z. C. Holden,  Kerwin Hui,  B. C. Huynh,  T.-C. Jagau,  
 Hyunjun Ji,  B. Kaduk,  K. Khistyaev,  Jaehoon Kim,  P. Klunzinger,  K. Koh,  
 D. Kosenkov,  L. Koulias,  T. Kowalczyk,  C. M. Krauter,  A. Kunitsa,  
 Ka Un Lao,  A. Laurent,  K. V. Lawler,  Joonho Lee,  D. Lefrancois,  
 S. Lehtola,  D. S. Levine,  Yi-Pei Li,  You-Sheng Lin,  Fenglai Liu,  
 E. Livshits,  A. Luenser,  P. Manohar,  E. Mansoor,  S. F. Manzer,  
 Shan-Ping Mao,  Yuezhi Mao,  N. Mardirossian,  A. V. Marenich,  
 T. Markovich,  L. A. Martinez-Martinez,  S. A. Maurer,  N. J. Mayhall,  
 S. C. McKenzie,  J.-M. Mewes,  P. Morgante,  A. F. Morrison,  
 J. W. Mullinax,  K. Nanda,  T. S. Nguyen-Beck,  R. Olivares-Amaya,  
 J. A. Parkhill,  Zheng Pei,  T. M. Perrine,  F. Plasser,  P. Pokhilko,  
 S. Prager,  A. Prociuk,  E. Ramos,  D. R. Rehn,  F. Rob,  M. Scheurer,  
 M. Schneider,  N. Sergueev,  S. M. Sharada,  S. Sharma,  D. W. Small,  
 T. Stauch,  T. Stein,  Yu-Chuan Su,  A. J. W. Thom,  A. Tkatchenko,  
 T. Tsuchimochi,  N. M. Tubman,  L. Vogt,  M. L. Vidal,  O. Vydrov,  
 M. A. Watson,  J. Wenzel,  M. de Wergifosse,  T. A. Wesolowski,  A. White,  
 J. Witte,  A. Yamada,  Jun Yang,  K. Yao,  S. Yeganeh,  S. R. Yost,  
 Zhi-Qiang You,  A. Zech,  Igor Ying Zhang,  Xing Zhang,  Yan Zhao,  
 Ying Zhu,  B. R. Brooks,  G. K. L. Chan,  C. J. Cramer,  M. S. Gordon,  
 W. J. Hehre,  A. Klamt,  M. W. Schmidt,  C. D. Sherrill,  D. G. Truhlar,  
 A. Aspuru-Guzik,  R. Baer,  A. T. Bell,  N. A. Besley,  Jeng-Da Chai,  
 A. E. DePrince, III,  R. A. DiStasio Jr.,  A. Dreuw,  B. D. Dunietz,  
 T. R. Furlani,  Chao-Ping Hsu,  Yousung Jung,  Jing Kong,  D. S. Lambrecht,  
 WanZhen Liang,  C. Ochsenfeld,  V. A. Rassolov,  L. V. Slipchenko,  
 J. E. Subotnik,  T. Van Voorhis,  J. M. Herbert,  A. I. Krylov,  
 P. M. W. Gill,  M. Head-Gordon

 Contributors to earlier versions of Q-Chem not listed above: 
 R. D. Adamson,  B. Austin,  J. Baker,  G. J. O. Beran,  K. Brandhorst,  
 S. T. Brown,  E. F. C. Byrd,  A. K. Chakraborty,  C.-L. Cheng,  
 Siu Hung Chien,  D. M. Chipman,  D. L. Crittenden,  H. Dachsel,  
 R. J. Doerksen,  A. D. Dutoi,  L. Fusti-Molnar,  W. A. Goddard III,  
 A. Golubeva-Zadorozhnaya,  S. R. Gwaltney,  G. Hawkins,  A. Heyden,  
 S. Hirata,  G. Kedziora,  F. J. Keil,  C. Kelley,  Jihan Kim,  R. A. King,  
 R. Z. Khaliullin,  P. P. Korambath,  W. Kurlancheek,  A. M. Lee,  M. S. Lee,  
 S. V. Levchenko,  Ching Yeh Lin,  D. Liotard,  R. C. Lochan,  I. Lotan,  
 P. E. Maslen,  N. Nair,  D. P. O'Neill,  D. Neuhauser,  E. Neuscamman,  
 C. M. Oana,  R. Olson,  B. Peters,  R. Peverati,  P. A. Pieniazek,  
 Y. M. Rhee,  J. Ritchie,  M. A. Rohrdanz,  E. Rosta,  N. J. Russ,  
 H. F. Schaefer III,  N. E. Schultz,  N. Shenvi,  A. C. Simmonett,  A. Sodt,  
 D. Stuck,  K. S. Thanthiriwatte,  V. Vanovschi,  Tao Wang,  A. Warshel,  
 C. F. Williams,  Q. Wu,  X. Xu,  W. Zhang

 Please cite Q-Chem as follows:
 Y. Shao et al., Mol. Phys. 113, 184-215 (2015)
 DOI: 10.1080/00268976.2014.952696

 Q-Chem 5.2.1 for Intel X86 EM64T Linux

 Parts of Q-Chem use Armadillo 8.300.2 (Tropical Shenanigans).
 http://arma.sourceforge.net/

 Q-Chem begins on Wed Sep 29 09:57:25 2021  

compute-0-0.local
Host: 0

     Scratch files written to /home/meili/scratch/qchem55222//Frg1//
NAlpha2: 58
NElect   58
Mult     1
Symmetry turned off for PCM/SM12/SMD calculation

Checking the input file for inconsistencies... 	...done.

--------------------------------------------------------------
User input:
--------------------------------------------------------------
$molecule
0 1
 6	2.4923807063	1.4397870803	-2.3930826421
 6	1.5373807063	-1.1092129197	0.2749173579
 6	1.6063807063	-0.4102129197	-0.9360826421
 6	2.2743807063	-0.6772129197	1.3719173579
 6	2.4323807063	0.7017870803	-1.0800826421
 6	3.1003807063	0.4377870803	1.2469173579
 6	3.1773807063	1.1257870803	0.0239173579
 8	2.2063807063	-1.3602129197	2.5489173579
 1	0.8943807063	-1.9712129197	0.3569173579
 1	1.0123807063	-0.7492129197	-1.7740826421
 1	1.5983807063	-2.1132129197	2.4589173579
 1	3.6793807063	0.7667870803	2.0969173579
 1	2.7293807063	2.4867870803	-2.2050826421
 1	1.5013807063	1.4047870803	-2.8500826421
 1	3.8203807063	1.9907870803	-0.0600826421
 1	3.2283077063	1.0257380803	-3.0980466421
$end
$rem
EDA2		1
METHOD		WB97X-V
BASIS		DEF2-TZVPD
XC_GRID		000099000590
NL_GRID		1
UNRESTRICTED		FALSE
MAX_SCF_CYCLES		200
SYMMETRY		FALSE
SYM_IGNORE		TRUE
BASIS_LIN_DEP_THRESH		6
THRESH		14
SCF_CONVERGENCE		8
SCF_PRINT_FRGM		TRUE
SOLVENT_METHOD		SMD
!required keywords
JOBTYPE		SP
SYM_IGNORE		TRUE
SUBSYSTEM		TRUE
GEN_SCFMAN		TRUE
CHILD_INSTRUCTION		2
SYM_IGNORE		TRUE
SCFMI		0
RI_K 0		
PARI_K 0		
MIN_PARI_K 0		
IARI_K 0		
OCC_RI_K 0		
PURECART		1111
MEM_STATIC		2000
MEM_TOTAL		2000
GUI		0
CHILD_MP		1
CHILD_MP_ORDERS		232
FRZ_RELAX		0
FRZ_RELAX_METHOD		0
EDA_CLS_ELEC		1
EDA_CLS_DISP		0
FRZ_ORTHO_DECOMP		1
EDA2		FALSE
FRGM_METHOD		FALSE
CIS_N_ROOTS  0
LOCAL_CIS    0
CIS_RLX_DNS  1
$end
$smx
SOLVENT			WATER
$end
--------------------------------------------------------------
 ----------------------------------------------------------------
             Standard Nuclear Orientation (Angstroms)
    I     Atom           X                Y                Z
 ----------------------------------------------------------------
    1      C       2.4923807063     1.4397870803    -2.3930826421
    2      C       1.5373807063    -1.1092129197     0.2749173579
    3      C       1.6063807063    -0.4102129197    -0.9360826421
    4      C       2.2743807063    -0.6772129197     1.3719173579
    5      C       2.4323807063     0.7017870803    -1.0800826421
    6      C       3.1003807063     0.4377870803     1.2469173579
    7      C       3.1773807063     1.1257870803     0.0239173579
    8      O       2.2063807063    -1.3602129197     2.5489173579
    9      H       0.8943807063    -1.9712129197     0.3569173579
   10      H       1.0123807063    -0.7492129197    -1.7740826421
   11      H       1.5983807063    -2.1132129197     2.4589173579
   12      H       3.6793807063     0.7667870803     2.0969173579
   13      H       2.7293807063     2.4867870803    -2.2050826421
   14      H       1.5013807063     1.4047870803    -2.8500826421
   15      H       3.8203807063     1.9907870803    -0.0600826421
   16      H       3.2283077063     1.0257380803    -3.0980466421
 ----------------------------------------------------------------
 Nuclear Repulsion Energy =         342.50138601 hartrees
 There are       29 alpha and       29 beta electrons
 Requested basis set is def2-TZVPD
 There are 145 shells and 371 basis functions

 Total QAlloc Memory Limit   2000 MB
 Mega-Array Size      1956 MB
 MEM_STATIC part      2000 MB

 Citation of the SMD model:
 Marenich, A.V.; Cramer, C.J.; Truhlar, D.G.
 J. Phys. Chem. B 2009, 113, 6378-6396.
 iSolventCode=           1
 Solvent: water                                                           

 vradii
            1           2           3           4           5           6
    1   1.8500000   1.8500000   1.8500000   1.8500000   1.8500000   1.8500000
            7           8           9          10          11          12
    1   1.8500000   1.5200000   1.2000000   1.2000000   1.2000000   1.2000000
           13          14          15          16
    1   1.2000000   1.2000000   1.2000000   1.2000000
 Changing PCM_VDW_RADII to SMD_RADIUS
 Discretize the solute cavity surface with Lebedev spheres
	Using 110 Lebedev grid points for each H atom
	Using 194 Lebedev grid points for other atoms
	Atomic van der Waals radii will be scaled by 1.20
 Remove points where switching function is < 1.0e-08
 Keep 1171 surface tesserae and discard 1261 interior tesserae
 Molecular Surface Area = 141.797 Angst**2
 A cutoff of  1.0D-14 yielded  10044 shell pairs
 There are     67092 function pairs (     85791 Cartesian)
 Smallest overlap matrix eigenvalue = 5.76E-07
 Linear dependence detected in AO basis
 Tighter screening thresholds may be required for diffuse basis sets
 Use S2THRESH > 14 and THRESH = 14 in case of SCF convergence issues
 Number of orthogonalized atomic orbitals = 370
 Maximum deviation from orthogonality = 2.179E-10

 Scale SEOQF with 1.000000e-01/1.000000e-01/1.000000e-01

 Standard Electronic Orientation quadrupole field applied
 Nucleus-field energy     =     0.0000000007 hartrees
 Guess from superposition of atomic densities
 Warning:  Energy on first SCF cycle will be non-variational
 SAD guess density has 58.000000 electrons

 -----------------------------------------------------------------------
  General SCF calculation program by
  Eric Jon Sundstrom, Paul Horn, Yuezhi Mao, Dmitri Zuev, Alec White,
  David Stuck, Shaama M.S., Shane Yost, Joonho Lee, David Small,
  Daniel Levine, Susi Lehtola, Hugh Burton, Evgeny Epifanovsky,
  Bang C. Huynh
 -----------------------------------------------------------------------
 Exchange:     0.1670 Hartree-Fock + 1.0000 wB97X-V + LR-HF
 Correlation:  1.0000 wB97X-V
 Using Euler-Maclaurin-Lebedev (99,590) quadrature formula
 Nonlocal Correlation:  VV10 with C = 0.0100 and b = 6.00 and scale = 1.00000
 Grid used for NLC:  SG-1 standard quadrature
Energy prior to optimization (guess energy) = -346.733351641679
Begin Timing: Total SCF Calculation
begin iterations for algorithm: DIIS         
the SCF tolerance is set to 1.00e-08
    1    -346.7333516417      2.18e-03     00000 
    2    -346.7844963123      1.73e-03     00000 
    3    -346.8240883441      3.12e-04     00000 
    4    -346.8259432853      1.33e-04     00000 
    5    -346.8263614724      3.95e-05     00000 
    6    -346.8263960376      1.25e-05     00000 
    7    -346.8263997004      5.60e-06     00000 
    8    -346.8264004644      1.25e-06     00000 
    9    -346.8264005456      5.40e-07     00000 
   10    -346.8264005602      2.68e-07     00000 
   11    -346.8264005641      7.04e-08     00000 
   12    -346.8264005646      2.70e-08     00000 
   13    -346.8264005647      1.04e-08     00000 
   14    -346.8264005647      2.98e-09     00000 Convergence criterion met
Timing for Total SCF: 748.00s (wall), 5370.47s (cpu)
(3)  G-ENP(liq) elect-nuc-pol free energy of system     -346.826400565 a.u.
(4)  G-CDS(liq) cavity-dispersion-solvent structure 
     free energy                                                3.8018 kcal/mol
(6)  G-S(liq) free energy of system                     -346.820341934 a.u.
E_pcm = -0.0175548370
E_cds = 0.0060586303
Multipole orders to be included
        2
        3
computing dipole RHS
computing quadrupole RHS
total number of RHS in solve_reponses: 8
RHS batch sizes
        8
Beginning Block Conjugate Gradient Iterations. Batch Number: 0
computing hessian-vector products by finite difference
              1      6.64e-01     00000 Conjugate Gradient Iteration
computing hessian-vector products by finite difference
              2      1.94e-01     00000 Conjugate Gradient Iteration
computing hessian-vector products by finite difference
              3      4.93e-02     00000 Conjugate Gradient Iteration
computing hessian-vector products by finite difference
              4      1.44e-02     00000 Conjugate Gradient Iteration
computing hessian-vector products by finite difference
              5      3.71e-03     00000 Conjugate Gradient Iteration
computing hessian-vector products by finite difference
              6      1.43e-03     00000 Conjugate Gradient Iteration
computing hessian-vector products by finite difference
              7      3.37e-04     00000 Conjugate Gradient Iteration
computing hessian-vector products by finite difference
              8      6.68e-05     00000 Conjugate Gradient Iteration
computing hessian-vector products by finite difference
              9      1.27e-05     00000 Conjugate Gradient Iteration
computing hessian-vector products by finite difference
             10      1.81e-06     00000 Conjugate Gradient Iteration
computing hessian-vector products by finite difference
             11      2.65e-07     00000 Conjugate Gradient Iteration
computing hessian-vector products by finite difference
             12      5.09e-08     00000 Conjugate Gradient Iteration
computing hessian-vector products by finite difference
             13      8.13e-09     00000 CG Converged
batch 0 complete
Done Calculating Responses
TESTING ORTHOGONALIZATION OF MULTIPOLE BASIS
Multipole virts passed orthogonality test
Virts Per Order
           87
          145

 --------------------------------------------------------------

                    Orbital Energies (a.u.)
 --------------------------------------------------------------

 Alpha MOs
 -- Occupied --
-19.2415 -10.3308 -10.2717 -10.2707 -10.2686 -10.2677 -10.2660 -10.2531
 -1.1902  -0.9892  -0.8961  -0.8765  -0.8037  -0.7427  -0.7067  -0.6578
 -0.5981  -0.5735  -0.5438  -0.5366  -0.5248  -0.5161  -0.5080  -0.4713
 -0.4494  -0.4391  -0.4349  -0.3473  -0.3106
 -- Virtual --
  0.0621   0.0636   0.0743   0.0823   0.0890   0.0997   0.1143   0.1158
  0.1187   0.1368   0.1512   0.1554   0.1631   0.1774   0.1791   0.1982
  0.2073   0.2109   0.2199   0.2285   0.2417   0.2475   0.2573   0.2574
  0.2657   0.2734   0.2790   0.2829   0.2854   0.2999   0.3017   0.3086
  0.3096   0.3119   0.3166   0.3300   0.3375   0.3466   0.3499   0.3518
  0.3585   0.3621   0.3656   0.3781   0.3821   0.3842   0.3866   0.3972
  0.3993   0.4017   0.4035   0.4135   0.4178   0.4239   0.4286   0.4366
  0.4430   0.4540   0.4600   0.4643   0.4761   0.4762   0.4822   0.4856
  0.4926   0.4973   0.5039   0.5087   0.5170   0.5206   0.5283   0.5409
  0.5470   0.5509   0.5528   0.5632   0.5686   0.5727   0.5900   0.5988
  0.6064   0.6094   0.6235   0.6330   0.6465   0.6610   0.6700   0.6737
  0.6808   0.6855   0.6886   0.6949   0.7035   0.7065   0.7229   0.7326
  0.7356   0.7449   0.7490   0.7549   0.7617   0.7802   0.7856   0.7907
  0.7911   0.7957   0.8009   0.8022   0.8121   0.8191   0.8325   0.8405
  0.8433   0.8494   0.8575   0.8604   0.8699   0.8798   0.8851   0.8968
  0.9079   0.9127   0.9317   0.9517   0.9632   0.9768   0.9923   1.0159
  1.0284   1.0393   1.0432   1.0528   1.0560   1.0768   1.0784   1.0890
  1.1041   1.1220   1.1389   1.1778   1.1978   1.2422   1.2643   1.2992
  1.3121   1.3133   1.3320   1.3592   1.3665   1.3864   1.3938   1.4352
  1.4612   1.4699   1.4806   1.4861   1.5362   1.5675   1.6090   1.6236
  1.6311   1.6347   1.6850   1.6918   1.7066   1.7294   1.7965   1.8090
  1.8235   1.8316   1.8360   1.8709   1.8722   1.8845   1.9256   1.9283
  1.9469   1.9555   1.9725   1.9933   2.0065   2.0364   2.0409   2.0589
  2.0621   2.0837   2.0998   2.1065   2.1202   2.1562   2.2014   2.2114
  2.2217   2.2395   2.2779   2.2846   2.3055   2.3195   2.3475   2.3714
  2.4037   2.4078   2.4301   2.4688   2.4949   2.5018   2.5284   2.5581
  2.5852   2.5960   2.6262   2.6478   2.6525   2.6744   2.6902   2.7480
  2.7557   2.7611   2.7827   2.7985   2.8270   2.8362   2.8685   2.8801
  2.9106   2.9171   2.9413   2.9553   2.9653   2.9758   2.9811   3.0024
  3.0202   3.0513   3.0753   3.0860   3.1107   3.1327   3.1503   3.1661
  3.1888   3.2096   3.2184   3.2304   3.2544   3.2605   3.2761   3.2976
  3.3347   3.3420   3.3847   3.3884   3.3976   3.4195   3.4600   3.4618
  3.4695   3.4722   3.4954   3.5189   3.5211   3.5251   3.5413   3.5499
  3.5592   3.5736   3.5863   3.6007   3.6059   3.6233   3.6472   3.6610
  3.6837   3.7112   3.7491   3.7576   3.8011   3.8213   3.8390   3.8899
  3.9303   3.9621   3.9841   3.9932   4.0420   4.0846   4.1347   4.1555
  4.2459   4.2768   4.2902   4.3104   4.3137   4.3328   4.3418   4.3613
  4.3754   4.3901   4.4341   4.4468   4.4907   4.5437   4.5928   4.6228
  4.7239   4.7301   4.7816   4.8103   4.8825   4.9236   5.0254   5.0552
  5.0893   5.1316   5.1594   5.3042   5.3313   5.4042   5.4456   5.5395
  5.6026   5.6499   5.7198   5.7709   5.9508   6.1969   6.4807   6.5771
  6.6319   6.8742   7.0247   7.2973   7.4531  22.6611  22.6846  22.9425
 22.9724  23.0193  23.1849  23.5043  44.4205
 --------------------------------------------------------------

          Ground-State Mulliken Net Atomic Charges

     Atom                 Charge (a.u.)
  ----------------------------------------
      1 C                    -1.091595
      2 C                    -0.384721
      3 C                    -0.607290
      4 C                     0.655302
      5 C                     0.524120
      6 C                    -0.792766
      7 C                    -0.476535
      8 O                    -0.547628
      9 H                     0.371089
     10 H                     0.385710
     11 H                     0.329697
     12 H                     0.402475
     13 H                     0.302620
     14 H                     0.297074
     15 H                     0.389103
     16 H                     0.243345
  ----------------------------------------
  Sum of atomic charges =     0.000000

 -----------------------------------------------------------------
                    Cartesian Multipole Moments
 -----------------------------------------------------------------
    Charge (ESU x 10^10)
                 0.0000
    Dipole Moment (Debye)
         X      -1.2638      Y      -0.9352      Z      -1.3859
       Tot       2.0958
    Quadrupole Moments (Debye-Ang)
        XX     -52.4801     XY       4.9906     YY     -41.1904
        XZ      -4.2770     YZ      -2.8817     ZZ     -48.9724
    Octopole Moments (Debye-Ang^2)
       XXX    -350.8042    XXY      23.2179    XYY    -103.8664
       YYY     -20.7036    XXZ     -13.2100    XYZ       1.7747
       YYZ       7.6768    XZZ    -121.3822    YZZ      -4.1714
       ZZZ     -26.1591
    Hexadecapole Moments (Debye-Ang^3)
      XXXX   -1802.2936   XXXY      11.4933   XXYY    -339.4617
      XYYY     -82.5748   YYYY    -343.3581   XXXZ     -50.9912
      XXYZ      74.2601   XYYZ      -4.6974   YYYZ     121.8472
      XXZZ    -443.9354   XYZZ      -8.3377   YYZZ    -172.1069
      XZZZ     -83.0122   YZZZ     163.7268   ZZZZ    -822.6768
 -----------------------------------------------------------------
Archival summary:
1\1\compute-0-0.local\SP\ProcedureUnspecified\BasisUnspecified\178\meili\WedSep2913:42:092021WedSep2913:42:092021\0\\#,ProcedureUnspecified,BasisUnspecified,\\0,1\C\O,1,1.36251\H,2,0.971994,1,109.851\C,1,1.3904,2,119.957,3,-0.48383,0\H,4,1.07853,1,120.289,2,1.3321,0\C,1,1.39324,2,120.548,3,-179.095,0\H,6,1.07981,1,119.413,2,-0.809445,0\C,4,1.39996,1,120.082,2,-179.934,0\H,8,1.08167,4,119.118,1,-178.874,0\C,8,1.39268,4,121.154,1,1.67724,0\C,10,1.39772,8,118.468,4,-1.24013,0\H,11,1.08108,10,119.892,8,-179.543,0\C,10,1.50739,8,120.304,4,179.968,0\H,13,1.08983,10,109.193,8,150.885,0\H,13,1.09186,10,108.225,8,34.1751,0\H,13,1.1,10,113.614,8,-87.13,0\\\@

 Total job time:  13483.46s(wall), 96846.46s(cpu) 
 Wed Sep 29 13:42:09 2021

        *************************************************************
        *                                                           *
        *  Thank you very much for using Q-Chem.  Have a nice day.  *
        *                                                           *
        *************************************************************


Done Job For Fragment 0
calling putenv with: QCSCRATCH=/home/meili/scratch 
calling putenv with: QCTHREADS=8 
Creating input file /home/meili/scratch/qchem55222/Frg2.input
using default PutDataFrgm: nothing
calling putenv with: QCSCRATCH=/home/meili/scratch/qchem55222/ 
Spawning Job For Fragment 1
                  Welcome to Q-Chem
     A Quantum Leap Into The Future Of Chemistry


 Q-Chem 5.2 (devel), Q-Chem, Inc., Pleasanton, CA (2019)

 Yihan Shao,  Zhengting Gan,  E. Epifanovsky,  A. T. B. Gilbert,  M. Wormit,  
 J. Kussmann,  A. W. Lange,  A. Behn,  Jia Deng,  Xintian Feng,  D. Ghosh,  
 M. Goldey,  P. R. Horn,  L. D. Jacobson,  I. Kaliman,  T. Kus,  A. Landau,  
 Jie Liu,  E. I. Proynov,  R. M. Richard,  R. P. Steele,  E. J. Sundstrom,  
 H. L. Woodcock III,  P. M. Zimmerman,  D. Zuev,  B. Albrecht,  E. Alguire,  
 S. A. Baeppler,  D. Barton,  Z. Benda,  Y. A. Bernard,  E. J. Berquist,  
 K. B. Bravaya,  H. Burton,  D. Casanova,  Chun-Min Chang,  Yunqing Chen,  
 A. Chien,  K. D. Closser,  M. P. Coons,  S. Coriani,  S. Dasgupta,  
 A. L. Dempwolff,  M. Diedenhofen,  Hainam Do,  R. G. Edgar,  Po-Tung Fang,  
 S. Faraji,  S. Fatehi,  Qingguo Feng,  K. D. Fenk,  J. Fosso-Tande,  
 J. Gayvert,  Qinghui Ge,  A. Ghysels,  G. Gidofalvi,  J. Gomes,  
 J. Gonthier,  A. Gunina,  D. Hait,  M. W. D. Hanson-Heine,  
 P. H. P. Harbach,  A. W. Hauser,  M. F. Herbst,  J. E. Herr,  
 E. G. Hohenstein,  Z. C. Holden,  Kerwin Hui,  B. C. Huynh,  T.-C. Jagau,  
 Hyunjun Ji,  B. Kaduk,  K. Khistyaev,  Jaehoon Kim,  P. Klunzinger,  K. Koh,  
 D. Kosenkov,  L. Koulias,  T. Kowalczyk,  C. M. Krauter,  A. Kunitsa,  
 Ka Un Lao,  A. Laurent,  K. V. Lawler,  Joonho Lee,  D. Lefrancois,  
 S. Lehtola,  D. S. Levine,  Yi-Pei Li,  You-Sheng Lin,  Fenglai Liu,  
 E. Livshits,  A. Luenser,  P. Manohar,  E. Mansoor,  S. F. Manzer,  
 Shan-Ping Mao,  Yuezhi Mao,  N. Mardirossian,  A. V. Marenich,  
 T. Markovich,  L. A. Martinez-Martinez,  S. A. Maurer,  N. J. Mayhall,  
 S. C. McKenzie,  J.-M. Mewes,  P. Morgante,  A. F. Morrison,  
 J. W. Mullinax,  K. Nanda,  T. S. Nguyen-Beck,  R. Olivares-Amaya,  
 J. A. Parkhill,  Zheng Pei,  T. M. Perrine,  F. Plasser,  P. Pokhilko,  
 S. Prager,  A. Prociuk,  E. Ramos,  D. R. Rehn,  F. Rob,  M. Scheurer,  
 M. Schneider,  N. Sergueev,  S. M. Sharada,  S. Sharma,  D. W. Small,  
 T. Stauch,  T. Stein,  Yu-Chuan Su,  A. J. W. Thom,  A. Tkatchenko,  
 T. Tsuchimochi,  N. M. Tubman,  L. Vogt,  M. L. Vidal,  O. Vydrov,  
 M. A. Watson,  J. Wenzel,  M. de Wergifosse,  T. A. Wesolowski,  A. White,  
 J. Witte,  A. Yamada,  Jun Yang,  K. Yao,  S. Yeganeh,  S. R. Yost,  
 Zhi-Qiang You,  A. Zech,  Igor Ying Zhang,  Xing Zhang,  Yan Zhao,  
 Ying Zhu,  B. R. Brooks,  G. K. L. Chan,  C. J. Cramer,  M. S. Gordon,  
 W. J. Hehre,  A. Klamt,  M. W. Schmidt,  C. D. Sherrill,  D. G. Truhlar,  
 A. Aspuru-Guzik,  R. Baer,  A. T. Bell,  N. A. Besley,  Jeng-Da Chai,  
 A. E. DePrince, III,  R. A. DiStasio Jr.,  A. Dreuw,  B. D. Dunietz,  
 T. R. Furlani,  Chao-Ping Hsu,  Yousung Jung,  Jing Kong,  D. S. Lambrecht,  
 WanZhen Liang,  C. Ochsenfeld,  V. A. Rassolov,  L. V. Slipchenko,  
 J. E. Subotnik,  T. Van Voorhis,  J. M. Herbert,  A. I. Krylov,  
 P. M. W. Gill,  M. Head-Gordon

 Contributors to earlier versions of Q-Chem not listed above: 
 R. D. Adamson,  B. Austin,  J. Baker,  G. J. O. Beran,  K. Brandhorst,  
 S. T. Brown,  E. F. C. Byrd,  A. K. Chakraborty,  C.-L. Cheng,  
 Siu Hung Chien,  D. M. Chipman,  D. L. Crittenden,  H. Dachsel,  
 R. J. Doerksen,  A. D. Dutoi,  L. Fusti-Molnar,  W. A. Goddard III,  
 A. Golubeva-Zadorozhnaya,  S. R. Gwaltney,  G. Hawkins,  A. Heyden,  
 S. Hirata,  G. Kedziora,  F. J. Keil,  C. Kelley,  Jihan Kim,  R. A. King,  
 R. Z. Khaliullin,  P. P. Korambath,  W. Kurlancheek,  A. M. Lee,  M. S. Lee,  
 S. V. Levchenko,  Ching Yeh Lin,  D. Liotard,  R. C. Lochan,  I. Lotan,  
 P. E. Maslen,  N. Nair,  D. P. O'Neill,  D. Neuhauser,  E. Neuscamman,  
 C. M. Oana,  R. Olson,  B. Peters,  R. Peverati,  P. A. Pieniazek,  
 Y. M. Rhee,  J. Ritchie,  M. A. Rohrdanz,  E. Rosta,  N. J. Russ,  
 H. F. Schaefer III,  N. E. Schultz,  N. Shenvi,  A. C. Simmonett,  A. Sodt,  
 D. Stuck,  K. S. Thanthiriwatte,  V. Vanovschi,  Tao Wang,  A. Warshel,  
 C. F. Williams,  Q. Wu,  X. Xu,  W. Zhang

 Please cite Q-Chem as follows:
 Y. Shao et al., Mol. Phys. 113, 184-215 (2015)
 DOI: 10.1080/00268976.2014.952696

 Q-Chem 5.2.1 for Intel X86 EM64T Linux

 Parts of Q-Chem use Armadillo 8.300.2 (Tropical Shenanigans).
 http://arma.sourceforge.net/

 Q-Chem begins on Wed Sep 29 13:42:10 2021  

compute-0-0.local
Host: 0

     Scratch files written to /home/meili/scratch/qchem55222//Frg2//
NAlpha2: 66
NElect   66
Mult     1
Symmetry turned off for PCM/SM12/SMD calculation

Checking the input file for inconsistencies... 	...done.

--------------------------------------------------------------
User input:
--------------------------------------------------------------
$molecule
0 1
 6	-1.6786192937	-0.6182129197	2.2719173579
 6	-2.9986192937	-0.5172129197	3.0289173579
 6	-1.8096192937	-0.2652129197	0.8129173579
 6	-2.2006192937	-1.2232129197	-0.1220826421
 6	-1.5456192937	1.0297870803	0.3759173579
 6	-2.3406192937	-0.8912129197	-1.4660826421
 6	-1.6746192937	1.3657870803	-0.9660826421
 6	-2.0726192937	0.4097870803	-1.8860826421
 8	-2.1816192937	0.7607870803	-3.2000826421
 1	-0.9396192937	0.0367870803	2.7339173579
 1	-1.3046192937	-1.6392129197	2.3499173579
 1	-3.7016192937	-1.1972129197	2.5469173579
 1	-2.4096192937	-2.2332129197	0.2019173579
 1	-1.2456192937	1.7827870803	1.0899173579
 1	-2.6516192937	-1.6402129197	-2.1800826421
 1	-1.4656192937	2.3667870803	-1.3060826421
 1	-2.4666192937	0.0197870803	-3.7430826421
 1	-3.3773072937	0.5152990803	3.0062413579
 1	-2.8632952937	-0.8507689197	4.0683533579
$end
$rem
EDA2		1
METHOD		WB97X-V
BASIS		DEF2-TZVPD
XC_GRID		000099000590
NL_GRID		1
UNRESTRICTED		FALSE
MAX_SCF_CYCLES		200
SYMMETRY		FALSE
SYM_IGNORE		TRUE
BASIS_LIN_DEP_THRESH		6
THRESH		14
SCF_CONVERGENCE		8
SCF_PRINT_FRGM		TRUE
SOLVENT_METHOD		SMD
!required keywords
JOBTYPE		SP
SYM_IGNORE		TRUE
SUBSYSTEM		TRUE
GEN_SCFMAN		TRUE
CHILD_INSTRUCTION		2
SYM_IGNORE		TRUE
SCFMI		0
RI_K 0		
PARI_K 0		
MIN_PARI_K 0		
IARI_K 0		
OCC_RI_K 0		
PURECART		1111
MEM_STATIC		2000
MEM_TOTAL		2000
GUI		0
CHILD_MP		1
CHILD_MP_ORDERS		232
FRZ_RELAX		0
FRZ_RELAX_METHOD		0
EDA_CLS_ELEC		1
EDA_CLS_DISP		0
FRZ_ORTHO_DECOMP		1
EDA2		FALSE
FRGM_METHOD		FALSE
CIS_N_ROOTS  0
LOCAL_CIS    0
CIS_RLX_DNS  1
$end
$smx
SOLVENT			WATER
$end
--------------------------------------------------------------
 ----------------------------------------------------------------
             Standard Nuclear Orientation (Angstroms)
    I     Atom           X                Y                Z
 ----------------------------------------------------------------
    1      C      -1.6786192937    -0.6182129197     2.2719173579
    2      C      -2.9986192937    -0.5172129197     3.0289173579
    3      C      -1.8096192937    -0.2652129197     0.8129173579
    4      C      -2.2006192937    -1.2232129197    -0.1220826421
    5      C      -1.5456192937     1.0297870803     0.3759173579
    6      C      -2.3406192937    -0.8912129197    -1.4660826421
    7      C      -1.6746192937     1.3657870803    -0.9660826421
    8      C      -2.0726192937     0.4097870803    -1.8860826421
    9      O      -2.1816192937     0.7607870803    -3.2000826421
   10      H      -0.9396192937     0.0367870803     2.7339173579
   11      H      -1.3046192937    -1.6392129197     2.3499173579
   12      H      -3.7016192937    -1.1972129197     2.5469173579
   13      H      -2.4096192937    -2.2332129197     0.2019173579
   14      H      -1.2456192937     1.7827870803     1.0899173579
   15      H      -2.6516192937    -1.6402129197    -2.1800826421
   16      H      -1.4656192937     2.3667870803    -1.3060826421
   17      H      -2.4666192937     0.0197870803    -3.7430826421
   18      H      -3.3773072937     0.5152990803     3.0062413579
   19      H      -2.8632952937    -0.8507689197     4.0683533579
 ----------------------------------------------------------------
 Nuclear Repulsion Energy =         419.71290643 hartrees
 There are       33 alpha and       33 beta electrons
 Requested basis set is def2-TZVPD
 There are 168 shells and 426 basis functions

 Total QAlloc Memory Limit   2000 MB
 Mega-Array Size      1956 MB
 MEM_STATIC part      2000 MB

 Citation of the SMD model:
 Marenich, A.V.; Cramer, C.J.; Truhlar, D.G.
 J. Phys. Chem. B 2009, 113, 6378-6396.
 iSolventCode=           1
 Solvent: water                                                           

 vradii
            1           2           3           4           5           6
    1   1.8500000   1.8500000   1.8500000   1.8500000   1.8500000   1.8500000
            7           8           9          10          11          12
    1   1.8500000   1.8500000   1.5200000   1.2000000   1.2000000   1.2000000
           13          14          15          16          17          18
    1   1.2000000   1.2000000   1.2000000   1.2000000   1.2000000   1.2000000
           19
    1   1.2000000
 Changing PCM_VDW_RADII to SMD_RADIUS
 Discretize the solute cavity surface with Lebedev spheres
	Using 110 Lebedev grid points for each H atom
	Using 194 Lebedev grid points for other atoms
	Atomic van der Waals radii will be scaled by 1.20
 Remove points where switching function is < 1.0e-08
 Keep 1377 surface tesserae and discard 1469 interior tesserae
 Molecular Surface Area = 161.536 Angst**2
 A cutoff of  1.0D-14 yielded  13238 shell pairs
 There are     86586 function pairs (    110025 Cartesian)
 Smallest overlap matrix eigenvalue = 4.83E-07
 Linear dependence detected in AO basis
 Tighter screening thresholds may be required for diffuse basis sets
 Use S2THRESH > 14 and THRESH = 14 in case of SCF convergence issues
 Number of orthogonalized atomic orbitals = 425
 Maximum deviation from orthogonality = 2.261E-10

 Scale SEOQF with 1.000000e-01/1.000000e-01/1.000000e-01

 Standard Electronic Orientation quadrupole field applied
 Nucleus-field energy     =    -0.0000000145 hartrees
 Guess from superposition of atomic densities
 Warning:  Energy on first SCF cycle will be non-variational
 SAD guess density has 66.000000 electrons

 -----------------------------------------------------------------------
  General SCF calculation program by
  Eric Jon Sundstrom, Paul Horn, Yuezhi Mao, Dmitri Zuev, Alec White,
  David Stuck, Shaama M.S., Shane Yost, Joonho Lee, David Small,
  Daniel Levine, Susi Lehtola, Hugh Burton, Evgeny Epifanovsky,
  Bang C. Huynh
 -----------------------------------------------------------------------
 Exchange:     0.1670 Hartree-Fock + 1.0000 wB97X-V + LR-HF
 Correlation:  1.0000 wB97X-V
 Using Euler-Maclaurin-Lebedev (99,590) quadrature formula
 Nonlocal Correlation:  VV10 with C = 0.0100 and b = 6.00 and scale = 1.00000
 Grid used for NLC:  SG-1 standard quadrature
Energy prior to optimization (guess energy) = -386.041772709237
Begin Timing: Total SCF Calculation
begin iterations for algorithm: DIIS         
the SCF tolerance is set to 1.00e-08
    1    -386.0417727092      2.00e-03     00000 
    2    -386.0981212994      1.56e-03     00000 
    3    -386.1419214092      2.75e-04     00000 
    4    -386.1438059678      1.22e-04     00000 
    5    -386.1442403305      3.52e-05     00000 
    6    -386.1442762353      1.09e-05     00000 
    7    -386.1442800444      4.97e-06     00000 
    8    -386.1442808505      1.16e-06     00000 
    9    -386.1442809421      5.12e-07     00000 
   10    -386.1442809591      2.36e-07     00000 
   11    -386.1442809633      6.33e-08     00000 
   12    -386.1442809637      2.77e-08     00000 
   13    -386.1442809638      8.04e-09     00000 Convergence criterion met
Timing for Total SCF: 1082.00s (wall), 7726.76s (cpu)
(3)  G-ENP(liq) elect-nuc-pol free energy of system     -386.144280964 a.u.
(4)  G-CDS(liq) cavity-dispersion-solvent structure 
     free energy                                                4.0800 kcal/mol
(6)  G-S(liq) free energy of system                     -386.137779133 a.u.
E_pcm = -0.0176759081
E_cds = 0.0065018306
Multipole orders to be included
        2
        3
computing dipole RHS
computing quadrupole RHS
total number of RHS in solve_reponses: 8
RHS batch sizes
        8
Beginning Block Conjugate Gradient Iterations. Batch Number: 0
computing hessian-vector products by finite difference
              1      6.27e-01     00000 Conjugate Gradient Iteration
computing hessian-vector products by finite difference
              2      1.96e-01     00000 Conjugate Gradient Iteration
computing hessian-vector products by finite difference
              3      5.20e-02     00000 Conjugate Gradient Iteration
computing hessian-vector products by finite difference
              4      1.60e-02     00000 Conjugate Gradient Iteration
computing hessian-vector products by finite difference
              5      4.60e-03     00000 Conjugate Gradient Iteration
computing hessian-vector products by finite difference
              6      1.79e-03     00000 Conjugate Gradient Iteration
computing hessian-vector products by finite difference
              7      4.16e-04     00000 Conjugate Gradient Iteration
computing hessian-vector products by finite difference
              8      8.54e-05     00000 Conjugate Gradient Iteration
computing hessian-vector products by finite difference
              9      1.65e-05     00000 Conjugate Gradient Iteration
computing hessian-vector products by finite difference
             10      2.48e-06     00000 Conjugate Gradient Iteration
computing hessian-vector products by finite difference
             11      3.41e-07     00000 Conjugate Gradient Iteration
computing hessian-vector products by finite difference
             12      5.61e-08     00000 Conjugate Gradient Iteration
computing hessian-vector products by finite difference
             13      9.65e-09     00000 CG Converged
batch 0 complete
Done Calculating Responses
TESTING ORTHOGONALIZATION OF MULTIPOLE BASIS
Multipole virts passed orthogonality test
Virts Per Order
           99
          165

 --------------------------------------------------------------

                    Orbital Energies (a.u.)
 --------------------------------------------------------------

 Alpha MOs
 -- Occupied --
-19.2397 -10.3298 -10.2683 -10.2677 -10.2670 -10.2659 -10.2638 -10.2562
-10.2491  -1.1896  -0.9928  -0.9137  -0.8794  -0.8446  -0.7541  -0.7396
 -0.6977  -0.6598  -0.6009  -0.5797  -0.5485  -0.5373  -0.5326  -0.5253
 -0.5145  -0.4907  -0.4741  -0.4456  -0.4358  -0.4297  -0.4271  -0.3493
 -0.3098
 -- Virtual --
  0.0633   0.0653   0.0729   0.0830   0.0879   0.0950   0.1025   0.1138
  0.1145   0.1196   0.1343   0.1482   0.1583   0.1662   0.1742   0.1801
  0.1908   0.1947   0.2010   0.2078   0.2176   0.2252   0.2332   0.2368
  0.2455   0.2519   0.2572   0.2693   0.2755   0.2792   0.2837   0.2895
  0.2971   0.2988   0.3000   0.3065   0.3094   0.3127   0.3199   0.3281
  0.3328   0.3399   0.3499   0.3534   0.3568   0.3591   0.3648   0.3680
  0.3711   0.3747   0.3765   0.3807   0.3849   0.3869   0.3950   0.4002
  0.4030   0.4123   0.4144   0.4248   0.4259   0.4344   0.4415   0.4424
  0.4529   0.4566   0.4631   0.4661   0.4738   0.4820   0.4836   0.4887
  0.4911   0.4931   0.5000   0.5025   0.5071   0.5148   0.5192   0.5267
  0.5319   0.5383   0.5424   0.5513   0.5540   0.5583   0.5741   0.5796
  0.5832   0.5922   0.5967   0.6021   0.6082   0.6167   0.6245   0.6287
  0.6423   0.6510   0.6655   0.6673   0.6727   0.6780   0.6865   0.6943
  0.7007   0.7061   0.7127   0.7172   0.7192   0.7283   0.7329   0.7355
  0.7467   0.7538   0.7586   0.7711   0.7768   0.7794   0.7889   0.7925
  0.7940   0.8007   0.8035   0.8124   0.8142   0.8166   0.8186   0.8255
  0.8306   0.8411   0.8512   0.8528   0.8619   0.8671   0.8766   0.8796
  0.8921   0.8993   0.9110   0.9190   0.9391   0.9531   0.9646   0.9813
  0.9909   1.0040   1.0142   1.0289   1.0348   1.0396   1.0550   1.0614
  1.0779   1.0844   1.0929   1.1089   1.1157   1.1190   1.1287   1.1797
  1.1909   1.1944   1.2305   1.2349   1.2660   1.3033   1.3046   1.3308
  1.3418   1.3514   1.3697   1.3903   1.4075   1.4123   1.4161   1.4452
  1.4659   1.4789   1.4950   1.5067   1.5152   1.5657   1.5797   1.5858
  1.6230   1.6468   1.6607   1.6689   1.6968   1.7349   1.7504   1.7650
  1.7918   1.8171   1.8388   1.8423   1.8557   1.8753   1.8859   1.8935
  1.9229   1.9298   1.9412   1.9439   1.9842   1.9896   2.0033   2.0043
  2.0192   2.0443   2.0466   2.0605   2.0691   2.0718   2.0822   2.1013
  2.1160   2.1456   2.1753   2.1834   2.2065   2.2136   2.2230   2.2470
  2.2710   2.2784   2.3155   2.3287   2.3313   2.3713   2.3843   2.4153
  2.4176   2.4321   2.4571   2.5040   2.5077   2.5289   2.5577   2.5698
  2.5850   2.5999   2.6327   2.6435   2.6558   2.6665   2.6879   2.7135
  2.7287   2.7469   2.7727   2.7810   2.7874   2.8128   2.8296   2.8366
  2.8598   2.8656   2.8913   2.9084   2.9156   2.9369   2.9509   2.9559
  2.9688   2.9793   2.9925   3.0084   3.0205   3.0322   3.0495   3.0629
  3.0692   3.1012   3.1230   3.1373   3.1676   3.1858   3.1933   3.2131
  3.2265   3.2609   3.2692   3.2756   3.3016   3.3080   3.3376   3.3517
  3.3676   3.3925   3.4136   3.4336   3.4423   3.4556   3.4652   3.4727
  3.4806   3.5009   3.5107   3.5172   3.5273   3.5439   3.5444   3.5579
  3.5736   3.5789   3.5853   3.6135   3.6270   3.6301   3.6457   3.6606
  3.6849   3.6945   3.7051   3.7143   3.7257   3.7461   3.7887   3.8142
  3.8378   3.8446   3.8600   3.8764   3.9574   3.9841   3.9990   4.0395
  4.0572   4.0876   4.1273   4.1513   4.1567   4.2006   4.2133   4.2738
  4.2849   4.3236   4.3298   4.3451   4.3530   4.3771   4.3991   4.4096
  4.4311   4.4560   4.4882   4.5270   4.5675   4.6022   4.6364   4.6939
  4.7515   4.7572   4.7866   4.8291   4.8773   4.9373   4.9452   5.0278
  5.0673   5.0849   5.1258   5.1544   5.1803   5.3519   5.3596   5.3945
  5.4761   5.5583   5.6220   5.6651   5.7509   5.7940   5.9487   6.2237
  6.4907   6.6124   6.6312   6.8758   7.0143   7.3115   7.4671  22.6542
 22.7109  22.8310  22.9620  23.0345  23.0676  23.2092  23.5546  44.4321
 --------------------------------------------------------------

          Ground-State Mulliken Net Atomic Charges

     Atom                 Charge (a.u.)
  ----------------------------------------
      1 C                    -0.586001
      2 C                    -0.893513
      3 C                     0.382627
      4 C                    -0.517081
      5 C                    -0.423433
      6 C                    -0.496660
      7 C                    -0.833980
      8 C                     0.675430
      9 O                    -0.544948
     10 H                     0.293452
     11 H                     0.277420
     12 H                     0.266093
     13 H                     0.399493
     14 H                     0.394807
     15 H                     0.365627
     16 H                     0.403451
     17 H                     0.325655
     18 H                     0.271089
     19 H                     0.240473
  ----------------------------------------
  Sum of atomic charges =     0.000000

 -----------------------------------------------------------------
                    Cartesian Multipole Moments
 -----------------------------------------------------------------
    Charge (ESU x 10^10)
                 0.0000
    Dipole Moment (Debye)
         X      -0.4901      Y      -2.0121      Z       0.1967
       Tot       2.0803
    Quadrupole Moments (Debye-Ang)
        XX     -55.9959     XY       6.7569     YY     -51.0245
        XZ       3.5184     YZ       6.6032     ZZ     -47.6172
    Octopole Moments (Debye-Ang^2)
       XXX     355.7167    XXY     -17.6092    XYY     107.3252
       YYY       2.4838    XXZ     -15.5971    XYZ     -16.0179
       YYZ       4.9004    XZZ      91.3619    YZZ     -23.6734
       ZZZ     -22.0767
    Hexadecapole Moments (Debye-Ang^3)
      XXXX   -1651.1726   XXXY       2.8529   XXYY    -312.9536
      XYYY     -28.2954   YYYY    -332.1282   XXXZ      82.8908
      XXYZ      78.7779   XYYZ       0.2879   YYYZ     113.7555
      XXZZ    -434.4499   XYZZ      45.2194   YYZZ    -294.5922
      XZZZ     126.7143   YZZZ     193.0004   ZZZZ   -1222.8073
 -----------------------------------------------------------------
Archival summary:
1\1\compute-0-0.local\SP\ProcedureUnspecified\BasisUnspecified\1810\meili\WedSep2919:31:212021WedSep2919:31:212021\0\\#,ProcedureUnspecified,BasisUnspecified,\\0,1\C\C,1,1.39201\H,2,1.08019,1,119.583\C,2,1.38942,1,120.703,3,-179.467,0\H,4,1.07763,2,120.755,1,-179.687,0\C,4,1.38519,2,120.085,1,0.153813,0\O,6,1.36443,4,119.015,2,-179.469,0\H,7,0.96185,6,111.664,4,-179.83,0\C,6,1.39313,4,119.971,2,-0.166633,0\H,9,1.08052,6,120.232,4,179.983,0\C,9,1.39146,6,119.647,4,-0.27094,0\H,11,1.08109,9,119.534,6,179.965,0\C,1,1.5068,2,120.36,3,-0.00899601,0\H,13,1.09014,1,108.573,2,-144.721,0\H,13,1.09022,1,109.178,2,-27.8653,0\C,13,1.52501,1,112.947,2,94.4263,0\H,16,1.09038,13,107.297,1,58.9191,0\H,16,1.1,13,110.029,1,176.099,0\H,16,1.1,13,110.482,1,-61.9081,0\\\@

 Total job time:  20951.48s(wall), 151174.92s(cpu) 
 Wed Sep 29 19:31:21 2021

        *************************************************************
        *                                                           *
        *  Thank you very much for using Q-Chem.  Have a nice day.  *
        *                                                           *
        *************************************************************


Done Job For Fragment 1
calling putenv with: QCSCRATCH=/home/meili/scratch 
calling putenv with: QCTHREADS=8 
Doing General SCFMI
 Exchange:     0.1670 Hartree-Fock + 1.0000 wB97X-V + LR-HF
 Correlation:  1.0000 wB97X-V
 Using Euler-Maclaurin-Lebedev (99,590) quadrature formula
 Nonlocal Correlation:  VV10 with C = 0.0100 and b = 6.00 and scale = 1.00000
 Grid used for NLC:  SG-1 standard quadrature
performing fock build before subrot guess so that all methods have access
Printing subrot_rss_gen Method Specification:
Occupied Subspace Method is 0
Virtual Subspace Method is 0
Energy of the unrelaxed supersystem initial determinant -732.940867971028
performing fock build before subrot guess so that all methods have access
Printing subrot_rss_gen Method Specification:
Occupied Subspace Method is 0
Virtual Subspace Method is 0
Energy of the unrelaxed supersystem initial determinant w/ solvent -732.976093541315
write pseudocanon occs and virts to disk
write pseudocanon orbital energies to disk
Tolerance of ortho_decomp_scf: 1.00e-06
GDM subspace size: 20
Beginning the Orthogonal Decomposition of the Initial Supersystem Wavefunction
    1    -732.9173956077      1.62e-02     ortho_decomp Preconditoned Steepest Descent
    2    -732.9191630489      3.99e-04     ortho_decomp BFGS Step
    3    -732.9191684306      2.98e-05     ortho_decomp BFGS Step
    4    -732.9191684405      1.18e-06     ortho_decomp BFGS Step
    5    -732.9191684406      3.03e-08     ortho_decomp 00000 Convergence criterion met
 Hartree-Fock
 Hartree-Fock
 Hartree-Fock
Doing General SCFMI
 Exchange:     0.1670 Hartree-Fock + 1.0000 wB97X-V + LR-HF
 Correlation:  1.0000 wB97X-V
 Using Euler-Maclaurin-Lebedev (99,590) quadrature formula
 Nonlocal Correlation:  VV10 with C = 0.0100 and b = 6.00 and scale = 1.00000
 Grid used for NLC:  SG-1 standard quadrature
performing fock build at end of subrot_r(subrot) constructor so that all methods have access
<S^2> of initial wavefunction before polarization iterations 0.0000000000
Beginning iterations for the determination of the polarized wavefunction
Energy prior to optimization (guess energy) = -732.976093541316
Begin Timing: Total SCF Calculation
begin iterations for algorithm: DIIS         
the SCF tolerance is set to 1.00e-08
    1    -732.9760935413      3.70e-05     00000 
    2    -732.9763031876      1.76e-05     00000 
    3    -732.9763334789      8.55e-06     00000 
    4    -732.9763428560      3.08e-06     00000 
    5    -732.9763439515      1.63e-06     00000 
    6    -732.9763442562      6.77e-07     00000 
    7    -732.9763442809      3.87e-07     00000 
    8    -732.9763442890      1.63e-07     00000 
    9    -732.9763442911      6.33e-08     00000 
   10    -732.9763442915      3.15e-08     00000 
   11    -732.9763442917      1.03e-08     00000 
   12    -732.9763442917      4.47e-09     00000 Convergence criterion met
write pseudocanon occs and virts to disk
write pseudocanon orbital energies to disk
Timing for Total SCF: 6569.00s (wall), 48112.01s (cpu)
<S^2> of polarized wavefunction after polarization iterations 0.0000000000
relaxing scfmi constraint to allow all rotations in the entire AO span
Doing General SCFMI
 Exchange:     0.1670 Hartree-Fock + 1.0000 wB97X-V + LR-HF
 Correlation:  1.0000 wB97X-V
 Using Euler-Maclaurin-Lebedev (99,590) quadrature formula
 Nonlocal Correlation:  VV10 with C = 0.0100 and b = 6.00 and scale = 1.00000
 Grid used for NLC:  SG-1 standard quadrature
performing fock build at end of subrot_r(subrot) constructor so that all methods have access
<S^2> of polarized wavefunction before ct-allowed iterations 0.0000000000
Beginning iterations for the determination of the CT-Allowed wavefunction
Energy prior to optimization (guess energy) = -732.976344291669
Begin Timing: Total SCF Calculation
begin iterations for algorithm: DIIS         
the SCF tolerance is set to 1.00e-08
    1    -732.9763442917      5.34e-05     00000 
    2    -732.9770833338      4.72e-06     00000 
    3    -732.9771100725      9.70e-07     00000 
    4    -732.9771116693      2.67e-07     00000 
    5    -732.9771117155      1.35e-07     00000 
    6    -732.9771117250      3.43e-08     00000 
    7    -732.9771117254      1.29e-08     00000 
    8    -732.9771117255      3.24e-09     00000 Convergence criterion met
write pseudocanon occs and virts to disk
write pseudocanon orbital energies to disk
Timing for Total SCF: 4501.00s (wall), 32797.28s (cpu)
<S^2> of ct_allowed wavefunction after ct-allowed iterations 0.0000000000

================================
        Results of EDA2         
================================
Basic EDA Quantities
--------------------
Fragment Energies (Ha):
1 -346.8203419343
2 -386.1377791332
--------------------
  E_prp (kJ/mol) = 0.0000
  E_sol (kJ/mol) = -3.1500
  E_frz (kJ/mol) = -14.2230
  E_pol (kJ/mol) = -0.6584
  E_vct (kJ/mol) = -2.0149
  E_int (kJ/mol) = -20.0462
--------------------


Initial Wavefunction Decomposition
--------------------
  --------------------
  Orthogonal Fragment Subspace Decomposition:
  --------------------
     E_elec   (ELEC)   (kJ/mol) = -19.5867
     E_pauli  (PAULI)  (kJ/mol) = 32.3120
     E_disp   (DISP)   (kJ/mol) = -26.9483
     --------------------
     Terms summing to E_pauli:
     --------------------
        E_kep_pauli       (kJ/mol) = 42.7498
        E_disp_free_pauli (kJ/mol) = -10.4378
  --------------------
  Classical Frozen Decomposition:
  --------------------
     E_cls_elec  (CLS ELEC)  (kJ/mol) = -4.4698
     E_cls_pauli (CLS PAULI) (kJ/mol) = -9.7532
    [E_mod_pauli (MOD PAULI) (kJ/mol) = 17.1951 (CLS PAULI - DISP from orthogonal decomposition) ]
  --------------------
--------------------

Simplified EDA Summary (kJ/mol)
--------------------
 PREPARATION     0.0000
 SOLVATION       -3.1500
 FROZEN          12.7253      (does not include dispersion)
[PAULI           32.3120]     (if this is negligible, then frozen describes electrostatics)
 DISPERSION      -26.9483
 POLARIZATION    -0.6584
 CHARGE TRANSFER -2.0149
 TOTAL           -20.0462     (PRP + SOL + FRZ + DISP + POL + CT)
--------------------

 --------------------------------------------------------------

                    Orbital Energies (a.u.)
 --------------------------------------------------------------

 Alpha MOs
 -- Occupied --
-19.2415 -19.2399 -10.3304 -10.3299 -10.2714 -10.2704 -10.2683 -10.2679
-10.2676 -10.2673 -10.2666 -10.2662 -10.2654 -10.2638 -10.2565 -10.2531
-10.2493  -1.1901  -1.1897  -0.9929  -0.9885  -0.9138  -0.8958  -0.8793
 -0.8761  -0.8446  -0.8035  -0.7542  -0.7423  -0.7396  -0.7065  -0.6977
 -0.6599  -0.6576  -0.6010  -0.5978  -0.5800  -0.5733  -0.5486  -0.5445
 -0.5401  -0.5357  -0.5323  -0.5254  -0.5229  -0.5166  -0.5137  -0.5079
 -0.4906  -0.4741  -0.4711  -0.4491  -0.4456  -0.4428  -0.4346  -0.4320
 -0.4297  -0.4270  -0.3509  -0.3447  -0.3138  -0.3056
 -- Virtual --
  0.0577   0.0611   0.0636   0.0650   0.0738   0.0758   0.0808   0.0834
  0.0902   0.0957   0.0993   0.1064   0.1080   0.1158   0.1191   0.1230
  0.1247   0.1302   0.1389   0.1476   0.1478   0.1547   0.1575   0.1634
  0.1671   0.1730   0.1758   0.1821   0.1839   0.1886   0.1960   0.2028
  0.2052   0.2088   0.2140   0.2159   0.2186   0.2245   0.2305   0.2322
  0.2382   0.2401   0.2458   0.2498   0.2523   0.2597   0.2615   0.2644
  0.2691   0.2720   0.2743   0.2777   0.2815   0.2850   0.2909   0.2926
  0.2940   0.2970   0.3007   0.3032   0.3060   0.3086   0.3116   0.3148
  0.3192   0.3227   0.3245   0.3284   0.3324   0.3351   0.3362   0.3390
  0.3430   0.3463   0.3510   0.3528   0.3555   0.3586   0.3614   0.3627
  0.3655   0.3680   0.3697   0.3741   0.3756   0.3780   0.3791   0.3831
  0.3842   0.3870   0.3887   0.3946   0.3957   0.3975   0.3998   0.4003
  0.4034   0.4078   0.4176   0.4195   0.4237   0.4281   0.4294   0.4305
  0.4327   0.4379   0.4398   0.4420   0.4460   0.4488   0.4515   0.4557
  0.4607   0.4623   0.4645   0.4658   0.4692   0.4720   0.4739   0.4785
  0.4796   0.4816   0.4851   0.4889   0.4924   0.4964   0.5001   0.5012
  0.5033   0.5039   0.5120   0.5147   0.5165   0.5199   0.5227   0.5254
  0.5292   0.5308   0.5355   0.5358   0.5439   0.5451   0.5516   0.5580
  0.5598   0.5626   0.5655   0.5694   0.5723   0.5758   0.5799   0.5839
  0.5853   0.5913   0.5963   0.5997   0.6035   0.6096   0.6110   0.6126
  0.6184   0.6214   0.6295   0.6330   0.6337   0.6411   0.6423   0.6436
  0.6476   0.6493   0.6578   0.6621   0.6631   0.6682   0.6746   0.6801
  0.6821   0.6864   0.6883   0.6926   0.6957   0.7003   0.7030   0.7138
  0.7152   0.7180   0.7200   0.7260   0.7336   0.7356   0.7383   0.7397
  0.7424   0.7497   0.7503   0.7571   0.7601   0.7650   0.7673   0.7693
  0.7705   0.7724   0.7761   0.7772   0.7848   0.7862   0.7897   0.7913
  0.7930   0.7981   0.8012   0.8037   0.8072   0.8075   0.8132   0.8172
  0.8190   0.8195   0.8237   0.8303   0.8334   0.8360   0.8427   0.8467
  0.8489   0.8504   0.8517   0.8570   0.8606   0.8644   0.8697   0.8716
  0.8738   0.8772   0.8833   0.8867   0.8914   0.8934   0.9003   0.9024
  0.9047   0.9065   0.9112   0.9158   0.9231   0.9239   0.9287   0.9340
  0.9372   0.9406   0.9423   0.9507   0.9542   0.9626   0.9642   0.9700
  0.9791   0.9851   0.9940   1.0030   1.0054   1.0085   1.0132   1.0206
  1.0302   1.0342   1.0401   1.0445   1.0498   1.0594   1.0634   1.0667
  1.0715   1.0836   1.0877   1.0904   1.0964   1.1073   1.1159   1.1209
  1.1250   1.1281   1.1377   1.1460   1.1523   1.1616   1.1653   1.1766
  1.1829   1.1860   1.1920   1.2103   1.2150   1.2215   1.2351   1.2443
  1.2530   1.2612   1.2660   1.2735   1.2837   1.2923   1.3153   1.3227
  1.3299   1.3373   1.3411   1.3567   1.3611   1.3631   1.3752   1.3885
  1.4027   1.4029   1.4134   1.4193   1.4361   1.4443   1.4464   1.4518
  1.4605   1.4682   1.4790   1.4934   1.5043   1.5063   1.5106   1.5212
  1.5266   1.5347   1.5474   1.5598   1.5679   1.5729   1.5876   1.5972
  1.6020   1.6097   1.6264   1.6401   1.6539   1.6574   1.6587   1.6707
  1.6889   1.6931   1.7059   1.7147   1.7452   1.7573   1.7658   1.7755
  1.7781   1.8007   1.8121   1.8231   1.8356   1.8489   1.8571   1.8630
  1.8664   1.8767   1.8885   1.9024   1.9056   1.9197   1.9259   1.9290
  1.9345   1.9427   1.9485   1.9575   1.9630   1.9678   1.9766   1.9895
  1.9953   2.0012   2.0171   2.0196   2.0274   2.0353   2.0381   2.0471
  2.0540   2.0568   2.0689   2.0757   2.0863   2.0946   2.0987   2.1031
  2.1137   2.1196   2.1230   2.1372   2.1414   2.1523   2.1549   2.1605
  2.1838   2.1875   2.2008   2.2136   2.2197   2.2353   2.2492   2.2558
  2.2610   2.2681   2.2730   2.2787   2.2970   2.3034   2.3111   2.3207
  2.3298   2.3392   2.3441   2.3495   2.3570   2.3654   2.3669   2.3748
  2.3848   2.3973   2.4067   2.4289   2.4345   2.4402   2.4470   2.4601
  2.4745   2.4835   2.5067   2.5100   2.5225   2.5396   2.5456   2.5560
  2.5639   2.5775   2.5891   2.5985   2.6048   2.6109   2.6271   2.6391
  2.6501   2.6556   2.6620   2.6693   2.6777   2.6875   2.6990   2.7087
  2.7130   2.7176   2.7356   2.7456   2.7577   2.7611   2.7636   2.7684
  2.7904   2.7956   2.8096   2.8209   2.8255   2.8352   2.8473   2.8476
  2.8543   2.8612   2.8721   2.8869   2.9056   2.9174   2.9243   2.9253
  2.9432   2.9537   2.9547   2.9595   2.9705   2.9800   2.9865   2.9911
  2.9983   3.0071   3.0108   3.0158   3.0230   3.0254   3.0334   3.0388
  3.0466   3.0514   3.0587   3.0654   3.0830   3.0930   3.0981   3.1068
  3.1163   3.1241   3.1274   3.1437   3.1596   3.1700   3.1781   3.1903
  3.2024   3.2132   3.2183   3.2217   3.2282   3.2428   3.2507   3.2531
  3.2694   3.2831   3.2877   3.3027   3.3129   3.3234   3.3294   3.3316
  3.3437   3.3525   3.3633   3.3709   3.3775   3.3862   3.3970   3.4003
  3.4187   3.4233   3.4400   3.4518   3.4542   3.4606   3.4639   3.4709
  3.4732   3.4793   3.4907   3.4982   3.5085   3.5096   3.5198   3.5215
  3.5276   3.5353   3.5410   3.5488   3.5504   3.5547   3.5610   3.5710
  3.5751   3.5821   3.5861   3.5915   3.5954   3.5995   3.6039   3.6076
  3.6191   3.6207   3.6316   3.6370   3.6420   3.6496   3.6550   3.6673
  3.6700   3.6748   3.6867   3.6928   3.6942   3.7042   3.7072   3.7145
  3.7287   3.7357   3.7379   3.7418   3.7583   3.7671   3.7823   3.8004
  3.8179   3.8229   3.8421   3.8547   3.8568   3.8674   3.8790   3.9103
  3.9246   3.9516   3.9755   3.9839   3.9965   4.0054   4.0244   4.0277
  4.0613   4.0680   4.0738   4.0985   4.1066   4.1440   4.1559   4.1655
  4.1700   4.1795   4.2176   4.2381   4.2682   4.2923   4.2988   4.3046
  4.3101   4.3248   4.3323   4.3389   4.3493   4.3515   4.3582   4.3621
  4.3691   4.3814   4.3916   4.3954   4.4116   4.4203   4.4356   4.4510
  4.4593   4.4681   4.4766   4.5030   4.5067   4.5376   4.5586   4.5845
  4.6265   4.6304   4.6471   4.6508   4.7136   4.7368   4.7510   4.7615
  4.7641   4.8023   4.8102   4.8223   4.8483   4.8877   4.9006   4.9529
  4.9654   4.9729   5.0391   5.0456   5.0654   5.0789   5.0986   5.1122
  5.1452   5.1585   5.1646   5.1772   5.1908   5.3149   5.3378   5.3543
  5.3715   5.4030   5.4143   5.4549   5.4846   5.5465   5.5610   5.6110
  5.6276   5.6598   5.6728   5.7355   5.7590   5.7673   5.7812   5.9530
  5.9660   6.2071   6.2277   6.4764   6.4825   6.5867   6.6188   6.6664
  6.6729   6.8912   6.9047   7.0250   7.0417   7.3157   7.3185   7.4655
  7.4817  22.6795  22.6965  22.7606  22.7772  22.9121  22.9873  23.0048
 23.0113  23.0641  23.1185  23.1320  23.2185  23.2384  23.5223  23.5648
 44.4839  44.5013
 --------------------------------------------------------------

          Ground-State Mulliken Net Atomic Charges

     Atom                 Charge (a.u.)
  ----------------------------------------
      1 C                    -1.182063
      2 C                    -0.282939
      3 C                    -0.719079
      4 C                     0.758677
      5 C                     0.446355
      6 C                    -0.811506
      7 C                    -0.365450
      8 O                    -0.590210
      9 H                     0.302471
     10 H                     0.425175
     11 H                     0.349515
     12 H                     0.414699
     13 H                     0.308977
     14 H                     0.233338
     15 H                     0.423466
     16 H                     0.274733
     17 C                    -0.585668
     18 C                    -1.095161
     19 C                     0.106378
     20 C                    -0.372911
     21 C                    -0.368545
     22 C                    -0.453501
     23 C                    -0.671139
     24 C                     0.595735
     25 O                    -0.552285
     26 H                     0.293984
     27 H                     0.247064
     28 H                     0.296066
     29 H                     0.446178
     30 H                     0.427479
     31 H                     0.359785
     32 H                     0.441128
     33 H                     0.337246
     34 H                     0.302492
     35 H                     0.259517
  ----------------------------------------
  Sum of atomic charges =     0.000000

 -----------------------------------------------------------------
                    Cartesian Multipole Moments
 -----------------------------------------------------------------
    Charge (ESU x 10^10)
                 0.0000
    Dipole Moment (Debye)
         X      -1.8215      Y      -2.9703      Z      -1.1809
       Tot       3.6790
    Quadrupole Moments (Debye-Ang)
        XX    -108.7354     XY      11.7828     YY     -92.4140
        XZ      -0.8018     YZ       3.7209     ZZ     -96.7938
    Octopole Moments (Debye-Ang^2)
       XXX       4.4901    XXY       5.5531    XYY       3.3001
       YYY     -18.2240    XXZ     -28.8689    XYZ     -14.2716
       YYZ      12.5566    XZZ     -30.2958    YZZ     -27.8045
       ZZZ     -48.1835
    Hexadecapole Moments (Debye-Ang^3)
      XXXX   -3457.7667   XXXY      14.7059   XXYY    -653.4376
      XYYY    -110.7135   YYYY    -677.0133   XXXZ      31.5819
      XXYZ     152.9225   XYYZ      -4.4767   YYYZ     235.7878
      XXZZ    -878.7108   XYZZ      37.0444   YYZZ    -467.4109
      XZZZ      43.0671   YZZZ     357.0773   ZZZZ   -2047.7837
 -----------------------------------------------------------------
Archival summary:
1\1\compute-0-0.local\SP\ProcedureUnspecified\BasisUnspecified\21518\meili\ThuSep3001:05:482021ThuSep3001:05:482021\0\\#,ProcedureUnspecified,BasisUnspecified,\\0,1\C\C,1,1.39201\H,2,1.08019,1,119.583\C,2,1.38942,1,120.703,3,-179.467,0\H,4,1.07763,2,120.755,1,-179.687,0\C,4,1.38519,2,120.085,1,0.153813,0\O,6,1.36443,4,119.015,2,-179.469,0\H,7,0.96185,6,111.664,4,-179.83,0\C,6,1.39313,4,119.971,2,-0.166633,0\H,9,1.08052,6,120.232,4,179.983,0\C,9,1.39146,6,119.647,4,-0.27094,0\H,11,1.08109,9,119.534,6,179.965,0\C,1,1.5068,2,120.36,3,-0.00899601,0\H,13,1.09014,1,108.573,2,-144.721,0\H,13,1.09022,1,109.178,2,-27.8653,0\C,13,1.52501,1,112.947,2,94.4263,0\H,16,1.09038,13,107.297,1,58.9191,0\H,16,1.1,13,110.029,1,176.099,0\H,16,1.1,13,110.482,1,-61.9081,0\H,14,2.94346,13,119.461,1,90.1852,0\O,20,0.971994,14,119.709,13,8.42126,0\C,21,1.36251,20,109.851,14,-73.5178,0\C,22,1.3904,21,119.957,20,-0.48383,0\H,23,1.07853,22,120.289,21,1.3321,0\C,22,1.39324,21,120.548,20,-179.095,0\H,25,1.07981,22,119.413,21,-0.809445,0\C,23,1.39996,22,120.082,21,-179.934,0\H,27,1.08167,23,119.118,22,-178.874,0\C,27,1.39268,23,121.154,22,1.67724,0\C,29,1.39772,27,118.468,23,-1.24013,0\H,30,1.08108,29,119.892,27,-179.543,0\C,29,1.50739,27,120.304,23,179.968,0\H,32,1.08983,29,109.193,27,150.885,0\H,32,1.09186,29,108.225,27,34.1751,0\H,32,1.1,29,113.614,27,-87.13,0\\\@

 Total job time:  54512.50s(wall), 150553.59s(cpu) 
 Thu Sep 30 01:05:48 2021

        *************************************************************
        *                                                           *
        *  Thank you very much for using Q-Chem.  Have a nice day.  *
        *                                                           *
        *************************************************************


