
Running Job 1 of 1 SSI-080TYR-172GLU-1_SMD_TZVPD.in
qchem SSI-080TYR-172GLU-1_SMD_TZVPD.in_46927.0 /tmp/qchem46927/ 0
/global/common/cori/software/qchem/5.2/exe/qcprog.exe_s SSI-080TYR-172GLU-1_SMD_TZVPD.in_46927.0 /tmp/qchem46927/
                  Welcome to Q-Chem
     A Quantum Leap Into The Future Of Chemistry


 Q-Chem 5.2, Q-Chem, Inc., Pleasanton, CA (2019)

 License issued to: National Energy Research Scientific Computing Center

 Yihan Shao,  Zhengting Gan,  E. Epifanovsky,  A. T. B. Gilbert,  M. Wormit,  
 J. Kussmann,  A. W. Lange,  A. Behn,  Jia Deng,  Xintian Feng,  D. Ghosh,  
 M. Goldey,  P. R. Horn,  L. D. Jacobson,  I. Kaliman,  T. Kus,  A. Landau,  
 Jie Liu,  E. I. Proynov,  R. M. Richard,  R. P. Steele,  E. J. Sundstrom,  
 H. L. Woodcock III,  P. M. Zimmerman,  D. Zuev,  B. Albrecht,  E. Alguire,  
 S. A. Baeppler,  D. Barton,  Z. Benda,  Y. A. Bernard,  E. J. Berquist,  
 K. B. Bravaya,  H. Burton,  D. Casanova,  Chun-Min Chang,  Yunqing Chen,  
 A. Chien,  K. D. Closser,  M. P. Coons,  S. Coriani,  S. Dasgupta,  
 A. L. Dempwolff,  M. Diedenhofen,  Hainam Do,  R. G. Edgar,  Po-Tung Fang,  
 S. Faraji,  S. Fatehi,  Qingguo Feng,  K. D. Fenk,  J. Fosso-Tande,  
 J. Gayvert,  Qinghui Ge,  A. Ghysels,  G. Gidofalvi,  J. Gomes,  
 J. Gonthier,  A. Gunina,  D. Hait,  M. W. D. Hanson-Heine,  
 P. H. P. Harbach,  A. W. Hauser,  M. F. Herbst,  J. E. Herr,  
 E. G. Hohenstein,  Z. C. Holden,  Kerwin Hui,  B. C. Huynh,  T.-C. Jagau,  
 Hyunjun Ji,  B. Kaduk,  K. Khistyaev,  Jaehoon Kim,  P. Klunzinger,  K. Koh,  
 D. Kosenkov,  L. Koulias,  T. Kowalczyk,  C. M. Krauter,  A. Kunitsa,  
 Ka Un Lao,  A. Laurent,  K. V. Lawler,  Joonho Lee,  D. Lefrancois,  
 S. Lehtola,  D. S. Levine,  Yi-Pei Li,  You-Sheng Lin,  Fenglai Liu,  
 E. Livshits,  A. Luenser,  P. Manohar,  E. Mansoor,  S. F. Manzer,  
 Shan-Ping Mao,  Yuezhi Mao,  N. Mardirossian,  A. V. Marenich,  
 T. Markovich,  L. A. Martinez-Martinez,  S. A. Maurer,  N. J. Mayhall,  
 S. C. McKenzie,  J.-M. Mewes,  P. Morgante,  A. F. Morrison,  
 J. W. Mullinax,  K. Nanda,  T. S. Nguyen-Beck,  R. Olivares-Amaya,  
 J. A. Parkhill,  Zheng Pei,  T. M. Perrine,  F. Plasser,  P. Pokhilko,  
 S. Prager,  A. Prociuk,  E. Ramos,  D. R. Rehn,  F. Rob,  M. Scheurer,  
 M. Schneider,  N. Sergueev,  S. M. Sharada,  S. Sharma,  D. W. Small,  
 T. Stauch,  T. Stein,  Yu-Chuan Su,  A. J. W. Thom,  A. Tkatchenko,  
 T. Tsuchimochi,  N. M. Tubman,  L. Vogt,  M. L. Vidal,  O. Vydrov,  
 M. A. Watson,  J. Wenzel,  M. de Wergifosse,  T. A. Wesolowski,  A. White,  
 J. Witte,  A. Yamada,  Jun Yang,  K. Yao,  S. Yeganeh,  S. R. Yost,  
 Zhi-Qiang You,  A. Zech,  Igor Ying Zhang,  Xing Zhang,  Yan Zhao,  
 Ying Zhu,  B. R. Brooks,  G. K. L. Chan,  C. J. Cramer,  M. S. Gordon,  
 W. J. Hehre,  A. Klamt,  M. W. Schmidt,  C. D. Sherrill,  D. G. Truhlar,  
 A. Aspuru-Guzik,  R. Baer,  A. T. Bell,  N. A. Besley,  Jeng-Da Chai,  
 A. E. DePrince, III,  R. A. DiStasio Jr.,  A. Dreuw,  B. D. Dunietz,  
 T. R. Furlani,  Chao-Ping Hsu,  Yousung Jung,  Jing Kong,  D. S. Lambrecht,  
 WanZhen Liang,  C. Ochsenfeld,  V. A. Rassolov,  L. V. Slipchenko,  
 J. E. Subotnik,  T. Van Voorhis,  J. M. Herbert,  A. I. Krylov,  
 P. M. W. Gill,  M. Head-Gordon

 Contributors to earlier versions of Q-Chem not listed above: 
 R. D. Adamson,  B. Austin,  J. Baker,  G. J. O. Beran,  K. Brandhorst,  
 S. T. Brown,  E. F. C. Byrd,  A. K. Chakraborty,  C.-L. Cheng,  
 Siu Hung Chien,  D. M. Chipman,  D. L. Crittenden,  H. Dachsel,  
 R. J. Doerksen,  A. D. Dutoi,  L. Fusti-Molnar,  W. A. Goddard III,  
 A. Golubeva-Zadorozhnaya,  S. R. Gwaltney,  G. Hawkins,  A. Heyden,  
 S. Hirata,  G. Kedziora,  F. J. Keil,  C. Kelley,  Jihan Kim,  R. A. King,  
 R. Z. Khaliullin,  P. P. Korambath,  W. Kurlancheek,  A. M. Lee,  M. S. Lee,  
 S. V. Levchenko,  Ching Yeh Lin,  D. Liotard,  R. C. Lochan,  I. Lotan,  
 P. E. Maslen,  N. Nair,  D. P. O'Neill,  D. Neuhauser,  E. Neuscamman,  
 C. M. Oana,  R. Olson,  B. Peters,  R. Peverati,  P. A. Pieniazek,  
 Y. M. Rhee,  J. Ritchie,  M. A. Rohrdanz,  E. Rosta,  N. J. Russ,  
 H. F. Schaefer III,  N. E. Schultz,  N. Shenvi,  A. C. Simmonett,  A. Sodt,  
 D. Stuck,  K. S. Thanthiriwatte,  V. Vanovschi,  Tao Wang,  A. Warshel,  
 C. F. Williams,  Q. Wu,  X. Xu,  W. Zhang

 Please cite Q-Chem as follows:
 Y. Shao et al., Mol. Phys. 113, 184-215 (2015)
 DOI: 10.1080/00268976.2014.952696

 Q-Chem 5.2.0 for Intel X86 EM64T Linux

 Parts of Q-Chem use Armadillo 8.300.2 (Tropical Shenanigans).
 http://arma.sourceforge.net/

 Q-Chem begins on Sun Sep 26 11:32:50 2021  

Host: cori01
0

     Scratch files written to /tmp/qchem46927//
 May1019 |scratch|qcdevops|jenkins|workspace|build_RNUM -1
Processing $rem in /global/common/cori/software/qchem/5.2/config/preferences:
	 MEM_TOTAL  96000 
NAlpha2: 90
NElect   90
Mult     1
Symmetry turned off for PCM/SM12/SMD calculation

 Q-Chem warning in module libgen/rem_setup.C, line 2803:

 Neither GIA nor STOLL is specified by user. Use STOLL as the default


Checking the input file for inconsistencies... 	...done.

--------------------------------------------------------------
User input:
--------------------------------------------------------------
$comment
SSI-080TYR-172GLU-1.pdb
$end

$molecule
-1 1
--
0 1
C   -3.733143734630    1.262507294943   -2.461573764526
C   -0.511143734630    0.548507294943   -0.599573764526
C   -0.988143734630    0.101507294943    0.632426235474
C   -1.404143734630    0.964507294943   -1.577573764526
C   -2.780143734630    0.939507294943   -1.346573764526
C   -2.363143734630    0.082507294943    0.885426235474
C   -3.253143734630    0.499507294943   -0.106573764526
O   -0.105143734630   -0.326492705057    1.578426235474
H    0.540856265370    0.580507294943   -0.803573764526
H   -1.020143734630    1.305507294943   -2.516573764526
H   -2.737143734630   -0.267492705057    1.833426235474
H   -0.550143734630   -0.541492705057    2.401426235474
H   -4.554143734630    0.544507294943   -2.422573764526
H   -3.211143734630    1.072507294943   -3.399573764526
H   -4.318143734630    0.447507294943    0.073426235474
H   -4.160053734630    2.275427294943   -2.503333764526
--
-1 1
C    4.638856265370   -0.868492705057   -0.144573764526
C    3.351856265370   -0.894492705057    0.668426235474
O    2.415856265370   -0.142492705057    0.342426235474
O    3.294856265370   -1.682492705057    1.642426235474
H    4.740856265370   -1.831492705057   -0.652573764526
H    5.472856265370   -0.762492705057    0.550426235474
H    4.683286265370   -0.058702705057   -0.887713764526
$end

$rem
JOBTYPE			EDA
EDA2			1
method			wB97X-V
BASIS			def2-TZVPD
XC_GRID			000099000590
NL_GRID			1
UNRESTRICTED		FALSE
MAX_SCF_CYCLES		200
SYMMETRY		FALSE
SYM_IGNORE		TRUE
MEM_STATIC		2000
BASIS_LIN_DEP_THRESH 	6
THRESH 			14
SCF_CONVERGENCE 	8
SCF_PRINT_FRGM 		TRUE
SOLVENT_METHOD          SMD
$end

$SMX
SOLVENT			WATER
$END
--------------------------------------------------------------
 ----------------------------------------------------------------
             Standard Nuclear Orientation (Angstroms)
    I     Atom           X                Y                Z
 ----------------------------------------------------------------
    1      C      -3.7331437346     1.2625072949    -2.4615737645
    2      C      -0.5111437346     0.5485072949    -0.5995737645
    3      C      -0.9881437346     0.1015072949     0.6324262355
    4      C      -1.4041437346     0.9645072949    -1.5775737645
    5      C      -2.7801437346     0.9395072949    -1.3465737645
    6      C      -2.3631437346     0.0825072949     0.8854262355
    7      C      -3.2531437346     0.4995072949    -0.1065737645
    8      O      -0.1051437346    -0.3264927051     1.5784262355
    9      H       0.5408562654     0.5805072949    -0.8035737645
   10      H      -1.0201437346     1.3055072949    -2.5165737645
   11      H      -2.7371437346    -0.2674927051     1.8334262355
   12      H      -0.5501437346    -0.5414927051     2.4014262355
   13      H      -4.5541437346     0.5445072949    -2.4225737645
   14      H      -3.2111437346     1.0725072949    -3.3995737645
   15      H      -4.3181437346     0.4475072949     0.0734262355
   16      H      -4.1600537346     2.2754272949    -2.5033337645
   17      C       4.6388562654    -0.8684927051    -0.1445737645
   18      C       3.3518562654    -0.8944927051     0.6684262355
   19      O       2.4158562654    -0.1424927051     0.3424262355
   20      O       3.2948562654    -1.6824927051     1.6424262355
   21      H       4.7408562654    -1.8314927051    -0.6525737645
   22      H       5.4728562654    -0.7624927051     0.5504262355
   23      H       4.6832862654    -0.0587027051    -0.8877137645
 ----------------------------------------------------------------
 Nuclear Repulsion Energy =         633.23273787 hartrees
 There are       45 alpha and       45 beta electrons
 Requested basis set is def2-TZVPD
 There are 214 shells and 552 basis functions

 Total QAlloc Memory Limit  96000 MB
 Mega-Array Size      1956 MB
 MEM_STATIC part      2000 MB
 
 Citation of the SMD model:
 Marenich, A.V.; Cramer, C.J.; Truhlar, D.G.
 J. Phys. Chem. B 2009, 113, 6378-6396.
 iSolventCode=           1
 Solvent: water                                                           
 
 vradii
            1           2           3           4           5           6
    1   1.8500000   1.8500000   1.8500000   1.8500000   1.8500000   1.8500000
            7           8           9          10          11          12
    1   1.8500000   1.5200000   1.2000000   1.2000000   1.2000000   1.2000000
           13          14          15          16          17          18
    1   1.2000000   1.2000000   1.2000000   1.2000000   1.8500000   1.8500000
           19          20          21          22          23
    1   1.5200000   1.5200000   1.2000000   1.2000000   1.2000000
 Changing PCM_VDW_RADII to SMD_RADIUS
 Discretize the solute cavity surface with Lebedev spheres
	Using 110 Lebedev grid points for each H atom
	Using 194 Lebedev grid points for other atoms
	Atomic van der Waals radii will be scaled by 1.20
 Remove points where switching function is < 1.0e-08
 Keep 1818 surface tesserae and discard 1720 interior tesserae
 Molecular Surface Area = 215.327 Angst**2
 A cutoff of  1.0D-14 yielded  19275 shell pairs
 There are    129203 function pairs (    164013 Cartesian)
 Smallest overlap matrix eigenvalue = 5.16E-07
 Linear dependence detected in AO basis
 Tighter screening thresholds may be required for diffuse basis sets
 Use S2THRESH > 14 and THRESH = 14 in case of SCF convergence issues
 Number of orthogonalized atomic orbitals = 551
 Maximum deviation from orthogonality = 2.270E-10

 Scale SEOQF with 1.000000e-02/1.000000e-01/1.000000e-01

 Standard Electronic Orientation quadrupole field applied
 Nucleus-field energy     =    -0.0000000093 hartrees

 -----------------------------------------------------------------------
  General SCF calculation program by
  Eric Jon Sundstrom, Paul Horn, Yuezhi Mao, Dmitri Zuev, Alec White,
  David Stuck, Shaama M.S., Shane Yost, Joonho Lee, David Small,
  Daniel Levine, Susi Lehtola, Hugh Burton, Evgeny Epifanovsky
 -----------------------------------------------------------------------
================================================================
                 ALMO-EDA with the EDA2 driver                  
================================================================
 The second-generation ALMO-EDA (for DFT):                      
 P. R. Horn, Y. Mao and M. Head-Gordon, PCCP, 18, 23067 (2016)  
 Decomposition of the frozen energy:                            
 P. R. Horn, Y. Mao and M. Head-Gordon, JCP, 144, 114107 (2016) 
 FERF model for polarization:                                   
 P. R. Horn and M. Head-Gordon, JCP, 143, 114111 (2015)         
Using eda2 option set 1
Option set summary: Frozen orbital wavefunction, initial wavefunction decomposition, and nDQ polarization.
--------------------------------
Printing EDA Options
--------------------------------
eda_child_super_basis      0
fragmo_guess_mode          0
child_mp                   1
child_mp_orders            232
cls_elec                   1
cls_disp                   0
scfmi_mode                 1
scfmi_occs                 0
scfmi_virts                0
frz_relax                  0
frz_relax_method           0
dc_pen_start               0
dc_pen_conv                0
dc_pen_increment           0
dc_pen_steps               0
dc_pen_thresh_factor       0
dc_pen_pre_newton_thresh   0
frz_ortho_decomp           1
frz_ortho_decomp_conv      6
frgm_method                2
scfmi_freeze_ss            0
separate_rehyb             0
plot_diff_den              0
eda_nocv                   0
eda_vct_relax              1
disp_free_x                0
disp_free_c                0
eda_bsse                   0
eda_pct_a                  0
eda_covp                   0
--------------------------------
Attempting to make child job directory: /tmp/qchem46927//Frg1/
Attempting to make child job directory: /tmp/qchem46927//Frg2/
Creating input file /tmp/qchem46927/Frg1.input
using default PutDataFrgm: nothing
calling putenv with: QCSCRATCH=/tmp/qchem46927/ 
calling putenv with: QCLOCALSCR=/tmp/qchem46927/ 
Spawning Job For Fragment 0
                  Welcome to Q-Chem
     A Quantum Leap Into The Future Of Chemistry


 Q-Chem 5.2, Q-Chem, Inc., Pleasanton, CA (2019)

 License issued to: National Energy Research Scientific Computing Center

 Yihan Shao,  Zhengting Gan,  E. Epifanovsky,  A. T. B. Gilbert,  M. Wormit,  
 J. Kussmann,  A. W. Lange,  A. Behn,  Jia Deng,  Xintian Feng,  D. Ghosh,  
 M. Goldey,  P. R. Horn,  L. D. Jacobson,  I. Kaliman,  T. Kus,  A. Landau,  
 Jie Liu,  E. I. Proynov,  R. M. Richard,  R. P. Steele,  E. J. Sundstrom,  
 H. L. Woodcock III,  P. M. Zimmerman,  D. Zuev,  B. Albrecht,  E. Alguire,  
 S. A. Baeppler,  D. Barton,  Z. Benda,  Y. A. Bernard,  E. J. Berquist,  
 K. B. Bravaya,  H. Burton,  D. Casanova,  Chun-Min Chang,  Yunqing Chen,  
 A. Chien,  K. D. Closser,  M. P. Coons,  S. Coriani,  S. Dasgupta,  
 A. L. Dempwolff,  M. Diedenhofen,  Hainam Do,  R. G. Edgar,  Po-Tung Fang,  
 S. Faraji,  S. Fatehi,  Qingguo Feng,  K. D. Fenk,  J. Fosso-Tande,  
 J. Gayvert,  Qinghui Ge,  A. Ghysels,  G. Gidofalvi,  J. Gomes,  
 J. Gonthier,  A. Gunina,  D. Hait,  M. W. D. Hanson-Heine,  
 P. H. P. Harbach,  A. W. Hauser,  M. F. Herbst,  J. E. Herr,  
 E. G. Hohenstein,  Z. C. Holden,  Kerwin Hui,  B. C. Huynh,  T.-C. Jagau,  
 Hyunjun Ji,  B. Kaduk,  K. Khistyaev,  Jaehoon Kim,  P. Klunzinger,  K. Koh,  
 D. Kosenkov,  L. Koulias,  T. Kowalczyk,  C. M. Krauter,  A. Kunitsa,  
 Ka Un Lao,  A. Laurent,  K. V. Lawler,  Joonho Lee,  D. Lefrancois,  
 S. Lehtola,  D. S. Levine,  Yi-Pei Li,  You-Sheng Lin,  Fenglai Liu,  
 E. Livshits,  A. Luenser,  P. Manohar,  E. Mansoor,  S. F. Manzer,  
 Shan-Ping Mao,  Yuezhi Mao,  N. Mardirossian,  A. V. Marenich,  
 T. Markovich,  L. A. Martinez-Martinez,  S. A. Maurer,  N. J. Mayhall,  
 S. C. McKenzie,  J.-M. Mewes,  P. Morgante,  A. F. Morrison,  
 J. W. Mullinax,  K. Nanda,  T. S. Nguyen-Beck,  R. Olivares-Amaya,  
 J. A. Parkhill,  Zheng Pei,  T. M. Perrine,  F. Plasser,  P. Pokhilko,  
 S. Prager,  A. Prociuk,  E. Ramos,  D. R. Rehn,  F. Rob,  M. Scheurer,  
 M. Schneider,  N. Sergueev,  S. M. Sharada,  S. Sharma,  D. W. Small,  
 T. Stauch,  T. Stein,  Yu-Chuan Su,  A. J. W. Thom,  A. Tkatchenko,  
 T. Tsuchimochi,  N. M. Tubman,  L. Vogt,  M. L. Vidal,  O. Vydrov,  
 M. A. Watson,  J. Wenzel,  M. de Wergifosse,  T. A. Wesolowski,  A. White,  
 J. Witte,  A. Yamada,  Jun Yang,  K. Yao,  S. Yeganeh,  S. R. Yost,  
 Zhi-Qiang You,  A. Zech,  Igor Ying Zhang,  Xing Zhang,  Yan Zhao,  
 Ying Zhu,  B. R. Brooks,  G. K. L. Chan,  C. J. Cramer,  M. S. Gordon,  
 W. J. Hehre,  A. Klamt,  M. W. Schmidt,  C. D. Sherrill,  D. G. Truhlar,  
 A. Aspuru-Guzik,  R. Baer,  A. T. Bell,  N. A. Besley,  Jeng-Da Chai,  
 A. E. DePrince, III,  R. A. DiStasio Jr.,  A. Dreuw,  B. D. Dunietz,  
 T. R. Furlani,  Chao-Ping Hsu,  Yousung Jung,  Jing Kong,  D. S. Lambrecht,  
 WanZhen Liang,  C. Ochsenfeld,  V. A. Rassolov,  L. V. Slipchenko,  
 J. E. Subotnik,  T. Van Voorhis,  J. M. Herbert,  A. I. Krylov,  
 P. M. W. Gill,  M. Head-Gordon

 Contributors to earlier versions of Q-Chem not listed above: 
 R. D. Adamson,  B. Austin,  J. Baker,  G. J. O. Beran,  K. Brandhorst,  
 S. T. Brown,  E. F. C. Byrd,  A. K. Chakraborty,  C.-L. Cheng,  
 Siu Hung Chien,  D. M. Chipman,  D. L. Crittenden,  H. Dachsel,  
 R. J. Doerksen,  A. D. Dutoi,  L. Fusti-Molnar,  W. A. Goddard III,  
 A. Golubeva-Zadorozhnaya,  S. R. Gwaltney,  G. Hawkins,  A. Heyden,  
 S. Hirata,  G. Kedziora,  F. J. Keil,  C. Kelley,  Jihan Kim,  R. A. King,  
 R. Z. Khaliullin,  P. P. Korambath,  W. Kurlancheek,  A. M. Lee,  M. S. Lee,  
 S. V. Levchenko,  Ching Yeh Lin,  D. Liotard,  R. C. Lochan,  I. Lotan,  
 P. E. Maslen,  N. Nair,  D. P. O'Neill,  D. Neuhauser,  E. Neuscamman,  
 C. M. Oana,  R. Olson,  B. Peters,  R. Peverati,  P. A. Pieniazek,  
 Y. M. Rhee,  J. Ritchie,  M. A. Rohrdanz,  E. Rosta,  N. J. Russ,  
 H. F. Schaefer III,  N. E. Schultz,  N. Shenvi,  A. C. Simmonett,  A. Sodt,  
 D. Stuck,  K. S. Thanthiriwatte,  V. Vanovschi,  Tao Wang,  A. Warshel,  
 C. F. Williams,  Q. Wu,  X. Xu,  W. Zhang

 Please cite Q-Chem as follows:
 Y. Shao et al., Mol. Phys. 113, 184-215 (2015)
 DOI: 10.1080/00268976.2014.952696

 Q-Chem 5.2.0 for Intel X86 EM64T Linux

 Parts of Q-Chem use Armadillo 8.300.2 (Tropical Shenanigans).
 http://arma.sourceforge.net/

 Q-Chem begins on Sun Sep 26 11:32:55 2021  

Host: cori01
0

     Scratch files written to /tmp/qchem46927//Frg1//
 May1019 |scratch|qcdevops|jenkins|workspace|build_RNUM -1
Processing $rem in /global/common/cori/software/qchem/5.2/config/preferences:
	 MEM_TOTAL  96000 
NAlpha2: 58
NElect   58
Mult     1
Symmetry turned off for PCM/SM12/SMD calculation

Checking the input file for inconsistencies... 	...done.

--------------------------------------------------------------
User input:
--------------------------------------------------------------
$molecule
0 1
 6	-3.7331437346	1.2625072949	-2.4615737645
 6	-0.5111437346	0.5485072949	-0.5995737645
 6	-0.9881437346	0.1015072949	0.6324262355
 6	-1.4041437346	0.9645072949	-1.5775737645
 6	-2.7801437346	0.9395072949	-1.3465737645
 6	-2.3631437346	0.0825072949	0.8854262355
 6	-3.2531437346	0.4995072949	-0.1065737645
 8	-0.1051437346	-0.3264927051	1.5784262355
 1	0.5408562654	0.5805072949	-0.8035737645
 1	-1.0201437346	1.3055072949	-2.5165737645
 1	-2.7371437346	-0.2674927051	1.8334262355
 1	-0.5501437346	-0.5414927051	2.4014262355
 1	-4.5541437346	0.5445072949	-2.4225737645
 1	-3.2111437346	1.0725072949	-3.3995737645
 1	-4.3181437346	0.4475072949	0.0734262355
 1	-4.1600537346	2.2754272949	-2.5033337645
$end
$rem
EDA2		1
METHOD		WB97X-V
BASIS		DEF2-TZVPD
XC_GRID		000099000590
NL_GRID		1
UNRESTRICTED		FALSE
MAX_SCF_CYCLES		200
SYMMETRY		FALSE
SYM_IGNORE		TRUE
BASIS_LIN_DEP_THRESH		6
THRESH		14
SCF_CONVERGENCE		8
SCF_PRINT_FRGM		TRUE
SOLVENT_METHOD		SMD
!required keywords
JOBTYPE		SP
SYM_IGNORE		TRUE
SUBSYSTEM		TRUE
GEN_SCFMAN		TRUE
CHILD_INSTRUCTION		2
SYM_IGNORE		TRUE
SCFMI		0
RI_K 0		
PARI_K 0		
MIN_PARI_K 0		
IARI_K 0		
OCC_RI_K 0		
PURECART		1111
MEM_STATIC		2000
MEM_TOTAL		96000
GUI		0
CHILD_MP		1
CHILD_MP_ORDERS		232
FRZ_RELAX		0
FRZ_RELAX_METHOD		0
EDA_CLS_ELEC		1
EDA_CLS_DISP		0
FRZ_ORTHO_DECOMP		1
EDA2		FALSE
FRGM_METHOD		FALSE
CIS_N_ROOTS  0
LOCAL_CIS    0
CIS_RLX_DNS  1
$end
$smx
SOLVENT			WATER
$end
--------------------------------------------------------------
 ----------------------------------------------------------------
             Standard Nuclear Orientation (Angstroms)
    I     Atom           X                Y                Z
 ----------------------------------------------------------------
    1      C      -3.7331437346     1.2625072949    -2.4615737645
    2      C      -0.5111437346     0.5485072949    -0.5995737645
    3      C      -0.9881437346     0.1015072949     0.6324262355
    4      C      -1.4041437346     0.9645072949    -1.5775737645
    5      C      -2.7801437346     0.9395072949    -1.3465737645
    6      C      -2.3631437346     0.0825072949     0.8854262355
    7      C      -3.2531437346     0.4995072949    -0.1065737645
    8      O      -0.1051437346    -0.3264927051     1.5784262355
    9      H       0.5408562654     0.5805072949    -0.8035737645
   10      H      -1.0201437346     1.3055072949    -2.5165737645
   11      H      -2.7371437346    -0.2674927051     1.8334262355
   12      H      -0.5501437346    -0.5414927051     2.4014262355
   13      H      -4.5541437346     0.5445072949    -2.4225737645
   14      H      -3.2111437346     1.0725072949    -3.3995737645
   15      H      -4.3181437346     0.4475072949     0.0734262355
   16      H      -4.1600537346     2.2754272949    -2.5033337645
 ----------------------------------------------------------------
 Nuclear Repulsion Energy =         343.06469387 hartrees
 There are       29 alpha and       29 beta electrons
 Requested basis set is def2-TZVPD
 There are 145 shells and 371 basis functions

 Total QAlloc Memory Limit  96000 MB
 Mega-Array Size      1956 MB
 MEM_STATIC part      2000 MB
 
 Citation of the SMD model:
 Marenich, A.V.; Cramer, C.J.; Truhlar, D.G.
 J. Phys. Chem. B 2009, 113, 6378-6396.
 iSolventCode=           1
 Solvent: water                                                           
 
 vradii
            1           2           3           4           5           6
    1   1.8500000   1.8500000   1.8500000   1.8500000   1.8500000   1.8500000
            7           8           9          10          11          12
    1   1.8500000   1.5200000   1.2000000   1.2000000   1.2000000   1.2000000
           13          14          15          16
    1   1.2000000   1.2000000   1.2000000   1.2000000
 Changing PCM_VDW_RADII to SMD_RADIUS
 Discretize the solute cavity surface with Lebedev spheres
	Using 110 Lebedev grid points for each H atom
	Using 194 Lebedev grid points for other atoms
	Atomic van der Waals radii will be scaled by 1.20
 Remove points where switching function is < 1.0e-08
 Keep 1183 surface tesserae and discard 1249 interior tesserae
 Molecular Surface Area = 141.453 Angst**2
 A cutoff of  1.0D-14 yielded  10048 shell pairs
 There are     67118 function pairs (     85817 Cartesian)
 Smallest overlap matrix eigenvalue = 5.64E-07
 Linear dependence detected in AO basis
 Tighter screening thresholds may be required for diffuse basis sets
 Use S2THRESH > 14 and THRESH = 14 in case of SCF convergence issues
 Number of orthogonalized atomic orbitals = 370
 Maximum deviation from orthogonality = 1.491E-10

 Scale SEOQF with 1.000000e-01/1.000000e-01/1.000000e-01

 Standard Electronic Orientation quadrupole field applied
 Nucleus-field energy     =    -0.0000000001 hartrees
 Guess from superposition of atomic densities
 Warning:  Energy on first SCF cycle will be non-variational
 SAD guess density has 57.738434 electrons

 -----------------------------------------------------------------------
  General SCF calculation program by
  Eric Jon Sundstrom, Paul Horn, Yuezhi Mao, Dmitri Zuev, Alec White,
  David Stuck, Shaama M.S., Shane Yost, Joonho Lee, David Small,
  Daniel Levine, Susi Lehtola, Hugh Burton, Evgeny Epifanovsky
 -----------------------------------------------------------------------
 Exchange:     0.1670 Hartree-Fock + 1.0000 wB97X-V + LR-HF
 Correlation:  1.0000 wB97X-V
 Using Euler-Maclaurin-Lebedev (99,590) quadrature formula
 Nonlocal Correlation:  VV10 with C = 0.0100 and b = 6.00 and scale = 1.00000
 Grid used for NLC:  SG-1 standard quadrature
Energy prior to optimization (guess energy) = -346.495872682004
Begin Timing: Total SCF Calculation
begin iterations for algorithm: DIIS         
the SCF tolerance is set to 1.00e-08
    1    -346.4958726820      5.17e-03     00000 
    2    -346.4385335254      5.57e-03     00000 
    3    -346.8188623651      5.31e-04     00000 
    4    -346.8237406257      1.73e-04     00000 
    5    -346.8244294425      3.67e-05     00000 
    6    -346.8244789207      1.26e-05     00000 
    7    -346.8244833723      4.64e-06     00000 
    8    -346.8244840147      1.39e-06     00000 
    9    -346.8244840929      4.20e-07     00000 
   10    -346.8244841024      2.36e-07     00000 
   11    -346.8244841050      6.37e-08     00000 
   12    -346.8244841055      3.11e-08     00000 
   13    -346.8244841056      1.31e-08     00000 
   14    -346.8244841056      3.49e-09     00000 Convergence criterion met
Timing for Total SCF: 2062.00s (wall), 4104.00s (cpu)
(3)  G-ENP(liq) elect-nuc-pol free energy of system     -346.824484106 a.u.
(4)  G-CDS(liq) cavity-dispersion-solvent structure 
     free energy                                                3.7825 kcal/mol
(6)  G-S(liq) free energy of system                     -346.818456355 a.u.
E_pcm = -0.0173161516
E_cds = 0.0060277504
Multipole orders to be included
        2
        3
computing dipole RHS
computing quadrupole RHS
total number of RHS in solve_reponses: 8
RHS batch sizes
        8
Beginning Block Conjugate Gradient Iterations. Batch Number: 0
computing hessian-vector products by finite difference
              1      6.63e-01     00000 Conjugate Gradient Iteration
computing hessian-vector products by finite difference
              2      2.02e-01     00000 Conjugate Gradient Iteration
computing hessian-vector products by finite difference
              3      5.24e-02     00000 Conjugate Gradient Iteration
computing hessian-vector products by finite difference
              4      1.69e-02     00000 Conjugate Gradient Iteration
computing hessian-vector products by finite difference
              5      4.56e-03     00000 Conjugate Gradient Iteration
computing hessian-vector products by finite difference
              6      1.58e-03     00000 Conjugate Gradient Iteration
computing hessian-vector products by finite difference
              7      3.84e-04     00000 Conjugate Gradient Iteration
computing hessian-vector products by finite difference
              8      6.75e-05     00000 Conjugate Gradient Iteration
computing hessian-vector products by finite difference
              9      1.22e-05     00000 Conjugate Gradient Iteration
computing hessian-vector products by finite difference
             10      1.95e-06     00000 Conjugate Gradient Iteration
computing hessian-vector products by finite difference
             11      2.99e-07     00000 Conjugate Gradient Iteration
computing hessian-vector products by finite difference
             12      4.19e-08     00000 Conjugate Gradient Iteration
computing hessian-vector products by finite difference
             13      1.13e-08     00000 Conjugate Gradient Iteration
computing hessian-vector products by finite difference
             14      5.35e-09     00000 CG Converged
batch 0 complete
Done Calculating Responses
TESTING ORTHOGONALIZATION OF MULTIPOLE BASIS
Multipole virts passed orthogonality test
Virts Per Order
           87
          145
 
 --------------------------------------------------------------
 
                    Orbital Energies (a.u.)
 --------------------------------------------------------------
 
 Alpha MOs
 -- Occupied --
-19.2401 -10.3322 -10.2713 -10.2693 -10.2670 -10.2667 -10.2646 -10.2519
 -1.1909  -0.9903  -0.8959  -0.8796  -0.8036  -0.7424  -0.7093  -0.6603
 -0.5979  -0.5748  -0.5447  -0.5369  -0.5285  -0.5145  -0.5061  -0.4693
 -0.4501  -0.4393  -0.4350  -0.3496  -0.3089
 -- Virtual --
  0.0636   0.0640   0.0743   0.0809   0.0889   0.0997   0.1141   0.1159
  0.1181   0.1366   0.1510   0.1546   0.1641   0.1767   0.1794   0.1981
  0.2096   0.2116   0.2172   0.2290   0.2418   0.2471   0.2570   0.2611
  0.2670   0.2756   0.2793   0.2806   0.2858   0.2994   0.3012   0.3084
  0.3093   0.3120   0.3178   0.3317   0.3383   0.3454   0.3494   0.3538
  0.3574   0.3635   0.3658   0.3785   0.3836   0.3839   0.3883   0.3951
  0.4005   0.4042   0.4057   0.4114   0.4169   0.4258   0.4298   0.4387
  0.4448   0.4489   0.4615   0.4648   0.4768   0.4774   0.4820   0.4849
  0.4908   0.4990   0.5074   0.5089   0.5195   0.5207   0.5314   0.5407
  0.5473   0.5528   0.5546   0.5619   0.5673   0.5746   0.5867   0.5944
  0.6072   0.6148   0.6232   0.6373   0.6451   0.6589   0.6728   0.6747
  0.6820   0.6847   0.6911   0.6975   0.7039   0.7056   0.7257   0.7325
  0.7399   0.7471   0.7496   0.7545   0.7637   0.7769   0.7854   0.7861
  0.7942   0.7945   0.8018   0.8071   0.8105   0.8263   0.8340   0.8367
  0.8409   0.8497   0.8567   0.8613   0.8722   0.8818   0.8849   0.8974
  0.9105   0.9108   0.9211   0.9498   0.9622   0.9808   0.9954   1.0221
  1.0226   1.0391   1.0456   1.0497   1.0621   1.0752   1.0805   1.0924
  1.1032   1.1220   1.1324   1.1728   1.2028   1.2464   1.2789   1.2932
  1.3087   1.3182   1.3439   1.3577   1.3766   1.3882   1.3914   1.4386
  1.4558   1.4685   1.4816   1.4894   1.5377   1.5679   1.6088   1.6256
  1.6340   1.6437   1.6833   1.7008   1.7145   1.7308   1.7946   1.8086
  1.8209   1.8299   1.8414   1.8712   1.8830   1.8878   1.9217   1.9242
  1.9437   1.9550   1.9753   1.9928   2.0025   2.0310   2.0426   2.0562
  2.0631   2.0799   2.1025   2.1095   2.1287   2.1631   2.2025   2.2104
  2.2202   2.2437   2.2787   2.2906   2.3080   2.3219   2.3536   2.3723
  2.3982   2.4039   2.4286   2.4756   2.4889   2.5012   2.5308   2.5542
  2.5829   2.6013   2.6355   2.6488   2.6528   2.6865   2.7001   2.7510
  2.7528   2.7692   2.7836   2.7978   2.8191   2.8415   2.8674   2.8780
  2.8999   2.9176   2.9419   2.9583   2.9668   2.9780   2.9834   3.0026
  3.0197   3.0504   3.0720   3.0837   3.0978   3.1192   3.1522   3.1758
  3.2030   3.2130   3.2166   3.2312   3.2572   3.2659   3.2877   3.2992
  3.3352   3.3467   3.3793   3.3926   3.3987   3.4223   3.4521   3.4655
  3.4687   3.4742   3.4963   3.5194   3.5234   3.5299   3.5450   3.5471
  3.5568   3.5774   3.5891   3.5976   3.6036   3.6376   3.6469   3.6713
  3.6979   3.7014   3.7402   3.7587   3.8088   3.8251   3.8536   3.8812
  3.9294   3.9559   3.9786   4.0161   4.0518   4.0883   4.1340   4.1587
  4.2565   4.2743   4.2984   4.3132   4.3288   4.3390   4.3477   4.3679
  4.3807   4.3922   4.4451   4.4563   4.4977   4.5392   4.5856   4.6287
  4.7209   4.7426   4.7908   4.8310   4.8806   4.9220   5.0351   5.0678
  5.0928   5.1366   5.1520   5.3073   5.3301   5.4013   5.4497   5.5387
  5.6162   5.6530   5.7117   5.7773   5.9485   6.2167   6.4842   6.5960
  6.6428   6.8752   7.0135   7.3040   7.4611  22.6609  22.6912  22.9370
 22.9964  23.0426  23.1736  23.5017  44.4177
 --------------------------------------------------------------
 
          Ground-State Mulliken Net Atomic Charges

     Atom                 Charge (a.u.)
  ----------------------------------------
      1 C                    -1.073087
      2 C                    -0.818359
      3 C                     0.658240
      4 C                    -0.495319
      5 C                     0.562773
      6 C                    -0.397992
      7 C                    -0.633921
      8 O                    -0.535344
      9 H                     0.405412
     10 H                     0.394434
     11 H                     0.373590
     12 H                     0.326892
     13 H                     0.286433
     14 H                     0.297859
     15 H                     0.396869
     16 H                     0.251520
  ----------------------------------------
  Sum of atomic charges =     0.000000

 -----------------------------------------------------------------
                    Cartesian Multipole Moments
 -----------------------------------------------------------------
    Charge (ESU x 10^10)
                 0.0000
    Dipole Moment (Debye)
         X      -1.8222      Y      -0.2237      Z       0.7612
       Tot       1.9874
    Quadrupole Moments (Debye-Ang)
        XX     -41.1496     XY       0.6968     YY     -50.5475
        XZ      -3.1616     YZ      -4.2113     ZZ     -38.1529
    Octopole Moments (Debye-Ang^2)
       XXX     247.7597    XXY     -22.9108    XYY      97.4322
       YYY     -79.3227    XXZ      20.3948    XYZ       7.2297
       YYZ      19.3150    XZZ      78.2634    YZZ     -25.7855
       ZZZ      76.4108
    Hexadecapole Moments (Debye-Ang^3)
      XXXX   -1510.8445   XXXY     194.2014   XXYY    -321.4407
      XYYY     210.2671   YYYY    -229.5947   XXXZ    -256.7741
      XXYZ      27.8969   XYYZ     -81.5341   YYYZ     136.1571
      XXZZ    -365.1171   XYZZ      67.5095   YYZZ    -142.5421
      XZZZ    -280.2240   YZZZ     108.0047   ZZZZ    -587.1823
 -----------------------------------------------------------------
Archival summary:
1\1\nid00570\SP\ProcedureUnspecified\BasisUnspecified\178\meili\SunSep2621:46:542021SunSep2621:46:542021\0\\#,ProcedureUnspecified,BasisUnspecified,\\0,1\C\O,1,1.36301\H,2,0.959989,1,111.41\C,1,1.39469,2,119.483,3,175.522,0\H,4,1.07207,1,120.881,2,-1.39057,0\C,4,1.38816,1,119.893,2,178.887,0\H,6,1.07026,4,118.868,1,179.926,0\C,6,1.39548,4,120.819,1,-0.136632,0\C,8,1.39819,6,119.079,4,0.583596,0\H,9,1.08136,8,119.732,6,-178.16,0\C,9,1.39644,8,120.555,6,-0.396878,0\H,11,1.07753,9,120.051,8,-179.181,0\C,8,1.50192,6,119.929,4,-173.9,0\H,13,1.09015,8,107.305,6,23.3128,0\H,13,1.09137,8,108.018,6,137.245,0\H,13,1.1,8,118.195,6,-99.3561,0\\\@

 Total job time:  36842.13s(wall), 73198.60s(cpu) 
 Sun Sep 26 21:46:57 2021

        *************************************************************
        *                                                           *
        *  Thank you very much for using Q-Chem.  Have a nice day.  *
        *                                                           *
        *************************************************************


Done Job For Fragment 0
calling putenv with: QCSCRATCH=/global/cscratch1/sd/meili 
calling putenv with: QCLOCALSCR=/tmp 
calling putenv with: QCTHREADS=32 
Creating input file /tmp/qchem46927/Frg2.input
using default PutDataFrgm: nothing
calling putenv with: QCSCRATCH=/tmp/qchem46927/ 
calling putenv with: QCLOCALSCR=/tmp/qchem46927/ 
Spawning Job For Fragment 1
                  Welcome to Q-Chem
     A Quantum Leap Into The Future Of Chemistry


 Q-Chem 5.2, Q-Chem, Inc., Pleasanton, CA (2019)

 License issued to: National Energy Research Scientific Computing Center

 Yihan Shao,  Zhengting Gan,  E. Epifanovsky,  A. T. B. Gilbert,  M. Wormit,  
 J. Kussmann,  A. W. Lange,  A. Behn,  Jia Deng,  Xintian Feng,  D. Ghosh,  
 M. Goldey,  P. R. Horn,  L. D. Jacobson,  I. Kaliman,  T. Kus,  A. Landau,  
 Jie Liu,  E. I. Proynov,  R. M. Richard,  R. P. Steele,  E. J. Sundstrom,  
 H. L. Woodcock III,  P. M. Zimmerman,  D. Zuev,  B. Albrecht,  E. Alguire,  
 S. A. Baeppler,  D. Barton,  Z. Benda,  Y. A. Bernard,  E. J. Berquist,  
 K. B. Bravaya,  H. Burton,  D. Casanova,  Chun-Min Chang,  Yunqing Chen,  
 A. Chien,  K. D. Closser,  M. P. Coons,  S. Coriani,  S. Dasgupta,  
 A. L. Dempwolff,  M. Diedenhofen,  Hainam Do,  R. G. Edgar,  Po-Tung Fang,  
 S. Faraji,  S. Fatehi,  Qingguo Feng,  K. D. Fenk,  J. Fosso-Tande,  
 J. Gayvert,  Qinghui Ge,  A. Ghysels,  G. Gidofalvi,  J. Gomes,  
 J. Gonthier,  A. Gunina,  D. Hait,  M. W. D. Hanson-Heine,  
 P. H. P. Harbach,  A. W. Hauser,  M. F. Herbst,  J. E. Herr,  
 E. G. Hohenstein,  Z. C. Holden,  Kerwin Hui,  B. C. Huynh,  T.-C. Jagau,  
 Hyunjun Ji,  B. Kaduk,  K. Khistyaev,  Jaehoon Kim,  P. Klunzinger,  K. Koh,  
 D. Kosenkov,  L. Koulias,  T. Kowalczyk,  C. M. Krauter,  A. Kunitsa,  
 Ka Un Lao,  A. Laurent,  K. V. Lawler,  Joonho Lee,  D. Lefrancois,  
 S. Lehtola,  D. S. Levine,  Yi-Pei Li,  You-Sheng Lin,  Fenglai Liu,  
 E. Livshits,  A. Luenser,  P. Manohar,  E. Mansoor,  S. F. Manzer,  
 Shan-Ping Mao,  Yuezhi Mao,  N. Mardirossian,  A. V. Marenich,  
 T. Markovich,  L. A. Martinez-Martinez,  S. A. Maurer,  N. J. Mayhall,  
 S. C. McKenzie,  J.-M. Mewes,  P. Morgante,  A. F. Morrison,  
 J. W. Mullinax,  K. Nanda,  T. S. Nguyen-Beck,  R. Olivares-Amaya,  
 J. A. Parkhill,  Zheng Pei,  T. M. Perrine,  F. Plasser,  P. Pokhilko,  
 S. Prager,  A. Prociuk,  E. Ramos,  D. R. Rehn,  F. Rob,  M. Scheurer,  
 M. Schneider,  N. Sergueev,  S. M. Sharada,  S. Sharma,  D. W. Small,  
 T. Stauch,  T. Stein,  Yu-Chuan Su,  A. J. W. Thom,  A. Tkatchenko,  
 T. Tsuchimochi,  N. M. Tubman,  L. Vogt,  M. L. Vidal,  O. Vydrov,  
 M. A. Watson,  J. Wenzel,  M. de Wergifosse,  T. A. Wesolowski,  A. White,  
 J. Witte,  A. Yamada,  Jun Yang,  K. Yao,  S. Yeganeh,  S. R. Yost,  
 Zhi-Qiang You,  A. Zech,  Igor Ying Zhang,  Xing Zhang,  Yan Zhao,  
 Ying Zhu,  B. R. Brooks,  G. K. L. Chan,  C. J. Cramer,  M. S. Gordon,  
 W. J. Hehre,  A. Klamt,  M. W. Schmidt,  C. D. Sherrill,  D. G. Truhlar,  
 A. Aspuru-Guzik,  R. Baer,  A. T. Bell,  N. A. Besley,  Jeng-Da Chai,  
 A. E. DePrince, III,  R. A. DiStasio Jr.,  A. Dreuw,  B. D. Dunietz,  
 T. R. Furlani,  Chao-Ping Hsu,  Yousung Jung,  Jing Kong,  D. S. Lambrecht,  
 WanZhen Liang,  C. Ochsenfeld,  V. A. Rassolov,  L. V. Slipchenko,  
 J. E. Subotnik,  T. Van Voorhis,  J. M. Herbert,  A. I. Krylov,  
 P. M. W. Gill,  M. Head-Gordon

 Contributors to earlier versions of Q-Chem not listed above: 
 R. D. Adamson,  B. Austin,  J. Baker,  G. J. O. Beran,  K. Brandhorst,  
 S. T. Brown,  E. F. C. Byrd,  A. K. Chakraborty,  C.-L. Cheng,  
 Siu Hung Chien,  D. M. Chipman,  D. L. Crittenden,  H. Dachsel,  
 R. J. Doerksen,  A. D. Dutoi,  L. Fusti-Molnar,  W. A. Goddard III,  
 A. Golubeva-Zadorozhnaya,  S. R. Gwaltney,  G. Hawkins,  A. Heyden,  
 S. Hirata,  G. Kedziora,  F. J. Keil,  C. Kelley,  Jihan Kim,  R. A. King,  
 R. Z. Khaliullin,  P. P. Korambath,  W. Kurlancheek,  A. M. Lee,  M. S. Lee,  
 S. V. Levchenko,  Ching Yeh Lin,  D. Liotard,  R. C. Lochan,  I. Lotan,  
 P. E. Maslen,  N. Nair,  D. P. O'Neill,  D. Neuhauser,  E. Neuscamman,  
 C. M. Oana,  R. Olson,  B. Peters,  R. Peverati,  P. A. Pieniazek,  
 Y. M. Rhee,  J. Ritchie,  M. A. Rohrdanz,  E. Rosta,  N. J. Russ,  
 H. F. Schaefer III,  N. E. Schultz,  N. Shenvi,  A. C. Simmonett,  A. Sodt,  
 D. Stuck,  K. S. Thanthiriwatte,  V. Vanovschi,  Tao Wang,  A. Warshel,  
 C. F. Williams,  Q. Wu,  X. Xu,  W. Zhang

 Please cite Q-Chem as follows:
 Y. Shao et al., Mol. Phys. 113, 184-215 (2015)
 DOI: 10.1080/00268976.2014.952696

 Q-Chem 5.2.0 for Intel X86 EM64T Linux

 Parts of Q-Chem use Armadillo 8.300.2 (Tropical Shenanigans).
 http://arma.sourceforge.net/

 Q-Chem begins on Sun Sep 26 21:47:01 2021  

Host: cori01
0

     Scratch files written to /tmp/qchem46927//Frg2//
 May1019 |scratch|qcdevops|jenkins|workspace|build_RNUM -1
Processing $rem in /global/common/cori/software/qchem/5.2/config/preferences:
	 MEM_TOTAL  96000 
NAlpha2: 32
NElect   32
Mult     1
Symmetry turned off for PCM/SM12/SMD calculation

Checking the input file for inconsistencies... 	...done.

--------------------------------------------------------------
User input:
--------------------------------------------------------------
$molecule
-1 1
 6	4.6388562654	-0.8684927051	-0.1445737645
 6	3.3518562654	-0.8944927051	0.6684262355
 8	2.4158562654	-0.1424927051	0.3424262355
 8	3.2948562654	-1.6824927051	1.6424262355
 1	4.7408562654	-1.8314927051	-0.6525737645
 1	5.4728562654	-0.7624927051	0.5504262355
 1	4.6832862654	-0.0587027051	-0.8877137645
$end
$rem
EDA2		1
METHOD		WB97X-V
BASIS		DEF2-TZVPD
XC_GRID		000099000590
NL_GRID		1
UNRESTRICTED		FALSE
MAX_SCF_CYCLES		200
SYMMETRY		FALSE
SYM_IGNORE		TRUE
BASIS_LIN_DEP_THRESH		6
THRESH		14
SCF_CONVERGENCE		8
SCF_PRINT_FRGM		TRUE
SOLVENT_METHOD		SMD
!required keywords
JOBTYPE		SP
SYM_IGNORE		TRUE
SUBSYSTEM		TRUE
GEN_SCFMAN		TRUE
CHILD_INSTRUCTION		2
SYM_IGNORE		TRUE
SCFMI		0
RI_K 0		
PARI_K 0		
MIN_PARI_K 0		
IARI_K 0		
OCC_RI_K 0		
PURECART		1111
MEM_STATIC		2000
MEM_TOTAL		96000
GUI		0
CHILD_MP		1
CHILD_MP_ORDERS		232
FRZ_RELAX		0
FRZ_RELAX_METHOD		0
EDA_CLS_ELEC		1
EDA_CLS_DISP		0
FRZ_ORTHO_DECOMP		1
EDA2		FALSE
FRGM_METHOD		FALSE
CIS_N_ROOTS  0
LOCAL_CIS    0
CIS_RLX_DNS  1
$end
$smx
SOLVENT			WATER
$end
--------------------------------------------------------------
 ----------------------------------------------------------------
             Standard Nuclear Orientation (Angstroms)
    I     Atom           X                Y                Z
 ----------------------------------------------------------------
    1      C       4.6388562654    -0.8684927051    -0.1445737645
    2      C       3.3518562654    -0.8944927051     0.6684262355
    3      O       2.4158562654    -0.1424927051     0.3424262355
    4      O       3.2948562654    -1.6824927051     1.6424262355
    5      H       4.7408562654    -1.8314927051    -0.6525737645
    6      H       5.4728562654    -0.7624927051     0.5504262355
    7      H       4.6832862654    -0.0587027051    -0.8877137645
 ----------------------------------------------------------------
 Nuclear Repulsion Energy =         112.74963621 hartrees
 There are       16 alpha and       16 beta electrons
 Requested basis set is def2-TZVPD
 There are 69 shells and 181 basis functions

 Total QAlloc Memory Limit  96000 MB
 Mega-Array Size      1956 MB
 MEM_STATIC part      2000 MB
 
 Citation of the SMD model:
 Marenich, A.V.; Cramer, C.J.; Truhlar, D.G.
 J. Phys. Chem. B 2009, 113, 6378-6396.
 iSolventCode=           1
 Solvent: water                                                           
 
 vradii
            1           2           3           4           5           6
    1   1.8500000   1.8500000   1.5200000   1.5200000   1.2000000   1.2000000
            7
    1   1.2000000
 Changing PCM_VDW_RADII to SMD_RADIUS
 Discretize the solute cavity surface with Lebedev spheres
	Using 110 Lebedev grid points for each H atom
	Using 194 Lebedev grid points for other atoms
	Atomic van der Waals radii will be scaled by 1.20
 Remove points where switching function is < 1.0e-08
 Keep 645 surface tesserae and discard 461 interior tesserae
 Molecular Surface Area = 79.998 Angst**2

                       Distance Matrix (Angstroms)
             C (  1)   C (  2)   O (  3)   O (  4)   H (  5)   H (  6)
   C (  2)  1.522503
   O (  3)  2.388718  1.244137
   O (  4)  2.379559  1.254141  2.198691
   H (  5)  1.093543  2.133619  3.041113  2.716642
   H (  6)  1.090787  2.128377  3.126166  2.604333  1.767992
   H (  7)  1.099996  2.211973  2.580989  3.311501  1.789243  1.785214

 
 A cutoff of  1.0D-14 yielded   2391 shell pairs
 There are     16695 function pairs (     21491 Cartesian)
 Smallest overlap matrix eigenvalue = 1.66E-05

 Scale SEOQF with 1.000000e-02/1.000000e-01/1.000000e-01

 Standard Electronic Orientation quadrupole field applied
 Nucleus-field energy     =     0.0000000011 hartrees
 Guess from superposition of atomic densities
 Warning:  Energy on first SCF cycle will be non-variational
 SAD guess density has 30.625312 electrons

 -----------------------------------------------------------------------
  General SCF calculation program by
  Eric Jon Sundstrom, Paul Horn, Yuezhi Mao, Dmitri Zuev, Alec White,
  David Stuck, Shaama M.S., Shane Yost, Joonho Lee, David Small,
  Daniel Levine, Susi Lehtola, Hugh Burton, Evgeny Epifanovsky
 -----------------------------------------------------------------------
 Exchange:     0.1670 Hartree-Fock + 1.0000 wB97X-V + LR-HF
 Correlation:  1.0000 wB97X-V
 Using Euler-Maclaurin-Lebedev (99,590) quadrature formula
 Nonlocal Correlation:  VV10 with C = 0.0100 and b = 6.00 and scale = 1.00000
 Grid used for NLC:  SG-1 standard quadrature
Energy prior to optimization (guess energy) = -227.765662952513
Begin Timing: Total SCF Calculation
begin iterations for algorithm: DIIS         
the SCF tolerance is set to 1.00e-08
    1    -227.7656629525      1.66e-02     00000 
    2    -225.6442746626      2.49e-02     00000 
    3    -228.6069737549      4.06e-03     00000 
    4    -228.6596095186      1.36e-03     00000 
    5    -228.6654732475      2.22e-04     00000 
    6    -228.6657250828      1.17e-04     00000 
    7    -228.6657599221      5.83e-05     00000 
    8    -228.6657708778      1.34e-05     00000 
    9    -228.6657719968      3.87e-06     00000 
   10    -228.6657721080      1.12e-06     00000 
   11    -228.6657721186      2.20e-07     00000 
   12    -228.6657721190      4.87e-08     00000 
   13    -228.6657721190      1.22e-08     00000 
   14    -228.6657721190      3.07e-09     00000 Convergence criterion met
Timing for Total SCF: 284.00s (wall), 527.56s (cpu)
(3)  G-ENP(liq) elect-nuc-pol free energy of system     -228.665772119 a.u.
(4)  G-CDS(liq) cavity-dispersion-solvent structure 
     free energy                                                3.9167 kcal/mol
(6)  G-S(liq) free energy of system                     -228.659530534 a.u.
E_pcm = -0.1306629743
E_cds = 0.0062415846
Multipole orders to be included
        2
        3
computing dipole RHS
computing quadrupole RHS
total number of RHS in solve_reponses: 8
RHS batch sizes
        8
Beginning Block Conjugate Gradient Iterations. Batch Number: 0
computing hessian-vector products by finite difference
              1      6.50e-01     00000 Conjugate Gradient Iteration
computing hessian-vector products by finite difference
              2      1.89e-01     00000 Conjugate Gradient Iteration
computing hessian-vector products by finite difference
              3      5.07e-02     00000 Conjugate Gradient Iteration
computing hessian-vector products by finite difference
              4      1.34e-02     00000 Conjugate Gradient Iteration
computing hessian-vector products by finite difference
              5      2.00e-03     00000 Conjugate Gradient Iteration
computing hessian-vector products by finite difference
              6      5.28e-04     00000 Conjugate Gradient Iteration
computing hessian-vector products by finite difference
              7      7.48e-05     00000 Conjugate Gradient Iteration
computing hessian-vector products by finite difference
              8      9.22e-06     00000 Conjugate Gradient Iteration
computing hessian-vector products by finite difference
              9      1.42e-06     00000 Conjugate Gradient Iteration
computing hessian-vector products by finite difference
             10      1.38e-07     00000 Conjugate Gradient Iteration
computing hessian-vector products by finite difference
             11      1.70e-08     00000 Conjugate Gradient Iteration
computing hessian-vector products by finite difference
             12      4.20e-09     00000 CG Converged
batch 0 complete
Done Calculating Responses
TESTING ORTHOGONALIZATION OF MULTIPOLE BASIS
Multipole virts passed orthogonality test
Virts Per Order
        48
        80
 
 --------------------------------------------------------------
 
                    Orbital Energies (a.u.)
 --------------------------------------------------------------
 
 Alpha MOs
 -- Occupied --
-19.1539 -19.1518 -10.3536 -10.2464  -1.1666  -1.0667  -0.8397  -0.6170
 -0.5481  -0.5466  -0.5417  -0.4824  -0.4627  -0.3659  -0.3569  -0.3454
 -- Virtual --
  0.0670   0.0998   0.1008   0.1076   0.1352   0.1449   0.1457   0.1497
  0.1576   0.1912   0.2029   0.2262   0.2329   0.2381   0.2603   0.2646
  0.2990   0.3151   0.3333   0.3462   0.3522   0.3625   0.3719   0.3837
  0.3876   0.3965   0.4149   0.4257   0.4294   0.4562   0.4673   0.4726
  0.4822   0.4905   0.5041   0.5100   0.5467   0.5570   0.5847   0.6019
  0.6106   0.6246   0.6275   0.6462   0.6583   0.6688   0.6788   0.6968
  0.7073   0.7254   0.7700   0.7917   0.8063   0.8116   0.8327   0.8482
  0.8636   0.9538   0.9695   0.9808   0.9845   1.0320   1.0384   1.1058
  1.1556   1.1890   1.2433   1.2618   1.2809   1.3026   1.3304   1.3431
  1.4381   1.5518   1.5853   1.7319   1.8059   1.8411   1.8578   1.8963
  1.9054   1.9406   1.9519   1.9578   2.0086   2.0975   2.1118   2.1487
  2.1961   2.2073   2.3085   2.3226   2.3961   2.4263   2.4654   2.4798
  2.5623   2.5776   2.5998   2.6505   2.7735   2.8148   2.8643   2.9134
  2.9388   2.9831   3.0101   3.1678   3.1890   3.2400   3.2632   3.2942
  3.3291   3.3386   3.3769   3.4017   3.4238   3.5238   3.5400   3.5561
  3.5971   3.6380   3.6784   3.7175   3.7577   3.8647   3.9318   4.0324
  4.0701   4.1894   4.3497   4.5472   4.6040   4.6571   4.7774   4.8042
  4.9707   5.2965   5.3237   5.3342   5.3403   5.4721   5.6880   5.7371
  5.7929   5.9962   6.2167   6.3123   6.3266   6.5971   6.6009   6.6851
  6.7121   6.7272   6.9290   6.9440   7.0112   7.2153   7.3330   7.3581
  7.3858  22.5859  23.7316  44.1896  44.3194
 --------------------------------------------------------------
 
          Ground-State Mulliken Net Atomic Charges

     Atom                 Charge (a.u.)
  ----------------------------------------
      1 C                    -0.580012
      2 C                     0.493967
      3 O                    -0.759111
      4 O                    -0.783538
      5 H                     0.198587
      6 H                     0.207139
      7 H                     0.222968
  ----------------------------------------
  Sum of atomic charges =    -1.000000

 -----------------------------------------------------------------
                    Cartesian Multipole Moments
 -----------------------------------------------------------------
    Charge (ESU x 10^10)
                -4.8032
    Dipole Moment (Debye)
         X     -11.8186      Y       4.4627      Z      -6.0400
       Tot      14.0027
    Quadrupole Moments (Debye-Ang)
        XX     -54.5433     XY      14.0972     YY     -34.5296
        XZ     -18.3286     YZ      10.2249     ZZ     -35.8767
    Octopole Moments (Debye-Ang^2)
       XXX    -337.2548    XXY      68.3945    XYY    -118.7697
       YYY      85.8039    XXZ     -71.5411    XYZ      33.5846
       YYZ     -34.3731    XZZ    -121.7686    YZZ      41.3625
       ZZZ     -63.3402
    Hexadecapole Moments (Debye-Ang^3)
      XXXX   -2177.8797   XXXY     402.3027   XXYY    -469.6145
      XYYY     309.2108   YYYY    -237.8655   XXXZ    -309.4972
      XXYZ     132.2082   XYYZ    -111.2187   YYYZ      97.6400
      XXZZ    -467.8745   XYZZ     145.0552   YYZZ     -93.1225
      XZZZ    -195.8893   YZZZ      93.4453   ZZZZ    -195.2120
 -----------------------------------------------------------------
Archival summary:
1\1\nid00570\SP\ProcedureUnspecified\BasisUnspecified\223(1-,1)\meili\SunSep2623:02:082021SunSep2623:02:082021\0\\#,ProcedureUnspecified,BasisUnspecified,\\-1,1\C\O,1,1.24414\O,1,1.25414,2,123.304\C,1,1.5225,2,119.059,3,-179.943,0\H,4,1.09079,1,107.923,2,129.942,0\H,4,1.09354,1,108.172,2,-113.356,0\H,4,1.1,1,114.046,2,8.48635,0\\\@

 Total job time:  4512.16s(wall), 8547.25s(cpu) 
 Sun Sep 26 23:02:13 2021

        *************************************************************
        *                                                           *
        *  Thank you very much for using Q-Chem.  Have a nice day.  *
        *                                                           *
        *************************************************************


Done Job For Fragment 1
calling putenv with: QCSCRATCH=/global/cscratch1/sd/meili 
calling putenv with: QCLOCALSCR=/tmp 
calling putenv with: QCTHREADS=32 
Doing General SCFMI
 Exchange:     0.1670 Hartree-Fock + 1.0000 wB97X-V + LR-HF
 Correlation:  1.0000 wB97X-V
 Using Euler-Maclaurin-Lebedev (99,590) quadrature formula
 Nonlocal Correlation:  VV10 with C = 0.0100 and b = 6.00 and scale = 1.00000
 Grid used for NLC:  SG-1 standard quadrature
performing fock build before subrot guess so that all methods have access
Printing subrot_rss_gen Method Specification:
Occupied Subspace Method is 0
Virtual Subspace Method is 0
Energy of the unrelaxed supersystem initial determinant -575.323542112321
performing fock build before subrot guess so that all methods have access
Printing subrot_rss_gen Method Specification:
Occupied Subspace Method is 0
Virtual Subspace Method is 0
Energy of the unrelaxed supersystem initial determinant w/ solvent -575.483863218680
write pseudocanon occs and virts to disk
write pseudocanon orbital energies to disk
Tolerance of ortho_decomp_scf: 1.00e-06
GDM subspace size: 20
Beginning the Orthogonal Decomposition of the Initial Supersystem Wavefunction
    1    -575.2929458024      7.22e-02     ortho_decomp Preconditoned Steepest Descent
    2    -575.3022616438      1.44e-03     ortho_decomp BFGS Step
    3    -575.3022867019      1.34e-04     ortho_decomp BFGS Step
    4    -575.3022867784      5.81e-06     ortho_decomp BFGS Step
    5    -575.3022867787      2.15e-07     ortho_decomp 00000 Convergence criterion met
 Hartree-Fock
 Hartree-Fock
 Hartree-Fock
Doing General SCFMI
 Exchange:     0.1670 Hartree-Fock + 1.0000 wB97X-V + LR-HF
 Correlation:  1.0000 wB97X-V
 Using Euler-Maclaurin-Lebedev (99,590) quadrature formula
 Nonlocal Correlation:  VV10 with C = 0.0100 and b = 6.00 and scale = 1.00000
 Grid used for NLC:  SG-1 standard quadrature
performing fock build at end of subrot_r(subrot) constructor so that all methods have access
<S^2> of initial wavefunction before polarization iterations 0.0000000000
Beginning iterations for the determination of the polarized wavefunction
Energy prior to optimization (guess energy) = -575.483863218680
Begin Timing: Total SCF Calculation
begin iterations for algorithm: DIIS         
the SCF tolerance is set to 1.00e-08
    1    -575.4838632187      8.30e-05     00000 
    2    -575.4841900276      7.99e-05     00000 
    3    -575.4843875730      1.60e-05     00000 
    4    -575.4844187984      9.05e-06     00000 
    5    -575.4844262558      4.41e-06     00000 
    6    -575.4844286670      1.69e-06     00000 
    7    -575.4844289465      5.04e-07     00000 
    8    -575.4844289736      1.76e-07     00000 
    9    -575.4844289769      8.26e-08     00000 
   10    -575.4844289775      2.33e-08     00000 
   11    -575.4844289776      1.22e-08     00000 
   12    -575.4844289776      3.77e-09     00000 Convergence criterion met
write pseudocanon occs and virts to disk
write pseudocanon orbital energies to disk
Timing for Total SCF: 4741.00s (wall), 9440.46s (cpu)
<S^2> of polarized wavefunction after polarization iterations 0.0000000000
relaxing scfmi constraint to allow all rotations in the entire AO span
Doing General SCFMI
 Exchange:     0.1670 Hartree-Fock + 1.0000 wB97X-V + LR-HF
 Correlation:  1.0000 wB97X-V
 Using Euler-Maclaurin-Lebedev (99,590) quadrature formula
 Nonlocal Correlation:  VV10 with C = 0.0100 and b = 6.00 and scale = 1.00000
 Grid used for NLC:  SG-1 standard quadrature
performing fock build at end of subrot_r(subrot) constructor so that all methods have access
<S^2> of polarized wavefunction before ct-allowed iterations 0.0000000000
Beginning iterations for the determination of the CT-Allowed wavefunction
Energy prior to optimization (guess energy) = -575.484428977590
Begin Timing: Total SCF Calculation
begin iterations for algorithm: DIIS         
the SCF tolerance is set to 1.00e-08
    1    -575.4844289776      7.60e-05     00000 
    2    -575.4852747630      8.59e-06     00000 
    3    -575.4852998867      2.66e-06     00000 
    4    -575.4853006160      2.31e-06     00000 
    5    -575.4853011879      2.71e-07     00000 
    6    -575.4853012007      1.49e-07     00000 
    7    -575.4853012048      4.10e-08     00000 
    8    -575.4853012052      1.44e-08     00000 
    9    -575.4853012053      5.01e-09     00000 Convergence criterion met
write pseudocanon occs and virts to disk
write pseudocanon orbital energies to disk
Timing for Total SCF: 3485.00s (wall), 6932.40s (cpu)
<S^2> of ct_allowed wavefunction after ct-allowed iterations 0.0000000000

================================
        Results of EDA2         
================================
Basic EDA Quantities
--------------------
Fragment Energies (Ha):
1 -346.8184563552
2 -228.6595305344
--------------------
  E_prp (kJ/mol) = 0.0000
  E_sol (kJ/mol) = -34.8580
  E_frz (kJ/mol) = 49.1893
  E_pol (kJ/mol) = -1.4854
  E_vct (kJ/mol) = -2.2901
  E_int (kJ/mol) = 10.5558
--------------------


Initial Wavefunction Decomposition
--------------------
  --------------------
  Orthogonal Fragment Subspace Decomposition:
  --------------------
     E_elec   (ELEC)   (kJ/mol) = -19.5017
     E_pauli  (PAULI)  (kJ/mol) = 85.3286
     E_disp   (DISP)   (kJ/mol) = -16.6376
     --------------------
     Terms summing to E_pauli:
     --------------------
        E_kep_pauli       (kJ/mol) = 104.9958
        E_disp_free_pauli (kJ/mol) = -19.6673
  --------------------
  Classical Frozen Decomposition:
  --------------------
     E_cls_elec  (CLS ELEC)  (kJ/mol) = 30.2451
     E_cls_pauli (CLS PAULI) (kJ/mol) = 18.9442
    [E_mod_pauli (MOD PAULI) (kJ/mol) = 35.5818 (CLS PAULI - DISP from orthogonal decomposition) ]
  --------------------
--------------------

Simplified EDA Summary (kJ/mol)
--------------------
 PREPARATION     0.0000
 SOLVATION       -34.8580
 FROZEN          65.8269      (does not include dispersion)
[PAULI           85.3286]     (if this is negligible, then frozen describes electrostatics)
 DISPERSION      -16.6376
 POLARIZATION    -1.4854
 CHARGE TRANSFER -2.2901
 TOTAL           10.5558     (PRP + SOL + FRZ + DISP + POL + CT)
--------------------
 
 --------------------------------------------------------------
 
                    Orbital Energies (a.u.)
 --------------------------------------------------------------
 
 Alpha MOs
 -- Occupied --
-19.2330 -19.1503 -19.1480 -10.3510 -10.3285 -10.2687 -10.2669 -10.2642
-10.2634 -10.2587 -10.2505 -10.2453  -1.1856  -1.1639  -1.0642  -0.9873
 -0.8931  -0.8765  -0.8386  -0.8010  -0.7394  -0.7059  -0.6568  -0.6164
 -0.5946  -0.5727  -0.5468  -0.5460  -0.5431  -0.5383  -0.5337  -0.5220
 -0.5118  -0.5022  -0.4808  -0.4666  -0.4613  -0.4473  -0.4360  -0.4302
 -0.3635  -0.3522  -0.3465  -0.3415  -0.3056
 -- Virtual --
  0.0609   0.0658   0.0736   0.0804   0.0822   0.0941   0.0990   0.1035
  0.1111   0.1140   0.1219   0.1361   0.1366   0.1445   0.1478   0.1509
  0.1598   0.1618   0.1662   0.1762   0.1841   0.1905   0.1974   0.2034
  0.2063   0.2119   0.2193   0.2221   0.2332   0.2352   0.2378   0.2464
  0.2502   0.2555   0.2600   0.2675   0.2697   0.2725   0.2818   0.2820
  0.2897   0.2906   0.2956   0.3011   0.3066   0.3110   0.3139   0.3165
  0.3205   0.3252   0.3300   0.3355   0.3412   0.3457   0.3510   0.3539
  0.3548   0.3606   0.3642   0.3661   0.3699   0.3725   0.3768   0.3805
  0.3828   0.3861   0.3878   0.3899   0.3955   0.3987   0.4012   0.4076
  0.4100   0.4152   0.4200   0.4241   0.4298   0.4377   0.4400   0.4419
  0.4452   0.4509   0.4535   0.4553   0.4637   0.4669   0.4696   0.4737
  0.4785   0.4846   0.4864   0.4902   0.4927   0.4965   0.5011   0.5047
  0.5101   0.5175   0.5216   0.5240   0.5294   0.5326   0.5396   0.5462
  0.5510   0.5529   0.5583   0.5635   0.5690   0.5733   0.5781   0.5803
  0.5918   0.5927   0.5982   0.6050   0.6077   0.6254   0.6306   0.6362
  0.6439   0.6489   0.6544   0.6618   0.6709   0.6755   0.6789   0.6801
  0.6873   0.6911   0.6945   0.7026   0.7078   0.7133   0.7191   0.7250
  0.7343   0.7373   0.7407   0.7421   0.7502   0.7559   0.7608   0.7656
  0.7735   0.7783   0.7818   0.7835   0.7860   0.7974   0.7975   0.8025
  0.8082   0.8110   0.8147   0.8192   0.8245   0.8284   0.8319   0.8376
  0.8398   0.8456   0.8490   0.8573   0.8624   0.8651   0.8680   0.8767
  0.8833   0.8872   0.8988   0.9061   0.9151   0.9272   0.9333   0.9493
  0.9535   0.9681   0.9763   0.9774   0.9942   0.9971   1.0079   1.0140
  1.0221   1.0325   1.0349   1.0482   1.0543   1.0582   1.0619   1.0665
  1.0729   1.0801   1.0956   1.1027   1.1126   1.1299   1.1383   1.1497
  1.1574   1.1890   1.1949   1.2191   1.2439   1.2610   1.2782   1.2835
  1.3005   1.3087   1.3215   1.3294   1.3384   1.3483   1.3562   1.3592
  1.3707   1.3798   1.3857   1.3927   1.4074   1.4160   1.4349   1.4669
  1.4720   1.4948   1.5007   1.5276   1.5335   1.5507   1.5779   1.6052
  1.6351   1.6522   1.6542   1.6657   1.6810   1.7164   1.7241   1.7394
  1.7442   1.7625   1.8173   1.8245   1.8316   1.8511   1.8573   1.8827
  1.8905   1.8984   1.9091   1.9235   1.9322   1.9370   1.9447   1.9502
  1.9577   1.9631   1.9771   1.9813   1.9862   2.0068   2.0145   2.0218
  2.0396   2.0465   2.0636   2.0680   2.0786   2.0852   2.1117   2.1214
  2.1318   2.1467   2.1501   2.1575   2.1777   2.2107   2.2154   2.2236
  2.2340   2.2401   2.2563   2.2832   2.3031   2.3148   2.3250   2.3295
  2.3349   2.3675   2.3885   2.4025   2.4169   2.4208   2.4423   2.4532
  2.4775   2.4957   2.4987   2.5206   2.5374   2.5644   2.5712   2.5779
  2.5991   2.6103   2.6175   2.6230   2.6445   2.6496   2.6608   2.6815
  2.6860   2.7015   2.7151   2.7585   2.7692   2.7778   2.8008   2.8049
  2.8256   2.8329   2.8438   2.8634   2.8847   2.8929   2.8998   2.9341
  2.9412   2.9520   2.9535   2.9560   2.9767   2.9833   2.9925   2.9995
  3.0261   3.0394   3.0466   3.0502   3.0733   3.0889   3.0944   3.1182
  3.1387   3.1720   3.1916   3.2037   3.2171   3.2229   3.2274   3.2320
  3.2422   3.2658   3.2790   3.2831   3.2963   3.2974   3.3147   3.3281
  3.3456   3.3539   3.3610   3.3865   3.3984   3.4008   3.4221   3.4304
  3.4397   3.4424   3.4554   3.4642   3.4808   3.4816   3.4969   3.5148
  3.5317   3.5330   3.5368   3.5498   3.5555   3.5597   3.5675   3.5739
  3.5886   3.5970   3.6122   3.6154   3.6243   3.6499   3.6626   3.6663
  3.6743   3.6811   3.7071   3.7146   3.7258   3.7470   3.7622   3.7728
  3.7766   3.8226   3.8436   3.8597   3.8856   3.8874   3.9415   3.9477
  3.9763   3.9992   4.0264   4.0567   4.0632   4.0871   4.1053   4.1464
  4.1818   4.2277   4.2714   4.2983   4.3121   4.3216   4.3361   4.3487
  4.3554   4.3779   4.3789   4.3969   4.4178   4.4541   4.4852   4.5114
  4.5568   4.5703   4.5993   4.6294   4.6342   4.6768   4.7272   4.7558
  4.8049   4.8126   4.8405   4.8867   4.8971   4.9368   4.9919   5.0457
  5.0835   5.1181   5.1485   5.1798   5.3037   5.3150   5.3397   5.3409
  5.3423   5.3557   5.4120   5.4587   5.4815   5.5492   5.6274   5.6741
  5.7038   5.7384   5.7502   5.7917   5.8023   5.9599   6.0287   6.2389
  6.2483   6.3520   6.3785   6.4943   6.6162   6.6330   6.6497   6.6677
  6.7252   6.7376   6.7792   6.8890   6.9618   6.9656   7.0262   7.0540
  7.2454   7.3316   7.3601   7.4063   7.4612   7.5120  22.5988  22.6726
 22.7140  22.9620  23.0131  23.0655  23.1885  23.5138  23.7849  44.2632
 44.3713  44.4672
 --------------------------------------------------------------
 
          Ground-State Mulliken Net Atomic Charges

     Atom                 Charge (a.u.)
  ----------------------------------------
      1 C                    -1.096999
      2 C                    -0.450741
      3 C                     0.671510
      4 C                    -0.664294
      5 C                     0.568971
      6 C                    -0.671963
      7 C                    -0.656106
      8 O                    -0.428604
      9 H                     0.419171
     10 H                     0.390775
     11 H                     0.377791
     12 H                     0.305489
     13 H                     0.290358
     14 H                     0.304560
     15 H                     0.396474
     16 H                     0.253013
     17 C                    -0.704062
     18 C                     0.489178
     19 O                    -0.674846
     20 O                    -0.797144
     21 H                     0.223994
     22 H                     0.228155
     23 H                     0.225322
  ----------------------------------------
  Sum of atomic charges =    -1.000000

 -----------------------------------------------------------------
                    Cartesian Multipole Moments
 -----------------------------------------------------------------
    Charge (ESU x 10^10)
                -4.8032
    Dipole Moment (Debye)
         X     -13.4660      Y       4.2240      Z      -5.1912
       Tot      15.0374
    Quadrupole Moments (Debye-Ang)
        XX     -97.3972     XY      15.1639     YY     -85.3564
        XZ     -21.5448     YZ       6.1935     ZZ     -74.4656
    Octopole Moments (Debye-Ang^2)
       XXX     -91.5136    XXY      46.0355    XYY     -21.4770
       YYY       6.5381    XXZ     -50.8321    XYZ      40.7035
       YYZ     -15.0129    XZZ     -42.8428    YZZ      15.5217
       ZZZ      13.1953
    Hexadecapole Moments (Debye-Ang^3)
      XXXX   -3725.5565   XXXY     603.8062   XXYY    -794.9660
      XYYY     521.4434   YYYY    -469.1681   XXXZ    -569.6537
      XXYZ     161.7656   XYYZ    -193.6493   YYYZ     234.6597
      XXZZ    -837.4239   XYZZ     213.8775   YYZZ    -236.7676
      XZZZ    -477.5582   YZZZ     202.8142   ZZZZ    -786.3828
 -----------------------------------------------------------------
Archival summary:
1\1\nid00570\SP\ProcedureUnspecified\BasisUnspecified\3911(1-,1)\meili\MonSep2703:09:362021MonSep2703:09:362021\0\\#,ProcedureUnspecified,BasisUnspecified,\\-1,1\O\H,1,0.959989\C,1,1.36301,2,111.41\C,3,1.39469,1,119.483,2,175.522,0\H,4,1.07207,3,120.881,1,-1.39057,0\C,4,1.38816,3,119.893,1,178.887,0\H,6,1.07026,4,118.868,3,179.926,0\C,6,1.39548,4,120.819,3,-0.136632,0\C,8,1.39819,6,119.079,4,0.583596,0\H,9,1.08136,8,119.732,6,-178.16,0\C,9,1.39644,8,120.555,6,-0.396878,0\H,11,1.07753,9,120.051,8,-179.181,0\C,8,1.50192,6,119.929,4,-173.9,0\H,13,1.09015,8,107.305,6,23.3128,0\H,13,1.09137,8,108.018,6,137.245,0\H,13,1.1,8,118.195,6,-99.3561,0\O,5,2.31337,4,133.768,3,6.64942,0\C,17,1.24414,5,158.199,4,96.0092,0\O,18,1.25414,17,123.304,5,-96.3718,0\C,18,1.5225,17,119.059,5,83.6857,0\H,20,1.09079,18,107.923,17,129.942,0\H,20,1.09354,18,108.172,17,-113.356,0\H,20,1.1,18,114.046,17,8.48635,0\\\@

 Total job time:  56209.38s(wall), 29546.91s(cpu) 
 Mon Sep 27 03:09:40 2021

        *************************************************************
        *                                                           *
        *  Thank you very much for using Q-Chem.  Have a nice day.  *
        *                                                           *
        *************************************************************


