
Running Job 1 of 1 SSI-062HIE-073TYR-1_PCM_TZVPD.in
qchem SSI-062HIE-073TYR-1_PCM_TZVPD.in_26831.0 /tmp/qchem26831/ 0
/global/common/cori/software/qchem/5.2/exe/qcprog.exe_s SSI-062HIE-073TYR-1_PCM_TZVPD.in_26831.0 /tmp/qchem26831/
                  Welcome to Q-Chem
     A Quantum Leap Into The Future Of Chemistry


 Q-Chem 5.2, Q-Chem, Inc., Pleasanton, CA (2019)

 License issued to: National Energy Research Scientific Computing Center

 Yihan Shao,  Zhengting Gan,  E. Epifanovsky,  A. T. B. Gilbert,  M. Wormit,  
 J. Kussmann,  A. W. Lange,  A. Behn,  Jia Deng,  Xintian Feng,  D. Ghosh,  
 M. Goldey,  P. R. Horn,  L. D. Jacobson,  I. Kaliman,  T. Kus,  A. Landau,  
 Jie Liu,  E. I. Proynov,  R. M. Richard,  R. P. Steele,  E. J. Sundstrom,  
 H. L. Woodcock III,  P. M. Zimmerman,  D. Zuev,  B. Albrecht,  E. Alguire,  
 S. A. Baeppler,  D. Barton,  Z. Benda,  Y. A. Bernard,  E. J. Berquist,  
 K. B. Bravaya,  H. Burton,  D. Casanova,  Chun-Min Chang,  Yunqing Chen,  
 A. Chien,  K. D. Closser,  M. P. Coons,  S. Coriani,  S. Dasgupta,  
 A. L. Dempwolff,  M. Diedenhofen,  Hainam Do,  R. G. Edgar,  Po-Tung Fang,  
 S. Faraji,  S. Fatehi,  Qingguo Feng,  K. D. Fenk,  J. Fosso-Tande,  
 J. Gayvert,  Qinghui Ge,  A. Ghysels,  G. Gidofalvi,  J. Gomes,  
 J. Gonthier,  A. Gunina,  D. Hait,  M. W. D. Hanson-Heine,  
 P. H. P. Harbach,  A. W. Hauser,  M. F. Herbst,  J. E. Herr,  
 E. G. Hohenstein,  Z. C. Holden,  Kerwin Hui,  B. C. Huynh,  T.-C. Jagau,  
 Hyunjun Ji,  B. Kaduk,  K. Khistyaev,  Jaehoon Kim,  P. Klunzinger,  K. Koh,  
 D. Kosenkov,  L. Koulias,  T. Kowalczyk,  C. M. Krauter,  A. Kunitsa,  
 Ka Un Lao,  A. Laurent,  K. V. Lawler,  Joonho Lee,  D. Lefrancois,  
 S. Lehtola,  D. S. Levine,  Yi-Pei Li,  You-Sheng Lin,  Fenglai Liu,  
 E. Livshits,  A. Luenser,  P. Manohar,  E. Mansoor,  S. F. Manzer,  
 Shan-Ping Mao,  Yuezhi Mao,  N. Mardirossian,  A. V. Marenich,  
 T. Markovich,  L. A. Martinez-Martinez,  S. A. Maurer,  N. J. Mayhall,  
 S. C. McKenzie,  J.-M. Mewes,  P. Morgante,  A. F. Morrison,  
 J. W. Mullinax,  K. Nanda,  T. S. Nguyen-Beck,  R. Olivares-Amaya,  
 J. A. Parkhill,  Zheng Pei,  T. M. Perrine,  F. Plasser,  P. Pokhilko,  
 S. Prager,  A. Prociuk,  E. Ramos,  D. R. Rehn,  F. Rob,  M. Scheurer,  
 M. Schneider,  N. Sergueev,  S. M. Sharada,  S. Sharma,  D. W. Small,  
 T. Stauch,  T. Stein,  Yu-Chuan Su,  A. J. W. Thom,  A. Tkatchenko,  
 T. Tsuchimochi,  N. M. Tubman,  L. Vogt,  M. L. Vidal,  O. Vydrov,  
 M. A. Watson,  J. Wenzel,  M. de Wergifosse,  T. A. Wesolowski,  A. White,  
 J. Witte,  A. Yamada,  Jun Yang,  K. Yao,  S. Yeganeh,  S. R. Yost,  
 Zhi-Qiang You,  A. Zech,  Igor Ying Zhang,  Xing Zhang,  Yan Zhao,  
 Ying Zhu,  B. R. Brooks,  G. K. L. Chan,  C. J. Cramer,  M. S. Gordon,  
 W. J. Hehre,  A. Klamt,  M. W. Schmidt,  C. D. Sherrill,  D. G. Truhlar,  
 A. Aspuru-Guzik,  R. Baer,  A. T. Bell,  N. A. Besley,  Jeng-Da Chai,  
 A. E. DePrince, III,  R. A. DiStasio Jr.,  A. Dreuw,  B. D. Dunietz,  
 T. R. Furlani,  Chao-Ping Hsu,  Yousung Jung,  Jing Kong,  D. S. Lambrecht,  
 WanZhen Liang,  C. Ochsenfeld,  V. A. Rassolov,  L. V. Slipchenko,  
 J. E. Subotnik,  T. Van Voorhis,  J. M. Herbert,  A. I. Krylov,  
 P. M. W. Gill,  M. Head-Gordon

 Contributors to earlier versions of Q-Chem not listed above: 
 R. D. Adamson,  B. Austin,  J. Baker,  G. J. O. Beran,  K. Brandhorst,  
 S. T. Brown,  E. F. C. Byrd,  A. K. Chakraborty,  C.-L. Cheng,  
 Siu Hung Chien,  D. M. Chipman,  D. L. Crittenden,  H. Dachsel,  
 R. J. Doerksen,  A. D. Dutoi,  L. Fusti-Molnar,  W. A. Goddard III,  
 A. Golubeva-Zadorozhnaya,  S. R. Gwaltney,  G. Hawkins,  A. Heyden,  
 S. Hirata,  G. Kedziora,  F. J. Keil,  C. Kelley,  Jihan Kim,  R. A. King,  
 R. Z. Khaliullin,  P. P. Korambath,  W. Kurlancheek,  A. M. Lee,  M. S. Lee,  
 S. V. Levchenko,  Ching Yeh Lin,  D. Liotard,  R. C. Lochan,  I. Lotan,  
 P. E. Maslen,  N. Nair,  D. P. O'Neill,  D. Neuhauser,  E. Neuscamman,  
 C. M. Oana,  R. Olson,  B. Peters,  R. Peverati,  P. A. Pieniazek,  
 Y. M. Rhee,  J. Ritchie,  M. A. Rohrdanz,  E. Rosta,  N. J. Russ,  
 H. F. Schaefer III,  N. E. Schultz,  N. Shenvi,  A. C. Simmonett,  A. Sodt,  
 D. Stuck,  K. S. Thanthiriwatte,  V. Vanovschi,  Tao Wang,  A. Warshel,  
 C. F. Williams,  Q. Wu,  X. Xu,  W. Zhang

 Please cite Q-Chem as follows:
 Y. Shao et al., Mol. Phys. 113, 184-215 (2015)
 DOI: 10.1080/00268976.2014.952696

 Q-Chem 5.2.0 for Intel X86 EM64T Linux

 Parts of Q-Chem use Armadillo 8.300.2 (Tropical Shenanigans).
 http://arma.sourceforge.net/

 Q-Chem begins on Sun Sep 26 09:39:27 2021  

Host: cori01
0

     Scratch files written to /tmp/qchem26831//
 May1019 |scratch|qcdevops|jenkins|workspace|build_RNUM -1
Processing $rem in /global/common/cori/software/qchem/5.2/config/preferences:
	 MEM_TOTAL  96000 
NAlpha2: 110
NElect   110
Mult     1
Symmetry turned off for PCM/SM12/SMD calculation

 Q-Chem warning in module libgen/rem_setup.C, line 2803:

 Neither GIA nor STOLL is specified by user. Use STOLL as the default


Checking the input file for inconsistencies... 	...done.

--------------------------------------------------------------
User input:
--------------------------------------------------------------
$comment
SSI-062HIE-073TYR-1.pdb
$end

$molecule
0 1
--
0 1
C    2.488811095304    0.242771306588    1.248716964249
C    3.619811095304   -0.705228693412    1.687716964249
C    2.609811095304    0.697771306588   -0.178283035751
C    3.665811095304    0.662771306588   -1.040283035751
C    2.000811095304    1.674771306588   -2.041283035751
N    1.580811095304    1.323771306588   -0.833283035751
N    3.253811095304    1.268771306588   -2.204283035751
H    1.529811095304   -0.249228693412    1.397716964249
H    2.509811095304    1.129771306588    1.883716964249
H    4.567811095304   -0.193228693412    1.510716964249
H    4.663811095304    0.316771306588   -0.831283035751
H    1.405811095304    2.184771306588   -2.788283035751
H    3.809811095304    1.417771306588   -3.039283035751
H    3.589081095304   -1.665368693412    1.151806964249
H    3.541262095304   -0.918848693412    2.763906964249
--
0 1
C   -3.864188904696   -2.768228693412    1.881716964249
C   -1.092188904696   -0.761228693412    0.224716964249
C   -1.797188904696    0.323771306588   -0.275283035751
C   -1.752188904696   -1.738228693412    0.953716964249
C   -3.140188904696   -1.662228693412    1.126716964249
C   -3.155188904696    0.439771306588   -0.122283035751
C   -3.838188904696   -0.539228693412    0.605716964249
O   -1.163188904696    1.311771306588   -0.949283035751
H   -0.035188904696   -0.839228693412    0.033716964249
H   -1.201188904696   -2.588228693412    1.331716964249
H   -3.689188904696    1.291771306588   -0.517283035751
H   -1.749188904696    2.046771306588   -1.149283035751
H   -4.602188904696   -2.324228693412    2.551716964249
H   -3.135188904696   -3.285228693412    2.507716964249
H   -4.906188904696   -0.452228693412    0.753716964249
H   -4.357342904696   -3.504388693412    1.229896964249
$end

$rem
JOBTYPE			EDA
EDA2			1
method			wB97X-V
BASIS			def2-TZVPD
XC_GRID			000099000590
NL_GRID			1
UNRESTRICTED		FALSE
MAX_SCF_CYCLES		200
SYMMETRY		FALSE
SYM_IGNORE		TRUE
MEM_STATIC		2000
BASIS_LIN_DEP_THRESH 	6
THRESH 			14
SCF_CONVERGENCE 	8
SCF_PRINT_FRGM 		TRUE
SOLVENT_METHOD          PCM
$end

$PCM
THEORY                  CPCM
METHOD                  SWIG
SOLVER                  INVERSION
RADII                   UFF
HPOINTS                 302
HEAVYPOINTS             302
PRINTLEVEL              0
$END

$SOLVENT
DIELECTRIC              78.390000 ! water
$END
--------------------------------------------------------------
 ----------------------------------------------------------------
             Standard Nuclear Orientation (Angstroms)
    I     Atom           X                Y                Z
 ----------------------------------------------------------------
    1      C       2.4888110953     0.2427713066     1.2487169642
    2      C       3.6198110953    -0.7052286934     1.6877169642
    3      C       2.6098110953     0.6977713066    -0.1782830358
    4      C       3.6658110953     0.6627713066    -1.0402830358
    5      C       2.0008110953     1.6747713066    -2.0412830358
    6      N       1.5808110953     1.3237713066    -0.8332830358
    7      N       3.2538110953     1.2687713066    -2.2042830358
    8      H       1.5298110953    -0.2492286934     1.3977169642
    9      H       2.5098110953     1.1297713066     1.8837169642
   10      H       4.5678110953    -0.1932286934     1.5107169642
   11      H       4.6638110953     0.3167713066    -0.8312830358
   12      H       1.4058110953     2.1847713066    -2.7882830358
   13      H       3.8098110953     1.4177713066    -3.0392830358
   14      H       3.5890810953    -1.6653686934     1.1518069642
   15      H       3.5412620953    -0.9188486934     2.7639069642
   16      C      -3.8641889047    -2.7682286934     1.8817169642
   17      C      -1.0921889047    -0.7612286934     0.2247169642
   18      C      -1.7971889047     0.3237713066    -0.2752830358
   19      C      -1.7521889047    -1.7382286934     0.9537169642
   20      C      -3.1401889047    -1.6622286934     1.1267169642
   21      C      -3.1551889047     0.4397713066    -0.1222830358
   22      C      -3.8381889047    -0.5392286934     0.6057169642
   23      O      -1.1631889047     1.3117713066    -0.9492830358
   24      H      -0.0351889047    -0.8392286934     0.0337169642
   25      H      -1.2011889047    -2.5882286934     1.3317169642
   26      H      -3.6891889047     1.2917713066    -0.5172830358
   27      H      -1.7491889047     2.0467713066    -1.1492830358
   28      H      -4.6021889047    -2.3242286934     2.5517169642
   29      H      -3.1351889047    -3.2852286934     2.5077169642
   30      H      -4.9061889047    -0.4522286934     0.7537169642
   31      H      -4.3573429047    -3.5043886934     1.2298969642
 ----------------------------------------------------------------
 Nuclear Repulsion Energy =         921.32483107 hartrees
 There are       55 alpha and       55 beta electrons
 Requested basis set is def2-TZVPD
 There are 276 shells and 702 basis functions

 Total QAlloc Memory Limit  96000 MB
 Mega-Array Size      1956 MB
 MEM_STATIC part      2000 MB
 Discretize the solute cavity surface with Lebedev spheres
	Using 302 Lebedev grid points for each H atom
	Using 302 Lebedev grid points for other atoms
	Atomic van der Waals radii will be scaled by 1.20
 Remove points where switching function is < 1.0e-08
 Keep 3384 surface tesserae and discard 5978 interior tesserae
 Molecular Surface Area = 329.123 Angst**2
 A cutoff of  1.0D-14 yielded  31614 shell pairs
 There are    205186 function pairs (    259106 Cartesian)
 Smallest overlap matrix eigenvalue = 5.26E-07
 Linear dependence detected in AO basis
 Tighter screening thresholds may be required for diffuse basis sets
 Use S2THRESH > 14 and THRESH = 14 in case of SCF convergence issues
 Number of orthogonalized atomic orbitals = 700
 Maximum deviation from orthogonality = 3.285E-10

 Scale SEOQF with 1.000000e-01/1.000000e-01/1.000000e-01

 Standard Electronic Orientation quadrupole field applied
 Nucleus-field energy     =     0.0000000256 hartrees

 -----------------------------------------------------------------------
  General SCF calculation program by
  Eric Jon Sundstrom, Paul Horn, Yuezhi Mao, Dmitri Zuev, Alec White,
  David Stuck, Shaama M.S., Shane Yost, Joonho Lee, David Small,
  Daniel Levine, Susi Lehtola, Hugh Burton, Evgeny Epifanovsky
 -----------------------------------------------------------------------
================================================================
                 ALMO-EDA with the EDA2 driver                  
================================================================
 The second-generation ALMO-EDA (for DFT):                      
 P. R. Horn, Y. Mao and M. Head-Gordon, PCCP, 18, 23067 (2016)  
 Decomposition of the frozen energy:                            
 P. R. Horn, Y. Mao and M. Head-Gordon, JCP, 144, 114107 (2016) 
 FERF model for polarization:                                   
 P. R. Horn and M. Head-Gordon, JCP, 143, 114111 (2015)         
Using eda2 option set 1
Option set summary: Frozen orbital wavefunction, initial wavefunction decomposition, and nDQ polarization.
--------------------------------
Printing EDA Options
--------------------------------
eda_child_super_basis      0
fragmo_guess_mode          0
child_mp                   1
child_mp_orders            232
cls_elec                   1
cls_disp                   0
scfmi_mode                 1
scfmi_occs                 0
scfmi_virts                0
frz_relax                  0
frz_relax_method           0
dc_pen_start               0
dc_pen_conv                0
dc_pen_increment           0
dc_pen_steps               0
dc_pen_thresh_factor       0
dc_pen_pre_newton_thresh   0
frz_ortho_decomp           1
frz_ortho_decomp_conv      6
frgm_method                2
scfmi_freeze_ss            0
separate_rehyb             0
plot_diff_den              0
eda_nocv                   0
eda_vct_relax              1
disp_free_x                0
disp_free_c                0
eda_bsse                   0
eda_pct_a                  0
eda_covp                   0
--------------------------------
Attempting to make child job directory: /tmp/qchem26831//Frg1/
Attempting to make child job directory: /tmp/qchem26831//Frg2/
Creating input file /tmp/qchem26831/Frg1.input
using default PutDataFrgm: nothing
calling putenv with: QCSCRATCH=/tmp/qchem26831/ 
calling putenv with: QCLOCALSCR=/tmp/qchem26831/ 
Spawning Job For Fragment 0
                  Welcome to Q-Chem
     A Quantum Leap Into The Future Of Chemistry


 Q-Chem 5.2, Q-Chem, Inc., Pleasanton, CA (2019)

 License issued to: National Energy Research Scientific Computing Center

 Yihan Shao,  Zhengting Gan,  E. Epifanovsky,  A. T. B. Gilbert,  M. Wormit,  
 J. Kussmann,  A. W. Lange,  A. Behn,  Jia Deng,  Xintian Feng,  D. Ghosh,  
 M. Goldey,  P. R. Horn,  L. D. Jacobson,  I. Kaliman,  T. Kus,  A. Landau,  
 Jie Liu,  E. I. Proynov,  R. M. Richard,  R. P. Steele,  E. J. Sundstrom,  
 H. L. Woodcock III,  P. M. Zimmerman,  D. Zuev,  B. Albrecht,  E. Alguire,  
 S. A. Baeppler,  D. Barton,  Z. Benda,  Y. A. Bernard,  E. J. Berquist,  
 K. B. Bravaya,  H. Burton,  D. Casanova,  Chun-Min Chang,  Yunqing Chen,  
 A. Chien,  K. D. Closser,  M. P. Coons,  S. Coriani,  S. Dasgupta,  
 A. L. Dempwolff,  M. Diedenhofen,  Hainam Do,  R. G. Edgar,  Po-Tung Fang,  
 S. Faraji,  S. Fatehi,  Qingguo Feng,  K. D. Fenk,  J. Fosso-Tande,  
 J. Gayvert,  Qinghui Ge,  A. Ghysels,  G. Gidofalvi,  J. Gomes,  
 J. Gonthier,  A. Gunina,  D. Hait,  M. W. D. Hanson-Heine,  
 P. H. P. Harbach,  A. W. Hauser,  M. F. Herbst,  J. E. Herr,  
 E. G. Hohenstein,  Z. C. Holden,  Kerwin Hui,  B. C. Huynh,  T.-C. Jagau,  
 Hyunjun Ji,  B. Kaduk,  K. Khistyaev,  Jaehoon Kim,  P. Klunzinger,  K. Koh,  
 D. Kosenkov,  L. Koulias,  T. Kowalczyk,  C. M. Krauter,  A. Kunitsa,  
 Ka Un Lao,  A. Laurent,  K. V. Lawler,  Joonho Lee,  D. Lefrancois,  
 S. Lehtola,  D. S. Levine,  Yi-Pei Li,  You-Sheng Lin,  Fenglai Liu,  
 E. Livshits,  A. Luenser,  P. Manohar,  E. Mansoor,  S. F. Manzer,  
 Shan-Ping Mao,  Yuezhi Mao,  N. Mardirossian,  A. V. Marenich,  
 T. Markovich,  L. A. Martinez-Martinez,  S. A. Maurer,  N. J. Mayhall,  
 S. C. McKenzie,  J.-M. Mewes,  P. Morgante,  A. F. Morrison,  
 J. W. Mullinax,  K. Nanda,  T. S. Nguyen-Beck,  R. Olivares-Amaya,  
 J. A. Parkhill,  Zheng Pei,  T. M. Perrine,  F. Plasser,  P. Pokhilko,  
 S. Prager,  A. Prociuk,  E. Ramos,  D. R. Rehn,  F. Rob,  M. Scheurer,  
 M. Schneider,  N. Sergueev,  S. M. Sharada,  S. Sharma,  D. W. Small,  
 T. Stauch,  T. Stein,  Yu-Chuan Su,  A. J. W. Thom,  A. Tkatchenko,  
 T. Tsuchimochi,  N. M. Tubman,  L. Vogt,  M. L. Vidal,  O. Vydrov,  
 M. A. Watson,  J. Wenzel,  M. de Wergifosse,  T. A. Wesolowski,  A. White,  
 J. Witte,  A. Yamada,  Jun Yang,  K. Yao,  S. Yeganeh,  S. R. Yost,  
 Zhi-Qiang You,  A. Zech,  Igor Ying Zhang,  Xing Zhang,  Yan Zhao,  
 Ying Zhu,  B. R. Brooks,  G. K. L. Chan,  C. J. Cramer,  M. S. Gordon,  
 W. J. Hehre,  A. Klamt,  M. W. Schmidt,  C. D. Sherrill,  D. G. Truhlar,  
 A. Aspuru-Guzik,  R. Baer,  A. T. Bell,  N. A. Besley,  Jeng-Da Chai,  
 A. E. DePrince, III,  R. A. DiStasio Jr.,  A. Dreuw,  B. D. Dunietz,  
 T. R. Furlani,  Chao-Ping Hsu,  Yousung Jung,  Jing Kong,  D. S. Lambrecht,  
 WanZhen Liang,  C. Ochsenfeld,  V. A. Rassolov,  L. V. Slipchenko,  
 J. E. Subotnik,  T. Van Voorhis,  J. M. Herbert,  A. I. Krylov,  
 P. M. W. Gill,  M. Head-Gordon

 Contributors to earlier versions of Q-Chem not listed above: 
 R. D. Adamson,  B. Austin,  J. Baker,  G. J. O. Beran,  K. Brandhorst,  
 S. T. Brown,  E. F. C. Byrd,  A. K. Chakraborty,  C.-L. Cheng,  
 Siu Hung Chien,  D. M. Chipman,  D. L. Crittenden,  H. Dachsel,  
 R. J. Doerksen,  A. D. Dutoi,  L. Fusti-Molnar,  W. A. Goddard III,  
 A. Golubeva-Zadorozhnaya,  S. R. Gwaltney,  G. Hawkins,  A. Heyden,  
 S. Hirata,  G. Kedziora,  F. J. Keil,  C. Kelley,  Jihan Kim,  R. A. King,  
 R. Z. Khaliullin,  P. P. Korambath,  W. Kurlancheek,  A. M. Lee,  M. S. Lee,  
 S. V. Levchenko,  Ching Yeh Lin,  D. Liotard,  R. C. Lochan,  I. Lotan,  
 P. E. Maslen,  N. Nair,  D. P. O'Neill,  D. Neuhauser,  E. Neuscamman,  
 C. M. Oana,  R. Olson,  B. Peters,  R. Peverati,  P. A. Pieniazek,  
 Y. M. Rhee,  J. Ritchie,  M. A. Rohrdanz,  E. Rosta,  N. J. Russ,  
 H. F. Schaefer III,  N. E. Schultz,  N. Shenvi,  A. C. Simmonett,  A. Sodt,  
 D. Stuck,  K. S. Thanthiriwatte,  V. Vanovschi,  Tao Wang,  A. Warshel,  
 C. F. Williams,  Q. Wu,  X. Xu,  W. Zhang

 Please cite Q-Chem as follows:
 Y. Shao et al., Mol. Phys. 113, 184-215 (2015)
 DOI: 10.1080/00268976.2014.952696

 Q-Chem 5.2.0 for Intel X86 EM64T Linux

 Parts of Q-Chem use Armadillo 8.300.2 (Tropical Shenanigans).
 http://arma.sourceforge.net/

 Q-Chem begins on Sun Sep 26 09:39:34 2021  

Host: cori01
0

     Scratch files written to /tmp/qchem26831//Frg1//
 May1019 |scratch|qcdevops|jenkins|workspace|build_RNUM -1
Processing $rem in /global/common/cori/software/qchem/5.2/config/preferences:
	 MEM_TOTAL  96000 
NAlpha2: 52
NElect   52
Mult     1
Symmetry turned off for PCM/SM12/SMD calculation

Checking the input file for inconsistencies... 	...done.

--------------------------------------------------------------
User input:
--------------------------------------------------------------
$molecule
0 1
 6	2.4888110953	0.2427713066	1.2487169642
 6	3.6198110953	-0.7052286934	1.6877169642
 6	2.6098110953	0.6977713066	-0.1782830358
 6	3.6658110953	0.6627713066	-1.0402830358
 6	2.0008110953	1.6747713066	-2.0412830358
 7	1.5808110953	1.3237713066	-0.8332830358
 7	3.2538110953	1.2687713066	-2.2042830358
 1	1.5298110953	-0.2492286934	1.3977169642
 1	2.5098110953	1.1297713066	1.8837169642
 1	4.5678110953	-0.1932286934	1.5107169642
 1	4.6638110953	0.3167713066	-0.8312830358
 1	1.4058110953	2.1847713066	-2.7882830358
 1	3.8098110953	1.4177713066	-3.0392830358
 1	3.5890810953	-1.6653686934	1.1518069642
 1	3.5412620953	-0.9188486934	2.7639069642
$end
$rem
EDA2		1
METHOD		WB97X-V
BASIS		DEF2-TZVPD
XC_GRID		000099000590
NL_GRID		1
UNRESTRICTED		FALSE
MAX_SCF_CYCLES		200
SYMMETRY		FALSE
SYM_IGNORE		TRUE
BASIS_LIN_DEP_THRESH		6
THRESH		14
SCF_CONVERGENCE		8
SCF_PRINT_FRGM		TRUE
SOLVENT_METHOD		PCM
!required keywords
JOBTYPE		SP
SYM_IGNORE		TRUE
SUBSYSTEM		TRUE
GEN_SCFMAN		TRUE
CHILD_INSTRUCTION		2
SYM_IGNORE		TRUE
SCFMI		0
RI_K 0		
PARI_K 0		
MIN_PARI_K 0		
IARI_K 0		
OCC_RI_K 0		
PURECART		1111
MEM_STATIC		2000
MEM_TOTAL		96000
GUI		0
CHILD_MP		1
CHILD_MP_ORDERS		232
FRZ_RELAX		0
FRZ_RELAX_METHOD		0
EDA_CLS_ELEC		1
EDA_CLS_DISP		0
FRZ_ORTHO_DECOMP		1
EDA2		FALSE
FRGM_METHOD		FALSE
CIS_N_ROOTS  0
LOCAL_CIS    0
CIS_RLX_DNS  1
$end
$pcm
THEORY                  CPCM
METHOD                  SWIG
SOLVER                  INVERSION
RADII                   UFF
HPOINTS                 302
HEAVYPOINTS             302
PRINTLEVEL              0
$end
$solvent
DIELECTRIC              78.390000 ! water
$end
--------------------------------------------------------------
 ----------------------------------------------------------------
             Standard Nuclear Orientation (Angstroms)
    I     Atom           X                Y                Z
 ----------------------------------------------------------------
    1      C       2.4888110953     0.2427713066     1.2487169642
    2      C       3.6198110953    -0.7052286934     1.6877169642
    3      C       2.6098110953     0.6977713066    -0.1782830358
    4      C       3.6658110953     0.6627713066    -1.0402830358
    5      C       2.0008110953     1.6747713066    -2.0412830358
    6      N       1.5808110953     1.3237713066    -0.8332830358
    7      N       3.2538110953     1.2687713066    -2.2042830358
    8      H       1.5298110953    -0.2492286934     1.3977169642
    9      H       2.5098110953     1.1297713066     1.8837169642
   10      H       4.5678110953    -0.1932286934     1.5107169642
   11      H       4.6638110953     0.3167713066    -0.8312830358
   12      H       1.4058110953     2.1847713066    -2.7882830358
   13      H       3.8098110953     1.4177713066    -3.0392830358
   14      H       3.5890810953    -1.6653686934     1.1518069642
   15      H       3.5412620953    -0.9188486934     2.7639069642
 ----------------------------------------------------------------
 Nuclear Repulsion Energy =         291.07510042 hartrees
 There are       26 alpha and       26 beta electrons
 Requested basis set is def2-TZVPD
 There are 131 shells and 331 basis functions

 Total QAlloc Memory Limit  96000 MB
 Mega-Array Size      1956 MB
 MEM_STATIC part      2000 MB
 Discretize the solute cavity surface with Lebedev spheres
	Using 302 Lebedev grid points for each H atom
	Using 302 Lebedev grid points for other atoms
	Atomic van der Waals radii will be scaled by 1.20
 Remove points where switching function is < 1.0e-08
 Keep 1805 surface tesserae and discard 2725 interior tesserae
 Molecular Surface Area = 178.735 Angst**2

                       Distance Matrix (Angstroms)
             C (  1)   C (  2)   C (  3)   C (  4)   C (  5)   N (  6)
   C (  2)  1.539671
   C (  3)  1.502663  2.543711
   C (  4)  2.607921  3.052134  1.363600
   C (  5)  3.621169  4.710733  2.190018  2.190518
   N (  6)  2.515502  3.824893  1.371037  2.197042  1.326222
   N (  7)  3.682541  4.379303  2.201239  1.375455  1.327183  2.163699
   H (  8)  1.088093  2.158735  2.132366  3.367207  3.968670  2.730255
   H (  9)  1.091071  2.153542  2.109139  3.178711  3.995214  2.877979
   H ( 10)  2.140323  1.091869  2.735026  2.837947  4.763992  4.088740
   H ( 11)  3.010399  2.912006  2.188718  1.076755  3.224877  3.243292
   H ( 12)  4.608863  5.769616  3.236184  3.237219  1.082651  2.143355
   H ( 13)  4.638169  5.185341  3.184921  2.141673  2.081954  3.137469
   H ( 14)  2.204764  1.100006  2.883148  3.198653  4.886201  4.112018
   H ( 15)  2.180095  1.099995  3.483898  4.121759  5.673597  4.670384
             N (  7)   H (  8)   H (  9)   H ( 10)   H ( 11)   H ( 12)
   H (  8)  4.272108
   H (  9)  4.157475  1.760181
   H ( 10)  4.203007  3.040617  2.474838
   H ( 11)  2.186214  3.887255  3.559763  2.398808
   H ( 12)  2.143645  4.843793  4.915224  5.842476  4.234836
   H ( 13)  1.014180  5.259682  5.099890  4.885937  2.610897  2.535844
   H ( 14)  4.470450  2.511278  3.084368  1.803864  3.002760  5.925754
   H ( 15)  5.436103  2.522063  2.456719  1.775053  3.963870  6.709651
             H ( 13)   H ( 14)
   H ( 14)  5.207659
   H ( 15)  6.261703  1.777202
 
 A cutoff of  1.0D-14 yielded   8274 shell pairs
 There are     53768 function pairs (     68468 Cartesian)
 Smallest overlap matrix eigenvalue = 1.41E-06

 Scale SEOQF with 1.000000e-01/1.000000e-01/1.000000e-01

 Standard Electronic Orientation quadrupole field applied
 Nucleus-field energy     =     0.0000000062 hartrees
 Guess from superposition of atomic densities
 Warning:  Energy on first SCF cycle will be non-variational
 SAD guess density has 51.546797 electrons

 -----------------------------------------------------------------------
  General SCF calculation program by
  Eric Jon Sundstrom, Paul Horn, Yuezhi Mao, Dmitri Zuev, Alec White,
  David Stuck, Shaama M.S., Shane Yost, Joonho Lee, David Small,
  Daniel Levine, Susi Lehtola, Hugh Burton, Evgeny Epifanovsky
 -----------------------------------------------------------------------
 Exchange:     0.1670 Hartree-Fock + 1.0000 wB97X-V + LR-HF
 Correlation:  1.0000 wB97X-V
 Using Euler-Maclaurin-Lebedev (99,590) quadrature formula
 Nonlocal Correlation:  VV10 with C = 0.0100 and b = 6.00 and scale = 1.00000
 Grid used for NLC:  SG-1 standard quadrature
Energy prior to optimization (guess energy) = -304.456938221261
Begin Timing: Total SCF Calculation
begin iterations for algorithm: DIIS         
the SCF tolerance is set to 1.00e-08
    1    -304.4569382213      6.03e-03     00000 
    2    -304.4252087864      6.12e-03     00000 
    3    -304.8759777867      6.30e-04     00000 
    4    -304.8799182388      3.50e-04     00000 
    5    -304.8813850492      7.26e-05     00000 
    6    -304.8814713666      2.71e-05     00000 
    7    -304.8814856583      7.80e-06     00000 
    8    -304.8814871444      2.60e-06     00000 
    9    -304.8814873266      1.13e-06     00000 
   10    -304.8814873699      3.10e-07     00000 
   11    -304.8814873747      7.76e-08     00000 
   12    -304.8814873750      3.91e-08     00000 
   13    -304.8814873750      9.71e-09     00000 Convergence criterion met
Timing for Total SCF: 1575.00s (wall), 3125.04s (cpu)

************** Final PCM Free Energy Summary **************
 G_electrostatic  =      -0.01062152 hartree =      -6.66510538 kcal/mol
 G_cavitation     =       0.00000000 hartree =       0.00000000 kcal/mol
 G_dispersion     =       0.00000000 hartree =       0.00000000 kcal/mol
 G_repulsion      =       0.00000000 hartree =       0.00000000 kcal/mol
 --------------------------------------------------
 Non-electrostatic Free Energy =       0.00000000 hartree =       0.00000000 kcal/mol
 Total                         =      -0.01062152 hartree =      -6.66510538 kcal/mol
 --------------------------------------------------
 SCF Energy (H0 + V/2)                       =    -304.88148738 
 Solute Internal Energy (H0)                 =    -304.87086585 
 Total Free Energy (H0 + V/2 + non-elec)     =    -304.88148738 hartree
                                             = -191316.02086041 kcal/mol
***********************************************************

E_pcm = -0.0106215216
Multipole orders to be included
        2
        3
computing dipole RHS
computing quadrupole RHS
total number of RHS in solve_reponses: 8
RHS batch sizes
        8
Beginning Block Conjugate Gradient Iterations. Batch Number: 0
computing hessian-vector products by finite difference
              1      5.69e-01     00000 Conjugate Gradient Iteration
computing hessian-vector products by finite difference
              2      1.92e-01     00000 Conjugate Gradient Iteration
computing hessian-vector products by finite difference
              3      4.61e-02     00000 Conjugate Gradient Iteration
computing hessian-vector products by finite difference
              4      1.12e-02     00000 Conjugate Gradient Iteration
computing hessian-vector products by finite difference
              5      2.42e-03     00000 Conjugate Gradient Iteration
computing hessian-vector products by finite difference
              6      5.77e-04     00000 Conjugate Gradient Iteration
computing hessian-vector products by finite difference
              7      1.14e-04     00000 Conjugate Gradient Iteration
computing hessian-vector products by finite difference
              8      1.80e-05     00000 Conjugate Gradient Iteration
computing hessian-vector products by finite difference
              9      2.99e-06     00000 Conjugate Gradient Iteration
computing hessian-vector products by finite difference
             10      4.52e-07     00000 Conjugate Gradient Iteration
computing hessian-vector products by finite difference
             11      8.52e-08     00000 Conjugate Gradient Iteration
computing hessian-vector products by finite difference
             12      2.03e-08     00000 Conjugate Gradient Iteration
computing hessian-vector products by finite difference
             13      4.55e-09     00000 CG Converged
batch 0 complete
Done Calculating Responses
TESTING ORTHOGONALIZATION OF MULTIPOLE BASIS
Multipole virts passed orthogonality test
Virts Per Order
           78
          130
 
 --------------------------------------------------------------
 
                    Orbital Energies (a.u.)
 --------------------------------------------------------------
 
 Alpha MOs
 -- Occupied --
-14.4673 -14.3870 -10.3221 -10.2895 -10.2853 -10.2701 -10.2600  -1.1586
 -1.0013  -0.9182  -0.8592  -0.7699  -0.7246  -0.6853  -0.6695  -0.5778
 -0.5541  -0.5458  -0.5418  -0.5360  -0.4696  -0.4570  -0.4535  -0.3794
 -0.3755  -0.3247
 -- Virtual --
  0.0634   0.0788   0.0847   0.1009   0.1035   0.1108   0.1229   0.1282
  0.1521   0.1564   0.1638   0.1702   0.1828   0.1863   0.2060   0.2079
  0.2087   0.2246   0.2364   0.2430   0.2497   0.2541   0.2625   0.2658
  0.2822   0.2850   0.2875   0.2967   0.3029   0.3043   0.3086   0.3193
  0.3236   0.3370   0.3439   0.3451   0.3545   0.3603   0.3625   0.3657
  0.3724   0.3808   0.3849   0.3911   0.3993   0.4032   0.4091   0.4196
  0.4225   0.4314   0.4424   0.4505   0.4551   0.4692   0.4760   0.4825
  0.4847   0.4858   0.4934   0.4954   0.5073   0.5188   0.5265   0.5335
  0.5438   0.5500   0.5597   0.5665   0.5697   0.5729   0.5842   0.5909
  0.5999   0.6125   0.6190   0.6303   0.6392   0.6521   0.6551   0.6691
  0.6774   0.6930   0.6934   0.6975   0.7153   0.7238   0.7335   0.7393
  0.7512   0.7690   0.7734   0.7789   0.7845   0.7891   0.7940   0.8054
  0.8115   0.8186   0.8261   0.8335   0.8442   0.8498   0.8718   0.8796
  0.8872   0.8982   0.9050   0.9256   0.9342   0.9631   0.9725   1.0015
  1.0198   1.0239   1.0281   1.0465   1.0657   1.0768   1.0913   1.0994
  1.1224   1.1276   1.1355   1.1750   1.1938   1.2195   1.2374   1.2445
  1.2626   1.2999   1.3084   1.3452   1.3616   1.3853   1.4129   1.4322
  1.4439   1.4689   1.4844   1.5354   1.5512   1.5885   1.6152   1.6566
  1.6886   1.7015   1.7127   1.7695   1.8159   1.8321   1.8697   1.8745
  1.8790   1.9002   1.9196   1.9301   1.9351   1.9451   1.9590   1.9744
  1.9843   2.0011   2.0052   2.0135   2.0182   2.0373   2.0455   2.0911
  2.1322   2.1651   2.1896   2.2319   2.2537   2.2745   2.2876   2.3285
  2.3313   2.3665   2.4017   2.4188   2.4454   2.4885   2.5090   2.5321
  2.5581   2.5776   2.5939   2.6313   2.6447   2.6594   2.6946   2.6988
  2.7076   2.7242   2.7612   2.7670   2.7874   2.8286   2.8325   2.8595
  2.8809   2.8895   2.9307   2.9625   2.9798   3.0028   3.0409   3.0584
  3.0769   3.0829   3.1122   3.1378   3.1594   3.1769   3.2031   3.2176
  3.2486   3.2626   3.2813   3.3001   3.3146   3.3240   3.3330   3.3548
  3.3821   3.3869   3.3896   3.4045   3.4561   3.4656   3.4749   3.4951
  3.5084   3.5408   3.5522   3.5797   3.5994   3.6227   3.6448   3.6712
  3.6783   3.7042   3.7174   3.7458   3.7561   3.8015   3.8517   3.8709
  3.9160   3.9467   3.9841   4.0513   4.0743   4.1082   4.1185   4.1489
  4.1599   4.1974   4.3116   4.3355   4.4459   4.4743   4.5109   4.5219
  4.5606   4.6248   4.6583   4.6903   4.7825   4.8043   4.8515   4.8572
  4.8746   4.9317   4.9684   5.0480   5.0562   5.0694   5.0914   5.1143
  5.1644   5.2259   5.2462   5.3095   5.3925   5.4548   5.5222   5.5442
  5.5905   5.6256   5.6694   5.7138   5.7873   5.8199   5.8882   6.0525
  6.2478   6.2951  22.6364  22.8041  22.9127  23.1442  23.4271  32.6921
 32.8116
 --------------------------------------------------------------
 
          Ground-State Mulliken Net Atomic Charges

     Atom                 Charge (a.u.)
  ----------------------------------------
      1 C                     0.107749
      2 C                    -0.857468
      3 C                     0.198324
      4 C                    -0.391666
      5 C                    -0.348609
      6 N                    -0.497582
      7 N                     0.099426
      8 H                     0.181884
      9 H                     0.140643
     10 H                     0.212021
     11 H                     0.243412
     12 H                     0.281010
     13 H                     0.173714
     14 H                     0.227306
     15 H                     0.229836
  ----------------------------------------
  Sum of atomic charges =     0.000000

 -----------------------------------------------------------------
                    Cartesian Multipole Moments
 -----------------------------------------------------------------
    Charge (ESU x 10^10)
                 0.0000
    Dipole Moment (Debye)
         X       3.5567      Y       0.0020      Z      -2.5701
       Tot       4.3881
    Quadrupole Moments (Debye-Ang)
        XX     -25.2211     XY       3.9207     YY     -43.4032
        XZ     -10.7939     YZ      -6.7167     ZZ     -28.8373
    Octopole Moments (Debye-Ang^2)
       XXX    -279.3593    XXY     -10.4866    XYY    -118.0122
       YYY     -88.3858    XXZ     -30.1427    XYZ     -19.7169
       YYZ       4.4100    XZZ     -74.4563    YZZ      -2.8388
       ZZZ       5.2609
    Hexadecapole Moments (Debye-Ang^3)
      XXXX   -1873.9713   XXXY    -111.4314   XXYY    -422.9482
      XYYY    -191.8380   YYYY    -348.3404   XXXZ    -104.1385
      XXYZ     -11.2571   XYYZ       3.6155   YYYZ     151.5691
      XXZZ    -319.5295   XYZZ      11.4986   YYZZ    -123.0424
      XZZZ     -42.8856   YZZZ      86.7936   ZZZZ    -515.3495
 -----------------------------------------------------------------
Archival summary:
1\1\nid00538\SP\ProcedureUnspecified\BasisUnspecified\258\meili\SunSep2618:11:242021SunSep2618:11:242021\0\\#,ProcedureUnspecified,BasisUnspecified,\\0,1\N\C,1,1.32622\H,2,1.08265,1,125.387\N,2,1.32718,1,109.262,3,-178.252,0\H,4,1.01418,2,125.013,1,-179.576,0\C,1,1.37104,2,108.561,3,179.808,0\C,6,1.3636,1,106.914,2,-0.900243,0\H,7,1.07675,6,127.108,1,174.552,0\C,6,1.50266,1,122.107,2,176.442,0\H,9,1.08809,6,109.751,1,44.4389,0\H,9,1.09107,6,107.757,1,-72.6326,0\C,9,1.53967,6,113.457,1,166.985,0\H,12,1.09187,9,107.628,6,56.1974,0\H,12,1.09999,9,110.247,6,173.957,0\H,12,1.10001,9,112.21,6,-65.9162,0\\\@

 Total job time:  30712.05s(wall), 60871.74s(cpu) 
 Sun Sep 26 18:11:26 2021

        *************************************************************
        *                                                           *
        *  Thank you very much for using Q-Chem.  Have a nice day.  *
        *                                                           *
        *************************************************************


Done Job For Fragment 0
calling putenv with: QCSCRATCH=/global/cscratch1/sd/meili 
calling putenv with: QCLOCALSCR=/tmp 
calling putenv with: QCTHREADS=32 
Creating input file /tmp/qchem26831/Frg2.input
using default PutDataFrgm: nothing
calling putenv with: QCSCRATCH=/tmp/qchem26831/ 
calling putenv with: QCLOCALSCR=/tmp/qchem26831/ 
Spawning Job For Fragment 1
                  Welcome to Q-Chem
     A Quantum Leap Into The Future Of Chemistry


 Q-Chem 5.2, Q-Chem, Inc., Pleasanton, CA (2019)

 License issued to: National Energy Research Scientific Computing Center

 Yihan Shao,  Zhengting Gan,  E. Epifanovsky,  A. T. B. Gilbert,  M. Wormit,  
 J. Kussmann,  A. W. Lange,  A. Behn,  Jia Deng,  Xintian Feng,  D. Ghosh,  
 M. Goldey,  P. R. Horn,  L. D. Jacobson,  I. Kaliman,  T. Kus,  A. Landau,  
 Jie Liu,  E. I. Proynov,  R. M. Richard,  R. P. Steele,  E. J. Sundstrom,  
 H. L. Woodcock III,  P. M. Zimmerman,  D. Zuev,  B. Albrecht,  E. Alguire,  
 S. A. Baeppler,  D. Barton,  Z. Benda,  Y. A. Bernard,  E. J. Berquist,  
 K. B. Bravaya,  H. Burton,  D. Casanova,  Chun-Min Chang,  Yunqing Chen,  
 A. Chien,  K. D. Closser,  M. P. Coons,  S. Coriani,  S. Dasgupta,  
 A. L. Dempwolff,  M. Diedenhofen,  Hainam Do,  R. G. Edgar,  Po-Tung Fang,  
 S. Faraji,  S. Fatehi,  Qingguo Feng,  K. D. Fenk,  J. Fosso-Tande,  
 J. Gayvert,  Qinghui Ge,  A. Ghysels,  G. Gidofalvi,  J. Gomes,  
 J. Gonthier,  A. Gunina,  D. Hait,  M. W. D. Hanson-Heine,  
 P. H. P. Harbach,  A. W. Hauser,  M. F. Herbst,  J. E. Herr,  
 E. G. Hohenstein,  Z. C. Holden,  Kerwin Hui,  B. C. Huynh,  T.-C. Jagau,  
 Hyunjun Ji,  B. Kaduk,  K. Khistyaev,  Jaehoon Kim,  P. Klunzinger,  K. Koh,  
 D. Kosenkov,  L. Koulias,  T. Kowalczyk,  C. M. Krauter,  A. Kunitsa,  
 Ka Un Lao,  A. Laurent,  K. V. Lawler,  Joonho Lee,  D. Lefrancois,  
 S. Lehtola,  D. S. Levine,  Yi-Pei Li,  You-Sheng Lin,  Fenglai Liu,  
 E. Livshits,  A. Luenser,  P. Manohar,  E. Mansoor,  S. F. Manzer,  
 Shan-Ping Mao,  Yuezhi Mao,  N. Mardirossian,  A. V. Marenich,  
 T. Markovich,  L. A. Martinez-Martinez,  S. A. Maurer,  N. J. Mayhall,  
 S. C. McKenzie,  J.-M. Mewes,  P. Morgante,  A. F. Morrison,  
 J. W. Mullinax,  K. Nanda,  T. S. Nguyen-Beck,  R. Olivares-Amaya,  
 J. A. Parkhill,  Zheng Pei,  T. M. Perrine,  F. Plasser,  P. Pokhilko,  
 S. Prager,  A. Prociuk,  E. Ramos,  D. R. Rehn,  F. Rob,  M. Scheurer,  
 M. Schneider,  N. Sergueev,  S. M. Sharada,  S. Sharma,  D. W. Small,  
 T. Stauch,  T. Stein,  Yu-Chuan Su,  A. J. W. Thom,  A. Tkatchenko,  
 T. Tsuchimochi,  N. M. Tubman,  L. Vogt,  M. L. Vidal,  O. Vydrov,  
 M. A. Watson,  J. Wenzel,  M. de Wergifosse,  T. A. Wesolowski,  A. White,  
 J. Witte,  A. Yamada,  Jun Yang,  K. Yao,  S. Yeganeh,  S. R. Yost,  
 Zhi-Qiang You,  A. Zech,  Igor Ying Zhang,  Xing Zhang,  Yan Zhao,  
 Ying Zhu,  B. R. Brooks,  G. K. L. Chan,  C. J. Cramer,  M. S. Gordon,  
 W. J. Hehre,  A. Klamt,  M. W. Schmidt,  C. D. Sherrill,  D. G. Truhlar,  
 A. Aspuru-Guzik,  R. Baer,  A. T. Bell,  N. A. Besley,  Jeng-Da Chai,  
 A. E. DePrince, III,  R. A. DiStasio Jr.,  A. Dreuw,  B. D. Dunietz,  
 T. R. Furlani,  Chao-Ping Hsu,  Yousung Jung,  Jing Kong,  D. S. Lambrecht,  
 WanZhen Liang,  C. Ochsenfeld,  V. A. Rassolov,  L. V. Slipchenko,  
 J. E. Subotnik,  T. Van Voorhis,  J. M. Herbert,  A. I. Krylov,  
 P. M. W. Gill,  M. Head-Gordon

 Contributors to earlier versions of Q-Chem not listed above: 
 R. D. Adamson,  B. Austin,  J. Baker,  G. J. O. Beran,  K. Brandhorst,  
 S. T. Brown,  E. F. C. Byrd,  A. K. Chakraborty,  C.-L. Cheng,  
 Siu Hung Chien,  D. M. Chipman,  D. L. Crittenden,  H. Dachsel,  
 R. J. Doerksen,  A. D. Dutoi,  L. Fusti-Molnar,  W. A. Goddard III,  
 A. Golubeva-Zadorozhnaya,  S. R. Gwaltney,  G. Hawkins,  A. Heyden,  
 S. Hirata,  G. Kedziora,  F. J. Keil,  C. Kelley,  Jihan Kim,  R. A. King,  
 R. Z. Khaliullin,  P. P. Korambath,  W. Kurlancheek,  A. M. Lee,  M. S. Lee,  
 S. V. Levchenko,  Ching Yeh Lin,  D. Liotard,  R. C. Lochan,  I. Lotan,  
 P. E. Maslen,  N. Nair,  D. P. O'Neill,  D. Neuhauser,  E. Neuscamman,  
 C. M. Oana,  R. Olson,  B. Peters,  R. Peverati,  P. A. Pieniazek,  
 Y. M. Rhee,  J. Ritchie,  M. A. Rohrdanz,  E. Rosta,  N. J. Russ,  
 H. F. Schaefer III,  N. E. Schultz,  N. Shenvi,  A. C. Simmonett,  A. Sodt,  
 D. Stuck,  K. S. Thanthiriwatte,  V. Vanovschi,  Tao Wang,  A. Warshel,  
 C. F. Williams,  Q. Wu,  X. Xu,  W. Zhang

 Please cite Q-Chem as follows:
 Y. Shao et al., Mol. Phys. 113, 184-215 (2015)
 DOI: 10.1080/00268976.2014.952696

 Q-Chem 5.2.0 for Intel X86 EM64T Linux

 Parts of Q-Chem use Armadillo 8.300.2 (Tropical Shenanigans).
 http://arma.sourceforge.net/

 Q-Chem begins on Sun Sep 26 18:11:30 2021  

Host: cori01
0

     Scratch files written to /tmp/qchem26831//Frg2//
 May1019 |scratch|qcdevops|jenkins|workspace|build_RNUM -1
Processing $rem in /global/common/cori/software/qchem/5.2/config/preferences:
	 MEM_TOTAL  96000 
NAlpha2: 58
NElect   58
Mult     1
Symmetry turned off for PCM/SM12/SMD calculation

Checking the input file for inconsistencies... 	...done.

--------------------------------------------------------------
User input:
--------------------------------------------------------------
$molecule
0 1
 6	-3.8641889047	-2.7682286934	1.8817169642
 6	-1.0921889047	-0.7612286934	0.2247169642
 6	-1.7971889047	0.3237713066	-0.2752830358
 6	-1.7521889047	-1.7382286934	0.9537169642
 6	-3.1401889047	-1.6622286934	1.1267169642
 6	-3.1551889047	0.4397713066	-0.1222830358
 6	-3.8381889047	-0.5392286934	0.6057169642
 8	-1.1631889047	1.3117713066	-0.9492830358
 1	-0.0351889047	-0.8392286934	0.0337169642
 1	-1.2011889047	-2.5882286934	1.3317169642
 1	-3.6891889047	1.2917713066	-0.5172830358
 1	-1.7491889047	2.0467713066	-1.1492830358
 1	-4.6021889047	-2.3242286934	2.5517169642
 1	-3.1351889047	-3.2852286934	2.5077169642
 1	-4.9061889047	-0.4522286934	0.7537169642
 1	-4.3573429047	-3.5043886934	1.2298969642
$end
$rem
EDA2		1
METHOD		WB97X-V
BASIS		DEF2-TZVPD
XC_GRID		000099000590
NL_GRID		1
UNRESTRICTED		FALSE
MAX_SCF_CYCLES		200
SYMMETRY		FALSE
SYM_IGNORE		TRUE
BASIS_LIN_DEP_THRESH		6
THRESH		14
SCF_CONVERGENCE		8
SCF_PRINT_FRGM		TRUE
SOLVENT_METHOD		PCM
!required keywords
JOBTYPE		SP
SYM_IGNORE		TRUE
SUBSYSTEM		TRUE
GEN_SCFMAN		TRUE
CHILD_INSTRUCTION		2
SYM_IGNORE		TRUE
SCFMI		0
RI_K 0		
PARI_K 0		
MIN_PARI_K 0		
IARI_K 0		
OCC_RI_K 0		
PURECART		1111
MEM_STATIC		2000
MEM_TOTAL		96000
GUI		0
CHILD_MP		1
CHILD_MP_ORDERS		232
FRZ_RELAX		0
FRZ_RELAX_METHOD		0
EDA_CLS_ELEC		1
EDA_CLS_DISP		0
FRZ_ORTHO_DECOMP		1
EDA2		FALSE
FRGM_METHOD		FALSE
CIS_N_ROOTS  0
LOCAL_CIS    0
CIS_RLX_DNS  1
$end
$pcm
THEORY                  CPCM
METHOD                  SWIG
SOLVER                  INVERSION
RADII                   UFF
HPOINTS                 302
HEAVYPOINTS             302
PRINTLEVEL              0
$end
$solvent
DIELECTRIC              78.390000 ! water
$end
--------------------------------------------------------------
 ----------------------------------------------------------------
             Standard Nuclear Orientation (Angstroms)
    I     Atom           X                Y                Z
 ----------------------------------------------------------------
    1      C      -3.8641889047    -2.7682286934     1.8817169642
    2      C      -1.0921889047    -0.7612286934     0.2247169642
    3      C      -1.7971889047     0.3237713066    -0.2752830358
    4      C      -1.7521889047    -1.7382286934     0.9537169642
    5      C      -3.1401889047    -1.6622286934     1.1267169642
    6      C      -3.1551889047     0.4397713066    -0.1222830358
    7      C      -3.8381889047    -0.5392286934     0.6057169642
    8      O      -1.1631889047     1.3117713066    -0.9492830358
    9      H      -0.0351889047    -0.8392286934     0.0337169642
   10      H      -1.2011889047    -2.5882286934     1.3317169642
   11      H      -3.6891889047     1.2917713066    -0.5172830358
   12      H      -1.7491889047     2.0467713066    -1.1492830358
   13      H      -4.6021889047    -2.3242286934     2.5517169642
   14      H      -3.1351889047    -3.2852286934     2.5077169642
   15      H      -4.9061889047    -0.4522286934     0.7537169642
   16      H      -4.3573429047    -3.5043886934     1.2298969642
 ----------------------------------------------------------------
 Nuclear Repulsion Energy =         343.24102204 hartrees
 There are       29 alpha and       29 beta electrons
 Requested basis set is def2-TZVPD
 There are 145 shells and 371 basis functions

 Total QAlloc Memory Limit  96000 MB
 Mega-Array Size      1956 MB
 MEM_STATIC part      2000 MB
 Discretize the solute cavity surface with Lebedev spheres
	Using 302 Lebedev grid points for each H atom
	Using 302 Lebedev grid points for other atoms
	Atomic van der Waals radii will be scaled by 1.20
 Remove points where switching function is < 1.0e-08
 Keep 1850 surface tesserae and discard 2982 interior tesserae
 Molecular Surface Area = 190.146 Angst**2
 A cutoff of  1.0D-14 yielded  10047 shell pairs
 There are     67119 function pairs (     85832 Cartesian)
 Smallest overlap matrix eigenvalue = 6.24E-07
 Linear dependence detected in AO basis
 Tighter screening thresholds may be required for diffuse basis sets
 Use S2THRESH > 14 and THRESH = 14 in case of SCF convergence issues
 Number of orthogonalized atomic orbitals = 370
 Maximum deviation from orthogonality = 2.113E-10

 Scale SEOQF with 1.000000e-01/1.000000e-01/1.000000e-01

 Standard Electronic Orientation quadrupole field applied
 Nucleus-field energy     =     0.0000000194 hartrees
 Guess from superposition of atomic densities
 Warning:  Energy on first SCF cycle will be non-variational
 SAD guess density has 57.738434 electrons

 -----------------------------------------------------------------------
  General SCF calculation program by
  Eric Jon Sundstrom, Paul Horn, Yuezhi Mao, Dmitri Zuev, Alec White,
  David Stuck, Shaama M.S., Shane Yost, Joonho Lee, David Small,
  Daniel Levine, Susi Lehtola, Hugh Burton, Evgeny Epifanovsky
 -----------------------------------------------------------------------
 Exchange:     0.1670 Hartree-Fock + 1.0000 wB97X-V + LR-HF
 Correlation:  1.0000 wB97X-V
 Using Euler-Maclaurin-Lebedev (99,590) quadrature formula
 Nonlocal Correlation:  VV10 with C = 0.0100 and b = 6.00 and scale = 1.00000
 Grid used for NLC:  SG-1 standard quadrature
Energy prior to optimization (guess energy) = -346.492164325727
Begin Timing: Total SCF Calculation
begin iterations for algorithm: DIIS         
the SCF tolerance is set to 1.00e-08
    1    -346.4921643257      5.18e-03     00000 
    2    -346.4269584656      5.61e-03     00000 
    3    -346.8090089237      5.31e-04     00000 
    4    -346.8130837704      1.81e-04     00000 
    5    -346.8136933681      2.43e-05     00000 
    6    -346.8137127083      1.19e-05     00000 
    7    -346.8137156975      3.88e-06     00000 
    8    -346.8137161256      1.31e-06     00000 
    9    -346.8137161890      5.67e-07     00000 
   10    -346.8137162009      1.52e-07     00000 
   11    -346.8137162033      5.77e-08     00000 
   12    -346.8137162035      2.79e-08     00000 
   13    -346.8137162036      8.08e-09     00000 Convergence criterion met
Timing for Total SCF: 2138.00s (wall), 4247.06s (cpu)

************** Final PCM Free Energy Summary **************
 G_electrostatic  =      -0.00564950 hartree =      -3.54511493 kcal/mol
 G_cavitation     =       0.00000000 hartree =       0.00000000 kcal/mol
 G_dispersion     =       0.00000000 hartree =       0.00000000 kcal/mol
 G_repulsion      =       0.00000000 hartree =       0.00000000 kcal/mol
 --------------------------------------------------
 Non-electrostatic Free Energy =       0.00000000 hartree =       0.00000000 kcal/mol
 Total                         =      -0.00564950 hartree =      -3.54511493 kcal/mol
 --------------------------------------------------
 SCF Energy (H0 + V/2)                       =    -346.81371620 
 Solute Internal Energy (H0)                 =    -346.80806670 
 Total Free Energy (H0 + V/2 + non-elec)     =    -346.81371620 hartree
                                             = -217628.89159045 kcal/mol
***********************************************************

E_pcm = -0.0056495003
Multipole orders to be included
        2
        3
computing dipole RHS
computing quadrupole RHS
total number of RHS in solve_reponses: 8
RHS batch sizes
        8
Beginning Block Conjugate Gradient Iterations. Batch Number: 0
computing hessian-vector products by finite difference
              1      6.01e-01     00000 Conjugate Gradient Iteration
computing hessian-vector products by finite difference
              2      1.98e-01     00000 Conjugate Gradient Iteration
computing hessian-vector products by finite difference
              3      4.96e-02     00000 Conjugate Gradient Iteration
computing hessian-vector products by finite difference
              4      1.53e-02     00000 Conjugate Gradient Iteration
computing hessian-vector products by finite difference
              5      4.08e-03     00000 Conjugate Gradient Iteration
computing hessian-vector products by finite difference
              6      1.54e-03     00000 Conjugate Gradient Iteration
computing hessian-vector products by finite difference
              7      3.77e-04     00000 Conjugate Gradient Iteration
computing hessian-vector products by finite difference
              8      7.30e-05     00000 Conjugate Gradient Iteration
computing hessian-vector products by finite difference
              9      1.39e-05     00000 Conjugate Gradient Iteration
computing hessian-vector products by finite difference
             10      1.96e-06     00000 Conjugate Gradient Iteration
computing hessian-vector products by finite difference
             11      2.55e-07     00000 Conjugate Gradient Iteration
computing hessian-vector products by finite difference
             12      4.66e-08     00000 Conjugate Gradient Iteration
computing hessian-vector products by finite difference
             13      1.01e-08     00000 Conjugate Gradient Iteration
computing hessian-vector products by finite difference
             14      5.08e-09     00000 CG Converged
batch 0 complete
Done Calculating Responses
TESTING ORTHOGONALIZATION OF MULTIPOLE BASIS
Multipole virts passed orthogonality test
Virts Per Order
           87
          145
 
 --------------------------------------------------------------
 
                    Orbital Energies (a.u.)
 --------------------------------------------------------------
 
 Alpha MOs
 -- Occupied --
-19.2425 -10.3320 -10.2807 -10.2785 -10.2754 -10.2706 -10.2701 -10.2628
 -1.1987  -0.9941  -0.8993  -0.8862  -0.8097  -0.7498  -0.7155  -0.6678
 -0.6022  -0.5825  -0.5516  -0.5422  -0.5366  -0.5228  -0.5081  -0.4759
 -0.4547  -0.4440  -0.4400  -0.3542  -0.3118
 -- Virtual --
  0.0578   0.0582   0.0689   0.0774   0.0829   0.0942   0.1083   0.1101
  0.1133   0.1313   0.1440   0.1500   0.1585   0.1709   0.1755   0.1911
  0.1977   0.2005   0.2119   0.2230   0.2359   0.2400   0.2468   0.2509
  0.2591   0.2657   0.2693   0.2781   0.2808   0.2939   0.2947   0.3023
  0.3031   0.3100   0.3121   0.3245   0.3328   0.3402   0.3434   0.3465
  0.3538   0.3573   0.3623   0.3718   0.3746   0.3775   0.3825   0.3911
  0.3932   0.3943   0.3989   0.4072   0.4144   0.4193   0.4230   0.4330
  0.4341   0.4517   0.4527   0.4583   0.4724   0.4738   0.4751   0.4853
  0.4884   0.4898   0.4970   0.5005   0.5108   0.5128   0.5245   0.5378
  0.5414   0.5421   0.5473   0.5511   0.5587   0.5701   0.5858   0.5908
  0.6004   0.6068   0.6163   0.6323   0.6383   0.6531   0.6570   0.6635
  0.6762   0.6837   0.6846   0.6924   0.6994   0.7055   0.7192   0.7266
  0.7303   0.7410   0.7457   0.7499   0.7588   0.7630   0.7781   0.7836
  0.7881   0.7910   0.7942   0.7977   0.8058   0.8136   0.8226   0.8344
  0.8374   0.8473   0.8480   0.8522   0.8678   0.8747   0.8825   0.8915
  0.9049   0.9073   0.9301   0.9499   0.9674   0.9745   0.9925   1.0121
  1.0182   1.0306   1.0390   1.0446   1.0524   1.0690   1.0770   1.0901
  1.0998   1.1177   1.1311   1.1731   1.1815   1.2275   1.2663   1.2918
  1.3045   1.3186   1.3303   1.3545   1.3650   1.3868   1.3954   1.4281
  1.4584   1.4695   1.4742   1.4857   1.5249   1.5583   1.6043   1.6173
  1.6286   1.6293   1.6839   1.7045   1.7060   1.7225   1.7759   1.7949
  1.8190   1.8259   1.8341   1.8638   1.8664   1.8810   1.9098   1.9216
  1.9395   1.9480   1.9661   1.9815   2.0015   2.0239   2.0364   2.0474
  2.0610   2.0725   2.0870   2.1015   2.1176   2.1449   2.1939   2.2018
  2.2204   2.2265   2.2695   2.2793   2.3122   2.3189   2.3404   2.3647
  2.3883   2.4081   2.4225   2.4672   2.4819   2.4915   2.5189   2.5476
  2.5815   2.5905   2.6120   2.6378   2.6419   2.6683   2.6837   2.7378
  2.7459   2.7615   2.7723   2.8005   2.8129   2.8357   2.8649   2.8750
  2.9072   2.9132   2.9319   2.9432   2.9647   2.9706   2.9760   3.0095
  3.0235   3.0383   3.0681   3.0724   3.0975   3.1205   3.1420   3.1622
  3.1810   3.1961   3.2164   3.2271   3.2451   3.2513   3.2855   3.2929
  3.3125   3.3423   3.3778   3.3854   3.3978   3.4130   3.4464   3.4527
  3.4595   3.4732   3.4912   3.5110   3.5266   3.5306   3.5384   3.5429
  3.5475   3.5657   3.5867   3.5912   3.5945   3.6248   3.6415   3.6636
  3.6847   3.7034   3.7430   3.7612   3.7857   3.8263   3.8330   3.8743
  3.9192   3.9572   3.9638   3.9817   4.0442   4.0865   4.1322   4.1789
  4.2354   4.2664   4.2784   4.3026   4.3100   4.3307   4.3412   4.3532
  4.3772   4.3898   4.4249   4.4485   4.5076   4.5453   4.5826   4.6115
  4.7194   4.7375   4.7835   4.8050   4.8645   4.9176   5.0320   5.0560
  5.0822   5.1078   5.1588   5.2909   5.3357   5.4129   5.4297   5.5078
  5.6108   5.6583   5.7123   5.7429   5.9667   6.2185   6.5151   6.5931
  6.6524   6.8817   7.0231   7.3001   7.4624  22.6407  22.6815  22.9175
 22.9899  23.0373  23.1745  23.5187  44.4307
 --------------------------------------------------------------
 
          Ground-State Mulliken Net Atomic Charges

     Atom                 Charge (a.u.)
  ----------------------------------------
      1 C                    -1.003521
      2 C                    -0.782972
      3 C                     0.889183
      4 C                    -0.411249
      5 C                     0.596704
      6 C                    -0.381552
      7 C                    -0.681929
      8 O                    -0.485576
      9 H                     0.326778
     10 H                     0.296613
     11 H                     0.265665
     12 H                     0.293637
     13 H                     0.266266
     14 H                     0.274762
     15 H                     0.324188
     16 H                     0.213002
  ----------------------------------------
  Sum of atomic charges =     0.000000

 -----------------------------------------------------------------
                    Cartesian Multipole Moments
 -----------------------------------------------------------------
    Charge (ESU x 10^10)
                -0.0000
    Dipole Moment (Debye)
         X      -1.6511      Y       0.4716      Z       0.1906
       Tot       1.7277
    Quadrupole Moments (Debye-Ang)
        XX     -38.8162     XY      -4.0876     YY     -41.5635
        XZ       0.3039     YZ      -4.6407     ZZ     -49.3238
    Octopole Moments (Debye-Ang^2)
       XXX     319.6476    XXY      44.1300    XYY     104.9250
       YYY     110.5407    XXZ     -19.7389    XYZ      12.8744
       YYZ     -22.5946    XZZ     121.5211    YZZ      34.8733
       ZZZ     -69.8864
    Hexadecapole Moments (Debye-Ang^3)
      XXXX   -2071.3306   XXXY    -376.7351   XXYY    -461.9379
      XYYY    -376.1101   YYYY    -697.5295   XXXZ     230.8838
      XXYZ      37.9791   XYYZ      93.3801   YYYZ     189.8888
      XXZZ    -438.3363   XYZZ    -122.1822   YYZZ    -169.7391
      XZZZ     266.9632   YZZZ     216.7026   ZZZZ    -365.3998
 -----------------------------------------------------------------
Archival summary:
1\1\nid00538\SP\ProcedureUnspecified\BasisUnspecified\178\meili\MonSep2704:42:352021MonSep2704:42:352021\0\\#,ProcedureUnspecified,BasisUnspecified,\\0,1\C\O,1,1.35365\H,2,0.961052,1,112.101\C,1,1.37151,2,117.23,3,7.19074,0\H,4,1.08032,1,121.021,2,-0.588152,0\C,1,1.38717,2,120.819,3,-173.349,0\H,6,1.07695,1,119.442,2,-2.85763,0\C,6,1.38621,1,119.924,2,177.672,0\H,8,1.0812,6,119.69,1,179.281,0\C,4,1.39818,1,118.852,2,-177.943,0\H,10,1.08171,4,119.816,1,178.719,0\C,8,1.4008,6,119.899,1,3.19049,0\C,12,1.52231,8,119.543,6,177.594,0\H,13,1.09115,12,108.121,8,21.3275,0\H,13,1.09118,12,109.303,8,137.469,0\H,13,1.1,12,113.926,8,-99.7568,0\\\@

 Total job time:  37867.79s(wall), 75087.97s(cpu) 
 Mon Sep 27 04:42:37 2021

        *************************************************************
        *                                                           *
        *  Thank you very much for using Q-Chem.  Have a nice day.  *
        *                                                           *
        *************************************************************


Done Job For Fragment 1
calling putenv with: QCSCRATCH=/global/cscratch1/sd/meili 
calling putenv with: QCLOCALSCR=/tmp 
calling putenv with: QCTHREADS=32 
Doing General SCFMI
 Exchange:     0.1670 Hartree-Fock + 1.0000 wB97X-V + LR-HF
 Correlation:  1.0000 wB97X-V
 Using Euler-Maclaurin-Lebedev (99,590) quadrature formula
 Nonlocal Correlation:  VV10 with C = 0.0100 and b = 6.00 and scale = 1.00000
 Grid used for NLC:  SG-1 standard quadrature
performing fock build before subrot guess so that all methods have access
Printing subrot_rss_gen Method Specification:
Occupied Subspace Method is 0
Virtual Subspace Method is 0
Energy of the unrelaxed supersystem initial determinant -651.668023163028
performing fock build before subrot guess so that all methods have access
Printing subrot_rss_gen Method Specification:
Occupied Subspace Method is 0
Virtual Subspace Method is 0
Energy of the unrelaxed supersystem initial determinant w/ solvent -651.683336887083
write pseudocanon occs and virts to disk
write pseudocanon orbital energies to disk
Tolerance of ortho_decomp_scf: 1.00e-06
GDM subspace size: 20
Beginning the Orthogonal Decomposition of the Initial Supersystem Wavefunction
    1    -651.6236780824      5.86e-02     ortho_decomp Preconditoned Steepest Descent
    2    -651.6341006242      1.12e-03     ortho_decomp BFGS Step
    3    -651.6341239875      9.07e-05     ortho_decomp BFGS Step
    4    -651.6341240417      3.41e-06     ortho_decomp BFGS Step
    5    -651.6341240418      1.01e-07     ortho_decomp 00000 Convergence criterion met
 Hartree-Fock
 Hartree-Fock
 Hartree-Fock
Doing General SCFMI
 Exchange:     0.1670 Hartree-Fock + 1.0000 wB97X-V + LR-HF
 Correlation:  1.0000 wB97X-V
 Using Euler-Maclaurin-Lebedev (99,590) quadrature formula
 Nonlocal Correlation:  VV10 with C = 0.0100 and b = 6.00 and scale = 1.00000
 Grid used for NLC:  SG-1 standard quadrature
performing fock build at end of subrot_r(subrot) constructor so that all methods have access
<S^2> of initial wavefunction before polarization iterations 0.0000000000
Beginning iterations for the determination of the polarized wavefunction
Energy prior to optimization (guess energy) = -651.683336887083
Begin Timing: Total SCF Calculation
begin iterations for algorithm: DIIS         
the SCF tolerance is set to 1.00e-08
    1    -651.6833368871      1.29e-04     00000 
    2    -651.6845022743      1.15e-04     00000 
    3    -651.6851653990      2.54e-05     00000 
    4    -651.6852493228      1.00e-05     00000 
    5    -651.6852710925      5.93e-06     00000 
    6    -651.6852764661      2.33e-06     00000 
    7    -651.6852773876      8.84e-07     00000 
    8    -651.6852775131      3.65e-07     00000 
    9    -651.6852775358      1.47e-07     00000 
   10    -651.6852775385      6.39e-08     00000 
   11    -651.6852775390      2.25e-08     00000 
   12    -651.6852775390      1.12e-08     00000 
   13    -651.6852775390      4.60e-09     00000 Convergence criterion met
write pseudocanon occs and virts to disk
write pseudocanon orbital energies to disk
Timing for Total SCF: 12455.00s (wall), 24808.02s (cpu)
<S^2> of polarized wavefunction after polarization iterations 0.0000000000
relaxing scfmi constraint to allow all rotations in the entire AO span
Doing General SCFMI
 Exchange:     0.1670 Hartree-Fock + 1.0000 wB97X-V + LR-HF
 Correlation:  1.0000 wB97X-V
 Using Euler-Maclaurin-Lebedev (99,590) quadrature formula
 Nonlocal Correlation:  VV10 with C = 0.0100 and b = 6.00 and scale = 1.00000
 Grid used for NLC:  SG-1 standard quadrature
performing fock build at end of subrot_r(subrot) constructor so that all methods have access
<S^2> of polarized wavefunction before ct-allowed iterations 0.0000000000
Beginning iterations for the determination of the CT-Allowed wavefunction
Energy prior to optimization (guess energy) = -651.685277539033
Begin Timing: Total SCF Calculation
begin iterations for algorithm: DIIS         
the SCF tolerance is set to 1.00e-08
    1    -651.6852775390      6.62e-05     00000 
    2    -651.6863504416      7.17e-06     00000 
    3    -651.6863830265      1.41e-06     00000 
    4    -651.6863839033      1.30e-06     00000 
    5    -651.6863842260      1.34e-07     00000 
    6    -651.6863842366      7.56e-08     00000 
    7    -651.6863842383      2.21e-08     00000 
    8    -651.6863842386      7.27e-09     00000 Convergence criterion met
write pseudocanon occs and virts to disk
write pseudocanon orbital energies to disk
Timing for Total SCF: 7269.00s (wall), 14476.63s (cpu)
<S^2> of ct_allowed wavefunction after ct-allowed iterations 0.0000000000

================================
        Results of EDA2         
================================
Basic EDA Quantities
--------------------
Fragment Energies (Ha):
1 -304.8814873750
2 -346.8137162036
--------------------
  E_prp (kJ/mol) = 0.0000
  E_sol (kJ/mol) = 2.5134
  E_frz (kJ/mol) = 28.6430
  E_pol (kJ/mol) = -5.0952
  E_vct (kJ/mol) = -2.9057
  E_int (kJ/mol) = 23.1555
--------------------


Initial Wavefunction Decomposition
--------------------
  --------------------
  Orthogonal Fragment Subspace Decomposition:
  --------------------
     E_elec   (ELEC)   (kJ/mol) = -45.2043
     E_pauli  (PAULI)  (kJ/mol) = 96.1508
     E_disp   (DISP)   (kJ/mol) = -22.3036
     --------------------
     Terms summing to E_pauli:
     --------------------
        E_kep_pauli       (kJ/mol) = 117.6462
        E_disp_free_pauli (kJ/mol) = -21.4953
  --------------------
  Classical Frozen Decomposition:
  --------------------
     E_cls_elec  (CLS ELEC)  (kJ/mol) = 2.6123
     E_cls_pauli (CLS PAULI) (kJ/mol) = 26.0307
    [E_mod_pauli (MOD PAULI) (kJ/mol) = 48.3343 (CLS PAULI - DISP from orthogonal decomposition) ]
  --------------------
--------------------

Simplified EDA Summary (kJ/mol)
--------------------
 PREPARATION     0.0000
 SOLVATION       2.5134
 FROZEN          50.9466      (does not include dispersion)
[PAULI           96.1508]     (if this is negligible, then frozen describes electrostatics)
 DISPERSION      -22.3036
 POLARIZATION    -5.0952
 CHARGE TRANSFER -2.9057
 TOTAL           23.1555     (PRP + SOL + FRZ + DISP + POL + CT)
--------------------
 
 --------------------------------------------------------------
 
                    Orbital Energies (a.u.)
 --------------------------------------------------------------
 
 Alpha MOs
 -- Occupied --
-19.2274 -14.4627 -14.3746 -10.3260 -10.3154 -10.2853 -10.2797 -10.2772
-10.2753 -10.2719 -10.2677 -10.2663 -10.2640 -10.2613 -10.2589  -1.1864
 -1.1528  -0.9948  -0.9898  -0.9148  -0.8954  -0.8820  -0.8553  -0.8057
 -0.7674  -0.7446  -0.7195  -0.7101  -0.6797  -0.6658  -0.6609  -0.5966
 -0.5813  -0.5723  -0.5496  -0.5473  -0.5420  -0.5379  -0.5369  -0.5333
 -0.5315  -0.5176  -0.5020  -0.4705  -0.4671  -0.4550  -0.4521  -0.4512
 -0.4375  -0.4344  -0.3724  -0.3560  -0.3498  -0.3201  -0.3057
 -- Virtual --
  0.0555   0.0609   0.0660   0.0675   0.0765   0.0816   0.0879   0.0926
  0.0946   0.1026   0.1073   0.1082   0.1126   0.1221   0.1318   0.1359
  0.1432   0.1458   0.1529   0.1564   0.1622   0.1641   0.1680   0.1775
  0.1803   0.1830   0.1885   0.1944   0.2037   0.2057   0.2083   0.2123
  0.2172   0.2211   0.2238   0.2292   0.2347   0.2366   0.2441   0.2455
  0.2499   0.2549   0.2596   0.2630   0.2702   0.2728   0.2737   0.2779
  0.2819   0.2844   0.2854   0.2869   0.2941   0.2992   0.3031   0.3056
  0.3090   0.3105   0.3123   0.3155   0.3178   0.3222   0.3284   0.3344
  0.3371   0.3401   0.3419   0.3446   0.3466   0.3496   0.3502   0.3531
  0.3569   0.3605   0.3617   0.3674   0.3724   0.3738   0.3750   0.3772
  0.3828   0.3831   0.3863   0.3872   0.3924   0.3948   0.3975   0.4007
  0.4051   0.4100   0.4134   0.4181   0.4211   0.4251   0.4273   0.4332
  0.4339   0.4360   0.4413   0.4447   0.4492   0.4539   0.4569   0.4571
  0.4597   0.4649   0.4674   0.4720   0.4736   0.4769   0.4823   0.4848
  0.4883   0.4933   0.4946   0.4986   0.5001   0.5051   0.5081   0.5122
  0.5166   0.5178   0.5208   0.5279   0.5329   0.5341   0.5372   0.5415
  0.5466   0.5485   0.5526   0.5556   0.5602   0.5649   0.5684   0.5748
  0.5764   0.5820   0.5866   0.5903   0.5938   0.5994   0.6003   0.6066
  0.6115   0.6178   0.6231   0.6276   0.6288   0.6360   0.6422   0.6426
  0.6459   0.6504   0.6568   0.6620   0.6672   0.6698   0.6752   0.6799
  0.6867   0.6877   0.6935   0.6974   0.7048   0.7081   0.7120   0.7151
  0.7180   0.7195   0.7256   0.7318   0.7359   0.7409   0.7425   0.7459
  0.7507   0.7535   0.7603   0.7613   0.7656   0.7664   0.7701   0.7718
  0.7781   0.7811   0.7857   0.7888   0.7956   0.7984   0.8001   0.8014
  0.8077   0.8099   0.8138   0.8194   0.8226   0.8274   0.8301   0.8316
  0.8369   0.8409   0.8468   0.8529   0.8566   0.8587   0.8662   0.8695
  0.8733   0.8781   0.8815   0.8881   0.8892   0.8923   0.9029   0.9110
  0.9154   0.9197   0.9243   0.9293   0.9317   0.9463   0.9510   0.9551
  0.9609   0.9649   0.9738   0.9786   0.9902   1.0047   1.0126   1.0188
  1.0225   1.0332   1.0357   1.0430   1.0499   1.0559   1.0636   1.0678
  1.0711   1.0830   1.0871   1.0894   1.0949   1.1031   1.1123   1.1189
  1.1265   1.1292   1.1356   1.1427   1.1532   1.1635   1.1699   1.1739
  1.1822   1.1930   1.1995   1.2058   1.2267   1.2362   1.2424   1.2516
  1.2561   1.2623   1.2718   1.2873   1.2979   1.3127   1.3325   1.3403
  1.3537   1.3683   1.3741   1.3772   1.3812   1.4018   1.4034   1.4114
  1.4197   1.4337   1.4378   1.4480   1.4559   1.4756   1.4771   1.4846
  1.5021   1.5081   1.5233   1.5286   1.5400   1.5521   1.5587   1.5683
  1.5812   1.5955   1.6302   1.6390   1.6514   1.6635   1.6689   1.6750
  1.7128   1.7151   1.7222   1.7316   1.7399   1.7529   1.7612   1.7776
  1.7882   1.7942   1.8307   1.8405   1.8528   1.8620   1.8739   1.8896
  1.8925   1.8942   1.9078   1.9172   1.9292   1.9392   1.9407   1.9448
  1.9489   1.9519   1.9603   1.9676   1.9738   1.9751   1.9832   1.9914
  2.0059   2.0144   2.0246   2.0267   2.0328   2.0403   2.0464   2.0513
  2.0631   2.0709   2.0797   2.0873   2.0942   2.0997   2.1071   2.1198
  2.1311   2.1401   2.1536   2.1603   2.1780   2.1832   2.2165   2.2198
  2.2288   2.2361   2.2552   2.2561   2.2776   2.2857   2.2919   2.3146
  2.3227   2.3290   2.3500   2.3616   2.3820   2.3872   2.4036   2.4110
  2.4205   2.4254   2.4359   2.4417   2.4437   2.4641   2.4838   2.5013
  2.5145   2.5288   2.5426   2.5694   2.5714   2.5889   2.5951   2.6039
  2.6147   2.6256   2.6311   2.6372   2.6405   2.6510   2.6617   2.6654
  2.6802   2.6912   2.7030   2.7140   2.7278   2.7366   2.7431   2.7490
  2.7559   2.7664   2.7907   2.7942   2.8077   2.8121   2.8227   2.8258
  2.8378   2.8516   2.8619   2.8687   2.8902   2.8942   2.9006   2.9199
  2.9342   2.9428   2.9566   2.9607   2.9680   2.9789   2.9825   2.9952
  2.9987   3.0022   3.0061   3.0300   3.0402   3.0554   3.0661   3.0783
  3.0889   3.0949   3.1052   3.1115   3.1166   3.1226   3.1432   3.1530
  3.1722   3.1810   3.1892   3.1963   3.2064   3.2157   3.2286   3.2315
  3.2379   3.2545   3.2628   3.2727   3.2752   3.2872   3.2900   3.3061
  3.3094   3.3207   3.3306   3.3410   3.3473   3.3542   3.3608   3.3824
  3.3934   3.3982   3.4139   3.4167   3.4274   3.4287   3.4341   3.4402
  3.4468   3.4579   3.4725   3.4789   3.4808   3.4932   3.4991   3.5122
  3.5229   3.5260   3.5284   3.5324   3.5471   3.5540   3.5581   3.5616
  3.5686   3.5736   3.5897   3.6009   3.6036   3.6133   3.6144   3.6288
  3.6382   3.6413   3.6568   3.6718   3.6755   3.6865   3.6966   3.7054
  3.7212   3.7285   3.7321   3.7482   3.7512   3.7676   3.7810   3.7860
  3.8025   3.8330   3.8401   3.8600   3.8815   3.8900   3.8925   3.9363
  3.9411   3.9647   3.9756   3.9866   3.9926   4.0163   4.0555   4.0887
  4.1064   4.1102   4.1264   4.1506   4.1573   4.1763   4.1807   4.2083
  4.2122   4.2536   4.2878   4.3048   4.3161   4.3219   4.3432   4.3468
  4.3580   4.3596   4.3646   4.3913   4.4196   4.4420   4.4716   4.4737
  4.4986   4.5191   4.5318   4.5442   4.5725   4.5759   4.5949   4.6212
  4.6382   4.6779   4.7111   4.7293   4.7510   4.7898   4.8145   4.8227
  4.8331   4.8756   4.8855   4.8907   4.9019   4.9406   4.9565   4.9896
  5.0587   5.0647   5.0741   5.0885   5.1120   5.1152   5.1204   5.1323
  5.1438   5.1865   5.2041   5.2767   5.2823   5.3061   5.3346   5.3499
  5.4078   5.4340   5.4467   5.4715   5.5180   5.5458   5.5674   5.6186
  5.6406   5.6516   5.6808   5.7290   5.7306   5.7411   5.7745   5.8283
  5.8544   5.9408   5.9954   6.1113   6.2673   6.2694   6.3094   6.5283
  6.6380   6.6992   6.9191   7.0805   7.3815   7.5156  22.6450  22.6579
 22.7275  22.8597  22.9418  22.9865  23.0087  23.0669  23.1913  23.1984
 23.4654  23.5424  32.7436  32.8960  44.5075
 --------------------------------------------------------------
 
          Ground-State Mulliken Net Atomic Charges

     Atom                 Charge (a.u.)
  ----------------------------------------
      1 C                     0.370645
      2 C                    -0.931666
      3 C                     0.079769
      4 C                    -0.474819
      5 C                    -0.435755
      6 N                    -0.209942
      7 N                     0.100914
      8 H                    -0.014160
      9 H                     0.158260
     10 H                     0.232002
     11 H                     0.244892
     12 H                     0.279533
     13 H                     0.173373
     14 H                     0.220190
     15 H                     0.251010
     16 C                    -1.054856
     17 C                    -0.510041
     18 C                     0.538739
     19 C                    -0.639110
     20 C                     0.556123
     21 C                    -0.474287
     22 C                    -0.557308
     23 O                    -0.364618
     24 H                     0.461055
     25 H                     0.326570
     26 H                     0.306128
     27 H                     0.269202
     28 H                     0.264394
     29 H                     0.278908
     30 H                     0.343362
     31 H                     0.211493
  ----------------------------------------
  Sum of atomic charges =     0.000000

 -----------------------------------------------------------------
                    Cartesian Multipole Moments
 -----------------------------------------------------------------
    Charge (ESU x 10^10)
                 0.0000
    Dipole Moment (Debye)
         X       1.8914      Y       0.7999      Z      -2.5149
       Tot       3.2469
    Quadrupole Moments (Debye-Ang)
        XX     -67.9350     XY      -0.7730     YY     -85.6332
        XZ      -9.8006     YZ     -10.9703     ZZ     -79.0554
    Octopole Moments (Debye-Ang^2)
       XXX      39.5738    XXY      33.3555    XYY     -12.1943
       YYY      23.2473    XXZ     -48.7792    XYZ      -6.9848
       YYZ     -18.4267    XZZ      46.0515    YZZ      31.9047
       ZZZ     -63.9775
    Hexadecapole Moments (Debye-Ang^3)
      XXXX   -4013.7437   XXXY    -498.7558   XXYY    -896.6102
      XYYY    -573.5137   YYYY   -1054.1299   XXXZ     139.7675
      XXYZ      33.4514   XYYZ     100.1506   YYYZ     345.4637
      XXZZ    -770.5883   XYZZ    -114.1424   YYZZ    -296.8023
      XZZZ     229.6376   YZZZ     307.7398   ZZZZ    -889.9419
 -----------------------------------------------------------------
Archival summary:
1\1\nid00538\SP\ProcedureUnspecified\BasisUnspecified\121216\meili\MonSep2714:28:072021MonSep2714:28:072021\0\\#,ProcedureUnspecified,BasisUnspecified,\\0,1\O\H,1,0.961052\C,1,1.35365,2,112.101\C,3,1.37151,1,117.23,2,7.19074,0\H,4,1.08032,3,121.021,1,-0.588152,0\C,3,1.38717,1,120.819,2,-173.349,0\H,6,1.07695,3,119.442,1,-2.85763,0\C,6,1.38621,3,119.924,1,177.672,0\H,8,1.0812,6,119.69,3,179.281,0\C,4,1.39818,3,118.852,1,-177.943,0\H,10,1.08171,4,119.816,3,178.719,0\C,8,1.4008,6,119.899,3,3.19049,0\C,12,1.52231,8,119.543,6,177.594,0\H,13,1.09115,12,108.121,8,21.3275,0\H,13,1.09118,12,109.303,8,137.469,0\H,13,1.1,12,113.926,8,-99.7568,0\H,7,2.1582,6,125.438,3,97.8993,0\C,17,1.08809,7,132.546,6,-140.701,0\H,18,1.09107,17,107.75,7,124.545,0\C,18,1.50266,17,109.751,7,7.46954,0\C,20,1.3636,18,130.913,17,-138.927,0\H,21,1.07675,20,127.108,18,-2.46865,0\N,20,1.37104,18,122.107,17,44.4389,0\C,23,1.32622,20,108.561,18,176.442,0\H,24,1.08265,23,125.387,20,179.808,0\N,24,1.32718,23,109.262,20,1.55572,0\H,26,1.01418,24,125.013,23,-179.576,0\C,18,1.53967,17,109.267,7,-117.527,0\H,28,1.09187,18,107.628,17,179.01,0\H,28,1.09999,18,110.247,17,-63.2296,0\H,28,1.10001,18,112.21,17,56.8967,0\\\@

 Total job time:  103720.63s(wall), 70026.49s(cpu) 
 Mon Sep 27 14:28:08 2021

        *************************************************************
        *                                                           *
        *  Thank you very much for using Q-Chem.  Have a nice day.  *
        *                                                           *
        *************************************************************


