
Running Job 1 of 1 SSI-109ARG-115GLU-1_SMD_TZVPD.in
qchem SSI-109ARG-115GLU-1_SMD_TZVPD.in_55382.0 /tmp/qchem55382/ 0
/global/common/cori/software/qchem/5.2/exe/qcprog.exe_s SSI-109ARG-115GLU-1_SMD_TZVPD.in_55382.0 /tmp/qchem55382/
                  Welcome to Q-Chem
     A Quantum Leap Into The Future Of Chemistry


 Q-Chem 5.2, Q-Chem, Inc., Pleasanton, CA (2019)

 License issued to: National Energy Research Scientific Computing Center

 Yihan Shao,  Zhengting Gan,  E. Epifanovsky,  A. T. B. Gilbert,  M. Wormit,  
 J. Kussmann,  A. W. Lange,  A. Behn,  Jia Deng,  Xintian Feng,  D. Ghosh,  
 M. Goldey,  P. R. Horn,  L. D. Jacobson,  I. Kaliman,  T. Kus,  A. Landau,  
 Jie Liu,  E. I. Proynov,  R. M. Richard,  R. P. Steele,  E. J. Sundstrom,  
 H. L. Woodcock III,  P. M. Zimmerman,  D. Zuev,  B. Albrecht,  E. Alguire,  
 S. A. Baeppler,  D. Barton,  Z. Benda,  Y. A. Bernard,  E. J. Berquist,  
 K. B. Bravaya,  H. Burton,  D. Casanova,  Chun-Min Chang,  Yunqing Chen,  
 A. Chien,  K. D. Closser,  M. P. Coons,  S. Coriani,  S. Dasgupta,  
 A. L. Dempwolff,  M. Diedenhofen,  Hainam Do,  R. G. Edgar,  Po-Tung Fang,  
 S. Faraji,  S. Fatehi,  Qingguo Feng,  K. D. Fenk,  J. Fosso-Tande,  
 J. Gayvert,  Qinghui Ge,  A. Ghysels,  G. Gidofalvi,  J. Gomes,  
 J. Gonthier,  A. Gunina,  D. Hait,  M. W. D. Hanson-Heine,  
 P. H. P. Harbach,  A. W. Hauser,  M. F. Herbst,  J. E. Herr,  
 E. G. Hohenstein,  Z. C. Holden,  Kerwin Hui,  B. C. Huynh,  T.-C. Jagau,  
 Hyunjun Ji,  B. Kaduk,  K. Khistyaev,  Jaehoon Kim,  P. Klunzinger,  K. Koh,  
 D. Kosenkov,  L. Koulias,  T. Kowalczyk,  C. M. Krauter,  A. Kunitsa,  
 Ka Un Lao,  A. Laurent,  K. V. Lawler,  Joonho Lee,  D. Lefrancois,  
 S. Lehtola,  D. S. Levine,  Yi-Pei Li,  You-Sheng Lin,  Fenglai Liu,  
 E. Livshits,  A. Luenser,  P. Manohar,  E. Mansoor,  S. F. Manzer,  
 Shan-Ping Mao,  Yuezhi Mao,  N. Mardirossian,  A. V. Marenich,  
 T. Markovich,  L. A. Martinez-Martinez,  S. A. Maurer,  N. J. Mayhall,  
 S. C. McKenzie,  J.-M. Mewes,  P. Morgante,  A. F. Morrison,  
 J. W. Mullinax,  K. Nanda,  T. S. Nguyen-Beck,  R. Olivares-Amaya,  
 J. A. Parkhill,  Zheng Pei,  T. M. Perrine,  F. Plasser,  P. Pokhilko,  
 S. Prager,  A. Prociuk,  E. Ramos,  D. R. Rehn,  F. Rob,  M. Scheurer,  
 M. Schneider,  N. Sergueev,  S. M. Sharada,  S. Sharma,  D. W. Small,  
 T. Stauch,  T. Stein,  Yu-Chuan Su,  A. J. W. Thom,  A. Tkatchenko,  
 T. Tsuchimochi,  N. M. Tubman,  L. Vogt,  M. L. Vidal,  O. Vydrov,  
 M. A. Watson,  J. Wenzel,  M. de Wergifosse,  T. A. Wesolowski,  A. White,  
 J. Witte,  A. Yamada,  Jun Yang,  K. Yao,  S. Yeganeh,  S. R. Yost,  
 Zhi-Qiang You,  A. Zech,  Igor Ying Zhang,  Xing Zhang,  Yan Zhao,  
 Ying Zhu,  B. R. Brooks,  G. K. L. Chan,  C. J. Cramer,  M. S. Gordon,  
 W. J. Hehre,  A. Klamt,  M. W. Schmidt,  C. D. Sherrill,  D. G. Truhlar,  
 A. Aspuru-Guzik,  R. Baer,  A. T. Bell,  N. A. Besley,  Jeng-Da Chai,  
 A. E. DePrince, III,  R. A. DiStasio Jr.,  A. Dreuw,  B. D. Dunietz,  
 T. R. Furlani,  Chao-Ping Hsu,  Yousung Jung,  Jing Kong,  D. S. Lambrecht,  
 WanZhen Liang,  C. Ochsenfeld,  V. A. Rassolov,  L. V. Slipchenko,  
 J. E. Subotnik,  T. Van Voorhis,  J. M. Herbert,  A. I. Krylov,  
 P. M. W. Gill,  M. Head-Gordon

 Contributors to earlier versions of Q-Chem not listed above: 
 R. D. Adamson,  B. Austin,  J. Baker,  G. J. O. Beran,  K. Brandhorst,  
 S. T. Brown,  E. F. C. Byrd,  A. K. Chakraborty,  C.-L. Cheng,  
 Siu Hung Chien,  D. M. Chipman,  D. L. Crittenden,  H. Dachsel,  
 R. J. Doerksen,  A. D. Dutoi,  L. Fusti-Molnar,  W. A. Goddard III,  
 A. Golubeva-Zadorozhnaya,  S. R. Gwaltney,  G. Hawkins,  A. Heyden,  
 S. Hirata,  G. Kedziora,  F. J. Keil,  C. Kelley,  Jihan Kim,  R. A. King,  
 R. Z. Khaliullin,  P. P. Korambath,  W. Kurlancheek,  A. M. Lee,  M. S. Lee,  
 S. V. Levchenko,  Ching Yeh Lin,  D. Liotard,  R. C. Lochan,  I. Lotan,  
 P. E. Maslen,  N. Nair,  D. P. O'Neill,  D. Neuhauser,  E. Neuscamman,  
 C. M. Oana,  R. Olson,  B. Peters,  R. Peverati,  P. A. Pieniazek,  
 Y. M. Rhee,  J. Ritchie,  M. A. Rohrdanz,  E. Rosta,  N. J. Russ,  
 H. F. Schaefer III,  N. E. Schultz,  N. Shenvi,  A. C. Simmonett,  A. Sodt,  
 D. Stuck,  K. S. Thanthiriwatte,  V. Vanovschi,  Tao Wang,  A. Warshel,  
 C. F. Williams,  Q. Wu,  X. Xu,  W. Zhang

 Please cite Q-Chem as follows:
 Y. Shao et al., Mol. Phys. 113, 184-215 (2015)
 DOI: 10.1080/00268976.2014.952696

 Q-Chem 5.2.0 for Intel X86 EM64T Linux

 Parts of Q-Chem use Armadillo 8.300.2 (Tropical Shenanigans).
 http://arma.sourceforge.net/

 Q-Chem begins on Sun Sep 26 13:30:47 2021  

Host: cori01
0

     Scratch files written to /tmp/qchem55382//
 May1019 |scratch|qcdevops|jenkins|workspace|build_RNUM -1
Processing $rem in /global/common/cori/software/qchem/5.2/config/preferences:
	 MEM_TOTAL  96000 
NAlpha2: 80
NElect   80
Mult     1
Symmetry turned off for PCM/SM12/SMD calculation

 Q-Chem warning in module libgen/rem_setup.C, line 2803:

 Neither GIA nor STOLL is specified by user. Use STOLL as the default


Checking the input file for inconsistencies... 	...done.

--------------------------------------------------------------
User input:
--------------------------------------------------------------
$comment
SSI-109ARG-115GLU-1.pdb
$end

$molecule
0 1
--
1 1
C    1.746235710440   -0.665823430651    0.930478519207
C    1.003235710440   -1.251823430651    2.133478519207
C    0.914235710440    1.619176569349    0.432478519207
N    0.945235710440    0.319176569349    0.193478519207
N    1.646235710440    2.139176569349    1.400478519207
N    0.146235710440    2.404176569349   -0.292521480793
H    2.698235710440   -0.240823430651    1.253478519207
H    1.984235710440   -1.486823430651    0.252478519207
H    1.652235710440   -1.978823430651    2.622478519207
H    0.107235710440   -1.768823430651    1.789478519207
H    0.297235710440   -0.057823430651   -0.499521480793
H    2.339235710440    1.580176569349    1.864478519207
H    1.632235710440    3.135176569349    1.563478519207
H   -0.468764289560    1.956176569349   -0.966521480793
H    0.125235710440    3.400176569349   -0.154521480793
H    0.717835710440   -0.474383430651    2.857450519207
--
-1 1
C   -2.804764289560   -1.935823430651   -1.142521480793
C   -1.519764289560   -1.114823430651   -1.208521480793
O   -0.442764289560   -1.697823430651   -0.960521480793
O   -1.568764289560    0.104176569349   -1.493521480793
H   -2.965764289560   -2.220823430651   -0.101521480793
H   -2.686764289560   -2.847823430651   -1.729521480793
H   -3.678384289560   -1.387553430651   -1.524866480793
$end

$rem
JOBTYPE			EDA
EDA2			1
method			wB97X-V
BASIS			def2-TZVPD
XC_GRID			000099000590
NL_GRID			1
UNRESTRICTED		FALSE
MAX_SCF_CYCLES		200
SYMMETRY		FALSE
SYM_IGNORE		TRUE
MEM_STATIC		2000
BASIS_LIN_DEP_THRESH 	6
THRESH 			14
SCF_CONVERGENCE 	8
SCF_PRINT_FRGM 		TRUE
SOLVENT_METHOD          SMD
$end

$SMX
SOLVENT			WATER
$END
--------------------------------------------------------------
 ----------------------------------------------------------------
             Standard Nuclear Orientation (Angstroms)
    I     Atom           X                Y                Z
 ----------------------------------------------------------------
    1      C       1.7462357104    -0.6658234307     0.9304785192
    2      C       1.0032357104    -1.2518234307     2.1334785192
    3      C       0.9142357104     1.6191765693     0.4324785192
    4      N       0.9452357104     0.3191765693     0.1934785192
    5      N       1.6462357104     2.1391765693     1.4004785192
    6      N       0.1462357104     2.4041765693    -0.2925214808
    7      H       2.6982357104    -0.2408234307     1.2534785192
    8      H       1.9842357104    -1.4868234307     0.2524785192
    9      H       1.6522357104    -1.9788234307     2.6224785192
   10      H       0.1072357104    -1.7688234307     1.7894785192
   11      H       0.2972357104    -0.0578234307    -0.4995214808
   12      H       2.3392357104     1.5801765693     1.8644785192
   13      H       1.6322357104     3.1351765693     1.5634785192
   14      H      -0.4687642896     1.9561765693    -0.9665214808
   15      H       0.1252357104     3.4001765693    -0.1545214808
   16      H       0.7178357104    -0.4743834307     2.8574505192
   17      C      -2.8047642896    -1.9358234307    -1.1425214808
   18      C      -1.5197642896    -1.1148234307    -1.2085214808
   19      O      -0.4427642896    -1.6978234307    -0.9605214808
   20      O      -1.5687642896     0.1041765693    -1.4935214808
   21      H      -2.9657642896    -2.2208234307    -0.1015214808
   22      H      -2.6867642896    -2.8478234307    -1.7295214808
   23      H      -3.6783842896    -1.3875534307    -1.5248664808
 ----------------------------------------------------------------
 Nuclear Repulsion Energy =         567.20343664 hartrees
 There are       40 alpha and       40 beta electrons
 Requested basis set is def2-TZVPD
 There are 197 shells and 493 basis functions

 Total QAlloc Memory Limit  96000 MB
 Mega-Array Size      1956 MB
 MEM_STATIC part      2000 MB
 
 Citation of the SMD model:
 Marenich, A.V.; Cramer, C.J.; Truhlar, D.G.
 J. Phys. Chem. B 2009, 113, 6378-6396.
 iSolventCode=           1
 Solvent: water                                                           
 
 vradii
            1           2           3           4           5           6
    1   1.8500000   1.8500000   1.8500000   1.8900000   1.8900000   1.8900000
            7           8           9          10          11          12
    1   1.2000000   1.2000000   1.2000000   1.2000000   1.2000000   1.2000000
           13          14          15          16          17          18
    1   1.2000000   1.2000000   1.2000000   1.2000000   1.8500000   1.8500000
           19          20          21          22          23
    1   1.5200000   1.5200000   1.2000000   1.2000000   1.2000000
 Changing PCM_VDW_RADII to SMD_RADIUS
 Discretize the solute cavity surface with Lebedev spheres
	Using 110 Lebedev grid points for each H atom
	Using 194 Lebedev grid points for other atoms
	Atomic van der Waals radii will be scaled by 1.20
 Remove points where switching function is < 1.0e-08
 Keep 1661 surface tesserae and discard 1709 interior tesserae
 Molecular Surface Area = 196.479 Angst**2
 A cutoff of  1.0D-14 yielded  17619 shell pairs
 There are    111755 function pairs (    140296 Cartesian)
 Smallest overlap matrix eigenvalue = 7.01E-06

 Scale SEOQF with 1.000000e-01/1.000000e-01/1.000000e-01

 Standard Electronic Orientation quadrupole field applied
 Nucleus-field energy     =     0.0000000084 hartrees

 -----------------------------------------------------------------------
  General SCF calculation program by
  Eric Jon Sundstrom, Paul Horn, Yuezhi Mao, Dmitri Zuev, Alec White,
  David Stuck, Shaama M.S., Shane Yost, Joonho Lee, David Small,
  Daniel Levine, Susi Lehtola, Hugh Burton, Evgeny Epifanovsky
 -----------------------------------------------------------------------
================================================================
                 ALMO-EDA with the EDA2 driver                  
================================================================
 The second-generation ALMO-EDA (for DFT):                      
 P. R. Horn, Y. Mao and M. Head-Gordon, PCCP, 18, 23067 (2016)  
 Decomposition of the frozen energy:                            
 P. R. Horn, Y. Mao and M. Head-Gordon, JCP, 144, 114107 (2016) 
 FERF model for polarization:                                   
 P. R. Horn and M. Head-Gordon, JCP, 143, 114111 (2015)         
Using eda2 option set 1
Option set summary: Frozen orbital wavefunction, initial wavefunction decomposition, and nDQ polarization.
--------------------------------
Printing EDA Options
--------------------------------
eda_child_super_basis      0
fragmo_guess_mode          0
child_mp                   1
child_mp_orders            232
cls_elec                   1
cls_disp                   0
scfmi_mode                 1
scfmi_occs                 0
scfmi_virts                0
frz_relax                  0
frz_relax_method           0
dc_pen_start               0
dc_pen_conv                0
dc_pen_increment           0
dc_pen_steps               0
dc_pen_thresh_factor       0
dc_pen_pre_newton_thresh   0
frz_ortho_decomp           1
frz_ortho_decomp_conv      6
frgm_method                2
scfmi_freeze_ss            0
separate_rehyb             0
plot_diff_den              0
eda_nocv                   0
eda_vct_relax              1
disp_free_x                0
disp_free_c                0
eda_bsse                   0
eda_pct_a                  0
eda_covp                   0
--------------------------------
Attempting to make child job directory: /tmp/qchem55382//Frg1/
Attempting to make child job directory: /tmp/qchem55382//Frg2/
Creating input file /tmp/qchem55382/Frg1.input
using default PutDataFrgm: nothing
calling putenv with: QCSCRATCH=/tmp/qchem55382/ 
calling putenv with: QCLOCALSCR=/tmp/qchem55382/ 
Spawning Job For Fragment 0
                  Welcome to Q-Chem
     A Quantum Leap Into The Future Of Chemistry


 Q-Chem 5.2, Q-Chem, Inc., Pleasanton, CA (2019)

 License issued to: National Energy Research Scientific Computing Center

 Yihan Shao,  Zhengting Gan,  E. Epifanovsky,  A. T. B. Gilbert,  M. Wormit,  
 J. Kussmann,  A. W. Lange,  A. Behn,  Jia Deng,  Xintian Feng,  D. Ghosh,  
 M. Goldey,  P. R. Horn,  L. D. Jacobson,  I. Kaliman,  T. Kus,  A. Landau,  
 Jie Liu,  E. I. Proynov,  R. M. Richard,  R. P. Steele,  E. J. Sundstrom,  
 H. L. Woodcock III,  P. M. Zimmerman,  D. Zuev,  B. Albrecht,  E. Alguire,  
 S. A. Baeppler,  D. Barton,  Z. Benda,  Y. A. Bernard,  E. J. Berquist,  
 K. B. Bravaya,  H. Burton,  D. Casanova,  Chun-Min Chang,  Yunqing Chen,  
 A. Chien,  K. D. Closser,  M. P. Coons,  S. Coriani,  S. Dasgupta,  
 A. L. Dempwolff,  M. Diedenhofen,  Hainam Do,  R. G. Edgar,  Po-Tung Fang,  
 S. Faraji,  S. Fatehi,  Qingguo Feng,  K. D. Fenk,  J. Fosso-Tande,  
 J. Gayvert,  Qinghui Ge,  A. Ghysels,  G. Gidofalvi,  J. Gomes,  
 J. Gonthier,  A. Gunina,  D. Hait,  M. W. D. Hanson-Heine,  
 P. H. P. Harbach,  A. W. Hauser,  M. F. Herbst,  J. E. Herr,  
 E. G. Hohenstein,  Z. C. Holden,  Kerwin Hui,  B. C. Huynh,  T.-C. Jagau,  
 Hyunjun Ji,  B. Kaduk,  K. Khistyaev,  Jaehoon Kim,  P. Klunzinger,  K. Koh,  
 D. Kosenkov,  L. Koulias,  T. Kowalczyk,  C. M. Krauter,  A. Kunitsa,  
 Ka Un Lao,  A. Laurent,  K. V. Lawler,  Joonho Lee,  D. Lefrancois,  
 S. Lehtola,  D. S. Levine,  Yi-Pei Li,  You-Sheng Lin,  Fenglai Liu,  
 E. Livshits,  A. Luenser,  P. Manohar,  E. Mansoor,  S. F. Manzer,  
 Shan-Ping Mao,  Yuezhi Mao,  N. Mardirossian,  A. V. Marenich,  
 T. Markovich,  L. A. Martinez-Martinez,  S. A. Maurer,  N. J. Mayhall,  
 S. C. McKenzie,  J.-M. Mewes,  P. Morgante,  A. F. Morrison,  
 J. W. Mullinax,  K. Nanda,  T. S. Nguyen-Beck,  R. Olivares-Amaya,  
 J. A. Parkhill,  Zheng Pei,  T. M. Perrine,  F. Plasser,  P. Pokhilko,  
 S. Prager,  A. Prociuk,  E. Ramos,  D. R. Rehn,  F. Rob,  M. Scheurer,  
 M. Schneider,  N. Sergueev,  S. M. Sharada,  S. Sharma,  D. W. Small,  
 T. Stauch,  T. Stein,  Yu-Chuan Su,  A. J. W. Thom,  A. Tkatchenko,  
 T. Tsuchimochi,  N. M. Tubman,  L. Vogt,  M. L. Vidal,  O. Vydrov,  
 M. A. Watson,  J. Wenzel,  M. de Wergifosse,  T. A. Wesolowski,  A. White,  
 J. Witte,  A. Yamada,  Jun Yang,  K. Yao,  S. Yeganeh,  S. R. Yost,  
 Zhi-Qiang You,  A. Zech,  Igor Ying Zhang,  Xing Zhang,  Yan Zhao,  
 Ying Zhu,  B. R. Brooks,  G. K. L. Chan,  C. J. Cramer,  M. S. Gordon,  
 W. J. Hehre,  A. Klamt,  M. W. Schmidt,  C. D. Sherrill,  D. G. Truhlar,  
 A. Aspuru-Guzik,  R. Baer,  A. T. Bell,  N. A. Besley,  Jeng-Da Chai,  
 A. E. DePrince, III,  R. A. DiStasio Jr.,  A. Dreuw,  B. D. Dunietz,  
 T. R. Furlani,  Chao-Ping Hsu,  Yousung Jung,  Jing Kong,  D. S. Lambrecht,  
 WanZhen Liang,  C. Ochsenfeld,  V. A. Rassolov,  L. V. Slipchenko,  
 J. E. Subotnik,  T. Van Voorhis,  J. M. Herbert,  A. I. Krylov,  
 P. M. W. Gill,  M. Head-Gordon

 Contributors to earlier versions of Q-Chem not listed above: 
 R. D. Adamson,  B. Austin,  J. Baker,  G. J. O. Beran,  K. Brandhorst,  
 S. T. Brown,  E. F. C. Byrd,  A. K. Chakraborty,  C.-L. Cheng,  
 Siu Hung Chien,  D. M. Chipman,  D. L. Crittenden,  H. Dachsel,  
 R. J. Doerksen,  A. D. Dutoi,  L. Fusti-Molnar,  W. A. Goddard III,  
 A. Golubeva-Zadorozhnaya,  S. R. Gwaltney,  G. Hawkins,  A. Heyden,  
 S. Hirata,  G. Kedziora,  F. J. Keil,  C. Kelley,  Jihan Kim,  R. A. King,  
 R. Z. Khaliullin,  P. P. Korambath,  W. Kurlancheek,  A. M. Lee,  M. S. Lee,  
 S. V. Levchenko,  Ching Yeh Lin,  D. Liotard,  R. C. Lochan,  I. Lotan,  
 P. E. Maslen,  N. Nair,  D. P. O'Neill,  D. Neuhauser,  E. Neuscamman,  
 C. M. Oana,  R. Olson,  B. Peters,  R. Peverati,  P. A. Pieniazek,  
 Y. M. Rhee,  J. Ritchie,  M. A. Rohrdanz,  E. Rosta,  N. J. Russ,  
 H. F. Schaefer III,  N. E. Schultz,  N. Shenvi,  A. C. Simmonett,  A. Sodt,  
 D. Stuck,  K. S. Thanthiriwatte,  V. Vanovschi,  Tao Wang,  A. Warshel,  
 C. F. Williams,  Q. Wu,  X. Xu,  W. Zhang

 Please cite Q-Chem as follows:
 Y. Shao et al., Mol. Phys. 113, 184-215 (2015)
 DOI: 10.1080/00268976.2014.952696

 Q-Chem 5.2.0 for Intel X86 EM64T Linux

 Parts of Q-Chem use Armadillo 8.300.2 (Tropical Shenanigans).
 http://arma.sourceforge.net/

 Q-Chem begins on Sun Sep 26 13:30:50 2021  

Host: cori01
0

     Scratch files written to /tmp/qchem55382//Frg1//
 May1019 |scratch|qcdevops|jenkins|workspace|build_RNUM -1
Processing $rem in /global/common/cori/software/qchem/5.2/config/preferences:
	 MEM_TOTAL  96000 
NAlpha2: 48
NElect   48
Mult     1
Symmetry turned off for PCM/SM12/SMD calculation

Checking the input file for inconsistencies... 	...done.

--------------------------------------------------------------
User input:
--------------------------------------------------------------
$molecule
1 1
 6	1.7462357104	-0.6658234307	0.9304785192
 6	1.0032357104	-1.2518234307	2.1334785192
 6	0.9142357104	1.6191765693	0.4324785192
 7	0.9452357104	0.3191765693	0.1934785192
 7	1.6462357104	2.1391765693	1.4004785192
 7	0.1462357104	2.4041765693	-0.2925214808
 1	2.6982357104	-0.2408234307	1.2534785192
 1	1.9842357104	-1.4868234307	0.2524785192
 1	1.6522357104	-1.9788234307	2.6224785192
 1	0.1072357104	-1.7688234307	1.7894785192
 1	0.2972357104	-0.0578234307	-0.4995214808
 1	2.3392357104	1.5801765693	1.8644785192
 1	1.6322357104	3.1351765693	1.5634785192
 1	-0.4687642896	1.9561765693	-0.9665214808
 1	0.1252357104	3.4001765693	-0.1545214808
 1	0.7178357104	-0.4743834307	2.8574505192
$end
$rem
EDA2		1
METHOD		WB97X-V
BASIS		DEF2-TZVPD
XC_GRID		000099000590
NL_GRID		1
UNRESTRICTED		FALSE
MAX_SCF_CYCLES		200
SYMMETRY		FALSE
SYM_IGNORE		TRUE
BASIS_LIN_DEP_THRESH		6
THRESH		14
SCF_CONVERGENCE		8
SCF_PRINT_FRGM		TRUE
SOLVENT_METHOD		SMD
!required keywords
JOBTYPE		SP
SYM_IGNORE		TRUE
SUBSYSTEM		TRUE
GEN_SCFMAN		TRUE
CHILD_INSTRUCTION		2
SYM_IGNORE		TRUE
SCFMI		0
RI_K 0		
PARI_K 0		
MIN_PARI_K 0		
IARI_K 0		
OCC_RI_K 0		
PURECART		1111
MEM_STATIC		2000
MEM_TOTAL		96000
GUI		0
CHILD_MP		1
CHILD_MP_ORDERS		232
FRZ_RELAX		0
FRZ_RELAX_METHOD		0
EDA_CLS_ELEC		1
EDA_CLS_DISP		0
FRZ_ORTHO_DECOMP		1
EDA2		FALSE
FRGM_METHOD		FALSE
CIS_N_ROOTS  0
LOCAL_CIS    0
CIS_RLX_DNS  1
$end
$smx
SOLVENT			WATER
$end
--------------------------------------------------------------
 ----------------------------------------------------------------
             Standard Nuclear Orientation (Angstroms)
    I     Atom           X                Y                Z
 ----------------------------------------------------------------
    1      C       1.7462357104    -0.6658234307     0.9304785192
    2      C       1.0032357104    -1.2518234307     2.1334785192
    3      C       0.9142357104     1.6191765693     0.4324785192
    4      N       0.9452357104     0.3191765693     0.1934785192
    5      N       1.6462357104     2.1391765693     1.4004785192
    6      N       0.1462357104     2.4041765693    -0.2925214808
    7      H       2.6982357104    -0.2408234307     1.2534785192
    8      H       1.9842357104    -1.4868234307     0.2524785192
    9      H       1.6522357104    -1.9788234307     2.6224785192
   10      H       0.1072357104    -1.7688234307     1.7894785192
   11      H       0.2972357104    -0.0578234307    -0.4995214808
   12      H       2.3392357104     1.5801765693     1.8644785192
   13      H       1.6322357104     3.1351765693     1.5634785192
   14      H      -0.4687642896     1.9561765693    -0.9665214808
   15      H       0.1252357104     3.4001765693    -0.1545214808
   16      H       0.7178357104    -0.4743834307     2.8574505192
 ----------------------------------------------------------------
 Nuclear Repulsion Energy =         259.23685941 hartrees
 There are       24 alpha and       24 beta electrons
 Requested basis set is def2-TZVPD
 There are 128 shells and 312 basis functions

 Total QAlloc Memory Limit  96000 MB
 Mega-Array Size      1956 MB
 MEM_STATIC part      2000 MB
 
 Citation of the SMD model:
 Marenich, A.V.; Cramer, C.J.; Truhlar, D.G.
 J. Phys. Chem. B 2009, 113, 6378-6396.
 iSolventCode=           1
 Solvent: water                                                           
 
 vradii
            1           2           3           4           5           6
    1   1.8500000   1.8500000   1.8500000   1.8900000   1.8900000   1.8900000
            7           8           9          10          11          12
    1   1.2000000   1.2000000   1.2000000   1.2000000   1.2000000   1.2000000
           13          14          15          16
    1   1.2000000   1.2000000   1.2000000   1.2000000
 Changing PCM_VDW_RADII to SMD_RADIUS
 Discretize the solute cavity surface with Lebedev spheres
	Using 110 Lebedev grid points for each H atom
	Using 194 Lebedev grid points for other atoms
	Atomic van der Waals radii will be scaled by 1.20
 Remove points where switching function is < 1.0e-08
 Keep 1102 surface tesserae and discard 1162 interior tesserae
 Molecular Surface Area = 133.465 Angst**2
 A cutoff of  1.0D-14 yielded   7962 shell pairs
 There are     48080 function pairs (     59980 Cartesian)
 Smallest overlap matrix eigenvalue = 1.06E-05

 Scale SEOQF with 1.000000e-01/1.000000e-01/1.000000e-01

 Standard Electronic Orientation quadrupole field applied
 Nucleus-field energy     =     0.0000000046 hartrees
 Guess from superposition of atomic densities
 Warning:  Energy on first SCF cycle will be non-variational
 SAD guess density has 48.375862 electrons

 -----------------------------------------------------------------------
  General SCF calculation program by
  Eric Jon Sundstrom, Paul Horn, Yuezhi Mao, Dmitri Zuev, Alec White,
  David Stuck, Shaama M.S., Shane Yost, Joonho Lee, David Small,
  Daniel Levine, Susi Lehtola, Hugh Burton, Evgeny Epifanovsky
 -----------------------------------------------------------------------
 Exchange:     0.1670 Hartree-Fock + 1.0000 wB97X-V + LR-HF
 Correlation:  1.0000 wB97X-V
 Using Euler-Maclaurin-Lebedev (99,590) quadrature formula
 Nonlocal Correlation:  VV10 with C = 0.0100 and b = 6.00 and scale = 1.00000
 Grid used for NLC:  SG-1 standard quadrature
Energy prior to optimization (guess energy) = -284.033437288476
Begin Timing: Total SCF Calculation
begin iterations for algorithm: DIIS         
the SCF tolerance is set to 1.00e-08
    1    -284.0334372885      6.62e-03     00000 
    2    -284.2783326832      5.19e-03     00000 
    3    -284.5243485135      3.01e-04     00000 
    4    -284.5256152517      1.58e-04     00000 
    5    -284.5259242314      4.57e-05     00000 
    6    -284.5259523854      1.81e-05     00000 
    7    -284.5259567002      3.56e-06     00000 
    8    -284.5259570447      8.81e-07     00000 
    9    -284.5259570693      4.36e-07     00000 
   10    -284.5259570737      1.27e-07     00000 
   11    -284.5259570743      4.68e-08     00000 
   12    -284.5259570743      1.83e-08     00000 
   13    -284.5259570743      2.31e-09     00000 Convergence criterion met
Timing for Total SCF: 1268.00s (wall), 2520.98s (cpu)
(3)  G-ENP(liq) elect-nuc-pol free energy of system     -284.525957074 a.u.
(4)  G-CDS(liq) cavity-dispersion-solvent structure 
     free energy                                                3.0747 kcal/mol
(6)  G-S(liq) free energy of system                     -284.521057288 a.u.
E_pcm = -0.1080881069
E_cds = 0.0048997862
Multipole orders to be included
        2
        3
computing dipole RHS
computing quadrupole RHS
total number of RHS in solve_reponses: 8
RHS batch sizes
        8
Beginning Block Conjugate Gradient Iterations. Batch Number: 0
computing hessian-vector products by finite difference
              1      4.67e-01     00000 Conjugate Gradient Iteration
computing hessian-vector products by finite difference
              2      1.72e-01     00000 Conjugate Gradient Iteration
computing hessian-vector products by finite difference
              3      5.32e-02     00000 Conjugate Gradient Iteration
computing hessian-vector products by finite difference
              4      1.47e-02     00000 Conjugate Gradient Iteration
computing hessian-vector products by finite difference
              5      2.16e-03     00000 Conjugate Gradient Iteration
computing hessian-vector products by finite difference
              6      3.94e-04     00000 Conjugate Gradient Iteration
computing hessian-vector products by finite difference
              7      6.59e-05     00000 Conjugate Gradient Iteration
computing hessian-vector products by finite difference
              8      1.14e-05     00000 Conjugate Gradient Iteration
computing hessian-vector products by finite difference
              9      1.93e-06     00000 Conjugate Gradient Iteration
computing hessian-vector products by finite difference
             10      3.01e-07     00000 Conjugate Gradient Iteration
computing hessian-vector products by finite difference
             11      4.30e-08     00000 Conjugate Gradient Iteration
computing hessian-vector products by finite difference
             12      4.75e-09     00000 CG Converged
batch 0 complete
Done Calculating Responses
TESTING ORTHOGONALIZATION OF MULTIPOLE BASIS
Multipole virts passed orthogonality test
Virts Per Order
           72
          120
 
 --------------------------------------------------------------
 
                    Orbital Energies (a.u.)
 --------------------------------------------------------------
 
 Alpha MOs
 -- Occupied --
-14.4534 -14.4459 -14.4458 -10.4214 -10.3111 -10.2560  -1.1738  -1.0561
 -1.0425  -0.8948  -0.7892  -0.7486  -0.7220  -0.6855  -0.6176  -0.6109
 -0.5928  -0.5743  -0.5478  -0.5040  -0.4791  -0.4557  -0.3990  -0.3741
 -- Virtual --
  0.0602   0.0830   0.0906   0.0961   0.1116   0.1229   0.1254   0.1334
  0.1633   0.1653   0.1746   0.1801   0.1911   0.2029   0.2074   0.2134
  0.2204   0.2223   0.2341   0.2388   0.2587   0.2629   0.2656   0.2732
  0.2801   0.2906   0.2913   0.3055   0.3083   0.3138   0.3218   0.3284
  0.3371   0.3456   0.3519   0.3567   0.3612   0.3644   0.3668   0.3772
  0.3796   0.3878   0.3911   0.4029   0.4116   0.4184   0.4246   0.4278
  0.4357   0.4534   0.4550   0.4631   0.4718   0.4749   0.4835   0.4906
  0.5003   0.5047   0.5150   0.5156   0.5191   0.5280   0.5308   0.5416
  0.5422   0.5492   0.5621   0.5680   0.5779   0.5874   0.5901   0.5933
  0.6074   0.6156   0.6271   0.6484   0.6545   0.6665   0.6751   0.6768
  0.6853   0.7087   0.7179   0.7390   0.7442   0.7538   0.7642   0.7783
  0.7855   0.7873   0.7943   0.8028   0.8192   0.8326   0.8436   0.8475
  0.8533   0.8660   0.8927   0.8976   0.9094   0.9274   0.9453   0.9555
  0.9675   0.9869   1.0113   1.0165   1.0390   1.0546   1.0755   1.0835
  1.1037   1.1087   1.1339   1.1443   1.1571   1.1694   1.1791   1.2231
  1.2362   1.2863   1.3008   1.3093   1.3347   1.3667   1.3812   1.4186
  1.4447   1.4455   1.4819   1.5127   1.5144   1.5494   1.5748   1.6163
  1.6692   1.6943   1.7134   1.7556   1.7873   1.8017   1.8543   1.8729
  1.9086   1.9166   1.9256   1.9377   1.9393   1.9540   1.9685   1.9905
  2.0061   2.0175   2.0251   2.0502   2.0701   2.0962   2.1481   2.1600
  2.1832   2.1957   2.2319   2.2626   2.2815   2.2937   2.3061   2.3352
  2.3781   2.4044   2.4196   2.4559   2.4962   2.5207   2.5270   2.5569
  2.5711   2.6107   2.6256   2.6558   2.6587   2.6729   2.6775   2.6939
  2.7317   2.7427   2.7717   2.8205   2.8397   2.8576   2.8874   2.9033
  2.9145   2.9308   2.9528   2.9749   2.9859   3.0698   3.1009   3.1336
  3.1608   3.1665   3.1925   3.2004   3.2361   3.2501   3.2781   3.3004
  3.3103   3.3280   3.3609   3.3864   3.4048   3.4206   3.4471   3.4586
  3.4840   3.5048   3.5209   3.5538   3.6014   3.6126   3.6322   3.6444
  3.6942   3.7186   3.7520   3.8505   3.8773   3.9262   3.9652   4.0029
  4.0493   4.0686   4.0856   4.1161   4.1772   4.1948   4.2754   4.3307
  4.3380   4.3967   4.4283   4.4586   4.5403   4.5564   4.6220   4.6336
  4.6692   4.7975   4.8569   4.8774   4.8896   4.9456   4.9969   5.0190
  5.0473   5.0859   5.1333   5.1460   5.1572   5.1861   5.2562   5.2597
  5.3036   5.3678   5.3842   5.4135   5.4726   5.4984   5.5175   5.5361
  5.6043   5.6792   5.7134   5.8015   5.8250   5.9325   6.1538   6.2221
  6.3951   6.4993  22.6218  22.8126  23.6852  32.3529  32.5037  32.9240
 --------------------------------------------------------------
 
          Ground-State Mulliken Net Atomic Charges

     Atom                 Charge (a.u.)
  ----------------------------------------
      1 C                    -0.507310
      2 C                    -0.766064
      3 C                     0.432268
      4 N                    -0.102812
      5 N                    -0.264827
      6 N                    -0.308448
      7 H                     0.342283
      8 H                     0.224697
      9 H                     0.264634
     10 H                     0.230564
     11 H                     0.288100
     12 H                     0.194894
     13 H                     0.241867
     14 H                     0.258480
     15 H                     0.241348
     16 H                     0.230325
  ----------------------------------------
  Sum of atomic charges =     1.000000

 -----------------------------------------------------------------
                    Cartesian Multipole Moments
 -----------------------------------------------------------------
    Charge (ESU x 10^10)
                 4.8032
    Dipole Moment (Debye)
         X       4.5605      Y       7.0406      Z       2.1646
       Tot       8.6634
    Quadrupole Moments (Debye-Ang)
        XX     -26.4272     XY       4.7741     YY      -9.8728
        XZ      10.3340     YZ       4.2336     ZZ     -29.9652
    Octopole Moments (Debye-Ang^2)
       XXX     -95.9163    XXY     -14.7976    XYY     -17.9484
       YYY      10.9396    XXZ     -11.4500    XYZ      15.0235
       YYZ     -14.7723    XZZ     -25.7006    YZZ     -14.0494
       ZZZ     -87.8226
    Hexadecapole Moments (Debye-Ang^3)
      XXXX    -329.2037   XXXY     -28.5052   XXYY    -131.2419
      XYYY      10.3806   YYYY    -317.9656   XXXZ     -84.9635
      XXYZ      31.2171   XYYZ       1.2291   YYYZ      71.9182
      XXZZ     -90.8664   XYZZ       2.1393   YYZZ    -135.6312
      XZZZ    -105.2980   YZZZ      33.5638   ZZZZ    -371.7620
 -----------------------------------------------------------------
Archival summary:
1\1\nid00549\SP\ProcedureUnspecified\BasisUnspecified\3310(1+,1)\meili\SunSep2619:57:012021SunSep2619:57:012021\0\\#,ProcedureUnspecified,BasisUnspecified,\\1,1\N\H,1,1.02092\C,1,1.32215,2,118.093\N,3,1.31593,1,120.042,2,-5.70998,0\H,4,1.00573,3,121.827,1,-177.905,0\H,4,1.01647,3,117.098,1,5.50739,0\N,3,1.32032,1,120.449,2,174.005,0\H,7,1.004,3,120.147,1,9.79841,0\H,7,1.00935,3,119.957,1,178.671,0\C,1,1.46799,2,116.062,3,174.382,0\H,10,1.09104,1,108.177,2,35.0987,0\H,10,1.09145,1,111.299,2,151.959,0\C,10,1.53057,1,112.744,2,-84.0531,0\H,13,1.09016,10,109.423,1,61.3328,0\H,13,1.09034,10,108.592,1,179.398,0\H,13,1.1,10,111.879,1,-59.8808,0\\\@

 Total job time:  23172.31s(wall), 46049.93s(cpu) 
 Sun Sep 26 19:57:03 2021

        *************************************************************
        *                                                           *
        *  Thank you very much for using Q-Chem.  Have a nice day.  *
        *                                                           *
        *************************************************************


Done Job For Fragment 0
calling putenv with: QCSCRATCH=/global/cscratch1/sd/meili 
calling putenv with: QCLOCALSCR=/tmp 
calling putenv with: QCTHREADS=32 
Creating input file /tmp/qchem55382/Frg2.input
using default PutDataFrgm: nothing
calling putenv with: QCSCRATCH=/tmp/qchem55382/ 
calling putenv with: QCLOCALSCR=/tmp/qchem55382/ 
Spawning Job For Fragment 1
                  Welcome to Q-Chem
     A Quantum Leap Into The Future Of Chemistry


 Q-Chem 5.2, Q-Chem, Inc., Pleasanton, CA (2019)

 License issued to: National Energy Research Scientific Computing Center

 Yihan Shao,  Zhengting Gan,  E. Epifanovsky,  A. T. B. Gilbert,  M. Wormit,  
 J. Kussmann,  A. W. Lange,  A. Behn,  Jia Deng,  Xintian Feng,  D. Ghosh,  
 M. Goldey,  P. R. Horn,  L. D. Jacobson,  I. Kaliman,  T. Kus,  A. Landau,  
 Jie Liu,  E. I. Proynov,  R. M. Richard,  R. P. Steele,  E. J. Sundstrom,  
 H. L. Woodcock III,  P. M. Zimmerman,  D. Zuev,  B. Albrecht,  E. Alguire,  
 S. A. Baeppler,  D. Barton,  Z. Benda,  Y. A. Bernard,  E. J. Berquist,  
 K. B. Bravaya,  H. Burton,  D. Casanova,  Chun-Min Chang,  Yunqing Chen,  
 A. Chien,  K. D. Closser,  M. P. Coons,  S. Coriani,  S. Dasgupta,  
 A. L. Dempwolff,  M. Diedenhofen,  Hainam Do,  R. G. Edgar,  Po-Tung Fang,  
 S. Faraji,  S. Fatehi,  Qingguo Feng,  K. D. Fenk,  J. Fosso-Tande,  
 J. Gayvert,  Qinghui Ge,  A. Ghysels,  G. Gidofalvi,  J. Gomes,  
 J. Gonthier,  A. Gunina,  D. Hait,  M. W. D. Hanson-Heine,  
 P. H. P. Harbach,  A. W. Hauser,  M. F. Herbst,  J. E. Herr,  
 E. G. Hohenstein,  Z. C. Holden,  Kerwin Hui,  B. C. Huynh,  T.-C. Jagau,  
 Hyunjun Ji,  B. Kaduk,  K. Khistyaev,  Jaehoon Kim,  P. Klunzinger,  K. Koh,  
 D. Kosenkov,  L. Koulias,  T. Kowalczyk,  C. M. Krauter,  A. Kunitsa,  
 Ka Un Lao,  A. Laurent,  K. V. Lawler,  Joonho Lee,  D. Lefrancois,  
 S. Lehtola,  D. S. Levine,  Yi-Pei Li,  You-Sheng Lin,  Fenglai Liu,  
 E. Livshits,  A. Luenser,  P. Manohar,  E. Mansoor,  S. F. Manzer,  
 Shan-Ping Mao,  Yuezhi Mao,  N. Mardirossian,  A. V. Marenich,  
 T. Markovich,  L. A. Martinez-Martinez,  S. A. Maurer,  N. J. Mayhall,  
 S. C. McKenzie,  J.-M. Mewes,  P. Morgante,  A. F. Morrison,  
 J. W. Mullinax,  K. Nanda,  T. S. Nguyen-Beck,  R. Olivares-Amaya,  
 J. A. Parkhill,  Zheng Pei,  T. M. Perrine,  F. Plasser,  P. Pokhilko,  
 S. Prager,  A. Prociuk,  E. Ramos,  D. R. Rehn,  F. Rob,  M. Scheurer,  
 M. Schneider,  N. Sergueev,  S. M. Sharada,  S. Sharma,  D. W. Small,  
 T. Stauch,  T. Stein,  Yu-Chuan Su,  A. J. W. Thom,  A. Tkatchenko,  
 T. Tsuchimochi,  N. M. Tubman,  L. Vogt,  M. L. Vidal,  O. Vydrov,  
 M. A. Watson,  J. Wenzel,  M. de Wergifosse,  T. A. Wesolowski,  A. White,  
 J. Witte,  A. Yamada,  Jun Yang,  K. Yao,  S. Yeganeh,  S. R. Yost,  
 Zhi-Qiang You,  A. Zech,  Igor Ying Zhang,  Xing Zhang,  Yan Zhao,  
 Ying Zhu,  B. R. Brooks,  G. K. L. Chan,  C. J. Cramer,  M. S. Gordon,  
 W. J. Hehre,  A. Klamt,  M. W. Schmidt,  C. D. Sherrill,  D. G. Truhlar,  
 A. Aspuru-Guzik,  R. Baer,  A. T. Bell,  N. A. Besley,  Jeng-Da Chai,  
 A. E. DePrince, III,  R. A. DiStasio Jr.,  A. Dreuw,  B. D. Dunietz,  
 T. R. Furlani,  Chao-Ping Hsu,  Yousung Jung,  Jing Kong,  D. S. Lambrecht,  
 WanZhen Liang,  C. Ochsenfeld,  V. A. Rassolov,  L. V. Slipchenko,  
 J. E. Subotnik,  T. Van Voorhis,  J. M. Herbert,  A. I. Krylov,  
 P. M. W. Gill,  M. Head-Gordon

 Contributors to earlier versions of Q-Chem not listed above: 
 R. D. Adamson,  B. Austin,  J. Baker,  G. J. O. Beran,  K. Brandhorst,  
 S. T. Brown,  E. F. C. Byrd,  A. K. Chakraborty,  C.-L. Cheng,  
 Siu Hung Chien,  D. M. Chipman,  D. L. Crittenden,  H. Dachsel,  
 R. J. Doerksen,  A. D. Dutoi,  L. Fusti-Molnar,  W. A. Goddard III,  
 A. Golubeva-Zadorozhnaya,  S. R. Gwaltney,  G. Hawkins,  A. Heyden,  
 S. Hirata,  G. Kedziora,  F. J. Keil,  C. Kelley,  Jihan Kim,  R. A. King,  
 R. Z. Khaliullin,  P. P. Korambath,  W. Kurlancheek,  A. M. Lee,  M. S. Lee,  
 S. V. Levchenko,  Ching Yeh Lin,  D. Liotard,  R. C. Lochan,  I. Lotan,  
 P. E. Maslen,  N. Nair,  D. P. O'Neill,  D. Neuhauser,  E. Neuscamman,  
 C. M. Oana,  R. Olson,  B. Peters,  R. Peverati,  P. A. Pieniazek,  
 Y. M. Rhee,  J. Ritchie,  M. A. Rohrdanz,  E. Rosta,  N. J. Russ,  
 H. F. Schaefer III,  N. E. Schultz,  N. Shenvi,  A. C. Simmonett,  A. Sodt,  
 D. Stuck,  K. S. Thanthiriwatte,  V. Vanovschi,  Tao Wang,  A. Warshel,  
 C. F. Williams,  Q. Wu,  X. Xu,  W. Zhang

 Please cite Q-Chem as follows:
 Y. Shao et al., Mol. Phys. 113, 184-215 (2015)
 DOI: 10.1080/00268976.2014.952696

 Q-Chem 5.2.0 for Intel X86 EM64T Linux

 Parts of Q-Chem use Armadillo 8.300.2 (Tropical Shenanigans).
 http://arma.sourceforge.net/

 Q-Chem begins on Sun Sep 26 19:57:06 2021  

Host: cori01
0

     Scratch files written to /tmp/qchem55382//Frg2//
 May1019 |scratch|qcdevops|jenkins|workspace|build_RNUM -1
Processing $rem in /global/common/cori/software/qchem/5.2/config/preferences:
	 MEM_TOTAL  96000 
NAlpha2: 32
NElect   32
Mult     1
Symmetry turned off for PCM/SM12/SMD calculation

Checking the input file for inconsistencies... 	...done.

--------------------------------------------------------------
User input:
--------------------------------------------------------------
$molecule
-1 1
 6	-2.8047642896	-1.9358234307	-1.1425214808
 6	-1.5197642896	-1.1148234307	-1.2085214808
 8	-0.4427642896	-1.6978234307	-0.9605214808
 8	-1.5687642896	0.1041765693	-1.4935214808
 1	-2.9657642896	-2.2208234307	-0.1015214808
 1	-2.6867642896	-2.8478234307	-1.7295214808
 1	-3.6783842896	-1.3875534307	-1.5248664808
$end
$rem
EDA2		1
METHOD		WB97X-V
BASIS		DEF2-TZVPD
XC_GRID		000099000590
NL_GRID		1
UNRESTRICTED		FALSE
MAX_SCF_CYCLES		200
SYMMETRY		FALSE
SYM_IGNORE		TRUE
BASIS_LIN_DEP_THRESH		6
THRESH		14
SCF_CONVERGENCE		8
SCF_PRINT_FRGM		TRUE
SOLVENT_METHOD		SMD
!required keywords
JOBTYPE		SP
SYM_IGNORE		TRUE
SUBSYSTEM		TRUE
GEN_SCFMAN		TRUE
CHILD_INSTRUCTION		2
SYM_IGNORE		TRUE
SCFMI		0
RI_K 0		
PARI_K 0		
MIN_PARI_K 0		
IARI_K 0		
OCC_RI_K 0		
PURECART		1111
MEM_STATIC		2000
MEM_TOTAL		96000
GUI		0
CHILD_MP		1
CHILD_MP_ORDERS		232
FRZ_RELAX		0
FRZ_RELAX_METHOD		0
EDA_CLS_ELEC		1
EDA_CLS_DISP		0
FRZ_ORTHO_DECOMP		1
EDA2		FALSE
FRGM_METHOD		FALSE
CIS_N_ROOTS  0
LOCAL_CIS    0
CIS_RLX_DNS  1
$end
$smx
SOLVENT			WATER
$end
--------------------------------------------------------------
 ----------------------------------------------------------------
             Standard Nuclear Orientation (Angstroms)
    I     Atom           X                Y                Z
 ----------------------------------------------------------------
    1      C      -2.8047642896    -1.9358234307    -1.1425214808
    2      C      -1.5197642896    -1.1148234307    -1.2085214808
    3      O      -0.4427642896    -1.6978234307    -0.9605214808
    4      O      -1.5687642896     0.1041765693    -1.4935214808
    5      H      -2.9657642896    -2.2208234307    -0.1015214808
    6      H      -2.6867642896    -2.8478234307    -1.7295214808
    7      H      -3.6783842896    -1.3875534307    -1.5248664808
 ----------------------------------------------------------------
 Nuclear Repulsion Energy =         112.56647206 hartrees
 There are       16 alpha and       16 beta electrons
 Requested basis set is def2-TZVPD
 There are 69 shells and 181 basis functions

 Total QAlloc Memory Limit  96000 MB
 Mega-Array Size      1956 MB
 MEM_STATIC part      2000 MB
 
 Citation of the SMD model:
 Marenich, A.V.; Cramer, C.J.; Truhlar, D.G.
 J. Phys. Chem. B 2009, 113, 6378-6396.
 iSolventCode=           1
 Solvent: water                                                           
 
 vradii
            1           2           3           4           5           6
    1   1.8500000   1.8500000   1.5200000   1.5200000   1.2000000   1.2000000
            7
    1   1.2000000
 Changing PCM_VDW_RADII to SMD_RADIUS
 Discretize the solute cavity surface with Lebedev spheres
	Using 110 Lebedev grid points for each H atom
	Using 194 Lebedev grid points for other atoms
	Atomic van der Waals radii will be scaled by 1.20
 Remove points where switching function is < 1.0e-08
 Keep 640 surface tesserae and discard 466 interior tesserae
 Molecular Surface Area = 80.119 Angst**2

                       Distance Matrix (Angstroms)
             C (  1)   C (  2)   O (  3)   O (  4)   H (  5)   H (  6)
   C (  2)  1.526310
   O (  3)  2.380927  1.249529
   O (  4)  2.410912  1.252832  2.190701
   H (  5)  1.091250  2.130634  2.716052  3.048754
   H (  6)  1.090980  2.153281  2.636171  3.165426  1.766735
   H (  7)  1.100000  2.198658  3.299089  2.583938  1.796685  1.776959

 
 A cutoff of  1.0D-14 yielded   2391 shell pairs
 There are     16695 function pairs (     21491 Cartesian)
 Smallest overlap matrix eigenvalue = 1.66E-05

 Scale SEOQF with 1.000000e-01/1.000000e-01/1.000000e-01

 Standard Electronic Orientation quadrupole field applied
 Nucleus-field energy     =     0.0000000038 hartrees
 Guess from superposition of atomic densities
 Warning:  Energy on first SCF cycle will be non-variational
 SAD guess density has 30.625312 electrons

 -----------------------------------------------------------------------
  General SCF calculation program by
  Eric Jon Sundstrom, Paul Horn, Yuezhi Mao, Dmitri Zuev, Alec White,
  David Stuck, Shaama M.S., Shane Yost, Joonho Lee, David Small,
  Daniel Levine, Susi Lehtola, Hugh Burton, Evgeny Epifanovsky
 -----------------------------------------------------------------------
 Exchange:     0.1670 Hartree-Fock + 1.0000 wB97X-V + LR-HF
 Correlation:  1.0000 wB97X-V
 Using Euler-Maclaurin-Lebedev (99,590) quadrature formula
 Nonlocal Correlation:  VV10 with C = 0.0100 and b = 6.00 and scale = 1.00000
 Grid used for NLC:  SG-1 standard quadrature
Energy prior to optimization (guess energy) = -227.760775063753
Begin Timing: Total SCF Calculation
begin iterations for algorithm: DIIS         
the SCF tolerance is set to 1.00e-08
    1    -227.7607750638      1.66e-02     00000 
    2    -225.6114560831      2.50e-02     00000 
    3    -228.6063051644      4.08e-03     00000 
    4    -228.6591177557      1.42e-03     00000 
    5    -228.6652431528      3.41e-04     00000 
    6    -228.6655639681      2.29e-04     00000 
    7    -228.6657077548      4.80e-05     00000 
    8    -228.6657173817      1.35e-05     00000 
    9    -228.6657185463      3.93e-06     00000 
   10    -228.6657186629      1.14e-06     00000 
   11    -228.6657186740      2.34e-07     00000 
   12    -228.6657186744      5.19e-08     00000 
   13    -228.6657186744      1.33e-08     00000 
   14    -228.6657186744      3.45e-09     00000 Convergence criterion met
Timing for Total SCF: 280.00s (wall), 550.44s (cpu)
(3)  G-ENP(liq) elect-nuc-pol free energy of system     -228.665718674 a.u.
(4)  G-CDS(liq) cavity-dispersion-solvent structure 
     free energy                                                3.9118 kcal/mol
(6)  G-S(liq) free energy of system                     -228.659484787 a.u.
E_pcm = -0.1313978854
E_cds = 0.0062338877
Multipole orders to be included
        2
        3
computing dipole RHS
computing quadrupole RHS
total number of RHS in solve_reponses: 8
RHS batch sizes
        8
Beginning Block Conjugate Gradient Iterations. Batch Number: 0
computing hessian-vector products by finite difference
              1      7.10e-01     00000 Conjugate Gradient Iteration
computing hessian-vector products by finite difference
              2      2.26e-01     00000 Conjugate Gradient Iteration
computing hessian-vector products by finite difference
              3      6.18e-02     00000 Conjugate Gradient Iteration
computing hessian-vector products by finite difference
              4      1.63e-02     00000 Conjugate Gradient Iteration
computing hessian-vector products by finite difference
              5      2.36e-03     00000 Conjugate Gradient Iteration
computing hessian-vector products by finite difference
              6      6.01e-04     00000 Conjugate Gradient Iteration
computing hessian-vector products by finite difference
              7      8.47e-05     00000 Conjugate Gradient Iteration
computing hessian-vector products by finite difference
              8      1.03e-05     00000 Conjugate Gradient Iteration
computing hessian-vector products by finite difference
              9      1.59e-06     00000 Conjugate Gradient Iteration
computing hessian-vector products by finite difference
             10      1.63e-07     00000 Conjugate Gradient Iteration
computing hessian-vector products by finite difference
             11      2.03e-08     00000 Conjugate Gradient Iteration
computing hessian-vector products by finite difference
             12      6.08e-09     00000 CG Converged
batch 0 complete
Done Calculating Responses
TESTING ORTHOGONALIZATION OF MULTIPOLE BASIS
Multipole virts passed orthogonality test
Virts Per Order
        48
        80
 
 --------------------------------------------------------------
 
                    Orbital Energies (a.u.)
 --------------------------------------------------------------
 
 Alpha MOs
 -- Occupied --
-19.1532 -19.1520 -10.3544 -10.2477  -1.1659  -1.0645  -0.8402  -0.6172
 -0.5478  -0.5460  -0.5412  -0.4822  -0.4636  -0.3651  -0.3583  -0.3441
 -- Virtual --
  0.0671   0.0999   0.1007   0.1075   0.1351   0.1446   0.1456   0.1499
  0.1570   0.1907   0.2026   0.2261   0.2323   0.2383   0.2603   0.2649
  0.2990   0.3153   0.3331   0.3462   0.3525   0.3619   0.3707   0.3843
  0.3875   0.3967   0.4155   0.4245   0.4288   0.4551   0.4674   0.4726
  0.4827   0.4897   0.5035   0.5099   0.5472   0.5598   0.5811   0.6004
  0.6114   0.6257   0.6262   0.6459   0.6568   0.6665   0.6803   0.6965
  0.7072   0.7256   0.7687   0.7912   0.8058   0.8113   0.8338   0.8452
  0.8617   0.9560   0.9691   0.9813   0.9832   1.0329   1.0383   1.1064
  1.1508   1.1883   1.2410   1.2627   1.2783   1.2989   1.3294   1.3423
  1.4376   1.5497   1.5831   1.7320   1.8040   1.8441   1.8555   1.8990
  1.9068   1.9372   1.9506   1.9567   2.0070   2.0951   2.1102   2.1534
  2.1934   2.2048   2.3022   2.3195   2.3975   2.4244   2.4583   2.4815
  2.5662   2.5800   2.5930   2.6526   2.7762   2.8082   2.8700   2.9170
  2.9353   2.9830   3.0097   3.1676   3.1869   3.2367   3.2615   3.2981
  3.3276   3.3331   3.3789   3.3976   3.4195   3.5149   3.5422   3.5580
  3.5892   3.6371   3.6773   3.7164   3.7522   3.8619   3.9330   4.0304
  4.0675   4.1744   4.3425   4.5427   4.6026   4.6547   4.7780   4.8071
  4.9760   5.2974   5.3232   5.3335   5.3393   5.4624   5.6785   5.7467
  5.7887   5.9972   6.2009   6.3149   6.3252   6.5850   6.5964   6.6935
  6.7106   6.7270   6.9218   6.9474   7.0068   7.2191   7.3111   7.3585
  7.3814  22.5813  23.7099  44.1912  44.3169
 --------------------------------------------------------------
 
          Ground-State Mulliken Net Atomic Charges

     Atom                 Charge (a.u.)
  ----------------------------------------
      1 C                    -0.584098
      2 C                     0.499176
      3 O                    -0.775234
      4 O                    -0.771603
      5 H                     0.197394
      6 H                     0.215735
      7 H                     0.218629
  ----------------------------------------
  Sum of atomic charges =    -1.000000

 -----------------------------------------------------------------
                    Cartesian Multipole Moments
 -----------------------------------------------------------------
    Charge (ESU x 10^10)
                -4.8032
    Dipole Moment (Debye)
         X       2.8674      Y       2.5420      Z       6.0018
       Tot       7.1207
    Quadrupole Moments (Debye-Ang)
        XX     -28.2592     XY       4.1883     YY     -33.1046
        XZ      -5.0591     YZ      -1.0462     ZZ     -33.0585
    Octopole Moments (Debye-Ang^2)
       XXX     129.2194    XXY      20.1638    XYY      39.3955
       YYY     107.5362    XXZ      36.8579    XYZ      -5.9110
       YYZ      35.7737    XZZ      49.4045    YZZ      28.6593
       ZZZ     102.0443
    Hexadecapole Moments (Debye-Ang^3)
      XXXX    -580.4281   XXXY    -145.6866   XXYY    -146.8941
      XYYY    -160.6409   YYYY    -393.2662   XXXZ    -161.7299
      XXYZ     -20.4089   XYYZ     -46.1881   YYYZ    -107.7496
      XXZZ    -148.7131   XYZZ     -42.7939   YYZZ    -103.4567
      XZZZ    -167.4757   YZZZ     -92.5393   ZZZZ    -274.2434
 -----------------------------------------------------------------
Archival summary:
1\1\nid00549\SP\ProcedureUnspecified\BasisUnspecified\223(1-,1)\meili\SunSep2621:13:232021SunSep2621:13:232021\0\\#,ProcedureUnspecified,BasisUnspecified,\\-1,1\C\O,1,1.24953\O,1,1.25283,2,122.197\C,1,1.52631,2,117.782,3,-179.433,0\H,4,1.09098,1,109.593,2,-50.2688,0\H,4,1.09125,1,107.815,2,67.1839,0\H,4,1.1,1,112.675,2,-171.046,0\\\@

 Total job time:  4579.20s(wall), 8967.59s(cpu) 
 Sun Sep 26 21:13:25 2021

        *************************************************************
        *                                                           *
        *  Thank you very much for using Q-Chem.  Have a nice day.  *
        *                                                           *
        *************************************************************


Done Job For Fragment 1
calling putenv with: QCSCRATCH=/global/cscratch1/sd/meili 
calling putenv with: QCLOCALSCR=/tmp 
calling putenv with: QCTHREADS=32 
Doing General SCFMI
 Exchange:     0.1670 Hartree-Fock + 1.0000 wB97X-V + LR-HF
 Correlation:  1.0000 wB97X-V
 Using Euler-Maclaurin-Lebedev (99,590) quadrature formula
 Nonlocal Correlation:  VV10 with C = 0.0100 and b = 6.00 and scale = 1.00000
 Grid used for NLC:  SG-1 standard quadrature
performing fock build before subrot guess so that all methods have access
Printing subrot_rss_gen Method Specification:
Occupied Subspace Method is 0
Virtual Subspace Method is 0
Energy of the unrelaxed supersystem initial determinant -513.112912480666
performing fock build before subrot guess so that all methods have access
Printing subrot_rss_gen Method Specification:
Occupied Subspace Method is 0
Virtual Subspace Method is 0
Energy of the unrelaxed supersystem initial determinant w/ solvent -513.188790623798
write pseudocanon occs and virts to disk
write pseudocanon orbital energies to disk
Tolerance of ortho_decomp_scf: 1.00e-06
GDM subspace size: 20
Beginning the Orthogonal Decomposition of the Initial Supersystem Wavefunction
    1    -512.8444986746      9.42e-02     ortho_decomp Preconditoned Steepest Descent
    2    -512.8644808694      2.98e-03     ortho_decomp BFGS Step
    3    -512.8645786553      2.36e-04     ortho_decomp BFGS Step
    4    -512.8645788048      1.06e-05     ortho_decomp BFGS Step
    5    -512.8645788054      4.58e-07     ortho_decomp 00000 Convergence criterion met
 Hartree-Fock
 Hartree-Fock
 Hartree-Fock
Doing General SCFMI
 Exchange:     0.1670 Hartree-Fock + 1.0000 wB97X-V + LR-HF
 Correlation:  1.0000 wB97X-V
 Using Euler-Maclaurin-Lebedev (99,590) quadrature formula
 Nonlocal Correlation:  VV10 with C = 0.0100 and b = 6.00 and scale = 1.00000
 Grid used for NLC:  SG-1 standard quadrature
performing fock build at end of subrot_r(subrot) constructor so that all methods have access
<S^2> of initial wavefunction before polarization iterations 0.0000000000
Beginning iterations for the determination of the polarized wavefunction
Energy prior to optimization (guess energy) = -513.188790623798
Begin Timing: Total SCF Calculation
begin iterations for algorithm: DIIS         
the SCF tolerance is set to 1.00e-08
    1    -513.1887906238      2.13e-04     00000 
    2    -513.1912526106      1.18e-04     00000 
    3    -513.1916298386      5.83e-05     00000 
    4    -513.1917642774      1.52e-05     00000 
    5    -513.1917821527      8.07e-06     00000 
    6    -513.1917876651      4.36e-06     00000 
    7    -513.1917892999      1.92e-06     00000 
    8    -513.1917896590      7.48e-07     00000 
    9    -513.1917897065      3.40e-07     00000 
   10    -513.1917897107      1.11e-07     00000 
   11    -513.1917897114      5.68e-08     00000 
   12    -513.1917897115      3.14e-08     00000 
   13    -513.1917897115      1.05e-08     00000 
   14    -513.1917897115      4.76e-09     00000 Convergence criterion met
write pseudocanon occs and virts to disk
write pseudocanon orbital energies to disk
Timing for Total SCF: 4754.00s (wall), 9464.31s (cpu)
<S^2> of polarized wavefunction after polarization iterations 0.0000000000
relaxing scfmi constraint to allow all rotations in the entire AO span
Doing General SCFMI
 Exchange:     0.1670 Hartree-Fock + 1.0000 wB97X-V + LR-HF
 Correlation:  1.0000 wB97X-V
 Using Euler-Maclaurin-Lebedev (99,590) quadrature formula
 Nonlocal Correlation:  VV10 with C = 0.0100 and b = 6.00 and scale = 1.00000
 Grid used for NLC:  SG-1 standard quadrature
performing fock build at end of subrot_r(subrot) constructor so that all methods have access
<S^2> of polarized wavefunction before ct-allowed iterations 0.0000000000
Beginning iterations for the determination of the CT-Allowed wavefunction
Energy prior to optimization (guess energy) = -513.191789711511
Begin Timing: Total SCF Calculation
begin iterations for algorithm: DIIS         
the SCF tolerance is set to 1.00e-08
    1    -513.1917897115      2.18e-04     00000 
    2    -513.1989316611      3.54e-05     00000 
    3    -513.1992351384      1.58e-05     00000 
    4    -513.1992582082      7.53e-06     00000 
    5    -513.1992648470      1.44e-06     00000 
    6    -513.1992651558      6.36e-07     00000 
    7    -513.1992652201      2.96e-07     00000 
    8    -513.1992652307      6.18e-08     00000 
    9    -513.1992652317      2.46e-08     00000 
   10    -513.1992652318      9.09e-09     00000 Convergence criterion met
write pseudocanon occs and virts to disk
write pseudocanon orbital energies to disk
Timing for Total SCF: 3300.00s (wall), 6569.76s (cpu)
<S^2> of ct_allowed wavefunction after ct-allowed iterations 0.0000000000

================================
        Results of EDA2         
================================
Basic EDA Quantities
--------------------
Fragment Energies (Ha):
1 -284.5210572881
2 -228.6594847867
--------------------
  E_prp (kJ/mol) = 0.0000
  E_sol (kJ/mol) = 422.8009
  E_frz (kJ/mol) = -421.9825
  E_pol (kJ/mol) = -7.8742
  E_vct (kJ/mol) = -19.6272
  E_int (kJ/mol) = -26.6831
--------------------


Initial Wavefunction Decomposition
--------------------
  --------------------
  Orthogonal Fragment Subspace Decomposition:
  --------------------
     E_elec   (ELEC)   (kJ/mol) = -577.7808
     E_pauli  (PAULI)  (kJ/mol) = 188.3200
     E_disp   (DISP)   (kJ/mol) = -32.5218
     --------------------
     Terms summing to E_pauli:
     --------------------
        E_kep_pauli       (kJ/mol) = 230.0253
        E_disp_free_pauli (kJ/mol) = -41.7053
  --------------------
  Classical Frozen Decomposition:
  --------------------
     E_cls_elec  (CLS ELEC)  (kJ/mol) = -510.4666
     E_cls_pauli (CLS PAULI) (kJ/mol) = 88.4841
    [E_mod_pauli (MOD PAULI) (kJ/mol) = 121.0058 (CLS PAULI - DISP from orthogonal decomposition) ]
  --------------------
--------------------

Simplified EDA Summary (kJ/mol)
--------------------
 PREPARATION     0.0000
 SOLVATION       422.8009
 FROZEN          -389.4608      (does not include dispersion)
[PAULI           188.3200]     (if this is negligible, then frozen describes electrostatics)
 DISPERSION      -32.5218
 POLARIZATION    -7.8742
 CHARGE TRANSFER -19.6272
 TOTAL           -26.6831     (PRP + SOL + FRZ + DISP + POL + CT)
--------------------
 
 --------------------------------------------------------------
 
                    Orbital Energies (a.u.)
 --------------------------------------------------------------
 
 Alpha MOs
 -- Occupied --
-19.1625 -19.1597 -14.4386 -14.4351 -14.4315 -10.4100 -10.3619 -10.3034
-10.2518 -10.2505  -1.1784  -1.1622  -1.0748  -1.0430  -1.0343  -0.8874
 -0.8447  -0.7809  -0.7407  -0.7128  -0.6775  -0.6320  -0.6053  -0.6022
 -0.5833  -0.5676  -0.5580  -0.5525  -0.5459  -0.5353  -0.4973  -0.4863
 -0.4746  -0.4683  -0.4494  -0.3924  -0.3740  -0.3630  -0.3601  -0.3551
 -- Virtual --
  0.0602   0.0780   0.0821   0.0851   0.1035   0.1090   0.1163   0.1168
  0.1218   0.1317   0.1376   0.1443   0.1479   0.1551   0.1571   0.1704
  0.1747   0.1837   0.2002   0.2011   0.2042   0.2108   0.2128   0.2186
  0.2212   0.2344   0.2360   0.2387   0.2438   0.2540   0.2575   0.2579
  0.2689   0.2699   0.2748   0.2821   0.2868   0.2970   0.3011   0.3092
  0.3120   0.3170   0.3189   0.3211   0.3309   0.3381   0.3399   0.3415
  0.3443   0.3487   0.3566   0.3594   0.3642   0.3661   0.3688   0.3756
  0.3778   0.3824   0.3875   0.3941   0.3957   0.4005   0.4029   0.4061
  0.4156   0.4178   0.4269   0.4294   0.4332   0.4435   0.4505   0.4543
  0.4607   0.4633   0.4674   0.4694   0.4772   0.4778   0.4825   0.4938
  0.4984   0.5006   0.5037   0.5096   0.5152   0.5220   0.5237   0.5275
  0.5309   0.5372   0.5446   0.5457   0.5512   0.5599   0.5645   0.5690
  0.5740   0.5815   0.5841   0.5844   0.5940   0.5987   0.6050   0.6098
  0.6179   0.6262   0.6326   0.6373   0.6406   0.6533   0.6596   0.6612
  0.6705   0.6796   0.6838   0.6930   0.6977   0.7088   0.7105   0.7168
  0.7193   0.7252   0.7316   0.7386   0.7459   0.7580   0.7645   0.7693
  0.7714   0.7766   0.7821   0.7890   0.7940   0.8028   0.8082   0.8135
  0.8171   0.8196   0.8247   0.8299   0.8363   0.8477   0.8573   0.8578
  0.8772   0.8817   0.8904   0.9001   0.9107   0.9132   0.9193   0.9294
  0.9371   0.9386   0.9449   0.9687   0.9761   0.9887   0.9962   1.0118
  1.0140   1.0207   1.0417   1.0506   1.0528   1.0612   1.0700   1.0741
  1.0993   1.1030   1.1178   1.1182   1.1328   1.1505   1.1547   1.1746
  1.1830   1.1933   1.1994   1.2025   1.2185   1.2412   1.2478   1.2505
  1.2759   1.2975   1.2982   1.3173   1.3234   1.3420   1.3466   1.3557
  1.3680   1.3810   1.3973   1.4154   1.4296   1.4448   1.4566   1.4735
  1.4837   1.4941   1.5154   1.5375   1.5614   1.5993   1.6059   1.6182
  1.6454   1.6610   1.6821   1.7169   1.7339   1.7486   1.7598   1.8053
  1.8169   1.8489   1.8819   1.8950   1.9031   1.9108   1.9146   1.9321
  1.9404   1.9475   1.9553   1.9625   1.9745   1.9804   1.9922   1.9968
  2.0104   2.0130   2.0293   2.0413   2.0464   2.0663   2.0789   2.0874
  2.1037   2.1235   2.1334   2.1424   2.1868   2.2011   2.2074   2.2178
  2.2287   2.2523   2.2647   2.2944   2.2988   2.3091   2.3220   2.3346
  2.3561   2.3786   2.3918   2.4003   2.4206   2.4462   2.4773   2.4820
  2.4968   2.5112   2.5188   2.5419   2.5490   2.5705   2.5836   2.5934
  2.6064   2.6238   2.6269   2.6441   2.6532   2.6748   2.6806   2.6949
  2.7010   2.7122   2.7302   2.7525   2.7754   2.7819   2.8059   2.8344
  2.8613   2.8781   2.8896   2.8968   2.9013   2.9190   2.9450   2.9519
  2.9662   2.9771   2.9839   3.0096   3.0242   3.0440   3.0567   3.1068
  3.1289   3.1439   3.1728   3.1866   3.1941   3.2205   3.2273   3.2449
  3.2578   3.2673   3.2833   3.2983   3.3187   3.3261   3.3409   3.3448
  3.3542   3.3789   3.3940   3.4015   3.4163   3.4238   3.4386   3.4441
  3.4564   3.4616   3.4746   3.4879   3.5090   3.5227   3.5428   3.5540
  3.5834   3.5950   3.6078   3.6239   3.6352   3.6502   3.6553   3.6752
  3.6849   3.7030   3.7273   3.7409   3.7500   3.7764   3.7990   3.8233
  3.8693   3.8960   3.9131   3.9468   3.9645   3.9944   4.0248   4.0567
  4.0777   4.0940   4.1093   4.1136   4.1442   4.1928   4.2240   4.2468
  4.3062   4.3535   4.3695   4.3853   4.4335   4.4493   4.4810   4.5640
  4.5713   4.5890   4.6351   4.6475   4.6537   4.6763   4.7063   4.8209
  4.8444   4.8792   4.8862   4.9072   4.9093   4.9853   5.0120   5.0299
  5.0576   5.0944   5.1286   5.1686   5.1718   5.1881   5.2311   5.2798
  5.2865   5.3109   5.3336   5.3489   5.3550   5.3857   5.4108   5.4370
  5.4411   5.4657   5.5071   5.5332   5.5687   5.5847   5.6467   5.6838
  5.7212   5.7517   5.7750   5.7889   5.8512   5.8623   5.9739   6.0153
  6.1918   6.2396   6.2521   6.3292   6.3754   6.4395   6.5241   6.6266
  6.6799   6.7461   6.7669   6.8353   6.9656   7.0063   7.0403   7.2514
  7.3388   7.4109   7.4470  22.6069  22.6732  22.8957  23.7447  23.7481
 32.4060  32.5833  33.0430  44.3150  44.4081
 --------------------------------------------------------------
 
          Ground-State Mulliken Net Atomic Charges

     Atom                 Charge (a.u.)
  ----------------------------------------
      1 C                    -0.484725
      2 C                    -0.795004
      3 C                     0.455698
      4 N                     0.081385
      5 N                    -0.265435
      6 N                    -0.221510
      7 H                     0.393830
      8 H                     0.212675
      9 H                     0.274646
     10 H                     0.196583
     11 H                     0.113439
     12 H                     0.192199
     13 H                     0.244051
     14 H                     0.189116
     15 H                     0.232866
     16 H                     0.226650
     17 C                    -0.825644
     18 C                     0.648740
     19 O                    -0.789449
     20 O                    -0.789387
     21 H                     0.207826
     22 H                     0.252450
     23 H                     0.249002
  ----------------------------------------
  Sum of atomic charges =     0.000000

 -----------------------------------------------------------------
                    Cartesian Multipole Moments
 -----------------------------------------------------------------
    Charge (ESU x 10^10)
                -0.0000
    Dipole Moment (Debye)
         X       6.8065      Y       8.9067      Z       7.5949
       Tot      13.5403
    Quadrupole Moments (Debye-Ang)
        XX     -54.8995     XY       8.8355     YY     -43.7360
        XZ       5.0902     YZ       3.2650     ZZ     -63.2996
    Octopole Moments (Debye-Ang^2)
       XXX      28.3067    XXY       3.8650    XYY      18.9819
       YYY     112.5340    XXZ      22.9226    XYZ       8.6101
       YYZ      19.0246    XZZ      21.6394    YZZ      13.8918
       ZZZ      10.8893
    Hexadecapole Moments (Debye-Ang^3)
      XXXX    -909.0691   XXXY    -172.3936   XXYY    -278.9941
      XYYY    -150.7825   YYYY    -720.9246   XXXZ    -246.5726
      XXYZ      11.2748   XYYZ     -45.8452   YYYZ     -34.9750
      XXZZ    -239.8101   XYZZ     -40.5917   YYZZ    -241.0120
      XZZZ    -273.6150   YZZZ     -57.8456   ZZZZ    -648.9029
 -----------------------------------------------------------------
Archival summary:
1\1\nid00549\SP\ProcedureUnspecified\BasisUnspecified\23513\meili\MonSep2701:02:262021MonSep2701:02:262021\0\\#,ProcedureUnspecified,BasisUnspecified,\\0,1\N\H,1,1.02092\C,1,1.32215,2,118.093\N,3,1.31593,1,120.042,2,-5.70998,0\H,4,1.00573,3,121.827,1,-177.905,0\H,4,1.01647,3,117.098,1,5.50739,0\N,3,1.32032,1,120.449,2,174.005,0\H,7,1.004,3,120.147,1,9.79841,0\H,7,1.00935,3,119.957,1,178.671,0\C,1,1.46799,2,116.062,3,174.382,0\H,10,1.09104,1,108.177,2,35.0987,0\H,10,1.09145,1,111.299,2,151.959,0\C,10,1.53057,1,112.744,2,-84.0531,0\H,13,1.09016,10,109.423,1,61.3328,0\H,13,1.09034,10,108.592,1,179.398,0\H,13,1.1,10,111.879,1,-59.8808,0\O,2,1.85734,1,138.368,3,-160.293,0\C,17,1.24953,2,88.8936,1,142.074,0\O,18,1.25283,17,122.197,2,23.3439,0\C,18,1.52631,17,117.782,2,-156.089,0\H,20,1.09098,18,109.593,17,-50.2688,0\H,20,1.09125,18,107.815,17,67.1839,0\H,20,1.1,18,112.675,17,-171.046,0\\\@

 Total job time:  41500.43s(wall), 27381.25s(cpu) 
 Mon Sep 27 01:02:27 2021

        *************************************************************
        *                                                           *
        *  Thank you very much for using Q-Chem.  Have a nice day.  *
        *                                                           *
        *************************************************************


