
Running Job 1 of 1 SSI-118ARG-157ASN-1_SMD_TZVPD.in
qchem SSI-118ARG-157ASN-1_SMD_TZVPD.in_3903.0 /tmp/qchem3903/ 0
/global/common/cori/software/qchem/5.2/exe/qcprog.exe_s SSI-118ARG-157ASN-1_SMD_TZVPD.in_3903.0 /tmp/qchem3903/
                  Welcome to Q-Chem
     A Quantum Leap Into The Future Of Chemistry


 Q-Chem 5.2, Q-Chem, Inc., Pleasanton, CA (2019)

 License issued to: National Energy Research Scientific Computing Center

 Yihan Shao,  Zhengting Gan,  E. Epifanovsky,  A. T. B. Gilbert,  M. Wormit,  
 J. Kussmann,  A. W. Lange,  A. Behn,  Jia Deng,  Xintian Feng,  D. Ghosh,  
 M. Goldey,  P. R. Horn,  L. D. Jacobson,  I. Kaliman,  T. Kus,  A. Landau,  
 Jie Liu,  E. I. Proynov,  R. M. Richard,  R. P. Steele,  E. J. Sundstrom,  
 H. L. Woodcock III,  P. M. Zimmerman,  D. Zuev,  B. Albrecht,  E. Alguire,  
 S. A. Baeppler,  D. Barton,  Z. Benda,  Y. A. Bernard,  E. J. Berquist,  
 K. B. Bravaya,  H. Burton,  D. Casanova,  Chun-Min Chang,  Yunqing Chen,  
 A. Chien,  K. D. Closser,  M. P. Coons,  S. Coriani,  S. Dasgupta,  
 A. L. Dempwolff,  M. Diedenhofen,  Hainam Do,  R. G. Edgar,  Po-Tung Fang,  
 S. Faraji,  S. Fatehi,  Qingguo Feng,  K. D. Fenk,  J. Fosso-Tande,  
 J. Gayvert,  Qinghui Ge,  A. Ghysels,  G. Gidofalvi,  J. Gomes,  
 J. Gonthier,  A. Gunina,  D. Hait,  M. W. D. Hanson-Heine,  
 P. H. P. Harbach,  A. W. Hauser,  M. F. Herbst,  J. E. Herr,  
 E. G. Hohenstein,  Z. C. Holden,  Kerwin Hui,  B. C. Huynh,  T.-C. Jagau,  
 Hyunjun Ji,  B. Kaduk,  K. Khistyaev,  Jaehoon Kim,  P. Klunzinger,  K. Koh,  
 D. Kosenkov,  L. Koulias,  T. Kowalczyk,  C. M. Krauter,  A. Kunitsa,  
 Ka Un Lao,  A. Laurent,  K. V. Lawler,  Joonho Lee,  D. Lefrancois,  
 S. Lehtola,  D. S. Levine,  Yi-Pei Li,  You-Sheng Lin,  Fenglai Liu,  
 E. Livshits,  A. Luenser,  P. Manohar,  E. Mansoor,  S. F. Manzer,  
 Shan-Ping Mao,  Yuezhi Mao,  N. Mardirossian,  A. V. Marenich,  
 T. Markovich,  L. A. Martinez-Martinez,  S. A. Maurer,  N. J. Mayhall,  
 S. C. McKenzie,  J.-M. Mewes,  P. Morgante,  A. F. Morrison,  
 J. W. Mullinax,  K. Nanda,  T. S. Nguyen-Beck,  R. Olivares-Amaya,  
 J. A. Parkhill,  Zheng Pei,  T. M. Perrine,  F. Plasser,  P. Pokhilko,  
 S. Prager,  A. Prociuk,  E. Ramos,  D. R. Rehn,  F. Rob,  M. Scheurer,  
 M. Schneider,  N. Sergueev,  S. M. Sharada,  S. Sharma,  D. W. Small,  
 T. Stauch,  T. Stein,  Yu-Chuan Su,  A. J. W. Thom,  A. Tkatchenko,  
 T. Tsuchimochi,  N. M. Tubman,  L. Vogt,  M. L. Vidal,  O. Vydrov,  
 M. A. Watson,  J. Wenzel,  M. de Wergifosse,  T. A. Wesolowski,  A. White,  
 J. Witte,  A. Yamada,  Jun Yang,  K. Yao,  S. Yeganeh,  S. R. Yost,  
 Zhi-Qiang You,  A. Zech,  Igor Ying Zhang,  Xing Zhang,  Yan Zhao,  
 Ying Zhu,  B. R. Brooks,  G. K. L. Chan,  C. J. Cramer,  M. S. Gordon,  
 W. J. Hehre,  A. Klamt,  M. W. Schmidt,  C. D. Sherrill,  D. G. Truhlar,  
 A. Aspuru-Guzik,  R. Baer,  A. T. Bell,  N. A. Besley,  Jeng-Da Chai,  
 A. E. DePrince, III,  R. A. DiStasio Jr.,  A. Dreuw,  B. D. Dunietz,  
 T. R. Furlani,  Chao-Ping Hsu,  Yousung Jung,  Jing Kong,  D. S. Lambrecht,  
 WanZhen Liang,  C. Ochsenfeld,  V. A. Rassolov,  L. V. Slipchenko,  
 J. E. Subotnik,  T. Van Voorhis,  J. M. Herbert,  A. I. Krylov,  
 P. M. W. Gill,  M. Head-Gordon

 Contributors to earlier versions of Q-Chem not listed above: 
 R. D. Adamson,  B. Austin,  J. Baker,  G. J. O. Beran,  K. Brandhorst,  
 S. T. Brown,  E. F. C. Byrd,  A. K. Chakraborty,  C.-L. Cheng,  
 Siu Hung Chien,  D. M. Chipman,  D. L. Crittenden,  H. Dachsel,  
 R. J. Doerksen,  A. D. Dutoi,  L. Fusti-Molnar,  W. A. Goddard III,  
 A. Golubeva-Zadorozhnaya,  S. R. Gwaltney,  G. Hawkins,  A. Heyden,  
 S. Hirata,  G. Kedziora,  F. J. Keil,  C. Kelley,  Jihan Kim,  R. A. King,  
 R. Z. Khaliullin,  P. P. Korambath,  W. Kurlancheek,  A. M. Lee,  M. S. Lee,  
 S. V. Levchenko,  Ching Yeh Lin,  D. Liotard,  R. C. Lochan,  I. Lotan,  
 P. E. Maslen,  N. Nair,  D. P. O'Neill,  D. Neuhauser,  E. Neuscamman,  
 C. M. Oana,  R. Olson,  B. Peters,  R. Peverati,  P. A. Pieniazek,  
 Y. M. Rhee,  J. Ritchie,  M. A. Rohrdanz,  E. Rosta,  N. J. Russ,  
 H. F. Schaefer III,  N. E. Schultz,  N. Shenvi,  A. C. Simmonett,  A. Sodt,  
 D. Stuck,  K. S. Thanthiriwatte,  V. Vanovschi,  Tao Wang,  A. Warshel,  
 C. F. Williams,  Q. Wu,  X. Xu,  W. Zhang

 Please cite Q-Chem as follows:
 Y. Shao et al., Mol. Phys. 113, 184-215 (2015)
 DOI: 10.1080/00268976.2014.952696

 Q-Chem 5.2.0 for Intel X86 EM64T Linux

 Parts of Q-Chem use Armadillo 8.300.2 (Tropical Shenanigans).
 http://arma.sourceforge.net/

 Q-Chem begins on Sun Sep 26 13:54:49 2021  

Host: cori01
0

     Scratch files written to /tmp/qchem3903//
 May1019 |scratch|qcdevops|jenkins|workspace|build_RNUM -1
Processing $rem in /global/common/cori/software/qchem/5.2/config/preferences:
	 MEM_TOTAL  96000 
NAlpha2: 72
NElect   72
Mult     1
Symmetry turned off for PCM/SM12/SMD calculation

 Q-Chem warning in module libgen/rem_setup.C, line 2803:

 Neither GIA nor STOLL is specified by user. Use STOLL as the default


Checking the input file for inconsistencies... 	...done.

--------------------------------------------------------------
User input:
--------------------------------------------------------------
$comment
SSI-118ARG-157ASN-1.pdb
$end

$molecule
1 1
--
1 1
C   -3.674873234379   -0.921263913554   -1.227531639516
C   -1.535873234379   -0.796263913554    0.112468360484
N   -0.401873234379   -1.380263913554    0.454468360484
N   -2.353873234379   -1.401263913554   -0.748531639516
N   -1.819873234379    0.381736086446    0.635468360484
H   -0.140873234379   -2.233263913554   -0.022531639516
H   -0.069873234379   -1.279263913554    1.398468360484
H   -2.044873234379   -2.291263913554   -1.113531639516
H   -2.672873234379    0.841736086446    0.357468360484
H   -1.263873234379    0.793736086446    1.364468360484
H   -3.657873234379   -0.887263913554   -2.319531639516
H   -3.886873234379    0.085736086446   -0.869531639516
H   -4.482813234379   -1.596334913554   -0.908926639516
--
0 1
C    1.421126765621    1.864736086446   -0.440531639516
C    2.531126765621    1.004736086446    0.167468360484
O    3.710126765621    1.139736086446   -0.160531639516
N    2.179126765621    0.159736086446    1.104468360484
H    2.908126765621   -0.402263913554    1.525468360484
H    1.229126765621    0.079736086446    1.395468360484
H    0.441126765621    1.440736086446   -0.240531639516
H    1.561126765621    1.873736086446   -1.523531639516
H    1.480386765621    2.893913086446   -0.056758639516
$end

$rem
JOBTYPE			EDA
EDA2			1
method			wB97X-V
BASIS			def2-TZVPD
XC_GRID			000099000590
NL_GRID			1
UNRESTRICTED		FALSE
MAX_SCF_CYCLES		200
SYMMETRY		FALSE
SYM_IGNORE		TRUE
MEM_STATIC		2000
BASIS_LIN_DEP_THRESH 	6
THRESH 			14
SCF_CONVERGENCE 	8
SCF_PRINT_FRGM 		TRUE
SOLVENT_METHOD          SMD
$end

$SMX
SOLVENT			WATER
$END
--------------------------------------------------------------
 ----------------------------------------------------------------
             Standard Nuclear Orientation (Angstroms)
    I     Atom           X                Y                Z
 ----------------------------------------------------------------
    1      C      -3.6748732344    -0.9212639136    -1.2275316395
    2      C      -1.5358732344    -0.7962639136     0.1124683605
    3      N      -0.4018732344    -1.3802639136     0.4544683605
    4      N      -2.3538732344    -1.4012639136    -0.7485316395
    5      N      -1.8198732344     0.3817360864     0.6354683605
    6      H      -0.1408732344    -2.2332639136    -0.0225316395
    7      H      -0.0698732344    -1.2792639136     1.3984683605
    8      H      -2.0448732344    -2.2912639136    -1.1135316395
    9      H      -2.6728732344     0.8417360864     0.3574683605
   10      H      -1.2638732344     0.7937360864     1.3644683605
   11      H      -3.6578732344    -0.8872639136    -2.3195316395
   12      H      -3.8868732344     0.0857360864    -0.8695316395
   13      H      -4.4828132344    -1.5963349136    -0.9089266395
   14      C       1.4211267656     1.8647360864    -0.4405316395
   15      C       2.5311267656     1.0047360864     0.1674683605
   16      O       3.7101267656     1.1397360864    -0.1605316395
   17      N       2.1791267656     0.1597360864     1.1044683605
   18      H       2.9081267656    -0.4022639136     1.5254683605
   19      H       1.2291267656     0.0797360864     1.3954683605
   20      H       0.4411267656     1.4407360864    -0.2405316395
   21      H       1.5611267656     1.8737360864    -1.5235316395
   22      H       1.4803867656     2.8939130864    -0.0567586395
 ----------------------------------------------------------------
 Nuclear Repulsion Energy =         462.51477608 hartrees
 There are       36 alpha and       36 beta electrons
 Requested basis set is def2-TZVPD
 There are 183 shells and 453 basis functions

 Total QAlloc Memory Limit  96000 MB
 Mega-Array Size      1956 MB
 MEM_STATIC part      2000 MB
 
 Citation of the SMD model:
 Marenich, A.V.; Cramer, C.J.; Truhlar, D.G.
 J. Phys. Chem. B 2009, 113, 6378-6396.
 iSolventCode=           1
 Solvent: water                                                           
 
 vradii
            1           2           3           4           5           6
    1   1.8500000   1.8500000   1.8900000   1.8900000   1.8900000   1.2000000
            7           8           9          10          11          12
    1   1.2000000   1.2000000   1.2000000   1.2000000   1.2000000   1.2000000
           13          14          15          16          17          18
    1   1.2000000   1.8500000   1.8500000   1.5200000   1.8900000   1.2000000
           19          20          21          22
    1   1.2000000   1.2000000   1.2000000   1.2000000
 Changing PCM_VDW_RADII to SMD_RADIUS
 Discretize the solute cavity surface with Lebedev spheres
	Using 110 Lebedev grid points for each H atom
	Using 194 Lebedev grid points for other atoms
	Atomic van der Waals radii will be scaled by 1.20
 Remove points where switching function is < 1.0e-08
 Keep 1585 surface tesserae and discard 1591 interior tesserae
 Molecular Surface Area = 189.217 Angst**2
 A cutoff of  1.0D-14 yielded  14950 shell pairs
 There are     91974 function pairs (    114626 Cartesian)
 Smallest overlap matrix eigenvalue = 3.98E-06

 Scale SEOQF with 1.000000e-01/1.000000e-01/1.000000e-01

 Standard Electronic Orientation quadrupole field applied
 Nucleus-field energy     =     0.0000000179 hartrees

 -----------------------------------------------------------------------
  General SCF calculation program by
  Eric Jon Sundstrom, Paul Horn, Yuezhi Mao, Dmitri Zuev, Alec White,
  David Stuck, Shaama M.S., Shane Yost, Joonho Lee, David Small,
  Daniel Levine, Susi Lehtola, Hugh Burton, Evgeny Epifanovsky
 -----------------------------------------------------------------------
================================================================
                 ALMO-EDA with the EDA2 driver                  
================================================================
 The second-generation ALMO-EDA (for DFT):                      
 P. R. Horn, Y. Mao and M. Head-Gordon, PCCP, 18, 23067 (2016)  
 Decomposition of the frozen energy:                            
 P. R. Horn, Y. Mao and M. Head-Gordon, JCP, 144, 114107 (2016) 
 FERF model for polarization:                                   
 P. R. Horn and M. Head-Gordon, JCP, 143, 114111 (2015)         
Using eda2 option set 1
Option set summary: Frozen orbital wavefunction, initial wavefunction decomposition, and nDQ polarization.
--------------------------------
Printing EDA Options
--------------------------------
eda_child_super_basis      0
fragmo_guess_mode          0
child_mp                   1
child_mp_orders            232
cls_elec                   1
cls_disp                   0
scfmi_mode                 1
scfmi_occs                 0
scfmi_virts                0
frz_relax                  0
frz_relax_method           0
dc_pen_start               0
dc_pen_conv                0
dc_pen_increment           0
dc_pen_steps               0
dc_pen_thresh_factor       0
dc_pen_pre_newton_thresh   0
frz_ortho_decomp           1
frz_ortho_decomp_conv      6
frgm_method                2
scfmi_freeze_ss            0
separate_rehyb             0
plot_diff_den              0
eda_nocv                   0
eda_vct_relax              1
disp_free_x                0
disp_free_c                0
eda_bsse                   0
eda_pct_a                  0
eda_covp                   0
--------------------------------
Attempting to make child job directory: /tmp/qchem3903//Frg1/
Attempting to make child job directory: /tmp/qchem3903//Frg2/
Creating input file /tmp/qchem3903/Frg1.input
using default PutDataFrgm: nothing
calling putenv with: QCSCRATCH=/tmp/qchem3903/ 
calling putenv with: QCLOCALSCR=/tmp/qchem3903/ 
Spawning Job For Fragment 0
                  Welcome to Q-Chem
     A Quantum Leap Into The Future Of Chemistry


 Q-Chem 5.2, Q-Chem, Inc., Pleasanton, CA (2019)

 License issued to: National Energy Research Scientific Computing Center

 Yihan Shao,  Zhengting Gan,  E. Epifanovsky,  A. T. B. Gilbert,  M. Wormit,  
 J. Kussmann,  A. W. Lange,  A. Behn,  Jia Deng,  Xintian Feng,  D. Ghosh,  
 M. Goldey,  P. R. Horn,  L. D. Jacobson,  I. Kaliman,  T. Kus,  A. Landau,  
 Jie Liu,  E. I. Proynov,  R. M. Richard,  R. P. Steele,  E. J. Sundstrom,  
 H. L. Woodcock III,  P. M. Zimmerman,  D. Zuev,  B. Albrecht,  E. Alguire,  
 S. A. Baeppler,  D. Barton,  Z. Benda,  Y. A. Bernard,  E. J. Berquist,  
 K. B. Bravaya,  H. Burton,  D. Casanova,  Chun-Min Chang,  Yunqing Chen,  
 A. Chien,  K. D. Closser,  M. P. Coons,  S. Coriani,  S. Dasgupta,  
 A. L. Dempwolff,  M. Diedenhofen,  Hainam Do,  R. G. Edgar,  Po-Tung Fang,  
 S. Faraji,  S. Fatehi,  Qingguo Feng,  K. D. Fenk,  J. Fosso-Tande,  
 J. Gayvert,  Qinghui Ge,  A. Ghysels,  G. Gidofalvi,  J. Gomes,  
 J. Gonthier,  A. Gunina,  D. Hait,  M. W. D. Hanson-Heine,  
 P. H. P. Harbach,  A. W. Hauser,  M. F. Herbst,  J. E. Herr,  
 E. G. Hohenstein,  Z. C. Holden,  Kerwin Hui,  B. C. Huynh,  T.-C. Jagau,  
 Hyunjun Ji,  B. Kaduk,  K. Khistyaev,  Jaehoon Kim,  P. Klunzinger,  K. Koh,  
 D. Kosenkov,  L. Koulias,  T. Kowalczyk,  C. M. Krauter,  A. Kunitsa,  
 Ka Un Lao,  A. Laurent,  K. V. Lawler,  Joonho Lee,  D. Lefrancois,  
 S. Lehtola,  D. S. Levine,  Yi-Pei Li,  You-Sheng Lin,  Fenglai Liu,  
 E. Livshits,  A. Luenser,  P. Manohar,  E. Mansoor,  S. F. Manzer,  
 Shan-Ping Mao,  Yuezhi Mao,  N. Mardirossian,  A. V. Marenich,  
 T. Markovich,  L. A. Martinez-Martinez,  S. A. Maurer,  N. J. Mayhall,  
 S. C. McKenzie,  J.-M. Mewes,  P. Morgante,  A. F. Morrison,  
 J. W. Mullinax,  K. Nanda,  T. S. Nguyen-Beck,  R. Olivares-Amaya,  
 J. A. Parkhill,  Zheng Pei,  T. M. Perrine,  F. Plasser,  P. Pokhilko,  
 S. Prager,  A. Prociuk,  E. Ramos,  D. R. Rehn,  F. Rob,  M. Scheurer,  
 M. Schneider,  N. Sergueev,  S. M. Sharada,  S. Sharma,  D. W. Small,  
 T. Stauch,  T. Stein,  Yu-Chuan Su,  A. J. W. Thom,  A. Tkatchenko,  
 T. Tsuchimochi,  N. M. Tubman,  L. Vogt,  M. L. Vidal,  O. Vydrov,  
 M. A. Watson,  J. Wenzel,  M. de Wergifosse,  T. A. Wesolowski,  A. White,  
 J. Witte,  A. Yamada,  Jun Yang,  K. Yao,  S. Yeganeh,  S. R. Yost,  
 Zhi-Qiang You,  A. Zech,  Igor Ying Zhang,  Xing Zhang,  Yan Zhao,  
 Ying Zhu,  B. R. Brooks,  G. K. L. Chan,  C. J. Cramer,  M. S. Gordon,  
 W. J. Hehre,  A. Klamt,  M. W. Schmidt,  C. D. Sherrill,  D. G. Truhlar,  
 A. Aspuru-Guzik,  R. Baer,  A. T. Bell,  N. A. Besley,  Jeng-Da Chai,  
 A. E. DePrince, III,  R. A. DiStasio Jr.,  A. Dreuw,  B. D. Dunietz,  
 T. R. Furlani,  Chao-Ping Hsu,  Yousung Jung,  Jing Kong,  D. S. Lambrecht,  
 WanZhen Liang,  C. Ochsenfeld,  V. A. Rassolov,  L. V. Slipchenko,  
 J. E. Subotnik,  T. Van Voorhis,  J. M. Herbert,  A. I. Krylov,  
 P. M. W. Gill,  M. Head-Gordon

 Contributors to earlier versions of Q-Chem not listed above: 
 R. D. Adamson,  B. Austin,  J. Baker,  G. J. O. Beran,  K. Brandhorst,  
 S. T. Brown,  E. F. C. Byrd,  A. K. Chakraborty,  C.-L. Cheng,  
 Siu Hung Chien,  D. M. Chipman,  D. L. Crittenden,  H. Dachsel,  
 R. J. Doerksen,  A. D. Dutoi,  L. Fusti-Molnar,  W. A. Goddard III,  
 A. Golubeva-Zadorozhnaya,  S. R. Gwaltney,  G. Hawkins,  A. Heyden,  
 S. Hirata,  G. Kedziora,  F. J. Keil,  C. Kelley,  Jihan Kim,  R. A. King,  
 R. Z. Khaliullin,  P. P. Korambath,  W. Kurlancheek,  A. M. Lee,  M. S. Lee,  
 S. V. Levchenko,  Ching Yeh Lin,  D. Liotard,  R. C. Lochan,  I. Lotan,  
 P. E. Maslen,  N. Nair,  D. P. O'Neill,  D. Neuhauser,  E. Neuscamman,  
 C. M. Oana,  R. Olson,  B. Peters,  R. Peverati,  P. A. Pieniazek,  
 Y. M. Rhee,  J. Ritchie,  M. A. Rohrdanz,  E. Rosta,  N. J. Russ,  
 H. F. Schaefer III,  N. E. Schultz,  N. Shenvi,  A. C. Simmonett,  A. Sodt,  
 D. Stuck,  K. S. Thanthiriwatte,  V. Vanovschi,  Tao Wang,  A. Warshel,  
 C. F. Williams,  Q. Wu,  X. Xu,  W. Zhang

 Please cite Q-Chem as follows:
 Y. Shao et al., Mol. Phys. 113, 184-215 (2015)
 DOI: 10.1080/00268976.2014.952696

 Q-Chem 5.2.0 for Intel X86 EM64T Linux

 Parts of Q-Chem use Armadillo 8.300.2 (Tropical Shenanigans).
 http://arma.sourceforge.net/

 Q-Chem begins on Sun Sep 26 13:54:53 2021  

Host: cori01
0

     Scratch files written to /tmp/qchem3903//Frg1//
 May1019 |scratch|qcdevops|jenkins|workspace|build_RNUM -1
Processing $rem in /global/common/cori/software/qchem/5.2/config/preferences:
	 MEM_TOTAL  96000 
NAlpha2: 40
NElect   40
Mult     1
Symmetry turned off for PCM/SM12/SMD calculation

Checking the input file for inconsistencies... 	...done.

--------------------------------------------------------------
User input:
--------------------------------------------------------------
$molecule
1 1
 6	-3.6748732344	-0.9212639136	-1.2275316395
 6	-1.5358732344	-0.7962639136	0.1124683605
 7	-0.4018732344	-1.3802639136	0.4544683605
 7	-2.3538732344	-1.4012639136	-0.7485316395
 7	-1.8198732344	0.3817360864	0.6354683605
 1	-0.1408732344	-2.2332639136	-0.0225316395
 1	-0.0698732344	-1.2792639136	1.3984683605
 1	-2.0448732344	-2.2912639136	-1.1135316395
 1	-2.6728732344	0.8417360864	0.3574683605
 1	-1.2638732344	0.7937360864	1.3644683605
 1	-3.6578732344	-0.8872639136	-2.3195316395
 1	-3.8868732344	0.0857360864	-0.8695316395
 1	-4.4828132344	-1.5963349136	-0.9089266395
$end
$rem
EDA2		1
METHOD		WB97X-V
BASIS		DEF2-TZVPD
XC_GRID		000099000590
NL_GRID		1
UNRESTRICTED		FALSE
MAX_SCF_CYCLES		200
SYMMETRY		FALSE
SYM_IGNORE		TRUE
BASIS_LIN_DEP_THRESH		6
THRESH		14
SCF_CONVERGENCE		8
SCF_PRINT_FRGM		TRUE
SOLVENT_METHOD		SMD
!required keywords
JOBTYPE		SP
SYM_IGNORE		TRUE
SUBSYSTEM		TRUE
GEN_SCFMAN		TRUE
CHILD_INSTRUCTION		2
SYM_IGNORE		TRUE
SCFMI		0
RI_K 0		
PARI_K 0		
MIN_PARI_K 0		
IARI_K 0		
OCC_RI_K 0		
PURECART		1111
MEM_STATIC		2000
MEM_TOTAL		96000
GUI		0
CHILD_MP		1
CHILD_MP_ORDERS		232
FRZ_RELAX		0
FRZ_RELAX_METHOD		0
EDA_CLS_ELEC		1
EDA_CLS_DISP		0
FRZ_ORTHO_DECOMP		1
EDA2		FALSE
FRGM_METHOD		FALSE
CIS_N_ROOTS  0
LOCAL_CIS    0
CIS_RLX_DNS  1
$end
$smx
SOLVENT			WATER
$end
--------------------------------------------------------------
 ----------------------------------------------------------------
             Standard Nuclear Orientation (Angstroms)
    I     Atom           X                Y                Z
 ----------------------------------------------------------------
    1      C      -3.6748732344    -0.9212639136    -1.2275316395
    2      C      -1.5358732344    -0.7962639136     0.1124683605
    3      N      -0.4018732344    -1.3802639136     0.4544683605
    4      N      -2.3538732344    -1.4012639136    -0.7485316395
    5      N      -1.8198732344     0.3817360864     0.6354683605
    6      H      -0.1408732344    -2.2332639136    -0.0225316395
    7      H      -0.0698732344    -1.2792639136     1.3984683605
    8      H      -2.0448732344    -2.2912639136    -1.1135316395
    9      H      -2.6728732344     0.8417360864     0.3574683605
   10      H      -1.2638732344     0.7937360864     1.3644683605
   11      H      -3.6578732344    -0.8872639136    -2.3195316395
   12      H      -3.8868732344     0.0857360864    -0.8695316395
   13      H      -4.4828132344    -1.5963349136    -0.9089266395
 ----------------------------------------------------------------
 Nuclear Repulsion Energy =         193.13414191 hartrees
 There are       20 alpha and       20 beta electrons
 Requested basis set is def2-TZVPD
 There are 105 shells and 257 basis functions

 Total QAlloc Memory Limit  96000 MB
 Mega-Array Size      1956 MB
 MEM_STATIC part      2000 MB
 
 Citation of the SMD model:
 Marenich, A.V.; Cramer, C.J.; Truhlar, D.G.
 J. Phys. Chem. B 2009, 113, 6378-6396.
 iSolventCode=           1
 Solvent: water                                                           
 
 vradii
            1           2           3           4           5           6
    1   1.8500000   1.8500000   1.8900000   1.8900000   1.8900000   1.2000000
            7           8           9          10          11          12
    1   1.2000000   1.2000000   1.2000000   1.2000000   1.2000000   1.2000000
           13
    1   1.2000000
 Changing PCM_VDW_RADII to SMD_RADIUS
 Discretize the solute cavity surface with Lebedev spheres
	Using 110 Lebedev grid points for each H atom
	Using 194 Lebedev grid points for other atoms
	Atomic van der Waals radii will be scaled by 1.20
 Remove points where switching function is < 1.0e-08
 Keep 917 surface tesserae and discard 933 interior tesserae
 Molecular Surface Area = 113.767 Angst**2

                       Distance Matrix (Angstroms)
             C (  1)   C (  2)   N (  3)   N (  4)   N (  5)   H (  6)
   C (  2)  2.527162
   N (  3)  3.708414  1.320597
   N (  4)  1.484885  1.332843  2.293023
   N (  5)  2.934213  1.319799  2.268949  2.319418
   H (  6)  3.957591  2.007291  1.011563  2.473190  3.176512
   H (  7)  4.474379  2.009040  1.005764  3.137061  2.530532  1.713008
   H (  8)  2.132322  1.999295  2.447038  1.010349  3.202273  2.195190
   H (  9)  2.573791  2.008940  3.178700  2.521120  1.008213  4.001381
   H ( 10)  3.933524  2.041957  2.509466  3.235876  1.005147  3.513919
   H ( 11)  1.092661  3.228899  4.305771  2.105387  3.704137  4.411033
   H ( 12)  1.089567  2.696192  4.005915  2.139135  2.573933  4.486389
   H ( 13)  1.099999  3.219909  4.308086  2.143867  3.659122  4.477032
             H (  7)   H (  8)   H (  9)   H ( 10)   H ( 11)   H ( 12)
   H (  8)  3.351852
   H (  9)  3.515385  3.517657
   H ( 10)  2.392514  4.033320  1.732522
   H ( 11)  5.181788  2.455081  3.335565  4.704131
   H ( 12)  4.645055  3.017056  1.884373  3.517407  1.761156
   H ( 13)  4.989854  2.543293  3.289959  4.608941  1.781324  1.784954

 
 A cutoff of  1.0D-14 yielded   5437 shell pairs
 There are     33161 function pairs (     41494 Cartesian)
 Smallest overlap matrix eigenvalue = 1.54E-05

 Scale SEOQF with 1.000000e-01/1.000000e-01/1.000000e-01

 Standard Electronic Orientation quadrupole field applied
 Nucleus-field energy     =     0.0000000085 hartrees
 Guess from superposition of atomic densities
 Warning:  Energy on first SCF cycle will be non-variational
 SAD guess density has 40.388232 electrons

 -----------------------------------------------------------------------
  General SCF calculation program by
  Eric Jon Sundstrom, Paul Horn, Yuezhi Mao, Dmitri Zuev, Alec White,
  David Stuck, Shaama M.S., Shane Yost, Joonho Lee, David Small,
  Daniel Levine, Susi Lehtola, Hugh Burton, Evgeny Epifanovsky
 -----------------------------------------------------------------------
 Exchange:     0.1670 Hartree-Fock + 1.0000 wB97X-V + LR-HF
 Correlation:  1.0000 wB97X-V
 Using Euler-Maclaurin-Lebedev (99,590) quadrature formula
 Nonlocal Correlation:  VV10 with C = 0.0100 and b = 6.00 and scale = 1.00000
 Grid used for NLC:  SG-1 standard quadrature
Energy prior to optimization (guess energy) = -244.717799839753
Begin Timing: Total SCF Calculation
begin iterations for algorithm: DIIS         
the SCF tolerance is set to 1.00e-08
    1    -244.7177998398      7.95e-03     00000 
    2    -244.9562214825      6.28e-03     00000 
    3    -245.1997165070      3.35e-04     00000 
    4    -245.2007431843      1.72e-04     00000 
    5    -245.2009828254      4.86e-05     00000 
    6    -245.2010040514      2.07e-05     00000 
    7    -245.2010077390      3.95e-06     00000 
    8    -245.2010079899      1.11e-06     00000 
    9    -245.2010080109      4.67e-07     00000 
   10    -245.2010080139      1.30e-07     00000 
   11    -245.2010080143      5.83e-08     00000 
   12    -245.2010080143      1.53e-08     00000 
   13    -245.2010080144      2.47e-09     00000 Convergence criterion met
Timing for Total SCF: 721.00s (wall), 1432.92s (cpu)
(3)  G-ENP(liq) elect-nuc-pol free energy of system     -245.201008014 a.u.
(4)  G-CDS(liq) cavity-dispersion-solvent structure 
     free energy                                                2.9167 kcal/mol
(6)  G-S(liq) free energy of system                     -245.196359930 a.u.
E_pcm = -0.1084171204
E_cds = 0.0046480847
Multipole orders to be included
        2
        3
computing dipole RHS
computing quadrupole RHS
total number of RHS in solve_reponses: 8
RHS batch sizes
        8
Beginning Block Conjugate Gradient Iterations. Batch Number: 0
computing hessian-vector products by finite difference
              1      4.82e-01     00000 Conjugate Gradient Iteration
computing hessian-vector products by finite difference
              2      1.79e-01     00000 Conjugate Gradient Iteration
computing hessian-vector products by finite difference
              3      5.13e-02     00000 Conjugate Gradient Iteration
computing hessian-vector products by finite difference
              4      1.31e-02     00000 Conjugate Gradient Iteration
computing hessian-vector products by finite difference
              5      1.77e-03     00000 Conjugate Gradient Iteration
computing hessian-vector products by finite difference
              6      3.22e-04     00000 Conjugate Gradient Iteration
computing hessian-vector products by finite difference
              7      4.64e-05     00000 Conjugate Gradient Iteration
computing hessian-vector products by finite difference
              8      7.09e-06     00000 Conjugate Gradient Iteration
computing hessian-vector products by finite difference
              9      1.03e-06     00000 Conjugate Gradient Iteration
computing hessian-vector products by finite difference
             10      1.73e-07     00000 Conjugate Gradient Iteration
computing hessian-vector products by finite difference
             11      3.25e-08     00000 Conjugate Gradient Iteration
computing hessian-vector products by finite difference
             12      7.05e-09     00000 CG Converged
batch 0 complete
Done Calculating Responses
TESTING ORTHOGONALIZATION OF MULTIPOLE BASIS
Multipole virts passed orthogonality test
Virts Per Order
           60
          100
 
 --------------------------------------------------------------
 
                    Orbital Energies (a.u.)
 --------------------------------------------------------------
 
 Alpha MOs
 -- Occupied --
-14.4594 -14.4485 -14.4412 -10.4252 -10.3091  -1.1719  -1.0534  -1.0427
 -0.8527  -0.7667  -0.7212  -0.6850  -0.6240  -0.6089  -0.5863  -0.5668
 -0.5237  -0.5108  -0.4005  -0.3779
 -- Virtual --
  0.0585   0.0852   0.0949   0.0994   0.1244   0.1286   0.1417   0.1509
  0.1719   0.1816   0.1895   0.1970   0.2023   0.2140   0.2208   0.2330
  0.2412   0.2471   0.2496   0.2671   0.2814   0.2905   0.3029   0.3061
  0.3102   0.3149   0.3220   0.3286   0.3358   0.3455   0.3552   0.3603
  0.3645   0.3673   0.3800   0.3862   0.4119   0.4136   0.4222   0.4355
  0.4397   0.4464   0.4498   0.4686   0.4738   0.4856   0.4942   0.4996
  0.5087   0.5105   0.5173   0.5295   0.5314   0.5439   0.5499   0.5619
  0.5683   0.5772   0.5852   0.5952   0.6061   0.6163   0.6418   0.6518
  0.6578   0.6753   0.6955   0.7048   0.7109   0.7192   0.7450   0.7666
  0.7914   0.8005   0.8071   0.8179   0.8353   0.8534   0.8543   0.8617
  0.8806   0.8856   0.9074   0.9287   0.9367   0.9553   0.9806   1.0040
  1.0214   1.0468   1.0661   1.0864   1.1067   1.1111   1.1260   1.1599
  1.1787   1.2130   1.2275   1.2492   1.2930   1.3299   1.3891   1.4233
  1.4381   1.4449   1.4706   1.5001   1.5727   1.5942   1.6431   1.6442
  1.6805   1.7278   1.7358   1.7652   1.8107   1.8454   1.8642   1.8834
  1.8984   1.9036   1.9409   1.9704   1.9933   2.0235   2.0442   2.0550
  2.0815   2.1032   2.1224   2.2005   2.2262   2.2363   2.2538   2.2841
  2.3425   2.3674   2.3883   2.4135   2.4399   2.4839   2.5040   2.5388
  2.5816   2.5921   2.5976   2.6362   2.6545   2.6672   2.7093   2.7262
  2.7562   2.8299   2.8350   2.8638   2.8968   2.9147   2.9365   2.9707
  3.0396   3.0845   3.1233   3.1510   3.1852   3.2022   3.2270   3.2611
  3.2690   3.2809   3.3027   3.3169   3.3400   3.4007   3.4457   3.4532
  3.4671   3.5105   3.5202   3.5746   3.6337   3.6706   3.7097   3.7336
  3.7705   3.8465   3.9003   3.9300   3.9744   4.0722   4.1297   4.1888
  4.2627   4.3305   4.3522   4.4168   4.4942   4.5313   4.5895   4.6209
  4.6734   4.8157   4.8638   4.8846   4.9218   4.9777   5.0249   5.0345
  5.0826   5.0952   5.1235   5.1669   5.1742   5.2277   5.2771   5.3384
  5.3596   5.4097   5.4563   5.4764   5.4942   5.5561   5.5929   5.6480
  5.6588   5.7334   5.8039   5.9288   6.1348   6.1795   6.3306   6.4924
 22.6162  23.6180  32.3388  32.4411  32.8201
 --------------------------------------------------------------
 
          Ground-State Mulliken Net Atomic Charges

     Atom                 Charge (a.u.)
  ----------------------------------------
      1 C                    -0.730321
      2 C                     0.439848
      3 N                    -0.338176
      4 N                    -0.110467
      5 N                    -0.253202
      6 H                     0.262748
      7 H                     0.276658
      8 H                     0.249336
      9 H                     0.163479
     10 H                     0.248114
     11 H                     0.254717
     12 H                     0.297012
     13 H                     0.240253
  ----------------------------------------
  Sum of atomic charges =     1.000000

 -----------------------------------------------------------------
                    Cartesian Multipole Moments
 -----------------------------------------------------------------
    Charge (ESU x 10^10)
                 4.8032
    Dipole Moment (Debye)
         X      -8.7667      Y      -4.4657      Z       0.6482
       Tot       9.8600
    Quadrupole Moments (Debye-Ang)
        XX      -4.7571     XY       3.8215     YY     -15.7053
        XZ       5.6936     YZ       4.6528     ZZ     -22.5643
    Octopole Moments (Debye-Ang^2)
       XXX      97.4301    XXY      13.1862    XYY      43.2880
       YYY      45.6155    XXZ     -16.6469    XYZ     -13.6479
       YYZ      -1.0285    XZZ      50.4143    YZZ      18.8880
       ZZZ      18.8956
    Hexadecapole Moments (Debye-Ang^3)
      XXXX    -715.7724   XXXY     -95.2446   XXYY    -164.5868
      XYYY    -113.2806   YYYY    -177.8380   XXXZ     -22.0671
      XXYZ      22.4013   XYYZ     -15.5284   YYYZ     -11.0495
      XXZZ    -165.5373   XYZZ     -36.7068   YYZZ     -51.5662
      XZZZ     -86.9459   YZZZ     -29.7641   ZZZZ    -130.8885
 -----------------------------------------------------------------
Archival summary:
1\1\nid00531\SP\ProcedureUnspecified\BasisUnspecified\328(1+,1)\meili\SunSep2617:36:002021SunSep2617:36:002021\0\\#,ProcedureUnspecified,BasisUnspecified,\\1,1\C\N,1,1.3198\H,2,1.00515,1,122.291\H,2,1.00821,1,118.687,3,-173.916,0\N,1,1.3206,2,118.481,3,-7.71462,0\H,5,1.00576,1,118.824,2,36.323,0\H,5,1.01156,1,118.187,2,-173.518,0\N,1,1.33284,2,121.943,3,172.629,0\H,8,1.01035,1,116.457,2,178.655,0\C,8,1.48488,1,127.419,2,-1.79887,0\H,10,1.08957,8,111.461,1,6.30514,0\H,10,1.09266,8,108.579,1,124.678,0\H,10,1.1,8,111.199,1,-115.82,0\\\@

 Total job time:  13267.67s(wall), 26323.56s(cpu) 
 Sun Sep 26 17:36:00 2021

        *************************************************************
        *                                                           *
        *  Thank you very much for using Q-Chem.  Have a nice day.  *
        *                                                           *
        *************************************************************


Done Job For Fragment 0
calling putenv with: QCSCRATCH=/global/cscratch1/sd/meili 
calling putenv with: QCLOCALSCR=/tmp 
calling putenv with: QCTHREADS=32 
Creating input file /tmp/qchem3903/Frg2.input
using default PutDataFrgm: nothing
calling putenv with: QCSCRATCH=/tmp/qchem3903/ 
calling putenv with: QCLOCALSCR=/tmp/qchem3903/ 
Spawning Job For Fragment 1
                  Welcome to Q-Chem
     A Quantum Leap Into The Future Of Chemistry


 Q-Chem 5.2, Q-Chem, Inc., Pleasanton, CA (2019)

 License issued to: National Energy Research Scientific Computing Center

 Yihan Shao,  Zhengting Gan,  E. Epifanovsky,  A. T. B. Gilbert,  M. Wormit,  
 J. Kussmann,  A. W. Lange,  A. Behn,  Jia Deng,  Xintian Feng,  D. Ghosh,  
 M. Goldey,  P. R. Horn,  L. D. Jacobson,  I. Kaliman,  T. Kus,  A. Landau,  
 Jie Liu,  E. I. Proynov,  R. M. Richard,  R. P. Steele,  E. J. Sundstrom,  
 H. L. Woodcock III,  P. M. Zimmerman,  D. Zuev,  B. Albrecht,  E. Alguire,  
 S. A. Baeppler,  D. Barton,  Z. Benda,  Y. A. Bernard,  E. J. Berquist,  
 K. B. Bravaya,  H. Burton,  D. Casanova,  Chun-Min Chang,  Yunqing Chen,  
 A. Chien,  K. D. Closser,  M. P. Coons,  S. Coriani,  S. Dasgupta,  
 A. L. Dempwolff,  M. Diedenhofen,  Hainam Do,  R. G. Edgar,  Po-Tung Fang,  
 S. Faraji,  S. Fatehi,  Qingguo Feng,  K. D. Fenk,  J. Fosso-Tande,  
 J. Gayvert,  Qinghui Ge,  A. Ghysels,  G. Gidofalvi,  J. Gomes,  
 J. Gonthier,  A. Gunina,  D. Hait,  M. W. D. Hanson-Heine,  
 P. H. P. Harbach,  A. W. Hauser,  M. F. Herbst,  J. E. Herr,  
 E. G. Hohenstein,  Z. C. Holden,  Kerwin Hui,  B. C. Huynh,  T.-C. Jagau,  
 Hyunjun Ji,  B. Kaduk,  K. Khistyaev,  Jaehoon Kim,  P. Klunzinger,  K. Koh,  
 D. Kosenkov,  L. Koulias,  T. Kowalczyk,  C. M. Krauter,  A. Kunitsa,  
 Ka Un Lao,  A. Laurent,  K. V. Lawler,  Joonho Lee,  D. Lefrancois,  
 S. Lehtola,  D. S. Levine,  Yi-Pei Li,  You-Sheng Lin,  Fenglai Liu,  
 E. Livshits,  A. Luenser,  P. Manohar,  E. Mansoor,  S. F. Manzer,  
 Shan-Ping Mao,  Yuezhi Mao,  N. Mardirossian,  A. V. Marenich,  
 T. Markovich,  L. A. Martinez-Martinez,  S. A. Maurer,  N. J. Mayhall,  
 S. C. McKenzie,  J.-M. Mewes,  P. Morgante,  A. F. Morrison,  
 J. W. Mullinax,  K. Nanda,  T. S. Nguyen-Beck,  R. Olivares-Amaya,  
 J. A. Parkhill,  Zheng Pei,  T. M. Perrine,  F. Plasser,  P. Pokhilko,  
 S. Prager,  A. Prociuk,  E. Ramos,  D. R. Rehn,  F. Rob,  M. Scheurer,  
 M. Schneider,  N. Sergueev,  S. M. Sharada,  S. Sharma,  D. W. Small,  
 T. Stauch,  T. Stein,  Yu-Chuan Su,  A. J. W. Thom,  A. Tkatchenko,  
 T. Tsuchimochi,  N. M. Tubman,  L. Vogt,  M. L. Vidal,  O. Vydrov,  
 M. A. Watson,  J. Wenzel,  M. de Wergifosse,  T. A. Wesolowski,  A. White,  
 J. Witte,  A. Yamada,  Jun Yang,  K. Yao,  S. Yeganeh,  S. R. Yost,  
 Zhi-Qiang You,  A. Zech,  Igor Ying Zhang,  Xing Zhang,  Yan Zhao,  
 Ying Zhu,  B. R. Brooks,  G. K. L. Chan,  C. J. Cramer,  M. S. Gordon,  
 W. J. Hehre,  A. Klamt,  M. W. Schmidt,  C. D. Sherrill,  D. G. Truhlar,  
 A. Aspuru-Guzik,  R. Baer,  A. T. Bell,  N. A. Besley,  Jeng-Da Chai,  
 A. E. DePrince, III,  R. A. DiStasio Jr.,  A. Dreuw,  B. D. Dunietz,  
 T. R. Furlani,  Chao-Ping Hsu,  Yousung Jung,  Jing Kong,  D. S. Lambrecht,  
 WanZhen Liang,  C. Ochsenfeld,  V. A. Rassolov,  L. V. Slipchenko,  
 J. E. Subotnik,  T. Van Voorhis,  J. M. Herbert,  A. I. Krylov,  
 P. M. W. Gill,  M. Head-Gordon

 Contributors to earlier versions of Q-Chem not listed above: 
 R. D. Adamson,  B. Austin,  J. Baker,  G. J. O. Beran,  K. Brandhorst,  
 S. T. Brown,  E. F. C. Byrd,  A. K. Chakraborty,  C.-L. Cheng,  
 Siu Hung Chien,  D. M. Chipman,  D. L. Crittenden,  H. Dachsel,  
 R. J. Doerksen,  A. D. Dutoi,  L. Fusti-Molnar,  W. A. Goddard III,  
 A. Golubeva-Zadorozhnaya,  S. R. Gwaltney,  G. Hawkins,  A. Heyden,  
 S. Hirata,  G. Kedziora,  F. J. Keil,  C. Kelley,  Jihan Kim,  R. A. King,  
 R. Z. Khaliullin,  P. P. Korambath,  W. Kurlancheek,  A. M. Lee,  M. S. Lee,  
 S. V. Levchenko,  Ching Yeh Lin,  D. Liotard,  R. C. Lochan,  I. Lotan,  
 P. E. Maslen,  N. Nair,  D. P. O'Neill,  D. Neuhauser,  E. Neuscamman,  
 C. M. Oana,  R. Olson,  B. Peters,  R. Peverati,  P. A. Pieniazek,  
 Y. M. Rhee,  J. Ritchie,  M. A. Rohrdanz,  E. Rosta,  N. J. Russ,  
 H. F. Schaefer III,  N. E. Schultz,  N. Shenvi,  A. C. Simmonett,  A. Sodt,  
 D. Stuck,  K. S. Thanthiriwatte,  V. Vanovschi,  Tao Wang,  A. Warshel,  
 C. F. Williams,  Q. Wu,  X. Xu,  W. Zhang

 Please cite Q-Chem as follows:
 Y. Shao et al., Mol. Phys. 113, 184-215 (2015)
 DOI: 10.1080/00268976.2014.952696

 Q-Chem 5.2.0 for Intel X86 EM64T Linux

 Parts of Q-Chem use Armadillo 8.300.2 (Tropical Shenanigans).
 http://arma.sourceforge.net/

 Q-Chem begins on Sun Sep 26 17:36:04 2021  

Host: cori01
0

     Scratch files written to /tmp/qchem3903//Frg2//
 May1019 |scratch|qcdevops|jenkins|workspace|build_RNUM -1
Processing $rem in /global/common/cori/software/qchem/5.2/config/preferences:
	 MEM_TOTAL  96000 
NAlpha2: 32
NElect   32
Mult     1
Symmetry turned off for PCM/SM12/SMD calculation

Checking the input file for inconsistencies... 	...done.

--------------------------------------------------------------
User input:
--------------------------------------------------------------
$molecule
0 1
 6	1.4211267656	1.8647360864	-0.4405316395
 6	2.5311267656	1.0047360864	0.1674683605
 8	3.7101267656	1.1397360864	-0.1605316395
 7	2.1791267656	0.1597360864	1.1044683605
 1	2.9081267656	-0.4022639136	1.5254683605
 1	1.2291267656	0.0797360864	1.3954683605
 1	0.4411267656	1.4407360864	-0.2405316395
 1	1.5611267656	1.8737360864	-1.5235316395
 1	1.4803867656	2.8939130864	-0.0567586395
$end
$rem
EDA2		1
METHOD		WB97X-V
BASIS		DEF2-TZVPD
XC_GRID		000099000590
NL_GRID		1
UNRESTRICTED		FALSE
MAX_SCF_CYCLES		200
SYMMETRY		FALSE
SYM_IGNORE		TRUE
BASIS_LIN_DEP_THRESH		6
THRESH		14
SCF_CONVERGENCE		8
SCF_PRINT_FRGM		TRUE
SOLVENT_METHOD		SMD
!required keywords
JOBTYPE		SP
SYM_IGNORE		TRUE
SUBSYSTEM		TRUE
GEN_SCFMAN		TRUE
CHILD_INSTRUCTION		2
SYM_IGNORE		TRUE
SCFMI		0
RI_K 0		
PARI_K 0		
MIN_PARI_K 0		
IARI_K 0		
OCC_RI_K 0		
PURECART		1111
MEM_STATIC		2000
MEM_TOTAL		96000
GUI		0
CHILD_MP		1
CHILD_MP_ORDERS		232
FRZ_RELAX		0
FRZ_RELAX_METHOD		0
EDA_CLS_ELEC		1
EDA_CLS_DISP		0
FRZ_ORTHO_DECOMP		1
EDA2		FALSE
FRGM_METHOD		FALSE
CIS_N_ROOTS  0
LOCAL_CIS    0
CIS_RLX_DNS  1
$end
$smx
SOLVENT			WATER
$end
--------------------------------------------------------------
 ----------------------------------------------------------------
             Standard Nuclear Orientation (Angstroms)
    I     Atom           X                Y                Z
 ----------------------------------------------------------------
    1      C       1.4211267656     1.8647360864    -0.4405316395
    2      C       2.5311267656     1.0047360864     0.1674683605
    3      O       3.7101267656     1.1397360864    -0.1605316395
    4      N       2.1791267656     0.1597360864     1.1044683605
    5      H       2.9081267656    -0.4022639136     1.5254683605
    6      H       1.2291267656     0.0797360864     1.3954683605
    7      H       0.4411267656     1.4407360864    -0.2405316395
    8      H       1.5611267656     1.8737360864    -1.5235316395
    9      H       1.4803867656     2.8939130864    -0.0567586395
 ----------------------------------------------------------------
 Nuclear Repulsion Energy =         122.44422771 hartrees
 There are       16 alpha and       16 beta electrons
 Requested basis set is def2-TZVPD
 There are 78 shells and 196 basis functions

 Total QAlloc Memory Limit  96000 MB
 Mega-Array Size      1956 MB
 MEM_STATIC part      2000 MB
 
 Citation of the SMD model:
 Marenich, A.V.; Cramer, C.J.; Truhlar, D.G.
 J. Phys. Chem. B 2009, 113, 6378-6396.
 iSolventCode=           1
 Solvent: water                                                           
 
 vradii
            1           2           3           4           5           6
    1   1.8500000   1.8500000   1.5200000   1.8900000   1.2000000   1.2000000
            7           8           9
    1   1.2000000   1.2000000   1.2000000
 Changing PCM_VDW_RADII to SMD_RADIUS
 Discretize the solute cavity surface with Lebedev spheres
	Using 110 Lebedev grid points for each H atom
	Using 194 Lebedev grid points for other atoms
	Atomic van der Waals radii will be scaled by 1.20
 Remove points where switching function is < 1.0e-08
 Keep 717 surface tesserae and discard 609 interior tesserae
 Molecular Surface Area = 89.924 Angst**2

                       Distance Matrix (Angstroms)
             C (  1)   C (  2)   O (  3)   N (  4)   H (  5)   H (  6)
   C (  2)  1.530152
   O (  3)  2.417343  1.231199
   N (  4)  2.422522  1.309923  2.214630
   H (  5)  3.348972  1.991467  2.421480  1.012189
   H (  6)  2.567876  2.014650  3.114498  0.996785  1.751646
   H (  7)  1.086359  2.173628  3.283803  2.543743  3.549858  2.269308
   H (  8)  1.092049  2.134372  2.648533  3.197828  4.036209  3.442270
   H (  9)  1.099999  2.173321  2.838952  3.051624  3.925133  3.176742
             H (  7)   H (  8)
   H (  8)  1.757264
   H (  9)  1.795984  1.788492
 
 A cutoff of  1.0D-14 yielded   3053 shell pairs
 There are     19543 function pairs (     24701 Cartesian)
 Smallest overlap matrix eigenvalue = 1.16E-05

 Scale SEOQF with 1.000000e-01/1.000000e-01/1.000000e-01

 Standard Electronic Orientation quadrupole field applied
 Nucleus-field energy     =     0.0000000093 hartrees
 Guess from superposition of atomic densities
 Warning:  Energy on first SCF cycle will be non-variational
 SAD guess density has 31.604610 electrons

 -----------------------------------------------------------------------
  General SCF calculation program by
  Eric Jon Sundstrom, Paul Horn, Yuezhi Mao, Dmitri Zuev, Alec White,
  David Stuck, Shaama M.S., Shane Yost, Joonho Lee, David Small,
  Daniel Levine, Susi Lehtola, Hugh Burton, Evgeny Epifanovsky
 -----------------------------------------------------------------------
 Exchange:     0.1670 Hartree-Fock + 1.0000 wB97X-V + LR-HF
 Correlation:  1.0000 wB97X-V
 Using Euler-Maclaurin-Lebedev (99,590) quadrature formula
 Nonlocal Correlation:  VV10 with C = 0.0100 and b = 6.00 and scale = 1.00000
 Grid used for NLC:  SG-1 standard quadrature
Energy prior to optimization (guess energy) = -208.705008815450
Begin Timing: Total SCF Calculation
begin iterations for algorithm: DIIS         
the SCF tolerance is set to 1.00e-08
    1    -208.7050088154      1.25e-02     00000 
    2    -208.3317631688      1.53e-02     00000 
    3    -209.2360431437      2.37e-03     00000 
    4    -209.2547737099      7.63e-04     00000 
    5    -209.2578074700      1.99e-04     00000 
    6    -209.2580804140      6.67e-05     00000 
    7    -209.2581216799      2.05e-05     00000 
    8    -209.2581268854      5.96e-06     00000 
    9    -209.2581276568      1.98e-06     00000 
   10    -209.2581277063      3.20e-07     00000 
   11    -209.2581277075      1.37e-07     00000 
   12    -209.2581277077      2.29e-08     00000 
   13    -209.2581277077      5.11e-09     00000 Convergence criterion met
Timing for Total SCF: 361.00s (wall), 714.21s (cpu)
(3)  G-ENP(liq) elect-nuc-pol free energy of system     -209.258127708 a.u.
(4)  G-CDS(liq) cavity-dispersion-solvent structure 
     free energy                                                3.5325 kcal/mol
(6)  G-S(liq) free energy of system                     -209.252498377 a.u.
E_pcm = -0.0304632779
E_cds = 0.0056293305
Multipole orders to be included
        2
        3
computing dipole RHS
computing quadrupole RHS
total number of RHS in solve_reponses: 8
RHS batch sizes
        8
Beginning Block Conjugate Gradient Iterations. Batch Number: 0
computing hessian-vector products by finite difference
              1      6.56e-01     00000 Conjugate Gradient Iteration
computing hessian-vector products by finite difference
              2      2.10e-01     00000 Conjugate Gradient Iteration
computing hessian-vector products by finite difference
              3      5.33e-02     00000 Conjugate Gradient Iteration
computing hessian-vector products by finite difference
              4      1.29e-02     00000 Conjugate Gradient Iteration
computing hessian-vector products by finite difference
              5      1.90e-03     00000 Conjugate Gradient Iteration
computing hessian-vector products by finite difference
              6      4.16e-04     00000 Conjugate Gradient Iteration
computing hessian-vector products by finite difference
              7      5.79e-05     00000 Conjugate Gradient Iteration
computing hessian-vector products by finite difference
              8      6.51e-06     00000 Conjugate Gradient Iteration
computing hessian-vector products by finite difference
              9      9.23e-07     00000 Conjugate Gradient Iteration
computing hessian-vector products by finite difference
             10      1.03e-07     00000 Conjugate Gradient Iteration
computing hessian-vector products by finite difference
             11      1.11e-08     00000 Conjugate Gradient Iteration
computing hessian-vector products by finite difference
             12      1.57e-09     00000 CG Converged
batch 0 complete
Done Calculating Responses
TESTING ORTHOGONALIZATION OF MULTIPOLE BASIS
Multipole virts passed orthogonality test
Virts Per Order
        48
        80
 
 --------------------------------------------------------------
 
                    Orbital Energies (a.u.)
 --------------------------------------------------------------
 
 Alpha MOs
 -- Occupied --
-19.1814 -14.4268 -10.3765 -10.2639  -1.1766  -1.0455  -0.8608  -0.7108
 -0.6570  -0.5902  -0.5648  -0.5184  -0.4965  -0.4799  -0.3841  -0.3753
 -- Virtual --
  0.0649   0.0962   0.0973   0.1037   0.1313   0.1334   0.1404   0.1515
  0.1816   0.1855   0.1972   0.2172   0.2297   0.2490   0.2531   0.2646
  0.2692   0.2774   0.3016   0.3169   0.3361   0.3395   0.3475   0.3541
  0.3600   0.3669   0.3718   0.3779   0.3924   0.4024   0.4182   0.4235
  0.4372   0.4601   0.4656   0.4718   0.4803   0.4958   0.5026   0.5067
  0.5241   0.5318   0.5618   0.5697   0.5767   0.5968   0.6228   0.6279
  0.6395   0.6509   0.6700   0.7040   0.7085   0.7240   0.7325   0.7700
  0.7740   0.7836   0.7986   0.8165   0.8240   0.8340   0.8551   0.8839
  0.9182   0.9571   0.9742   0.9926   1.0168   1.0312   1.0596   1.1008
  1.1102   1.1710   1.2273   1.2438   1.2884   1.3223   1.3342   1.3867
  1.4810   1.4973   1.5143   1.6263   1.6927   1.7302   1.7422   1.8039
  1.8530   1.8689   1.8890   1.9247   1.9308   1.9610   1.9797   2.0495
  2.0588   2.0894   2.1326   2.1648   2.1925   2.2327   2.3167   2.3836
  2.4174   2.4239   2.4597   2.4802   2.5444   2.5802   2.5857   2.6203
  2.6713   2.6942   2.7985   2.8115   2.8486   2.9125   2.9544   2.9877
  3.0807   3.0971   3.1226   3.1558   3.2023   3.2210   3.2732   3.3015
  3.3227   3.3422   3.3807   3.4102   3.4663   3.5119   3.5336   3.5619
  3.6329   3.6588   3.6955   3.8131   3.8676   3.9484   4.0082   4.0292
  4.0658   4.2076   4.2962   4.4321   4.4920   4.6086   4.6275   4.6690
  4.7784   4.8919   4.9063   4.9443   5.1476   5.1890   5.2653   5.3573
  5.3876   5.4042   5.4334   5.5078   5.5409   5.7657   5.9188   6.1741
  6.2417   6.5221   6.6368   6.7334   6.8301   6.9651   7.2153   7.3177
 22.5744  23.6066  32.4214  44.2960
 --------------------------------------------------------------
 
          Ground-State Mulliken Net Atomic Charges

     Atom                 Charge (a.u.)
  ----------------------------------------
      1 C                    -0.636500
      2 C                     0.449836
      3 O                    -0.706002
      4 N                    -0.287560
      5 H                     0.246413
      6 H                     0.236534
      7 H                     0.247898
      8 H                     0.226789
      9 H                     0.222592
  ----------------------------------------
  Sum of atomic charges =     0.000000

 -----------------------------------------------------------------
                    Cartesian Multipole Moments
 -----------------------------------------------------------------
    Charge (ESU x 10^10)
                -0.0000
    Dipole Moment (Debye)
         X      -5.2488      Y      -1.4878      Z       2.4915
       Tot       5.9976
    Quadrupole Moments (Debye-Ang)
        XX     -53.0108     XY     -10.0095     YY     -24.8507
        XZ       6.4198     YZ      -0.7507     ZZ     -21.2812
    Octopole Moments (Debye-Ang^2)
       XXX    -303.1299    XXY     -72.5599    XYY     -67.0693
       YYY     -76.4049    XXZ      17.5848    XYZ      -0.7851
       YYZ      -2.3567    XZZ     -52.3374    YZZ     -28.9294
       ZZZ      -7.5024
    Hexadecapole Moments (Debye-Ang^3)
      XXXX   -1523.1944   XXXY    -366.3550   XXYY    -257.4738
      XYYY    -182.4722   YYYY    -254.3246   XXXZ      45.2224
      XXYZ       8.1279   XYYZ      -3.5239   YYYZ      22.7953
      XXZZ    -165.2531   XYZZ     -66.4605   YYZZ     -61.1704
      XZZZ     -19.6154   YZZZ      12.2138   ZZZZ     -86.9439
 -----------------------------------------------------------------
Archival summary:
1\1\nid00531\SP\ProcedureUnspecified\BasisUnspecified\1125\meili\SunSep2619:17:342021SunSep2619:17:342021\0\\#,ProcedureUnspecified,BasisUnspecified,\\0,1\C\O,1,1.2312\N,1,1.30992,2,121.24\H,3,0.996785,1,121.111,2,177.379,0\H,3,1.01219,1,117.526,2,-2.16302,0\C,1,1.53015,2,121.815,3,176.588,0\H,6,1.08636,1,111.216,2,164.929,0\H,6,1.09205,1,107.8,2,47.2676,0\H,6,1.1,1,110.374,2,-72.1055,0\\\@

 Total job time:  6091.71s(wall), 12017.65s(cpu) 
 Sun Sep 26 19:17:35 2021

        *************************************************************
        *                                                           *
        *  Thank you very much for using Q-Chem.  Have a nice day.  *
        *                                                           *
        *************************************************************


Done Job For Fragment 1
calling putenv with: QCSCRATCH=/global/cscratch1/sd/meili 
calling putenv with: QCLOCALSCR=/tmp 
calling putenv with: QCTHREADS=32 
Doing General SCFMI
 Exchange:     0.1670 Hartree-Fock + 1.0000 wB97X-V + LR-HF
 Correlation:  1.0000 wB97X-V
 Using Euler-Maclaurin-Lebedev (99,590) quadrature formula
 Nonlocal Correlation:  VV10 with C = 0.0100 and b = 6.00 and scale = 1.00000
 Grid used for NLC:  SG-1 standard quadrature
performing fock build before subrot guess so that all methods have access
Printing subrot_rss_gen Method Specification:
Occupied Subspace Method is 0
Virtual Subspace Method is 0
Energy of the unrelaxed supersystem initial determinant -454.293288625276
performing fock build before subrot guess so that all methods have access
Printing subrot_rss_gen Method Specification:
Occupied Subspace Method is 0
Virtual Subspace Method is 0
Energy of the unrelaxed supersystem initial determinant w/ solvent -454.454119488473
write pseudocanon occs and virts to disk
write pseudocanon orbital energies to disk
Tolerance of ortho_decomp_scf: 1.00e-06
GDM subspace size: 20
Beginning the Orthogonal Decomposition of the Initial Supersystem Wavefunction
    1    -454.2917141088      4.40e-02     ortho_decomp Preconditoned Steepest Descent
    2    -454.2951327969      1.02e-03     ortho_decomp BFGS Step
    3    -454.2951421849      7.11e-05     ortho_decomp BFGS Step
    4    -454.2951421995      2.74e-06     ortho_decomp BFGS Step
    5    -454.2951421995      9.41e-08     ortho_decomp 00000 Convergence criterion met
 Hartree-Fock
 Hartree-Fock
 Hartree-Fock
Doing General SCFMI
 Exchange:     0.1670 Hartree-Fock + 1.0000 wB97X-V + LR-HF
 Correlation:  1.0000 wB97X-V
 Using Euler-Maclaurin-Lebedev (99,590) quadrature formula
 Nonlocal Correlation:  VV10 with C = 0.0100 and b = 6.00 and scale = 1.00000
 Grid used for NLC:  SG-1 standard quadrature
performing fock build at end of subrot_r(subrot) constructor so that all methods have access
<S^2> of initial wavefunction before polarization iterations 0.0000000000
Beginning iterations for the determination of the polarized wavefunction
Energy prior to optimization (guess energy) = -454.454119488473
Begin Timing: Total SCF Calculation
begin iterations for algorithm: DIIS         
the SCF tolerance is set to 1.00e-08
    1    -454.4541194885      9.71e-05     00000 
    2    -454.4545680775      3.68e-05     00000 
    3    -454.4546039965      1.98e-05     00000 
    4    -454.4546148124      6.13e-06     00000 
    5    -454.4546160345      3.17e-06     00000 
    6    -454.4546164426      1.37e-06     00000 
    7    -454.4546165322      5.59e-07     00000 
    8    -454.4546165448      1.88e-07     00000 
    9    -454.4546165462      6.97e-08     00000 
   10    -454.4546165463      3.62e-08     00000 
   11    -454.4546165464      1.24e-08     00000 
   12    -454.4546165464      6.65e-09     00000 Convergence criterion met
write pseudocanon occs and virts to disk
write pseudocanon orbital energies to disk
Timing for Total SCF: 3104.00s (wall), 6176.25s (cpu)
<S^2> of polarized wavefunction after polarization iterations 0.0000000000
relaxing scfmi constraint to allow all rotations in the entire AO span
Doing General SCFMI
 Exchange:     0.1670 Hartree-Fock + 1.0000 wB97X-V + LR-HF
 Correlation:  1.0000 wB97X-V
 Using Euler-Maclaurin-Lebedev (99,590) quadrature formula
 Nonlocal Correlation:  VV10 with C = 0.0100 and b = 6.00 and scale = 1.00000
 Grid used for NLC:  SG-1 standard quadrature
performing fock build at end of subrot_r(subrot) constructor so that all methods have access
<S^2> of polarized wavefunction before ct-allowed iterations 0.0000000000
Beginning iterations for the determination of the CT-Allowed wavefunction
Energy prior to optimization (guess energy) = -454.454616546359
Begin Timing: Total SCF Calculation
begin iterations for algorithm: DIIS         
the SCF tolerance is set to 1.00e-08
    1    -454.4546165464      1.14e-04     00000 
    2    -454.4560329995      1.34e-05     00000 
    3    -454.4560744787      2.09e-06     00000 
    4    -454.4560754716      1.33e-06     00000 
    5    -454.4560756237      2.51e-07     00000 
    6    -454.4560756350      1.33e-07     00000 
    7    -454.4560756368      3.17e-08     00000 
    8    -454.4560756370      1.67e-08     00000 
    9    -454.4560756370      3.78e-09     00000 Convergence criterion met
write pseudocanon occs and virts to disk
write pseudocanon orbital energies to disk
Timing for Total SCF: 2285.00s (wall), 4545.68s (cpu)
<S^2> of ct_allowed wavefunction after ct-allowed iterations 0.0000000000

================================
        Results of EDA2         
================================
Basic EDA Quantities
--------------------
Fragment Energies (Ha):
1 -245.1963599297
2 -209.2524983772
--------------------
  E_prp (kJ/mol) = 0.0000
  E_sol (kJ/mol) = -59.1776
  E_frz (kJ/mol) = 70.8019
  E_pol (kJ/mol) = -1.3050
  E_vct (kJ/mol) = -3.8309
  E_int (kJ/mol) = 6.4883
--------------------


Initial Wavefunction Decomposition
--------------------
  --------------------
  Orthogonal Fragment Subspace Decomposition:
  --------------------
     E_elec   (ELEC)   (kJ/mol) = 33.1953
     E_pauli  (PAULI)  (kJ/mol) = 53.0336
     E_disp   (DISP)   (kJ/mol) = -15.4270
     --------------------
     Terms summing to E_pauli:
     --------------------
        E_kep_pauli       (kJ/mol) = 65.9353
        E_disp_free_pauli (kJ/mol) = -12.9017
  --------------------
  Classical Frozen Decomposition:
  --------------------
     E_cls_elec  (CLS ELEC)  (kJ/mol) = 52.1953
     E_cls_pauli (CLS PAULI) (kJ/mol) = 18.6066
    [E_mod_pauli (MOD PAULI) (kJ/mol) = 34.0336 (CLS PAULI - DISP from orthogonal decomposition) ]
  --------------------
--------------------

Simplified EDA Summary (kJ/mol)
--------------------
 PREPARATION     0.0000
 SOLVATION       -59.1776
 FROZEN          86.2289      (does not include dispersion)
[PAULI           53.0336]     (if this is negligible, then frozen describes electrostatics)
 DISPERSION      -15.4270
 POLARIZATION    -1.3050
 CHARGE TRANSFER -3.8309
 TOTAL           6.4883     (PRP + SOL + FRZ + DISP + POL + CT)
--------------------
 
 --------------------------------------------------------------
 
                    Orbital Energies (a.u.)
 --------------------------------------------------------------
 
 Alpha MOs
 -- Occupied --
-19.1827 -14.4606 -14.4501 -14.4442 -14.4282 -10.4270 -10.3779 -10.3096
-10.2649  -1.1780  -1.1740  -1.0556  -1.0486  -1.0442  -0.8623  -0.8541
 -0.7686  -0.7233  -0.7158  -0.6890  -0.6589  -0.6257  -0.6115  -0.5928
 -0.5871  -0.5691  -0.5655  -0.5288  -0.5161  -0.5113  -0.4971  -0.4814
 -0.4058  -0.3860  -0.3763  -0.3757
 -- Virtual --
  0.0553   0.0705   0.0804   0.0879   0.0958   0.1009   0.1031   0.1170
  0.1241   0.1283   0.1301   0.1357   0.1388   0.1490   0.1595   0.1701
  0.1763   0.1857   0.1888   0.1966   0.1985   0.2004   0.2155   0.2194
  0.2274   0.2295   0.2445   0.2467   0.2486   0.2506   0.2569   0.2621
  0.2689   0.2751   0.2849   0.2899   0.2980   0.3049   0.3074   0.3103
  0.3166   0.3203   0.3269   0.3294   0.3312   0.3361   0.3396   0.3471
  0.3494   0.3571   0.3604   0.3664   0.3670   0.3747   0.3787   0.3825
  0.3876   0.3895   0.4005   0.4060   0.4074   0.4157   0.4192   0.4227
  0.4333   0.4390   0.4444   0.4477   0.4565   0.4608   0.4653   0.4697
  0.4740   0.4762   0.4779   0.4846   0.4915   0.4977   0.4985   0.5087
  0.5105   0.5187   0.5209   0.5226   0.5273   0.5371   0.5409   0.5467
  0.5549   0.5594   0.5642   0.5705   0.5736   0.5783   0.5860   0.5898
  0.5981   0.6045   0.6130   0.6167   0.6254   0.6319   0.6372   0.6439
  0.6520   0.6589   0.6628   0.6749   0.6787   0.6867   0.6927   0.6990
  0.7019   0.7054   0.7199   0.7214   0.7260   0.7392   0.7406   0.7533
  0.7663   0.7683   0.7725   0.7863   0.7888   0.7990   0.8018   0.8068
  0.8181   0.8198   0.8278   0.8352   0.8415   0.8531   0.8622   0.8645
  0.8730   0.8783   0.8856   0.8933   0.9005   0.9172   0.9275   0.9394
  0.9465   0.9583   0.9717   0.9748   0.9887   1.0086   1.0175   1.0260
  1.0287   1.0443   1.0547   1.0656   1.0665   1.0784   1.1041   1.1146
  1.1171   1.1242   1.1403   1.1457   1.1610   1.1735   1.1937   1.1994
  1.2096   1.2326   1.2383   1.2601   1.2661   1.2878   1.2908   1.3088
  1.3180   1.3403   1.3505   1.3745   1.3954   1.4023   1.4387   1.4665
  1.4797   1.4907   1.4986   1.5157   1.5479   1.5673   1.5910   1.6169
  1.6450   1.6503   1.6779   1.6817   1.7220   1.7397   1.7464   1.7716
  1.7903   1.8028   1.8145   1.8620   1.8695   1.8807   1.8840   1.8909
  1.9069   1.9188   1.9273   1.9380   1.9472   1.9518   1.9620   1.9768
  1.9831   1.9959   2.0234   2.0424   2.0525   2.0698   2.0791   2.0852
  2.1146   2.1198   2.1314   2.1572   2.1822   2.1914   2.2000   2.2356
  2.2496   2.2607   2.2831   2.3074   2.3198   2.3297   2.3544   2.3727
  2.4150   2.4253   2.4486   2.4561   2.4599   2.4805   2.4998   2.5035
  2.5178   2.5319   2.5610   2.5879   2.5945   2.6125   2.6165   2.6279
  2.6534   2.6643   2.6692   2.6822   2.6892   2.7170   2.7193   2.7298
  2.7578   2.7646   2.7888   2.8230   2.8481   2.8718   2.8832   2.8953
  2.9059   2.9460   2.9479   2.9708   2.9777   3.0053   3.0175   3.0447
  3.0845   3.1166   3.1221   3.1417   3.1499   3.1638   3.1778   3.1867
  3.2062   3.2219   3.2371   3.2519   3.2695   3.2809   3.2960   3.3061
  3.3156   3.3281   3.3366   3.3614   3.3646   3.3773   3.3841   3.4064
  3.4252   3.4314   3.4626   3.4693   3.4826   3.5079   3.5239   3.5391
  3.5435   3.5636   3.5845   3.6416   3.6562   3.6654   3.6775   3.6928
  3.7235   3.7307   3.7587   3.7844   3.8361   3.8608   3.9107   3.9361
  3.9534   3.9752   3.9959   4.0244   4.0505   4.0858   4.1051   4.1420
  4.2088   4.2212   4.2829   4.3256   4.3418   4.3618   4.4236   4.4652
  4.5022   4.5095   4.5351   4.5993   4.6253   4.6474   4.6771   4.6818
  4.6834   4.7986   4.8286   4.8981   4.9101   4.9187   4.9302   4.9624
  4.9720   5.0045   5.0448   5.0607   5.0990   5.1203   5.1562   5.1866
  5.1882   5.1956   5.2143   5.2613   5.2791   5.2956   5.3573   5.3685
  5.3849   5.4147   5.4183   5.4422   5.4708   5.4768   5.4972   5.5155
  5.5556   5.5646   5.5706   5.6351   5.6710   5.6836   5.7470   5.7681
  5.8132   5.9372   5.9433   6.1459   6.1865   6.2109   6.2429   6.3481
  6.5025   6.5259   6.6447   6.7426   6.8359   6.9798   7.2219   7.3255
 22.6138  22.6295  23.6188  23.6385  32.3965  32.4883  32.5680  32.8609
 44.3887
 --------------------------------------------------------------
 
          Ground-State Mulliken Net Atomic Charges

     Atom                 Charge (a.u.)
  ----------------------------------------
      1 C                    -0.737517
      2 C                     0.417724
      3 N                    -0.305195
      4 N                    -0.110395
      5 N                    -0.259985
      6 H                     0.190965
      7 H                     0.382525
      8 H                     0.254209
      9 H                     0.113471
     10 H                     0.270556
     11 H                     0.260377
     12 H                     0.303871
     13 H                     0.244719
     14 C                    -0.405976
     15 C                     0.421672
     16 O                    -0.713592
     17 N                    -0.196105
     18 H                     0.241952
     19 H                     0.174448
     20 H                     0.023557
     21 H                     0.216377
     22 H                     0.212341
  ----------------------------------------
  Sum of atomic charges =     1.000000

 -----------------------------------------------------------------
                    Cartesian Multipole Moments
 -----------------------------------------------------------------
    Charge (ESU x 10^10)
                 4.8032
    Dipole Moment (Debye)
         X     -14.0974      Y      -6.0007      Z       3.0351
       Tot      15.6192
    Quadrupole Moments (Debye-Ang)
        XX     -57.4671     XY      -6.1516     YY     -40.3885
        XZ      12.0977     YZ       3.9673     ZZ     -43.9377
    Octopole Moments (Debye-Ang^2)
       XXX    -206.4103    XXY     -59.5390    XYY     -23.9408
       YYY     -31.1294    XXZ       0.6887    XYZ     -14.5276
       YYZ      -3.4645    XZZ      -2.1956    YZZ     -10.0601
       ZZZ      11.0696
    Hexadecapole Moments (Debye-Ang^3)
      XXXX   -2234.5552   XXXY    -460.8429   XXYY    -421.3181
      XYYY    -295.4485   YYYY    -431.1697   XXXZ      23.8075
      XXYZ      30.7318   XYYZ     -18.9627   YYYZ      11.9051
      XXZZ    -330.5983   XYZZ    -103.1298   YYZZ    -112.7023
      XZZZ    -106.5552   YZZZ     -17.3906   ZZZZ    -218.2366
 -----------------------------------------------------------------
Archival summary:
1\1\nid00531\SP\ProcedureUnspecified\BasisUnspecified\14413(1+,1)\meili\SunSep2621:57:392021SunSep2621:57:392021\0\\#,ProcedureUnspecified,BasisUnspecified,\\1,1\C\N,1,1.3198\H,2,1.00515,1,122.291\H,2,1.00821,1,118.687,3,-173.916,0\N,1,1.3206,2,118.481,3,-7.71462,0\H,5,1.00576,1,118.824,2,36.323,0\H,5,1.01156,1,118.187,2,-173.518,0\N,1,1.33284,2,121.943,3,172.629,0\H,8,1.01035,1,116.457,2,178.655,0\C,8,1.48488,1,127.419,2,-1.79887,0\H,10,1.08957,8,111.461,1,6.30514,0\H,10,1.09266,8,108.579,1,124.678,0\H,10,1.1,8,111.199,1,-115.82,0\H,6,1.87997,5,107.408,1,-98.8772,0\N,14,0.996785,6,135.809,5,-75.5594,0\H,15,1.01219,14,121.361,6,-62.2067,0\C,15,1.30992,14,121.111,6,118.269,0\O,17,1.2312,15,121.24,14,177.379,0\C,17,1.53015,15,116.862,14,0.628881,0\H,19,1.08636,17,111.216,15,-18.3407,0\H,19,1.09205,17,107.8,15,-136.002,0\H,19,1.1,17,110.374,15,104.625,0\\\@

 Total job time:  28972.06s(wall), 19127.65s(cpu) 
 Sun Sep 26 21:57:41 2021

        *************************************************************
        *                                                           *
        *  Thank you very much for using Q-Chem.  Have a nice day.  *
        *                                                           *
        *************************************************************


