
Running Job 1 of 1 SSI-108TRP-151ASN-1_PCM_TZVPD.in
qchem SSI-108TRP-151ASN-1_PCM_TZVPD.in_46639.0 /tmp/qchem46639/ 0
/global/common/cori/software/qchem/5.2/exe/qcprog.exe_s SSI-108TRP-151ASN-1_PCM_TZVPD.in_46639.0 /tmp/qchem46639/
                  Welcome to Q-Chem
     A Quantum Leap Into The Future Of Chemistry


 Q-Chem 5.2, Q-Chem, Inc., Pleasanton, CA (2019)

 License issued to: National Energy Research Scientific Computing Center

 Yihan Shao,  Zhengting Gan,  E. Epifanovsky,  A. T. B. Gilbert,  M. Wormit,  
 J. Kussmann,  A. W. Lange,  A. Behn,  Jia Deng,  Xintian Feng,  D. Ghosh,  
 M. Goldey,  P. R. Horn,  L. D. Jacobson,  I. Kaliman,  T. Kus,  A. Landau,  
 Jie Liu,  E. I. Proynov,  R. M. Richard,  R. P. Steele,  E. J. Sundstrom,  
 H. L. Woodcock III,  P. M. Zimmerman,  D. Zuev,  B. Albrecht,  E. Alguire,  
 S. A. Baeppler,  D. Barton,  Z. Benda,  Y. A. Bernard,  E. J. Berquist,  
 K. B. Bravaya,  H. Burton,  D. Casanova,  Chun-Min Chang,  Yunqing Chen,  
 A. Chien,  K. D. Closser,  M. P. Coons,  S. Coriani,  S. Dasgupta,  
 A. L. Dempwolff,  M. Diedenhofen,  Hainam Do,  R. G. Edgar,  Po-Tung Fang,  
 S. Faraji,  S. Fatehi,  Qingguo Feng,  K. D. Fenk,  J. Fosso-Tande,  
 J. Gayvert,  Qinghui Ge,  A. Ghysels,  G. Gidofalvi,  J. Gomes,  
 J. Gonthier,  A. Gunina,  D. Hait,  M. W. D. Hanson-Heine,  
 P. H. P. Harbach,  A. W. Hauser,  M. F. Herbst,  J. E. Herr,  
 E. G. Hohenstein,  Z. C. Holden,  Kerwin Hui,  B. C. Huynh,  T.-C. Jagau,  
 Hyunjun Ji,  B. Kaduk,  K. Khistyaev,  Jaehoon Kim,  P. Klunzinger,  K. Koh,  
 D. Kosenkov,  L. Koulias,  T. Kowalczyk,  C. M. Krauter,  A. Kunitsa,  
 Ka Un Lao,  A. Laurent,  K. V. Lawler,  Joonho Lee,  D. Lefrancois,  
 S. Lehtola,  D. S. Levine,  Yi-Pei Li,  You-Sheng Lin,  Fenglai Liu,  
 E. Livshits,  A. Luenser,  P. Manohar,  E. Mansoor,  S. F. Manzer,  
 Shan-Ping Mao,  Yuezhi Mao,  N. Mardirossian,  A. V. Marenich,  
 T. Markovich,  L. A. Martinez-Martinez,  S. A. Maurer,  N. J. Mayhall,  
 S. C. McKenzie,  J.-M. Mewes,  P. Morgante,  A. F. Morrison,  
 J. W. Mullinax,  K. Nanda,  T. S. Nguyen-Beck,  R. Olivares-Amaya,  
 J. A. Parkhill,  Zheng Pei,  T. M. Perrine,  F. Plasser,  P. Pokhilko,  
 S. Prager,  A. Prociuk,  E. Ramos,  D. R. Rehn,  F. Rob,  M. Scheurer,  
 M. Schneider,  N. Sergueev,  S. M. Sharada,  S. Sharma,  D. W. Small,  
 T. Stauch,  T. Stein,  Yu-Chuan Su,  A. J. W. Thom,  A. Tkatchenko,  
 T. Tsuchimochi,  N. M. Tubman,  L. Vogt,  M. L. Vidal,  O. Vydrov,  
 M. A. Watson,  J. Wenzel,  M. de Wergifosse,  T. A. Wesolowski,  A. White,  
 J. Witte,  A. Yamada,  Jun Yang,  K. Yao,  S. Yeganeh,  S. R. Yost,  
 Zhi-Qiang You,  A. Zech,  Igor Ying Zhang,  Xing Zhang,  Yan Zhao,  
 Ying Zhu,  B. R. Brooks,  G. K. L. Chan,  C. J. Cramer,  M. S. Gordon,  
 W. J. Hehre,  A. Klamt,  M. W. Schmidt,  C. D. Sherrill,  D. G. Truhlar,  
 A. Aspuru-Guzik,  R. Baer,  A. T. Bell,  N. A. Besley,  Jeng-Da Chai,  
 A. E. DePrince, III,  R. A. DiStasio Jr.,  A. Dreuw,  B. D. Dunietz,  
 T. R. Furlani,  Chao-Ping Hsu,  Yousung Jung,  Jing Kong,  D. S. Lambrecht,  
 WanZhen Liang,  C. Ochsenfeld,  V. A. Rassolov,  L. V. Slipchenko,  
 J. E. Subotnik,  T. Van Voorhis,  J. M. Herbert,  A. I. Krylov,  
 P. M. W. Gill,  M. Head-Gordon

 Contributors to earlier versions of Q-Chem not listed above: 
 R. D. Adamson,  B. Austin,  J. Baker,  G. J. O. Beran,  K. Brandhorst,  
 S. T. Brown,  E. F. C. Byrd,  A. K. Chakraborty,  C.-L. Cheng,  
 Siu Hung Chien,  D. M. Chipman,  D. L. Crittenden,  H. Dachsel,  
 R. J. Doerksen,  A. D. Dutoi,  L. Fusti-Molnar,  W. A. Goddard III,  
 A. Golubeva-Zadorozhnaya,  S. R. Gwaltney,  G. Hawkins,  A. Heyden,  
 S. Hirata,  G. Kedziora,  F. J. Keil,  C. Kelley,  Jihan Kim,  R. A. King,  
 R. Z. Khaliullin,  P. P. Korambath,  W. Kurlancheek,  A. M. Lee,  M. S. Lee,  
 S. V. Levchenko,  Ching Yeh Lin,  D. Liotard,  R. C. Lochan,  I. Lotan,  
 P. E. Maslen,  N. Nair,  D. P. O'Neill,  D. Neuhauser,  E. Neuscamman,  
 C. M. Oana,  R. Olson,  B. Peters,  R. Peverati,  P. A. Pieniazek,  
 Y. M. Rhee,  J. Ritchie,  M. A. Rohrdanz,  E. Rosta,  N. J. Russ,  
 H. F. Schaefer III,  N. E. Schultz,  N. Shenvi,  A. C. Simmonett,  A. Sodt,  
 D. Stuck,  K. S. Thanthiriwatte,  V. Vanovschi,  Tao Wang,  A. Warshel,  
 C. F. Williams,  Q. Wu,  X. Xu,  W. Zhang

 Please cite Q-Chem as follows:
 Y. Shao et al., Mol. Phys. 113, 184-215 (2015)
 DOI: 10.1080/00268976.2014.952696

 Q-Chem 5.2.0 for Intel X86 EM64T Linux

 Parts of Q-Chem use Armadillo 8.300.2 (Tropical Shenanigans).
 http://arma.sourceforge.net/

 Q-Chem begins on Sun Sep 26 13:27:50 2021  

Host: cori01
0

     Scratch files written to /tmp/qchem46639//
 May1019 |scratch|qcdevops|jenkins|workspace|build_RNUM -1
Processing $rem in /global/common/cori/software/qchem/5.2/config/preferences:
	 MEM_TOTAL  96000 
NAlpha2: 102
NElect   102
Mult     1
Symmetry turned off for PCM/SM12/SMD calculation

 Q-Chem warning in module libgen/rem_setup.C, line 2803:

 Neither GIA nor STOLL is specified by user. Use STOLL as the default


Checking the input file for inconsistencies... 	...done.

--------------------------------------------------------------
User input:
--------------------------------------------------------------
$comment
SSI-108TRP-151ASN-1.pdb
$end

$molecule
0 1
--
0 1
C   -2.201631181019   -4.107579964030    1.025269141503
C   -1.016631181019   -0.630579964030    0.386269141503
C   -0.785631181019   -2.020579964030    0.404269141503
C   -1.978631181019   -2.642579964030    0.898269141503
C   -2.865631181019   -1.638579964030    1.145269141503
C   -0.045631181019    0.270420035970   -0.019730858497
C    1.174368818981   -0.236579964030   -0.430730858497
C    1.423368818981   -1.609579964030   -0.426730858497
C    0.468368818981   -2.501579964030    0.001269141503
N   -2.291631181019   -0.433579964030    0.843269141503
H   -0.240631181019    1.331420035970   -0.008730858497
H    1.956368818981    0.437420035970   -0.751730858497
H   -2.715631181019    0.483420035970    1.006269141503
H    2.397368818981   -1.975579964030   -0.715730858497
H   -3.875631181019   -1.777579964030    1.513269141503
H    0.682368818981   -3.556579964030    0.057269141503
H   -2.798631181019   -4.302579964030    1.917269141503
H   -1.233631181019   -4.581579964030    1.187269141503
H   -2.666031181019   -4.580591964030    0.147439141503
--
0 1
C    1.053368818981    3.826420035970   -2.022730858497
C    1.939368818981    3.447420035970   -0.862730858497
O    2.980368818981    2.762420035970   -1.014730858497
N    1.550368818981    3.911420035970    0.306269141503
H    0.062368818981    3.416420035970   -1.828730858497
H    1.435368818981    3.359420035970   -2.929730858497
H    2.103368818981    3.668420035970    1.115269141503
H    0.670368818981    4.389420035970    0.422269141503
H    0.976528818981    4.914390035970   -2.165640858497
$end

$rem
JOBTYPE			EDA
EDA2			1
method			wB97X-V
BASIS			def2-TZVPD
XC_GRID			000099000590
NL_GRID			1
UNRESTRICTED		FALSE
MAX_SCF_CYCLES		200
SYMMETRY		FALSE
SYM_IGNORE		TRUE
MEM_STATIC		2000
BASIS_LIN_DEP_THRESH 	6
THRESH 			14
SCF_CONVERGENCE 	8
SCF_PRINT_FRGM 		TRUE
SOLVENT_METHOD          PCM
$end

$PCM
THEORY                  CPCM
METHOD                  SWIG
SOLVER                  INVERSION
RADII                   UFF
HPOINTS                 302
HEAVYPOINTS             302
PRINTLEVEL              0
$END

$SOLVENT
DIELECTRIC              78.390000 ! water
$END
--------------------------------------------------------------
 ----------------------------------------------------------------
             Standard Nuclear Orientation (Angstroms)
    I     Atom           X                Y                Z
 ----------------------------------------------------------------
    1      C      -2.2016311810    -4.1075799640     1.0252691415
    2      C      -1.0166311810    -0.6305799640     0.3862691415
    3      C      -0.7856311810    -2.0205799640     0.4042691415
    4      C      -1.9786311810    -2.6425799640     0.8982691415
    5      C      -2.8656311810    -1.6385799640     1.1452691415
    6      C      -0.0456311810     0.2704200360    -0.0197308585
    7      C       1.1743688190    -0.2365799640    -0.4307308585
    8      C       1.4233688190    -1.6095799640    -0.4267308585
    9      C       0.4683688190    -2.5015799640     0.0012691415
   10      N      -2.2916311810    -0.4335799640     0.8432691415
   11      H      -0.2406311810     1.3314200360    -0.0087308585
   12      H       1.9563688190     0.4374200360    -0.7517308585
   13      H      -2.7156311810     0.4834200360     1.0062691415
   14      H       2.3973688190    -1.9755799640    -0.7157308585
   15      H      -3.8756311810    -1.7775799640     1.5132691415
   16      H       0.6823688190    -3.5565799640     0.0572691415
   17      H      -2.7986311810    -4.3025799640     1.9172691415
   18      H      -1.2336311810    -4.5815799640     1.1872691415
   19      H      -2.6660311810    -4.5805919640     0.1474391415
   20      C       1.0533688190     3.8264200360    -2.0227308585
   21      C       1.9393688190     3.4474200360    -0.8627308585
   22      O       2.9803688190     2.7624200360    -1.0147308585
   23      N       1.5503688190     3.9114200360     0.3062691415
   24      H       0.0623688190     3.4164200360    -1.8287308585
   25      H       1.4353688190     3.3594200360    -2.9297308585
   26      H       2.1033688190     3.6684200360     1.1152691415
   27      H       0.6703688190     4.3894200360     0.4222691415
   28      H       0.9765288190     4.9143900360    -2.1656408585
 ----------------------------------------------------------------
 Nuclear Repulsion Energy =         813.12420714 hartrees
 There are       51 alpha and       51 beta electrons
 Requested basis set is def2-TZVPD
 There are 253 shells and 647 basis functions

 Total QAlloc Memory Limit  96000 MB
 Mega-Array Size      1956 MB
 MEM_STATIC part      2000 MB
 Discretize the solute cavity surface with Lebedev spheres
	Using 302 Lebedev grid points for each H atom
	Using 302 Lebedev grid points for other atoms
	Atomic van der Waals radii will be scaled by 1.20
 Remove points where switching function is < 1.0e-08
 Keep 3167 surface tesserae and discard 5289 interior tesserae
 Molecular Surface Area = 312.877 Angst**2
 A cutoff of  1.0D-14 yielded  26854 shell pairs
 There are    176400 function pairs (    223636 Cartesian)
 Smallest overlap matrix eigenvalue = 3.42E-07
 Linear dependence detected in AO basis
 Tighter screening thresholds may be required for diffuse basis sets
 Use S2THRESH > 14 and THRESH = 14 in case of SCF convergence issues
 Number of orthogonalized atomic orbitals = 643
 Maximum deviation from orthogonality = 1.162E-10

 Scale SEOQF with 1.000000e-01/1.000000e-01/1.000000e-01

 Standard Electronic Orientation quadrupole field applied
 Nucleus-field energy     =     0.0000000545 hartrees

 -----------------------------------------------------------------------
  General SCF calculation program by
  Eric Jon Sundstrom, Paul Horn, Yuezhi Mao, Dmitri Zuev, Alec White,
  David Stuck, Shaama M.S., Shane Yost, Joonho Lee, David Small,
  Daniel Levine, Susi Lehtola, Hugh Burton, Evgeny Epifanovsky
 -----------------------------------------------------------------------
================================================================
                 ALMO-EDA with the EDA2 driver                  
================================================================
 The second-generation ALMO-EDA (for DFT):                      
 P. R. Horn, Y. Mao and M. Head-Gordon, PCCP, 18, 23067 (2016)  
 Decomposition of the frozen energy:                            
 P. R. Horn, Y. Mao and M. Head-Gordon, JCP, 144, 114107 (2016) 
 FERF model for polarization:                                   
 P. R. Horn and M. Head-Gordon, JCP, 143, 114111 (2015)         
Using eda2 option set 1
Option set summary: Frozen orbital wavefunction, initial wavefunction decomposition, and nDQ polarization.
--------------------------------
Printing EDA Options
--------------------------------
eda_child_super_basis      0
fragmo_guess_mode          0
child_mp                   1
child_mp_orders            232
cls_elec                   1
cls_disp                   0
scfmi_mode                 1
scfmi_occs                 0
scfmi_virts                0
frz_relax                  0
frz_relax_method           0
dc_pen_start               0
dc_pen_conv                0
dc_pen_increment           0
dc_pen_steps               0
dc_pen_thresh_factor       0
dc_pen_pre_newton_thresh   0
frz_ortho_decomp           1
frz_ortho_decomp_conv      6
frgm_method                2
scfmi_freeze_ss            0
separate_rehyb             0
plot_diff_den              0
eda_nocv                   0
eda_vct_relax              1
disp_free_x                0
disp_free_c                0
eda_bsse                   0
eda_pct_a                  0
eda_covp                   0
--------------------------------
Attempting to make child job directory: /tmp/qchem46639//Frg1/
Attempting to make child job directory: /tmp/qchem46639//Frg2/
Creating input file /tmp/qchem46639/Frg1.input
using default PutDataFrgm: nothing
calling putenv with: QCSCRATCH=/tmp/qchem46639/ 
calling putenv with: QCLOCALSCR=/tmp/qchem46639/ 
Spawning Job For Fragment 0
                  Welcome to Q-Chem
     A Quantum Leap Into The Future Of Chemistry


 Q-Chem 5.2, Q-Chem, Inc., Pleasanton, CA (2019)

 License issued to: National Energy Research Scientific Computing Center

 Yihan Shao,  Zhengting Gan,  E. Epifanovsky,  A. T. B. Gilbert,  M. Wormit,  
 J. Kussmann,  A. W. Lange,  A. Behn,  Jia Deng,  Xintian Feng,  D. Ghosh,  
 M. Goldey,  P. R. Horn,  L. D. Jacobson,  I. Kaliman,  T. Kus,  A. Landau,  
 Jie Liu,  E. I. Proynov,  R. M. Richard,  R. P. Steele,  E. J. Sundstrom,  
 H. L. Woodcock III,  P. M. Zimmerman,  D. Zuev,  B. Albrecht,  E. Alguire,  
 S. A. Baeppler,  D. Barton,  Z. Benda,  Y. A. Bernard,  E. J. Berquist,  
 K. B. Bravaya,  H. Burton,  D. Casanova,  Chun-Min Chang,  Yunqing Chen,  
 A. Chien,  K. D. Closser,  M. P. Coons,  S. Coriani,  S. Dasgupta,  
 A. L. Dempwolff,  M. Diedenhofen,  Hainam Do,  R. G. Edgar,  Po-Tung Fang,  
 S. Faraji,  S. Fatehi,  Qingguo Feng,  K. D. Fenk,  J. Fosso-Tande,  
 J. Gayvert,  Qinghui Ge,  A. Ghysels,  G. Gidofalvi,  J. Gomes,  
 J. Gonthier,  A. Gunina,  D. Hait,  M. W. D. Hanson-Heine,  
 P. H. P. Harbach,  A. W. Hauser,  M. F. Herbst,  J. E. Herr,  
 E. G. Hohenstein,  Z. C. Holden,  Kerwin Hui,  B. C. Huynh,  T.-C. Jagau,  
 Hyunjun Ji,  B. Kaduk,  K. Khistyaev,  Jaehoon Kim,  P. Klunzinger,  K. Koh,  
 D. Kosenkov,  L. Koulias,  T. Kowalczyk,  C. M. Krauter,  A. Kunitsa,  
 Ka Un Lao,  A. Laurent,  K. V. Lawler,  Joonho Lee,  D. Lefrancois,  
 S. Lehtola,  D. S. Levine,  Yi-Pei Li,  You-Sheng Lin,  Fenglai Liu,  
 E. Livshits,  A. Luenser,  P. Manohar,  E. Mansoor,  S. F. Manzer,  
 Shan-Ping Mao,  Yuezhi Mao,  N. Mardirossian,  A. V. Marenich,  
 T. Markovich,  L. A. Martinez-Martinez,  S. A. Maurer,  N. J. Mayhall,  
 S. C. McKenzie,  J.-M. Mewes,  P. Morgante,  A. F. Morrison,  
 J. W. Mullinax,  K. Nanda,  T. S. Nguyen-Beck,  R. Olivares-Amaya,  
 J. A. Parkhill,  Zheng Pei,  T. M. Perrine,  F. Plasser,  P. Pokhilko,  
 S. Prager,  A. Prociuk,  E. Ramos,  D. R. Rehn,  F. Rob,  M. Scheurer,  
 M. Schneider,  N. Sergueev,  S. M. Sharada,  S. Sharma,  D. W. Small,  
 T. Stauch,  T. Stein,  Yu-Chuan Su,  A. J. W. Thom,  A. Tkatchenko,  
 T. Tsuchimochi,  N. M. Tubman,  L. Vogt,  M. L. Vidal,  O. Vydrov,  
 M. A. Watson,  J. Wenzel,  M. de Wergifosse,  T. A. Wesolowski,  A. White,  
 J. Witte,  A. Yamada,  Jun Yang,  K. Yao,  S. Yeganeh,  S. R. Yost,  
 Zhi-Qiang You,  A. Zech,  Igor Ying Zhang,  Xing Zhang,  Yan Zhao,  
 Ying Zhu,  B. R. Brooks,  G. K. L. Chan,  C. J. Cramer,  M. S. Gordon,  
 W. J. Hehre,  A. Klamt,  M. W. Schmidt,  C. D. Sherrill,  D. G. Truhlar,  
 A. Aspuru-Guzik,  R. Baer,  A. T. Bell,  N. A. Besley,  Jeng-Da Chai,  
 A. E. DePrince, III,  R. A. DiStasio Jr.,  A. Dreuw,  B. D. Dunietz,  
 T. R. Furlani,  Chao-Ping Hsu,  Yousung Jung,  Jing Kong,  D. S. Lambrecht,  
 WanZhen Liang,  C. Ochsenfeld,  V. A. Rassolov,  L. V. Slipchenko,  
 J. E. Subotnik,  T. Van Voorhis,  J. M. Herbert,  A. I. Krylov,  
 P. M. W. Gill,  M. Head-Gordon

 Contributors to earlier versions of Q-Chem not listed above: 
 R. D. Adamson,  B. Austin,  J. Baker,  G. J. O. Beran,  K. Brandhorst,  
 S. T. Brown,  E. F. C. Byrd,  A. K. Chakraborty,  C.-L. Cheng,  
 Siu Hung Chien,  D. M. Chipman,  D. L. Crittenden,  H. Dachsel,  
 R. J. Doerksen,  A. D. Dutoi,  L. Fusti-Molnar,  W. A. Goddard III,  
 A. Golubeva-Zadorozhnaya,  S. R. Gwaltney,  G. Hawkins,  A. Heyden,  
 S. Hirata,  G. Kedziora,  F. J. Keil,  C. Kelley,  Jihan Kim,  R. A. King,  
 R. Z. Khaliullin,  P. P. Korambath,  W. Kurlancheek,  A. M. Lee,  M. S. Lee,  
 S. V. Levchenko,  Ching Yeh Lin,  D. Liotard,  R. C. Lochan,  I. Lotan,  
 P. E. Maslen,  N. Nair,  D. P. O'Neill,  D. Neuhauser,  E. Neuscamman,  
 C. M. Oana,  R. Olson,  B. Peters,  R. Peverati,  P. A. Pieniazek,  
 Y. M. Rhee,  J. Ritchie,  M. A. Rohrdanz,  E. Rosta,  N. J. Russ,  
 H. F. Schaefer III,  N. E. Schultz,  N. Shenvi,  A. C. Simmonett,  A. Sodt,  
 D. Stuck,  K. S. Thanthiriwatte,  V. Vanovschi,  Tao Wang,  A. Warshel,  
 C. F. Williams,  Q. Wu,  X. Xu,  W. Zhang

 Please cite Q-Chem as follows:
 Y. Shao et al., Mol. Phys. 113, 184-215 (2015)
 DOI: 10.1080/00268976.2014.952696

 Q-Chem 5.2.0 for Intel X86 EM64T Linux

 Parts of Q-Chem use Armadillo 8.300.2 (Tropical Shenanigans).
 http://arma.sourceforge.net/

 Q-Chem begins on Sun Sep 26 13:27:58 2021  

Host: cori01
0

     Scratch files written to /tmp/qchem46639//Frg1//
 May1019 |scratch|qcdevops|jenkins|workspace|build_RNUM -1
Processing $rem in /global/common/cori/software/qchem/5.2/config/preferences:
	 MEM_TOTAL  96000 
NAlpha2: 70
NElect   70
Mult     1
Symmetry turned off for PCM/SM12/SMD calculation

Checking the input file for inconsistencies... 	...done.

--------------------------------------------------------------
User input:
--------------------------------------------------------------
$molecule
0 1
 6	-2.2016311810	-4.1075799640	1.0252691415
 6	-1.0166311810	-0.6305799640	0.3862691415
 6	-0.7856311810	-2.0205799640	0.4042691415
 6	-1.9786311810	-2.6425799640	0.8982691415
 6	-2.8656311810	-1.6385799640	1.1452691415
 6	-0.0456311810	0.2704200360	-0.0197308585
 6	1.1743688190	-0.2365799640	-0.4307308585
 6	1.4233688190	-1.6095799640	-0.4267308585
 6	0.4683688190	-2.5015799640	0.0012691415
 7	-2.2916311810	-0.4335799640	0.8432691415
 1	-0.2406311810	1.3314200360	-0.0087308585
 1	1.9563688190	0.4374200360	-0.7517308585
 1	-2.7156311810	0.4834200360	1.0062691415
 1	2.3973688190	-1.9755799640	-0.7157308585
 1	-3.8756311810	-1.7775799640	1.5132691415
 1	0.6823688190	-3.5565799640	0.0572691415
 1	-2.7986311810	-4.3025799640	1.9172691415
 1	-1.2336311810	-4.5815799640	1.1872691415
 1	-2.6660311810	-4.5805919640	0.1474391415
$end
$rem
EDA2		1
METHOD		WB97X-V
BASIS		DEF2-TZVPD
XC_GRID		000099000590
NL_GRID		1
UNRESTRICTED		FALSE
MAX_SCF_CYCLES		200
SYMMETRY		FALSE
SYM_IGNORE		TRUE
BASIS_LIN_DEP_THRESH		6
THRESH		14
SCF_CONVERGENCE		8
SCF_PRINT_FRGM		TRUE
SOLVENT_METHOD		PCM
!required keywords
JOBTYPE		SP
SYM_IGNORE		TRUE
SUBSYSTEM		TRUE
GEN_SCFMAN		TRUE
CHILD_INSTRUCTION		2
SYM_IGNORE		TRUE
SCFMI		0
RI_K 0		
PARI_K 0		
MIN_PARI_K 0		
IARI_K 0		
OCC_RI_K 0		
PURECART		1111
MEM_STATIC		2000
MEM_TOTAL		96000
GUI		0
CHILD_MP		1
CHILD_MP_ORDERS		232
FRZ_RELAX		0
FRZ_RELAX_METHOD		0
EDA_CLS_ELEC		1
EDA_CLS_DISP		0
FRZ_ORTHO_DECOMP		1
EDA2		FALSE
FRGM_METHOD		FALSE
CIS_N_ROOTS  0
LOCAL_CIS    0
CIS_RLX_DNS  1
$end
$pcm
THEORY                  CPCM
METHOD                  SWIG
SOLVER                  INVERSION
RADII                   UFF
HPOINTS                 302
HEAVYPOINTS             302
PRINTLEVEL              0
$end
$solvent
DIELECTRIC              78.390000 ! water
$end
--------------------------------------------------------------
 ----------------------------------------------------------------
             Standard Nuclear Orientation (Angstroms)
    I     Atom           X                Y                Z
 ----------------------------------------------------------------
    1      C      -2.2016311810    -4.1075799640     1.0252691415
    2      C      -1.0166311810    -0.6305799640     0.3862691415
    3      C      -0.7856311810    -2.0205799640     0.4042691415
    4      C      -1.9786311810    -2.6425799640     0.8982691415
    5      C      -2.8656311810    -1.6385799640     1.1452691415
    6      C      -0.0456311810     0.2704200360    -0.0197308585
    7      C       1.1743688190    -0.2365799640    -0.4307308585
    8      C       1.4233688190    -1.6095799640    -0.4267308585
    9      C       0.4683688190    -2.5015799640     0.0012691415
   10      N      -2.2916311810    -0.4335799640     0.8432691415
   11      H      -0.2406311810     1.3314200360    -0.0087308585
   12      H       1.9563688190     0.4374200360    -0.7517308585
   13      H      -2.7156311810     0.4834200360     1.0062691415
   14      H       2.3973688190    -1.9755799640    -0.7157308585
   15      H      -3.8756311810    -1.7775799640     1.5132691415
   16      H       0.6823688190    -3.5565799640     0.0572691415
   17      H      -2.7986311810    -4.3025799640     1.9172691415
   18      H      -1.2336311810    -4.5815799640     1.1872691415
   19      H      -2.6660311810    -4.5805919640     0.1474391415
 ----------------------------------------------------------------
 Nuclear Repulsion Energy =         486.64437574 hartrees
 There are       35 alpha and       35 beta electrons
 Requested basis set is def2-TZVPD
 There are 175 shells and 451 basis functions

 Total QAlloc Memory Limit  96000 MB
 Mega-Array Size      1956 MB
 MEM_STATIC part      2000 MB
 Discretize the solute cavity surface with Lebedev spheres
	Using 302 Lebedev grid points for each H atom
	Using 302 Lebedev grid points for other atoms
	Atomic van der Waals radii will be scaled by 1.20
 Remove points where switching function is < 1.0e-08
 Keep 2188 surface tesserae and discard 3550 interior tesserae
 Molecular Surface Area = 214.394 Angst**2
 A cutoff of  1.0D-14 yielded  14480 shell pairs
 There are     98310 function pairs (    126491 Cartesian)
 Smallest overlap matrix eigenvalue = 4.88E-07
 Linear dependence detected in AO basis
 Tighter screening thresholds may be required for diffuse basis sets
 Use S2THRESH > 14 and THRESH = 14 in case of SCF convergence issues
 Number of orthogonalized atomic orbitals = 448
 Maximum deviation from orthogonality = 2.088E-10

 Scale SEOQF with 1.000000e-01/1.000000e-01/1.000000e-01

 Standard Electronic Orientation quadrupole field applied
 Nucleus-field energy     =     0.0000000269 hartrees
 Guess from superposition of atomic densities
 Warning:  Energy on first SCF cycle will be non-variational
 SAD guess density has 69.692991 electrons

 -----------------------------------------------------------------------
  General SCF calculation program by
  Eric Jon Sundstrom, Paul Horn, Yuezhi Mao, Dmitri Zuev, Alec White,
  David Stuck, Shaama M.S., Shane Yost, Joonho Lee, David Small,
  Daniel Levine, Susi Lehtola, Hugh Burton, Evgeny Epifanovsky
 -----------------------------------------------------------------------
 Exchange:     0.1670 Hartree-Fock + 1.0000 wB97X-V + LR-HF
 Correlation:  1.0000 wB97X-V
 Using Euler-Maclaurin-Lebedev (99,590) quadrature formula
 Nonlocal Correlation:  VV10 with C = 0.0100 and b = 6.00 and scale = 1.00000
 Grid used for NLC:  SG-1 standard quadrature
Energy prior to optimization (guess energy) = -402.924954425283
Begin Timing: Total SCF Calculation
begin iterations for algorithm: DIIS         
the SCF tolerance is set to 1.00e-08
    1    -402.9249544253      3.30e-03     00000 
    2    -402.9598568528      3.10e-03     00000 
    3    -403.1643584223      3.72e-04     00000 
    4    -403.1675588994      1.55e-04     00000 
    5    -403.1682054305      2.69e-05     00000 
    6    -403.1682298607      1.53e-05     00000 
    7    -403.1682373805      3.01e-06     00000 
    8    -403.1682383476      1.74e-06     00000 
    9    -403.1682385620      7.02e-07     00000 
   10    -403.1682386435      2.68e-07     00000 
   11    -403.1682386540      9.35e-08     00000 
   12    -403.1682386548      4.07e-08     00000 
   13    -403.1682386549      1.16e-08     00000 
   14    -403.1682386549      5.29e-09     00000 Convergence criterion met
Timing for Total SCF: 4515.00s (wall), 8953.76s (cpu)

************** Final PCM Free Energy Summary **************
 G_electrostatic  =      -0.00631529 hartree =      -3.96290267 kcal/mol
 G_cavitation     =       0.00000000 hartree =       0.00000000 kcal/mol
 G_dispersion     =       0.00000000 hartree =       0.00000000 kcal/mol
 G_repulsion      =       0.00000000 hartree =       0.00000000 kcal/mol
 --------------------------------------------------
 Non-electrostatic Free Energy =       0.00000000 hartree =       0.00000000 kcal/mol
 Total                         =      -0.00631529 hartree =      -3.96290267 kcal/mol
 --------------------------------------------------
 SCF Energy (H0 + V/2)                       =    -403.16823865 
 Solute Internal Energy (H0)                 =    -403.16192337 
 Total Free Energy (H0 + V/2 + non-elec)     =    -403.16823865 hartree
                                             = -252991.88816235 kcal/mol
***********************************************************

E_pcm = -0.0063152874
Multipole orders to be included
        2
        3
computing dipole RHS
computing quadrupole RHS
total number of RHS in solve_reponses: 8
RHS batch sizes
        8
Beginning Block Conjugate Gradient Iterations. Batch Number: 0
computing hessian-vector products by finite difference
              1      6.09e-01     00000 Conjugate Gradient Iteration
computing hessian-vector products by finite difference
              2      2.06e-01     00000 Conjugate Gradient Iteration
computing hessian-vector products by finite difference
              3      6.22e-02     00000 Conjugate Gradient Iteration
computing hessian-vector products by finite difference
              4      2.19e-02     00000 Conjugate Gradient Iteration
computing hessian-vector products by finite difference
              5      7.05e-03     00000 Conjugate Gradient Iteration
computing hessian-vector products by finite difference
              6      2.06e-03     00000 Conjugate Gradient Iteration
computing hessian-vector products by finite difference
              7      4.97e-04     00000 Conjugate Gradient Iteration
computing hessian-vector products by finite difference
              8      1.03e-04     00000 Conjugate Gradient Iteration
computing hessian-vector products by finite difference
              9      1.79e-05     00000 Conjugate Gradient Iteration
computing hessian-vector products by finite difference
             10      3.29e-06     00000 Conjugate Gradient Iteration
computing hessian-vector products by finite difference
             11      6.00e-07     00000 Conjugate Gradient Iteration
computing hessian-vector products by finite difference
             12      1.05e-07     00000 Conjugate Gradient Iteration
computing hessian-vector products by finite difference
             13      1.98e-08     00000 Conjugate Gradient Iteration
computing hessian-vector products by finite difference
             14      5.99e-09     00000 CG Converged
batch 0 complete
Done Calculating Responses
TESTING ORTHOGONALIZATION OF MULTIPOLE BASIS
Multipole virts passed orthogonality test
Virts Per Order
          105
          175
 
 --------------------------------------------------------------
 
                    Orbital Energies (a.u.)
 --------------------------------------------------------------
 
 Alpha MOs
 -- Occupied --
-14.4510 -10.2997 -10.2957 -10.2715 -10.2687 -10.2676 -10.2644 -10.2619
-10.2608 -10.2600  -1.1186  -0.9824  -0.9327  -0.8719  -0.8621  -0.8190
 -0.7477  -0.7149  -0.6790  -0.6526  -0.6003  -0.5860  -0.5569  -0.5517
 -0.5405  -0.5184  -0.5146  -0.4956  -0.4798  -0.4551  -0.4522  -0.4333
 -0.3784  -0.3183  -0.2914
 -- Virtual --
  0.0537   0.0597   0.0747   0.0764   0.0929   0.0973   0.0990   0.1052
  0.1256   0.1298   0.1342   0.1453   0.1557   0.1643   0.1728   0.1773
  0.1853   0.1915   0.1978   0.2077   0.2133   0.2194   0.2264   0.2447
  0.2460   0.2522   0.2563   0.2598   0.2653   0.2735   0.2746   0.2762
  0.2791   0.2844   0.2887   0.2919   0.3032   0.3045   0.3124   0.3225
  0.3227   0.3274   0.3339   0.3385   0.3398   0.3409   0.3462   0.3515
  0.3580   0.3654   0.3727   0.3761   0.3780   0.3868   0.3908   0.3924
  0.3978   0.4055   0.4108   0.4134   0.4189   0.4206   0.4254   0.4375
  0.4389   0.4460   0.4500   0.4558   0.4582   0.4594   0.4664   0.4695
  0.4815   0.4923   0.4977   0.4986   0.5002   0.5128   0.5177   0.5232
  0.5290   0.5341   0.5401   0.5442   0.5463   0.5514   0.5552   0.5646
  0.5709   0.5764   0.5867   0.5906   0.5993   0.6099   0.6209   0.6237
  0.6298   0.6395   0.6440   0.6482   0.6538   0.6759   0.6788   0.6798
  0.6898   0.6916   0.6969   0.7039   0.7102   0.7190   0.7235   0.7329
  0.7352   0.7457   0.7498   0.7531   0.7619   0.7648   0.7725   0.7749
  0.7798   0.7881   0.7923   0.7946   0.8002   0.8014   0.8106   0.8163
  0.8233   0.8284   0.8324   0.8382   0.8442   0.8507   0.8578   0.8616
  0.8682   0.8742   0.8881   0.8893   0.9022   0.9076   0.9156   0.9304
  0.9434   0.9502   0.9600   0.9811   0.9907   1.0006   1.0083   1.0126
  1.0396   1.0420   1.0513   1.0642   1.0700   1.0810   1.0893   1.1006
  1.1186   1.1263   1.1397   1.1447   1.1680   1.1826   1.1953   1.2207
  1.2328   1.2417   1.2616   1.2718   1.3039   1.3048   1.3427   1.3533
  1.3838   1.3962   1.3986   1.4150   1.4287   1.4510   1.4550   1.4692
  1.5158   1.5522   1.5602   1.5665   1.5785   1.5842   1.6122   1.6142
  1.6465   1.6615   1.6953   1.7040   1.7205   1.7414   1.7461   1.7721
  1.7949   1.8234   1.8417   1.8519   1.8642   1.8710   1.8854   1.8908
  1.9011   1.9194   1.9410   1.9451   1.9545   1.9664   1.9694   1.9813
  1.9951   1.9992   2.0068   2.0239   2.0344   2.0557   2.0638   2.0740
  2.0928   2.1224   2.1393   2.1739   2.1853   2.1972   2.2092   2.2220
  2.2576   2.2843   2.2990   2.3180   2.3197   2.3612   2.3660   2.3767
  2.4126   2.4345   2.4449   2.4580   2.4916   2.5043   2.5151   2.5509
  2.5539   2.5745   2.5968   2.6153   2.6262   2.6495   2.6701   2.6813
  2.6942   2.7196   2.7521   2.7572   2.7681   2.7876   2.8074   2.8145
  2.8187   2.8326   2.8496   2.8684   2.8788   2.8942   2.8981   2.9142
  2.9367   2.9476   2.9621   2.9791   2.9851   3.0115   3.0291   3.0339
  3.0378   3.0663   3.0878   3.0925   3.1016   3.1357   3.1521   3.1652
  3.1722   3.1875   3.2050   3.2229   3.2354   3.2537   3.2627   3.2671
  3.2871   3.2984   3.3119   3.3211   3.3549   3.3641   3.3789   3.3913
  3.4068   3.4174   3.4285   3.4385   3.4439   3.4518   3.4668   3.4797
  3.4932   3.5061   3.5135   3.5227   3.5324   3.5372   3.5597   3.5744
  3.5817   3.5920   3.6132   3.6326   3.6469   3.6570   3.6641   3.6843
  3.7026   3.7217   3.7228   3.7293   3.7551   3.7685   3.7874   3.7976
  3.8129   3.8573   3.8859   3.9318   3.9372   3.9511   3.9905   4.0254
  4.0559   4.0780   4.1090   4.1573   4.1721   4.2016   4.2245   4.2356
  4.2555   4.2696   4.2898   4.3006   4.3242   4.3649   4.3700   4.3757
  4.4185   4.4248   4.4423   4.4696   4.4886   4.5425   4.5675   4.5950
  4.6384   4.6459   4.6727   4.7726   4.7927   4.8244   4.8490   4.9236
  4.9402   4.9663   4.9829   4.9878   5.0226   5.0736   5.0756   5.1131
  5.1481   5.1625   5.2070   5.2271   5.2658   5.4001   5.4153   5.4600
  5.5183   5.5603   5.5919   5.6573   5.7150   5.8044   5.8301   5.9483
  5.9764   6.2647   6.3551  22.6678  22.7526  22.9412  22.9622  22.9975
 23.2267  23.2688  23.4912  23.8227  32.8384
 --------------------------------------------------------------
 
          Ground-State Mulliken Net Atomic Charges

     Atom                 Charge (a.u.)
  ----------------------------------------
      1 C                    -0.977671
      2 C                    -0.181356
      3 C                     0.415941
      4 C                     0.858832
      5 C                    -0.826395
      6 C                    -0.576271
      7 C                    -0.356217
      8 C                    -0.550688
      9 C                    -0.465722
     10 N                     0.155332
     11 H                     0.343366
     12 H                     0.334884
     13 H                     0.201006
     14 H                     0.344884
     15 H                     0.256346
     16 H                     0.296553
     17 H                     0.264920
     18 H                     0.264013
     19 H                     0.198244
  ----------------------------------------
  Sum of atomic charges =     0.000000

 -----------------------------------------------------------------
                    Cartesian Multipole Moments
 -----------------------------------------------------------------
    Charge (ESU x 10^10)
                -0.0000
    Dipole Moment (Debye)
         X      -2.1588      Y       1.3482      Z       0.8759
       Tot       2.6917
    Quadrupole Moments (Debye-Ang)
        XX     -48.7597     XY      -1.0678     YY     -54.7204
        XZ      -5.7396     YZ      -0.3258     ZZ     -62.3450
    Octopole Moments (Debye-Ang^2)
       XXX     113.1974    XXY      91.6070    XYY      43.6988
       YYY     271.0759    XXZ      -8.6944    XYZ       3.0421
       YYZ     -19.1739    XZZ      43.4830    YZZ     100.1005
       ZZZ     -69.9685
    Hexadecapole Moments (Debye-Ang^3)
      XXXX    -990.4004   XXXY    -335.9736   XXYY    -439.4663
      XYYY    -347.5790   YYYY   -1625.4164   XXXZ     136.5386
      XXYZ      47.3711   XYYZ      57.3453   YYYZ     168.0746
      XXZZ    -212.6384   XYZZ    -111.5685   YYZZ    -331.2108
      XZZZ     215.8386   YZZZ     180.3698   ZZZZ    -267.5298
 -----------------------------------------------------------------
Archival summary:
1\1\nid00566\SP\ProcedureUnspecified\BasisUnspecified\199\meili\MonSep2711:45:082021MonSep2711:45:082021\0\\#,ProcedureUnspecified,BasisUnspecified,\\0,1\C\C,1,1.40224\H,2,1.07794,1,119.89\C,2,1.37509,1,119.21,3,-178.209,0\H,4,1.07989,2,119.33,1,178.588,0\C,4,1.3954,2,121.013,1,1.74821,0\H,6,1.08113,4,119.025,2,178.564,0\C,6,1.38361,4,121.134,2,-0.776913,0\H,8,1.07883,6,121.519,4,179.232,0\C,8,1.38545,6,117.822,4,-0.500609,0\N,10,1.36868,8,131.081,6,179.617,0\H,11,1.02334,10,124.62,8,-3.70108,0\C,11,1.36847,10,109.736,8,-178.961,0\H,13,1.0839,11,125.359,10,-179.031,0\C,13,1.36228,11,109.624,10,0.268247,0\C,15,1.48731,13,127.795,11,-176.951,0\H,16,1.08993,15,107.933,13,-155.322,0\H,16,1.09092,15,109.144,13,-39.7662,0\H,16,1.1,15,114.754,13,84.4113,0\\\@

 Total job time:  80231.50s(wall), 159411.96s(cpu) 
 Mon Sep 27 11:45:09 2021

        *************************************************************
        *                                                           *
        *  Thank you very much for using Q-Chem.  Have a nice day.  *
        *                                                           *
        *************************************************************


Done Job For Fragment 0
calling putenv with: QCSCRATCH=/global/cscratch1/sd/meili 
calling putenv with: QCLOCALSCR=/tmp 
calling putenv with: QCTHREADS=32 
Creating input file /tmp/qchem46639/Frg2.input
using default PutDataFrgm: nothing
calling putenv with: QCSCRATCH=/tmp/qchem46639/ 
calling putenv with: QCLOCALSCR=/tmp/qchem46639/ 
Spawning Job For Fragment 1
                  Welcome to Q-Chem
     A Quantum Leap Into The Future Of Chemistry


 Q-Chem 5.2, Q-Chem, Inc., Pleasanton, CA (2019)

 License issued to: National Energy Research Scientific Computing Center

 Yihan Shao,  Zhengting Gan,  E. Epifanovsky,  A. T. B. Gilbert,  M. Wormit,  
 J. Kussmann,  A. W. Lange,  A. Behn,  Jia Deng,  Xintian Feng,  D. Ghosh,  
 M. Goldey,  P. R. Horn,  L. D. Jacobson,  I. Kaliman,  T. Kus,  A. Landau,  
 Jie Liu,  E. I. Proynov,  R. M. Richard,  R. P. Steele,  E. J. Sundstrom,  
 H. L. Woodcock III,  P. M. Zimmerman,  D. Zuev,  B. Albrecht,  E. Alguire,  
 S. A. Baeppler,  D. Barton,  Z. Benda,  Y. A. Bernard,  E. J. Berquist,  
 K. B. Bravaya,  H. Burton,  D. Casanova,  Chun-Min Chang,  Yunqing Chen,  
 A. Chien,  K. D. Closser,  M. P. Coons,  S. Coriani,  S. Dasgupta,  
 A. L. Dempwolff,  M. Diedenhofen,  Hainam Do,  R. G. Edgar,  Po-Tung Fang,  
 S. Faraji,  S. Fatehi,  Qingguo Feng,  K. D. Fenk,  J. Fosso-Tande,  
 J. Gayvert,  Qinghui Ge,  A. Ghysels,  G. Gidofalvi,  J. Gomes,  
 J. Gonthier,  A. Gunina,  D. Hait,  M. W. D. Hanson-Heine,  
 P. H. P. Harbach,  A. W. Hauser,  M. F. Herbst,  J. E. Herr,  
 E. G. Hohenstein,  Z. C. Holden,  Kerwin Hui,  B. C. Huynh,  T.-C. Jagau,  
 Hyunjun Ji,  B. Kaduk,  K. Khistyaev,  Jaehoon Kim,  P. Klunzinger,  K. Koh,  
 D. Kosenkov,  L. Koulias,  T. Kowalczyk,  C. M. Krauter,  A. Kunitsa,  
 Ka Un Lao,  A. Laurent,  K. V. Lawler,  Joonho Lee,  D. Lefrancois,  
 S. Lehtola,  D. S. Levine,  Yi-Pei Li,  You-Sheng Lin,  Fenglai Liu,  
 E. Livshits,  A. Luenser,  P. Manohar,  E. Mansoor,  S. F. Manzer,  
 Shan-Ping Mao,  Yuezhi Mao,  N. Mardirossian,  A. V. Marenich,  
 T. Markovich,  L. A. Martinez-Martinez,  S. A. Maurer,  N. J. Mayhall,  
 S. C. McKenzie,  J.-M. Mewes,  P. Morgante,  A. F. Morrison,  
 J. W. Mullinax,  K. Nanda,  T. S. Nguyen-Beck,  R. Olivares-Amaya,  
 J. A. Parkhill,  Zheng Pei,  T. M. Perrine,  F. Plasser,  P. Pokhilko,  
 S. Prager,  A. Prociuk,  E. Ramos,  D. R. Rehn,  F. Rob,  M. Scheurer,  
 M. Schneider,  N. Sergueev,  S. M. Sharada,  S. Sharma,  D. W. Small,  
 T. Stauch,  T. Stein,  Yu-Chuan Su,  A. J. W. Thom,  A. Tkatchenko,  
 T. Tsuchimochi,  N. M. Tubman,  L. Vogt,  M. L. Vidal,  O. Vydrov,  
 M. A. Watson,  J. Wenzel,  M. de Wergifosse,  T. A. Wesolowski,  A. White,  
 J. Witte,  A. Yamada,  Jun Yang,  K. Yao,  S. Yeganeh,  S. R. Yost,  
 Zhi-Qiang You,  A. Zech,  Igor Ying Zhang,  Xing Zhang,  Yan Zhao,  
 Ying Zhu,  B. R. Brooks,  G. K. L. Chan,  C. J. Cramer,  M. S. Gordon,  
 W. J. Hehre,  A. Klamt,  M. W. Schmidt,  C. D. Sherrill,  D. G. Truhlar,  
 A. Aspuru-Guzik,  R. Baer,  A. T. Bell,  N. A. Besley,  Jeng-Da Chai,  
 A. E. DePrince, III,  R. A. DiStasio Jr.,  A. Dreuw,  B. D. Dunietz,  
 T. R. Furlani,  Chao-Ping Hsu,  Yousung Jung,  Jing Kong,  D. S. Lambrecht,  
 WanZhen Liang,  C. Ochsenfeld,  V. A. Rassolov,  L. V. Slipchenko,  
 J. E. Subotnik,  T. Van Voorhis,  J. M. Herbert,  A. I. Krylov,  
 P. M. W. Gill,  M. Head-Gordon

 Contributors to earlier versions of Q-Chem not listed above: 
 R. D. Adamson,  B. Austin,  J. Baker,  G. J. O. Beran,  K. Brandhorst,  
 S. T. Brown,  E. F. C. Byrd,  A. K. Chakraborty,  C.-L. Cheng,  
 Siu Hung Chien,  D. M. Chipman,  D. L. Crittenden,  H. Dachsel,  
 R. J. Doerksen,  A. D. Dutoi,  L. Fusti-Molnar,  W. A. Goddard III,  
 A. Golubeva-Zadorozhnaya,  S. R. Gwaltney,  G. Hawkins,  A. Heyden,  
 S. Hirata,  G. Kedziora,  F. J. Keil,  C. Kelley,  Jihan Kim,  R. A. King,  
 R. Z. Khaliullin,  P. P. Korambath,  W. Kurlancheek,  A. M. Lee,  M. S. Lee,  
 S. V. Levchenko,  Ching Yeh Lin,  D. Liotard,  R. C. Lochan,  I. Lotan,  
 P. E. Maslen,  N. Nair,  D. P. O'Neill,  D. Neuhauser,  E. Neuscamman,  
 C. M. Oana,  R. Olson,  B. Peters,  R. Peverati,  P. A. Pieniazek,  
 Y. M. Rhee,  J. Ritchie,  M. A. Rohrdanz,  E. Rosta,  N. J. Russ,  
 H. F. Schaefer III,  N. E. Schultz,  N. Shenvi,  A. C. Simmonett,  A. Sodt,  
 D. Stuck,  K. S. Thanthiriwatte,  V. Vanovschi,  Tao Wang,  A. Warshel,  
 C. F. Williams,  Q. Wu,  X. Xu,  W. Zhang

 Please cite Q-Chem as follows:
 Y. Shao et al., Mol. Phys. 113, 184-215 (2015)
 DOI: 10.1080/00268976.2014.952696

 Q-Chem 5.2.0 for Intel X86 EM64T Linux

 Parts of Q-Chem use Armadillo 8.300.2 (Tropical Shenanigans).
 http://arma.sourceforge.net/

 Q-Chem begins on Mon Sep 27 11:45:12 2021  

Host: cori01
0

     Scratch files written to /tmp/qchem46639//Frg2//
 May1019 |scratch|qcdevops|jenkins|workspace|build_RNUM -1
Processing $rem in /global/common/cori/software/qchem/5.2/config/preferences:
	 MEM_TOTAL  96000 
NAlpha2: 32
NElect   32
Mult     1
Symmetry turned off for PCM/SM12/SMD calculation

Checking the input file for inconsistencies... 	...done.

--------------------------------------------------------------
User input:
--------------------------------------------------------------
$molecule
0 1
 6	1.0533688190	3.8264200360	-2.0227308585
 6	1.9393688190	3.4474200360	-0.8627308585
 8	2.9803688190	2.7624200360	-1.0147308585
 7	1.5503688190	3.9114200360	0.3062691415
 1	0.0623688190	3.4164200360	-1.8287308585
 1	1.4353688190	3.3594200360	-2.9297308585
 1	2.1033688190	3.6684200360	1.1152691415
 1	0.6703688190	4.3894200360	0.4222691415
 1	0.9765288190	4.9143900360	-2.1656408585
$end
$rem
EDA2		1
METHOD		WB97X-V
BASIS		DEF2-TZVPD
XC_GRID		000099000590
NL_GRID		1
UNRESTRICTED		FALSE
MAX_SCF_CYCLES		200
SYMMETRY		FALSE
SYM_IGNORE		TRUE
BASIS_LIN_DEP_THRESH		6
THRESH		14
SCF_CONVERGENCE		8
SCF_PRINT_FRGM		TRUE
SOLVENT_METHOD		PCM
!required keywords
JOBTYPE		SP
SYM_IGNORE		TRUE
SUBSYSTEM		TRUE
GEN_SCFMAN		TRUE
CHILD_INSTRUCTION		2
SYM_IGNORE		TRUE
SCFMI		0
RI_K 0		
PARI_K 0		
MIN_PARI_K 0		
IARI_K 0		
OCC_RI_K 0		
PURECART		1111
MEM_STATIC		2000
MEM_TOTAL		96000
GUI		0
CHILD_MP		1
CHILD_MP_ORDERS		232
FRZ_RELAX		0
FRZ_RELAX_METHOD		0
EDA_CLS_ELEC		1
EDA_CLS_DISP		0
FRZ_ORTHO_DECOMP		1
EDA2		FALSE
FRGM_METHOD		FALSE
CIS_N_ROOTS  0
LOCAL_CIS    0
CIS_RLX_DNS  1
$end
$pcm
THEORY                  CPCM
METHOD                  SWIG
SOLVER                  INVERSION
RADII                   UFF
HPOINTS                 302
HEAVYPOINTS             302
PRINTLEVEL              0
$end
$solvent
DIELECTRIC              78.390000 ! water
$end
--------------------------------------------------------------
 ----------------------------------------------------------------
             Standard Nuclear Orientation (Angstroms)
    I     Atom           X                Y                Z
 ----------------------------------------------------------------
    1      C       1.0533688190     3.8264200360    -2.0227308585
    2      C       1.9393688190     3.4474200360    -0.8627308585
    3      O       2.9803688190     2.7624200360    -1.0147308585
    4      N       1.5503688190     3.9114200360     0.3062691415
    5      H       0.0623688190     3.4164200360    -1.8287308585
    6      H       1.4353688190     3.3594200360    -2.9297308585
    7      H       2.1033688190     3.6684200360     1.1152691415
    8      H       0.6703688190     4.3894200360     0.4222691415
    9      H       0.9765288190     4.9143900360    -2.1656408585
 ----------------------------------------------------------------
 Nuclear Repulsion Energy =         122.01692495 hartrees
 There are       16 alpha and       16 beta electrons
 Requested basis set is def2-TZVPD
 There are 78 shells and 196 basis functions

 Total QAlloc Memory Limit  96000 MB
 Mega-Array Size      1956 MB
 MEM_STATIC part      2000 MB
 Discretize the solute cavity surface with Lebedev spheres
	Using 302 Lebedev grid points for each H atom
	Using 302 Lebedev grid points for other atoms
	Atomic van der Waals radii will be scaled by 1.20
 Remove points where switching function is < 1.0e-08
 Keep 1198 surface tesserae and discard 1520 interior tesserae
 Molecular Surface Area = 128.747 Angst**2

                       Distance Matrix (Angstroms)
             C (  1)   C (  2)   O (  3)   N (  4)   H (  5)   H (  6)
   C (  2)  1.508057
   O (  3)  2.421051  1.255392
   N (  4)  2.382955  1.316502  2.260562
   H (  5)  1.089870  2.111219  3.099199  2.649036
   H (  6)  1.089340  2.129378  2.531928  3.284756  1.760846
   H (  7)  3.312779  1.997053  2.475250  1.009623  3.591145  4.111415
   H (  8)  2.538047  2.036897  3.169889  1.008137  2.526538  3.589154
   H (  9)  1.100003  2.185552  3.157680  2.728659  1.786928  1.792289
             H (  7)   H (  8)
   H (  8)  1.747449
   H (  9)  3.685998  2.658309
 
 A cutoff of  1.0D-14 yielded   3054 shell pairs
 There are     19544 function pairs (     24702 Cartesian)
 Smallest overlap matrix eigenvalue = 9.63E-06

 Scale SEOQF with 1.000000e-01/1.000000e-01/1.000000e-01

 Standard Electronic Orientation quadrupole field applied
 Nucleus-field energy     =     0.0000000275 hartrees
 Guess from superposition of atomic densities
 Warning:  Energy on first SCF cycle will be non-variational
 SAD guess density has 31.604610 electrons

 -----------------------------------------------------------------------
  General SCF calculation program by
  Eric Jon Sundstrom, Paul Horn, Yuezhi Mao, Dmitri Zuev, Alec White,
  David Stuck, Shaama M.S., Shane Yost, Joonho Lee, David Small,
  Daniel Levine, Susi Lehtola, Hugh Burton, Evgeny Epifanovsky
 -----------------------------------------------------------------------
 Exchange:     0.1670 Hartree-Fock + 1.0000 wB97X-V + LR-HF
 Correlation:  1.0000 wB97X-V
 Using Euler-Maclaurin-Lebedev (99,590) quadrature formula
 Nonlocal Correlation:  VV10 with C = 0.0100 and b = 6.00 and scale = 1.00000
 Grid used for NLC:  SG-1 standard quadrature
Energy prior to optimization (guess energy) = -208.696187566358
Begin Timing: Total SCF Calculation
begin iterations for algorithm: DIIS         
the SCF tolerance is set to 1.00e-08
    1    -208.6961875664      1.26e-02     00000 
    2    -208.2331862635      1.60e-02     00000 
    3    -209.2181237251      2.69e-03     00000 
    4    -209.2416566529      8.64e-04     00000 
    5    -209.2446344746      1.31e-04     00000 
    6    -209.2447453007      5.20e-05     00000 
    7    -209.2447646799      1.22e-05     00000 
    8    -209.2447660942      2.42e-06     00000 
    9    -209.2447662157      9.53e-07     00000 
   10    -209.2447662241      4.00e-07     00000 
   11    -209.2447662256      8.69e-08     00000 
   12    -209.2447662258      1.85e-08     00000 
   13    -209.2447662258      5.09e-09     00000 Convergence criterion met
Timing for Total SCF: 369.00s (wall), 731.73s (cpu)

************** Final PCM Free Energy Summary **************
 G_electrostatic  =      -0.01298667 hartree =      -8.14925826 kcal/mol
 G_cavitation     =       0.00000000 hartree =       0.00000000 kcal/mol
 G_dispersion     =       0.00000000 hartree =       0.00000000 kcal/mol
 G_repulsion      =       0.00000000 hartree =       0.00000000 kcal/mol
 --------------------------------------------------
 Non-electrostatic Free Energy =       0.00000000 hartree =       0.00000000 kcal/mol
 Total                         =      -0.01298667 hartree =      -8.14925826 kcal/mol
 --------------------------------------------------
 SCF Energy (H0 + V/2)                       =    -209.24476623 
 Solute Internal Energy (H0)                 =    -209.23177956 
 Total Free Energy (H0 + V/2 + non-elec)     =    -209.24476623 hartree
                                             = -131303.07256386 kcal/mol
***********************************************************

E_pcm = -0.0129866697
Multipole orders to be included
        2
        3
computing dipole RHS
computing quadrupole RHS
total number of RHS in solve_reponses: 8
RHS batch sizes
        8
Beginning Block Conjugate Gradient Iterations. Batch Number: 0
computing hessian-vector products by finite difference
              1      6.02e-01     00000 Conjugate Gradient Iteration
computing hessian-vector products by finite difference
              2      1.95e-01     00000 Conjugate Gradient Iteration
computing hessian-vector products by finite difference
              3      4.82e-02     00000 Conjugate Gradient Iteration
computing hessian-vector products by finite difference
              4      1.17e-02     00000 Conjugate Gradient Iteration
computing hessian-vector products by finite difference
              5      1.95e-03     00000 Conjugate Gradient Iteration
computing hessian-vector products by finite difference
              6      4.38e-04     00000 Conjugate Gradient Iteration
computing hessian-vector products by finite difference
              7      6.80e-05     00000 Conjugate Gradient Iteration
computing hessian-vector products by finite difference
              8      8.30e-06     00000 Conjugate Gradient Iteration
computing hessian-vector products by finite difference
              9      1.15e-06     00000 Conjugate Gradient Iteration
computing hessian-vector products by finite difference
             10      1.20e-07     00000 Conjugate Gradient Iteration
computing hessian-vector products by finite difference
             11      1.59e-08     00000 Conjugate Gradient Iteration
computing hessian-vector products by finite difference
             12      2.40e-09     00000 CG Converged
batch 0 complete
Done Calculating Responses
TESTING ORTHOGONALIZATION OF MULTIPOLE BASIS
Multipole virts passed orthogonality test
Virts Per Order
        48
        80
 
 --------------------------------------------------------------
 
                    Orbital Energies (a.u.)
 --------------------------------------------------------------
 
 Alpha MOs
 -- Occupied --
-19.1797 -14.4368 -10.3799 -10.2720  -1.1615  -1.0495  -0.8730  -0.7190
 -0.6636  -0.5885  -0.5691  -0.5141  -0.5065  -0.4809  -0.3830  -0.3679
 -- Virtual --
  0.0586   0.0906   0.0911   0.0971   0.1239   0.1286   0.1335   0.1406
  0.1663   0.1838   0.2019   0.2038   0.2283   0.2391   0.2408   0.2508
  0.2523   0.2739   0.3048   0.3100   0.3218   0.3300   0.3396   0.3475
  0.3553   0.3702   0.3770   0.3809   0.3916   0.3983   0.4131   0.4200
  0.4228   0.4514   0.4563   0.4704   0.4789   0.4863   0.4889   0.4949
  0.5256   0.5315   0.5366   0.5627   0.5697   0.5852   0.6290   0.6438
  0.6490   0.6555   0.6677   0.6741   0.7009   0.7088   0.7262   0.7533
  0.7750   0.7801   0.7938   0.8008   0.8110   0.8329   0.8495   0.8720
  0.9145   0.9627   0.9686   0.9908   1.0161   1.0247   1.0590   1.1126
  1.1291   1.1738   1.2225   1.2523   1.2871   1.2966   1.3302   1.3964
  1.4713   1.4989   1.5084   1.6013   1.6709   1.7155   1.7480   1.7998
  1.8317   1.8628   1.8750   1.9159   1.9231   1.9355   1.9982   2.0209
  2.0536   2.0936   2.1407   2.1871   2.2548   2.2868   2.2930   2.3134
  2.3536   2.4001   2.4355   2.4896   2.5148   2.5760   2.6153   2.6203
  2.6815   2.7222   2.7442   2.8008   2.8651   2.9179   2.9393   2.9811
  3.0324   3.1080   3.1337   3.1532   3.1984   3.2262   3.2544   3.2754
  3.3131   3.3144   3.3512   3.4120   3.4701   3.5063   3.5572   3.5699
  3.6005   3.6476   3.7292   3.7638   3.8616   3.9207   4.0141   4.0412
  4.0882   4.1782   4.3024   4.3859   4.5445   4.5941   4.6182   4.6423
  4.8249   4.8834   4.9045   4.9217   5.1511   5.1801   5.2753   5.3479
  5.3683   5.3952   5.4024   5.4832   5.5358   5.7406   5.8849   6.1329
  6.2126   6.4867   6.6312   6.7078   6.7935   6.9695   7.2228   7.3097
 22.6128  23.5358  32.4145  44.2855
 --------------------------------------------------------------
 
          Ground-State Mulliken Net Atomic Charges

     Atom                 Charge (a.u.)
  ----------------------------------------
      1 C                    -0.642261
      2 C                     0.429536
      3 O                    -0.604376
      4 N                    -0.253648
      5 H                     0.235369
      6 H                     0.180850
      7 H                     0.217913
      8 H                     0.197954
      9 H                     0.238662
  ----------------------------------------
  Sum of atomic charges =     0.000000

 -----------------------------------------------------------------
                    Cartesian Multipole Moments
 -----------------------------------------------------------------
    Charge (ESU x 10^10)
                -0.0000
    Dipole Moment (Debye)
         X      -4.3373      Y       2.8162      Z       1.7766
       Tot       5.4680
    Quadrupole Moments (Debye-Ang)
        XX     -42.6805     XY      -8.8292     YY      -6.2519
        XZ       7.4776     YZ       4.1522     ZZ     -22.5545
    Octopole Moments (Debye-Ang^2)
       XXX    -197.9038    XXY    -131.1821    XYY     -59.6741
       YYY    -168.0317    XXZ      49.1603    XYZ      19.1796
       YYZ      31.3900    XZZ     -45.3599    YZZ     -75.9915
       ZZZ      69.0691
    Hexadecapole Moments (Debye-Ang^3)
      XXXX    -816.3516   XXXY    -611.4832   XXYY    -526.2440
      XYYY    -461.3014   YYYY   -1475.3125   XXXZ     197.6073
      XXYZ     151.2766   XYYZ      84.6425   YYYZ     246.6945
      XXZZ    -163.1843   XYZZ    -142.6825   YYZZ    -314.8991
      XZZZ     119.9397   YZZZ     237.7685   ZZZZ    -276.6537
 -----------------------------------------------------------------
Archival summary:
1\1\nid00566\SP\ProcedureUnspecified\BasisUnspecified\1125\meili\MonSep2713:28:222021MonSep2713:28:222021\0\\#,ProcedureUnspecified,BasisUnspecified,\\0,1\C\O,1,1.25539\N,1,1.3165,2,123.014\H,3,1.00814,1,121.817,2,-174.475,0\H,3,1.00962,1,117.7,2,-2.43902,0\C,1,1.50806,2,122.085,3,178.608,0\H,6,1.08934,1,109.068,2,3.77249,0\H,6,1.08987,1,107.623,2,120.47,0\H,6,1.1,1,112.926,2,-118.719,0\\\@

 Total job time:  6192.20s(wall), 12245.83s(cpu) 
 Mon Sep 27 13:28:24 2021

        *************************************************************
        *                                                           *
        *  Thank you very much for using Q-Chem.  Have a nice day.  *
        *                                                           *
        *************************************************************


Done Job For Fragment 1
calling putenv with: QCSCRATCH=/global/cscratch1/sd/meili 
calling putenv with: QCLOCALSCR=/tmp 
calling putenv with: QCTHREADS=32 
Doing General SCFMI
 Exchange:     0.1670 Hartree-Fock + 1.0000 wB97X-V + LR-HF
 Correlation:  1.0000 wB97X-V
 Using Euler-Maclaurin-Lebedev (99,590) quadrature formula
 Nonlocal Correlation:  VV10 with C = 0.0100 and b = 6.00 and scale = 1.00000
 Grid used for NLC:  SG-1 standard quadrature
performing fock build before subrot guess so that all methods have access
Printing subrot_rss_gen Method Specification:
Occupied Subspace Method is 0
Virtual Subspace Method is 0
Energy of the unrelaxed supersystem initial determinant -612.394953161208
performing fock build before subrot guess so that all methods have access
Printing subrot_rss_gen Method Specification:
Occupied Subspace Method is 0
Virtual Subspace Method is 0
Energy of the unrelaxed supersystem initial determinant w/ solvent -612.414914222378
write pseudocanon occs and virts to disk
write pseudocanon orbital energies to disk
Tolerance of ortho_decomp_scf: 1.00e-06
GDM subspace size: 20
Beginning the Orthogonal Decomposition of the Initial Supersystem Wavefunction
    1    -612.3812572736      2.35e-02     ortho_decomp Preconditoned Steepest Descent
    2    -612.3831053974      6.55e-04     ortho_decomp BFGS Step
    3    -612.3831130944      4.99e-05     ortho_decomp BFGS Step
    4    -612.3831131047      1.90e-06     ortho_decomp BFGS Step
    5    -612.3831131047      6.32e-08     ortho_decomp 00000 Convergence criterion met
 Hartree-Fock
 Hartree-Fock
 Hartree-Fock
Doing General SCFMI
 Exchange:     0.1670 Hartree-Fock + 1.0000 wB97X-V + LR-HF
 Correlation:  1.0000 wB97X-V
 Using Euler-Maclaurin-Lebedev (99,590) quadrature formula
 Nonlocal Correlation:  VV10 with C = 0.0100 and b = 6.00 and scale = 1.00000
 Grid used for NLC:  SG-1 standard quadrature
performing fock build at end of subrot_r(subrot) constructor so that all methods have access
<S^2> of initial wavefunction before polarization iterations 0.0000000000
Beginning iterations for the determination of the polarized wavefunction
Energy prior to optimization (guess energy) = -612.414914222378
Begin Timing: Total SCF Calculation
begin iterations for algorithm: DIIS         
the SCF tolerance is set to 1.00e-08
    1    -612.4149142224      3.88e-05     00000 
    2    -612.4151151284      1.86e-05     00000 
    3    -612.4151344554      1.43e-05     00000 
    4    -612.4151458106      3.19e-06     00000 
    5    -612.4151468305      1.56e-06     00000 
    6    -612.4151470737      5.22e-07     00000 
    7    -612.4151471096      1.95e-07     00000 
    8    -612.4151471138      8.17e-08     00000 
    9    -612.4151471144      2.50e-08     00000 
   10    -612.4151471145      1.18e-08     00000 
   11    -612.4151471145      3.74e-09     00000 Convergence criterion met
write pseudocanon occs and virts to disk
write pseudocanon orbital energies to disk
Timing for Total SCF: 8641.00s (wall), 17197.21s (cpu)
<S^2> of polarized wavefunction after polarization iterations 0.0000000000
relaxing scfmi constraint to allow all rotations in the entire AO span
Doing General SCFMI
 Exchange:     0.1670 Hartree-Fock + 1.0000 wB97X-V + LR-HF
 Correlation:  1.0000 wB97X-V
 Using Euler-Maclaurin-Lebedev (99,590) quadrature formula
 Nonlocal Correlation:  VV10 with C = 0.0100 and b = 6.00 and scale = 1.00000
 Grid used for NLC:  SG-1 standard quadrature
performing fock build at end of subrot_r(subrot) constructor so that all methods have access
<S^2> of polarized wavefunction before ct-allowed iterations 0.0000000000
Beginning iterations for the determination of the CT-Allowed wavefunction
Energy prior to optimization (guess energy) = -612.415147114493
Begin Timing: Total SCF Calculation
begin iterations for algorithm: DIIS         
the SCF tolerance is set to 1.00e-08
    1    -612.4151471145      5.47e-05     00000 
    2    -612.4157111953      5.63e-06     00000 
    3    -612.4157274168      1.36e-06     00000 
    4    -612.4157277877      1.41e-06     00000 
    5    -612.4157280728      1.53e-07     00000 
    6    -612.4157280787      7.69e-08     00000 
    7    -612.4157280802      1.46e-08     00000 
    8    -612.4157280803      6.25e-09     00000 Convergence criterion met
write pseudocanon occs and virts to disk
write pseudocanon orbital energies to disk
Timing for Total SCF: 6012.00s (wall), 11967.47s (cpu)
<S^2> of ct_allowed wavefunction after ct-allowed iterations 0.0000000000

================================
        Results of EDA2         
================================
Basic EDA Quantities
--------------------
Fragment Energies (Ha):
1 -403.1682386549
2 -209.2447662258
--------------------
  E_prp (kJ/mol) = 0.0000
  E_sol (kJ/mol) = -1.7305
  E_frz (kJ/mol) = -3.2825
  E_pol (kJ/mol) = -0.6115
  E_vct (kJ/mol) = -1.5253
  E_int (kJ/mol) = -7.1498
--------------------


Initial Wavefunction Decomposition
--------------------
  --------------------
  Orthogonal Fragment Subspace Decomposition:
  --------------------
     E_elec   (ELEC)   (kJ/mol) = -13.4212
     E_pauli  (PAULI)  (kJ/mol) = 21.4146
     E_disp   (DISP)   (kJ/mol) = -11.2760
     --------------------
     Terms summing to E_pauli:
     --------------------
        E_kep_pauli       (kJ/mol) = 27.8039
        E_disp_free_pauli (kJ/mol) = -6.3893
  --------------------
  Classical Frozen Decomposition:
  --------------------
     E_cls_elec  (CLS ELEC)  (kJ/mol) = -2.6927
     E_cls_pauli (CLS PAULI) (kJ/mol) = -0.5899
    [E_mod_pauli (MOD PAULI) (kJ/mol) = 10.6861 (CLS PAULI - DISP from orthogonal decomposition) ]
  --------------------
--------------------

Simplified EDA Summary (kJ/mol)
--------------------
 PREPARATION     0.0000
 SOLVATION       -1.7305
 FROZEN          7.9934      (does not include dispersion)
[PAULI           21.4146]     (if this is negligible, then frozen describes electrostatics)
 DISPERSION      -11.2760
 POLARIZATION    -0.6115
 CHARGE TRANSFER -1.5253
 TOTAL           -7.1498     (PRP + SOL + FRZ + DISP + POL + CT)
--------------------
 
 --------------------------------------------------------------
 
                    Orbital Energies (a.u.)
 --------------------------------------------------------------
 
 Alpha MOs
 -- Occupied --
-19.1813 -14.4506 -14.4384 -10.3813 -10.2993 -10.2953 -10.2733 -10.2708
-10.2680 -10.2644 -10.2638 -10.2607 -10.2606 -10.2597  -1.1633  -1.1182
 -1.0512  -0.9814  -0.9322  -0.8745  -0.8712  -0.8611  -0.8186  -0.7469
 -0.7205  -0.7139  -0.6787  -0.6650  -0.6522  -0.5995  -0.5900  -0.5856
 -0.5718  -0.5565  -0.5497  -0.5399  -0.5180  -0.5157  -0.5143  -0.5077
 -0.4954  -0.4848  -0.4750  -0.4541  -0.4514  -0.4330  -0.3838  -0.3777
 -0.3694  -0.3175  -0.2908
 -- Virtual --
  0.0537   0.0538   0.0654   0.0728   0.0803   0.0859   0.0891   0.0958
  0.0979   0.1013   0.1132   0.1202   0.1226   0.1281   0.1320   0.1364
  0.1455   0.1497   0.1548   0.1605   0.1614   0.1665   0.1796   0.1832
  0.1840   0.1900   0.1964   0.2034   0.2066   0.2100   0.2118   0.2179
  0.2246   0.2285   0.2360   0.2430   0.2442   0.2505   0.2566   0.2590
  0.2600   0.2644   0.2681   0.2696   0.2732   0.2772   0.2835   0.2884
  0.2948   0.2973   0.3025   0.3060   0.3082   0.3127   0.3181   0.3195
  0.3221   0.3249   0.3266   0.3313   0.3322   0.3343   0.3386   0.3421
  0.3441   0.3476   0.3526   0.3577   0.3596   0.3613   0.3660   0.3683
  0.3705   0.3760   0.3800   0.3855   0.3930   0.3943   0.3956   0.3988
  0.4002   0.4067   0.4103   0.4118   0.4166   0.4219   0.4229   0.4274
  0.4321   0.4335   0.4398   0.4411   0.4475   0.4519   0.4534   0.4566
  0.4641   0.4668   0.4677   0.4702   0.4724   0.4796   0.4835   0.4857
  0.4918   0.4941   0.4985   0.5025   0.5058   0.5119   0.5136   0.5172
  0.5219   0.5244   0.5279   0.5340   0.5364   0.5386   0.5443   0.5504
  0.5551   0.5591   0.5613   0.5682   0.5718   0.5737   0.5781   0.5864
  0.5919   0.5922   0.5974   0.6058   0.6133   0.6216   0.6248   0.6304
  0.6359   0.6375   0.6410   0.6438   0.6519   0.6543   0.6574   0.6631
  0.6662   0.6793   0.6836   0.6898   0.6933   0.6999   0.7006   0.7038
  0.7103   0.7159   0.7192   0.7254   0.7284   0.7325   0.7411   0.7430
  0.7462   0.7523   0.7590   0.7596   0.7631   0.7699   0.7721   0.7774
  0.7824   0.7863   0.7866   0.7894   0.7931   0.7951   0.7986   0.8036
  0.8089   0.8149   0.8192   0.8259   0.8275   0.8326   0.8344   0.8395
  0.8451   0.8476   0.8519   0.8581   0.8620   0.8668   0.8737   0.8751
  0.8841   0.8865   0.8919   0.8978   0.9045   0.9079   0.9130   0.9214
  0.9292   0.9317   0.9380   0.9414   0.9469   0.9626   0.9711   0.9750
  0.9863   0.9886   0.9953   1.0034   1.0127   1.0212   1.0232   1.0393
  1.0503   1.0562   1.0617   1.0711   1.0741   1.0849   1.0858   1.0920
  1.1011   1.1034   1.1189   1.1308   1.1346   1.1368   1.1481   1.1504
  1.1529   1.1772   1.1781   1.1867   1.1923   1.2030   1.2220   1.2351
  1.2387   1.2566   1.2625   1.2683   1.2796   1.2875   1.3096   1.3128
  1.3248   1.3357   1.3426   1.3528   1.3605   1.3953   1.3980   1.4058
  1.4147   1.4246   1.4356   1.4525   1.4626   1.4752   1.4909   1.5194
  1.5365   1.5445   1.5602   1.5651   1.5778   1.5863   1.5944   1.6053
  1.6241   1.6345   1.6541   1.6672   1.6756   1.6974   1.7030   1.7239
  1.7310   1.7446   1.7525   1.7652   1.7825   1.7871   1.8113   1.8289
  1.8502   1.8584   1.8733   1.8776   1.8823   1.8943   1.8991   1.9041
  1.9146   1.9264   1.9382   1.9476   1.9508   1.9610   1.9682   1.9715
  1.9800   1.9812   1.9956   2.0018   2.0027   2.0112   2.0192   2.0321
  2.0354   2.0509   2.0650   2.0725   2.0848   2.1017   2.1095   2.1219
  2.1393   2.1534   2.1696   2.1785   2.1873   2.2025   2.2083   2.2121
  2.2228   2.2333   2.2460   2.2654   2.2883   2.2920   2.2990   2.3164
  2.3257   2.3341   2.3398   2.3660   2.3765   2.3805   2.3843   2.3925
  2.4243   2.4445   2.4503   2.4614   2.4706   2.4851   2.5001   2.5126
  2.5225   2.5280   2.5569   2.5602   2.5665   2.5899   2.6021   2.6097
  2.6282   2.6429   2.6520   2.6579   2.6752   2.6818   2.6981   2.7019
  2.7186   2.7281   2.7526   2.7555   2.7604   2.7816   2.7858   2.8073
  2.8157   2.8212   2.8397   2.8436   2.8492   2.8546   2.8788   2.8805
  2.8831   2.9046   2.9081   2.9256   2.9439   2.9587   2.9613   2.9692
  2.9741   2.9918   2.9981   3.0168   3.0411   3.0451   3.0468   3.0573
  3.0729   3.0799   3.0945   3.1057   3.1151   3.1375   3.1473   3.1577
  3.1671   3.1726   3.1789   3.1935   3.2007   3.2147   3.2285   3.2392
  3.2571   3.2602   3.2631   3.2773   3.2844   3.2884   3.2967   3.3156
  3.3194   3.3273   3.3320   3.3418   3.3510   3.3645   3.3709   3.3782
  3.3815   3.3987   3.4150   3.4185   3.4294   3.4416   3.4580   3.4631
  3.4662   3.4789   3.4820   3.4907   3.5008   3.5123   3.5239   3.5306
  3.5372   3.5480   3.5562   3.5740   3.5814   3.5924   3.6005   3.6058
  3.6132   3.6222   3.6421   3.6480   3.6663   3.6692   3.6743   3.6844
  3.6983   3.7138   3.7275   3.7333   3.7376   3.7528   3.7606   3.7793
  3.7855   3.7947   3.8039   3.8273   3.8583   3.8770   3.8891   3.9357
  3.9394   3.9415   3.9506   4.0036   4.0311   4.0431   4.0589   4.0650
  4.0888   4.1037   4.1145   4.1664   4.1727   4.1935   4.2270   4.2340
  4.2468   4.2597   4.2952   4.2963   4.3098   4.3206   4.3292   4.3719
  4.3776   4.3862   4.4116   4.4258   4.4350   4.4541   4.4786   4.5068
  4.5510   4.5713   4.5833   4.5990   4.6071   4.6361   4.6475   4.6492
  4.6589   4.6753   4.7751   4.8004   4.8273   4.8403   4.8552   4.9025
  4.9208   4.9350   4.9374   4.9644   4.9727   4.9910   5.0037   5.0288
  5.0766   5.0850   5.1301   5.1597   5.1664   5.1747   5.2024   5.2092
  5.2405   5.2757   5.2856   5.3562   5.3816   5.4045   5.4145   5.4178
  5.4298   5.4697   5.5029   5.5224   5.5569   5.5752   5.6018   5.6656
  5.7246   5.7472   5.8101   5.8366   5.8908   5.9583   5.9859   6.1430
  6.2375   6.2725   6.3588   6.4975   6.6786   6.7304   6.8263   7.0316
  7.2339   7.3309  22.6353  22.6697  22.8027  22.9511  22.9847  23.0195
 23.2353  23.2761  23.4965  23.5623  23.8335  32.4926  32.8489  44.4090
 --------------------------------------------------------------
 
          Ground-State Mulliken Net Atomic Charges

     Atom                 Charge (a.u.)
  ----------------------------------------
      1 C                    -1.017168
      2 C                    -0.609184
      3 C                     0.499300
      4 C                     0.722273
      5 C                    -0.777071
      6 C                    -0.301095
      7 C                    -0.059809
      8 C                    -0.695929
      9 C                    -0.526226
     10 N                     0.185389
     11 H                     0.367852
     12 H                     0.331131
     13 H                     0.209080
     14 H                     0.356763
     15 H                     0.268870
     16 H                     0.303819
     17 H                     0.263486
     18 H                     0.267853
     19 H                     0.199241
     20 C                    -0.687509
     21 C                     0.432492
     22 O                    -0.617171
     23 N                    -0.235052
     24 H                     0.229078
     25 H                     0.173226
     26 H                     0.226333
     27 H                     0.208764
     28 H                     0.281261
  ----------------------------------------
  Sum of atomic charges =     0.000000

 -----------------------------------------------------------------
                    Cartesian Multipole Moments
 -----------------------------------------------------------------
    Charge (ESU x 10^10)
                -0.0000
    Dipole Moment (Debye)
         X      -6.3087      Y       4.2935      Z       2.5986
       Tot       8.0614
    Quadrupole Moments (Debye-Ang)
        XX     -91.1747     XY      -9.6008     YY     -60.7656
        XZ       1.6440     YZ       3.7250     ZZ     -84.8442
    Octopole Moments (Debye-Ang^2)
       XXX     -83.1715    XXY     -38.4728    XYY     -14.8697
       YYY     105.6424    XXZ      40.0145    XYZ      21.8743
       YYZ      11.6634    XZZ      -1.5441    YZZ      24.6602
       ZZZ      -1.2494
    Hexadecapole Moments (Debye-Ang^3)
      XXXX   -1804.8042   XXXY    -945.4564   XXYY    -964.0047
      XYYY    -805.1565   YYYY   -3092.6008   XXXZ     333.6147
      XXYZ     198.1573   XYYZ     141.4086   YYYZ     412.6275
      XXZZ    -375.5326   XYZZ    -253.6126   YYZZ    -644.4028
      XZZZ     335.4695   YZZZ     417.0813   ZZZZ    -543.5712
 -----------------------------------------------------------------
Archival summary:
1\1\nid00566\SP\ProcedureUnspecified\BasisUnspecified\121114\meili\MonSep2720:40:522021MonSep2720:40:522021\0\\#,ProcedureUnspecified,BasisUnspecified,\\0,1\C\N,1,1.36868\H,2,1.02334,1,124.62\C,2,1.36847,1,109.736,3,-175.26,0\H,4,1.0839,2,125.359,1,-179.031,0\C,4,1.36228,2,109.624,1,0.268247,0\C,1,1.38545,2,131.081,3,-3.70108,0\H,7,1.07883,1,120.658,2,-0.118236,0\C,7,1.38361,1,117.822,2,179.617,0\H,9,1.08113,7,119.838,1,-179.836,0\C,9,1.3954,7,121.134,1,-0.500609,0\H,11,1.07989,9,119.582,7,-177.609,0\C,11,1.37509,9,121.013,7,-0.776913,0\H,13,1.07794,11,120.875,9,-176.443,0\C,13,1.40224,11,119.21,9,1.74821,0\C,6,1.48731,4,127.795,2,-176.951,0\H,16,1.08993,6,107.933,4,-155.322,0\H,16,1.09092,6,109.144,4,-39.7662,0\H,16,1.1,6,114.754,4,84.4113,0\O,10,2.55409,9,152.632,7,11.0898,0\C,20,1.25539,10,98.7301,9,-18.7088,0\N,21,1.3165,20,123.014,10,91.9525,0\H,22,1.00814,21,121.817,20,-174.475,0\H,22,1.00962,21,117.7,20,-2.43902,0\C,21,1.50806,20,122.085,10,-89.4397,0\H,25,1.08934,21,109.068,20,3.77249,0\H,25,1.08987,21,107.623,20,120.47,0\H,25,1.1,21,112.926,20,-118.719,0\\\@

 Total job time:  112383.45s(wall), 51697.57s(cpu) 
 Mon Sep 27 20:40:53 2021

        *************************************************************
        *                                                           *
        *  Thank you very much for using Q-Chem.  Have a nice day.  *
        *                                                           *
        *************************************************************


