
Running Job 1 of 1 SSI-052GLN-069ARG-1_SMD_TZVPD.in
qchem SSI-052GLN-069ARG-1_SMD_TZVPD.in_46948.0 /tmp/qchem46948/ 0
/global/common/cori/software/qchem/5.2/exe/qcprog.exe_s SSI-052GLN-069ARG-1_SMD_TZVPD.in_46948.0 /tmp/qchem46948/
                  Welcome to Q-Chem
     A Quantum Leap Into The Future Of Chemistry


 Q-Chem 5.2, Q-Chem, Inc., Pleasanton, CA (2019)

 License issued to: National Energy Research Scientific Computing Center

 Yihan Shao,  Zhengting Gan,  E. Epifanovsky,  A. T. B. Gilbert,  M. Wormit,  
 J. Kussmann,  A. W. Lange,  A. Behn,  Jia Deng,  Xintian Feng,  D. Ghosh,  
 M. Goldey,  P. R. Horn,  L. D. Jacobson,  I. Kaliman,  T. Kus,  A. Landau,  
 Jie Liu,  E. I. Proynov,  R. M. Richard,  R. P. Steele,  E. J. Sundstrom,  
 H. L. Woodcock III,  P. M. Zimmerman,  D. Zuev,  B. Albrecht,  E. Alguire,  
 S. A. Baeppler,  D. Barton,  Z. Benda,  Y. A. Bernard,  E. J. Berquist,  
 K. B. Bravaya,  H. Burton,  D. Casanova,  Chun-Min Chang,  Yunqing Chen,  
 A. Chien,  K. D. Closser,  M. P. Coons,  S. Coriani,  S. Dasgupta,  
 A. L. Dempwolff,  M. Diedenhofen,  Hainam Do,  R. G. Edgar,  Po-Tung Fang,  
 S. Faraji,  S. Fatehi,  Qingguo Feng,  K. D. Fenk,  J. Fosso-Tande,  
 J. Gayvert,  Qinghui Ge,  A. Ghysels,  G. Gidofalvi,  J. Gomes,  
 J. Gonthier,  A. Gunina,  D. Hait,  M. W. D. Hanson-Heine,  
 P. H. P. Harbach,  A. W. Hauser,  M. F. Herbst,  J. E. Herr,  
 E. G. Hohenstein,  Z. C. Holden,  Kerwin Hui,  B. C. Huynh,  T.-C. Jagau,  
 Hyunjun Ji,  B. Kaduk,  K. Khistyaev,  Jaehoon Kim,  P. Klunzinger,  K. Koh,  
 D. Kosenkov,  L. Koulias,  T. Kowalczyk,  C. M. Krauter,  A. Kunitsa,  
 Ka Un Lao,  A. Laurent,  K. V. Lawler,  Joonho Lee,  D. Lefrancois,  
 S. Lehtola,  D. S. Levine,  Yi-Pei Li,  You-Sheng Lin,  Fenglai Liu,  
 E. Livshits,  A. Luenser,  P. Manohar,  E. Mansoor,  S. F. Manzer,  
 Shan-Ping Mao,  Yuezhi Mao,  N. Mardirossian,  A. V. Marenich,  
 T. Markovich,  L. A. Martinez-Martinez,  S. A. Maurer,  N. J. Mayhall,  
 S. C. McKenzie,  J.-M. Mewes,  P. Morgante,  A. F. Morrison,  
 J. W. Mullinax,  K. Nanda,  T. S. Nguyen-Beck,  R. Olivares-Amaya,  
 J. A. Parkhill,  Zheng Pei,  T. M. Perrine,  F. Plasser,  P. Pokhilko,  
 S. Prager,  A. Prociuk,  E. Ramos,  D. R. Rehn,  F. Rob,  M. Scheurer,  
 M. Schneider,  N. Sergueev,  S. M. Sharada,  S. Sharma,  D. W. Small,  
 T. Stauch,  T. Stein,  Yu-Chuan Su,  A. J. W. Thom,  A. Tkatchenko,  
 T. Tsuchimochi,  N. M. Tubman,  L. Vogt,  M. L. Vidal,  O. Vydrov,  
 M. A. Watson,  J. Wenzel,  M. de Wergifosse,  T. A. Wesolowski,  A. White,  
 J. Witte,  A. Yamada,  Jun Yang,  K. Yao,  S. Yeganeh,  S. R. Yost,  
 Zhi-Qiang You,  A. Zech,  Igor Ying Zhang,  Xing Zhang,  Yan Zhao,  
 Ying Zhu,  B. R. Brooks,  G. K. L. Chan,  C. J. Cramer,  M. S. Gordon,  
 W. J. Hehre,  A. Klamt,  M. W. Schmidt,  C. D. Sherrill,  D. G. Truhlar,  
 A. Aspuru-Guzik,  R. Baer,  A. T. Bell,  N. A. Besley,  Jeng-Da Chai,  
 A. E. DePrince, III,  R. A. DiStasio Jr.,  A. Dreuw,  B. D. Dunietz,  
 T. R. Furlani,  Chao-Ping Hsu,  Yousung Jung,  Jing Kong,  D. S. Lambrecht,  
 WanZhen Liang,  C. Ochsenfeld,  V. A. Rassolov,  L. V. Slipchenko,  
 J. E. Subotnik,  T. Van Voorhis,  J. M. Herbert,  A. I. Krylov,  
 P. M. W. Gill,  M. Head-Gordon

 Contributors to earlier versions of Q-Chem not listed above: 
 R. D. Adamson,  B. Austin,  J. Baker,  G. J. O. Beran,  K. Brandhorst,  
 S. T. Brown,  E. F. C. Byrd,  A. K. Chakraborty,  C.-L. Cheng,  
 Siu Hung Chien,  D. M. Chipman,  D. L. Crittenden,  H. Dachsel,  
 R. J. Doerksen,  A. D. Dutoi,  L. Fusti-Molnar,  W. A. Goddard III,  
 A. Golubeva-Zadorozhnaya,  S. R. Gwaltney,  G. Hawkins,  A. Heyden,  
 S. Hirata,  G. Kedziora,  F. J. Keil,  C. Kelley,  Jihan Kim,  R. A. King,  
 R. Z. Khaliullin,  P. P. Korambath,  W. Kurlancheek,  A. M. Lee,  M. S. Lee,  
 S. V. Levchenko,  Ching Yeh Lin,  D. Liotard,  R. C. Lochan,  I. Lotan,  
 P. E. Maslen,  N. Nair,  D. P. O'Neill,  D. Neuhauser,  E. Neuscamman,  
 C. M. Oana,  R. Olson,  B. Peters,  R. Peverati,  P. A. Pieniazek,  
 Y. M. Rhee,  J. Ritchie,  M. A. Rohrdanz,  E. Rosta,  N. J. Russ,  
 H. F. Schaefer III,  N. E. Schultz,  N. Shenvi,  A. C. Simmonett,  A. Sodt,  
 D. Stuck,  K. S. Thanthiriwatte,  V. Vanovschi,  Tao Wang,  A. Warshel,  
 C. F. Williams,  Q. Wu,  X. Xu,  W. Zhang

 Please cite Q-Chem as follows:
 Y. Shao et al., Mol. Phys. 113, 184-215 (2015)
 DOI: 10.1080/00268976.2014.952696

 Q-Chem 5.2.0 for Intel X86 EM64T Linux

 Parts of Q-Chem use Armadillo 8.300.2 (Tropical Shenanigans).
 http://arma.sourceforge.net/

 Q-Chem begins on Sun Sep 26 08:24:24 2021  

Host: cori01
0

     Scratch files written to /tmp/qchem46948//
 May1019 |scratch|qcdevops|jenkins|workspace|build_RNUM -1
Processing $rem in /global/common/cori/software/qchem/5.2/config/preferences:
	 MEM_TOTAL  96000 
NAlpha2: 72
NElect   72
Mult     1
Symmetry turned off for PCM/SM12/SMD calculation

 Q-Chem warning in module libgen/rem_setup.C, line 2803:

 Neither GIA nor STOLL is specified by user. Use STOLL as the default


Checking the input file for inconsistencies... 	...done.

--------------------------------------------------------------
User input:
--------------------------------------------------------------
$comment
SSI-052GLN-069ARG-1.pdb
$end

$molecule
1 1
--
0 1
C   -1.783364264633   -1.528014977346   -2.205896334566
C   -1.382364264633   -0.123014977346   -2.359896334566
O   -0.568364264633    0.475985022654   -1.664896334566
N   -1.903364264633    0.637985022654   -3.158896334566
H   -2.791364264633   -1.678014977346   -2.594896334566
H   -1.771364264633   -1.757014977346   -1.144896334566
H   -1.581364264633    1.591985022654   -3.162896334566
H   -2.624364264633    0.318985022654   -3.788896334566
H   -1.063711264633   -2.156454977346   -2.751023334566
--
1 1
C    3.017635735367    0.694985022654    2.040103665434
C    0.668635735367   -0.043014977346    1.840103665434
N   -0.174364264633   -0.877014977346    1.247103665434
N    1.946635735367   -0.160014977346    1.549103665434
N    0.229635735367    0.845985022654    2.710103665434
H    0.219635735367   -1.606014977346    0.646103665434
H   -1.164364264633   -0.892014977346    1.425103665434
H    2.198635735367   -0.863014977346    0.852103665434
H    0.879635735367    1.432985022654    3.219103665434
H   -0.758364264633    0.966985022654    2.849103665434
H    2.634635735367    1.698985022654    2.224103665434
H    3.772635735367    0.781985022654    1.256103665434
H    3.502865735367    0.292085022654    2.941341665434
$end

$rem
JOBTYPE			EDA
EDA2			1
method			wB97X-V
BASIS			def2-TZVPD
XC_GRID			000099000590
NL_GRID			1
UNRESTRICTED		FALSE
MAX_SCF_CYCLES		200
SYMMETRY		FALSE
SYM_IGNORE		TRUE
MEM_STATIC		2000
BASIS_LIN_DEP_THRESH 	6
THRESH 			14
SCF_CONVERGENCE 	8
SCF_PRINT_FRGM 		TRUE
SOLVENT_METHOD          SMD
$end

$SMX
SOLVENT			WATER
$END
--------------------------------------------------------------
 ----------------------------------------------------------------
             Standard Nuclear Orientation (Angstroms)
    I     Atom           X                Y                Z
 ----------------------------------------------------------------
    1      C      -1.7833642646    -1.5280149773    -2.2058963346
    2      C      -1.3823642646    -0.1230149773    -2.3598963346
    3      O      -0.5683642646     0.4759850227    -1.6648963346
    4      N      -1.9033642646     0.6379850227    -3.1588963346
    5      H      -2.7913642646    -1.6780149773    -2.5948963346
    6      H      -1.7713642646    -1.7570149773    -1.1448963346
    7      H      -1.5813642646     1.5919850227    -3.1628963346
    8      H      -2.6243642646     0.3189850227    -3.7888963346
    9      H      -1.0637112646    -2.1564549773    -2.7510233346
   10      C       3.0176357354     0.6949850227     2.0401036654
   11      C       0.6686357354    -0.0430149773     1.8401036654
   12      N      -0.1743642646    -0.8770149773     1.2471036654
   13      N       1.9466357354    -0.1600149773     1.5491036654
   14      N       0.2296357354     0.8459850227     2.7101036654
   15      H       0.2196357354    -1.6060149773     0.6461036654
   16      H      -1.1643642646    -0.8920149773     1.4251036654
   17      H       2.1986357354    -0.8630149773     0.8521036654
   18      H       0.8796357354     1.4329850227     3.2191036654
   19      H      -0.7583642646     0.9669850227     2.8491036654
   20      H       2.6346357354     1.6989850227     2.2241036654
   21      H       3.7726357354     0.7819850227     1.2561036654
   22      H       3.5028657354     0.2920850227     2.9413416654
 ----------------------------------------------------------------
 Nuclear Repulsion Energy =         458.85803597 hartrees
 There are       36 alpha and       36 beta electrons
 Requested basis set is def2-TZVPD
 There are 183 shells and 453 basis functions

 Total QAlloc Memory Limit  96000 MB
 Mega-Array Size      1956 MB
 MEM_STATIC part      2000 MB
 
 Citation of the SMD model:
 Marenich, A.V.; Cramer, C.J.; Truhlar, D.G.
 J. Phys. Chem. B 2009, 113, 6378-6396.
 iSolventCode=           1
 Solvent: water                                                           
 
 vradii
            1           2           3           4           5           6
    1   1.8500000   1.8500000   1.5200000   1.8900000   1.2000000   1.2000000
            7           8           9          10          11          12
    1   1.2000000   1.2000000   1.2000000   1.8500000   1.8500000   1.8900000
           13          14          15          16          17          18
    1   1.8900000   1.8900000   1.2000000   1.2000000   1.2000000   1.2000000
           19          20          21          22
    1   1.2000000   1.2000000   1.2000000   1.2000000
 Changing PCM_VDW_RADII to SMD_RADIUS
 Discretize the solute cavity surface with Lebedev spheres
	Using 110 Lebedev grid points for each H atom
	Using 194 Lebedev grid points for other atoms
	Atomic van der Waals radii will be scaled by 1.20
 Remove points where switching function is < 1.0e-08
 Keep 1618 surface tesserae and discard 1558 interior tesserae
 Molecular Surface Area = 199.094 Angst**2
 A cutoff of  1.0D-14 yielded  14591 shell pairs
 There are     89547 function pairs (    111415 Cartesian)
 Smallest overlap matrix eigenvalue = 5.81E-06

 Scale SEOQF with 1.000000e-01/1.000000e-01/1.000000e-01

 Standard Electronic Orientation quadrupole field applied
 Nucleus-field energy     =    -0.0000000268 hartrees

 -----------------------------------------------------------------------
  General SCF calculation program by
  Eric Jon Sundstrom, Paul Horn, Yuezhi Mao, Dmitri Zuev, Alec White,
  David Stuck, Shaama M.S., Shane Yost, Joonho Lee, David Small,
  Daniel Levine, Susi Lehtola, Hugh Burton, Evgeny Epifanovsky
 -----------------------------------------------------------------------
================================================================
                 ALMO-EDA with the EDA2 driver                  
================================================================
 The second-generation ALMO-EDA (for DFT):                      
 P. R. Horn, Y. Mao and M. Head-Gordon, PCCP, 18, 23067 (2016)  
 Decomposition of the frozen energy:                            
 P. R. Horn, Y. Mao and M. Head-Gordon, JCP, 144, 114107 (2016) 
 FERF model for polarization:                                   
 P. R. Horn and M. Head-Gordon, JCP, 143, 114111 (2015)         
Using eda2 option set 1
Option set summary: Frozen orbital wavefunction, initial wavefunction decomposition, and nDQ polarization.
--------------------------------
Printing EDA Options
--------------------------------
eda_child_super_basis      0
fragmo_guess_mode          0
child_mp                   1
child_mp_orders            232
cls_elec                   1
cls_disp                   0
scfmi_mode                 1
scfmi_occs                 0
scfmi_virts                0
frz_relax                  0
frz_relax_method           0
dc_pen_start               0
dc_pen_conv                0
dc_pen_increment           0
dc_pen_steps               0
dc_pen_thresh_factor       0
dc_pen_pre_newton_thresh   0
frz_ortho_decomp           1
frz_ortho_decomp_conv      6
frgm_method                2
scfmi_freeze_ss            0
separate_rehyb             0
plot_diff_den              0
eda_nocv                   0
eda_vct_relax              1
disp_free_x                0
disp_free_c                0
eda_bsse                   0
eda_pct_a                  0
eda_covp                   0
--------------------------------
Attempting to make child job directory: /tmp/qchem46948//Frg1/
Attempting to make child job directory: /tmp/qchem46948//Frg2/
Creating input file /tmp/qchem46948/Frg1.input
using default PutDataFrgm: nothing
calling putenv with: QCSCRATCH=/tmp/qchem46948/ 
calling putenv with: QCLOCALSCR=/tmp/qchem46948/ 
Spawning Job For Fragment 0
                  Welcome to Q-Chem
     A Quantum Leap Into The Future Of Chemistry


 Q-Chem 5.2, Q-Chem, Inc., Pleasanton, CA (2019)

 License issued to: National Energy Research Scientific Computing Center

 Yihan Shao,  Zhengting Gan,  E. Epifanovsky,  A. T. B. Gilbert,  M. Wormit,  
 J. Kussmann,  A. W. Lange,  A. Behn,  Jia Deng,  Xintian Feng,  D. Ghosh,  
 M. Goldey,  P. R. Horn,  L. D. Jacobson,  I. Kaliman,  T. Kus,  A. Landau,  
 Jie Liu,  E. I. Proynov,  R. M. Richard,  R. P. Steele,  E. J. Sundstrom,  
 H. L. Woodcock III,  P. M. Zimmerman,  D. Zuev,  B. Albrecht,  E. Alguire,  
 S. A. Baeppler,  D. Barton,  Z. Benda,  Y. A. Bernard,  E. J. Berquist,  
 K. B. Bravaya,  H. Burton,  D. Casanova,  Chun-Min Chang,  Yunqing Chen,  
 A. Chien,  K. D. Closser,  M. P. Coons,  S. Coriani,  S. Dasgupta,  
 A. L. Dempwolff,  M. Diedenhofen,  Hainam Do,  R. G. Edgar,  Po-Tung Fang,  
 S. Faraji,  S. Fatehi,  Qingguo Feng,  K. D. Fenk,  J. Fosso-Tande,  
 J. Gayvert,  Qinghui Ge,  A. Ghysels,  G. Gidofalvi,  J. Gomes,  
 J. Gonthier,  A. Gunina,  D. Hait,  M. W. D. Hanson-Heine,  
 P. H. P. Harbach,  A. W. Hauser,  M. F. Herbst,  J. E. Herr,  
 E. G. Hohenstein,  Z. C. Holden,  Kerwin Hui,  B. C. Huynh,  T.-C. Jagau,  
 Hyunjun Ji,  B. Kaduk,  K. Khistyaev,  Jaehoon Kim,  P. Klunzinger,  K. Koh,  
 D. Kosenkov,  L. Koulias,  T. Kowalczyk,  C. M. Krauter,  A. Kunitsa,  
 Ka Un Lao,  A. Laurent,  K. V. Lawler,  Joonho Lee,  D. Lefrancois,  
 S. Lehtola,  D. S. Levine,  Yi-Pei Li,  You-Sheng Lin,  Fenglai Liu,  
 E. Livshits,  A. Luenser,  P. Manohar,  E. Mansoor,  S. F. Manzer,  
 Shan-Ping Mao,  Yuezhi Mao,  N. Mardirossian,  A. V. Marenich,  
 T. Markovich,  L. A. Martinez-Martinez,  S. A. Maurer,  N. J. Mayhall,  
 S. C. McKenzie,  J.-M. Mewes,  P. Morgante,  A. F. Morrison,  
 J. W. Mullinax,  K. Nanda,  T. S. Nguyen-Beck,  R. Olivares-Amaya,  
 J. A. Parkhill,  Zheng Pei,  T. M. Perrine,  F. Plasser,  P. Pokhilko,  
 S. Prager,  A. Prociuk,  E. Ramos,  D. R. Rehn,  F. Rob,  M. Scheurer,  
 M. Schneider,  N. Sergueev,  S. M. Sharada,  S. Sharma,  D. W. Small,  
 T. Stauch,  T. Stein,  Yu-Chuan Su,  A. J. W. Thom,  A. Tkatchenko,  
 T. Tsuchimochi,  N. M. Tubman,  L. Vogt,  M. L. Vidal,  O. Vydrov,  
 M. A. Watson,  J. Wenzel,  M. de Wergifosse,  T. A. Wesolowski,  A. White,  
 J. Witte,  A. Yamada,  Jun Yang,  K. Yao,  S. Yeganeh,  S. R. Yost,  
 Zhi-Qiang You,  A. Zech,  Igor Ying Zhang,  Xing Zhang,  Yan Zhao,  
 Ying Zhu,  B. R. Brooks,  G. K. L. Chan,  C. J. Cramer,  M. S. Gordon,  
 W. J. Hehre,  A. Klamt,  M. W. Schmidt,  C. D. Sherrill,  D. G. Truhlar,  
 A. Aspuru-Guzik,  R. Baer,  A. T. Bell,  N. A. Besley,  Jeng-Da Chai,  
 A. E. DePrince, III,  R. A. DiStasio Jr.,  A. Dreuw,  B. D. Dunietz,  
 T. R. Furlani,  Chao-Ping Hsu,  Yousung Jung,  Jing Kong,  D. S. Lambrecht,  
 WanZhen Liang,  C. Ochsenfeld,  V. A. Rassolov,  L. V. Slipchenko,  
 J. E. Subotnik,  T. Van Voorhis,  J. M. Herbert,  A. I. Krylov,  
 P. M. W. Gill,  M. Head-Gordon

 Contributors to earlier versions of Q-Chem not listed above: 
 R. D. Adamson,  B. Austin,  J. Baker,  G. J. O. Beran,  K. Brandhorst,  
 S. T. Brown,  E. F. C. Byrd,  A. K. Chakraborty,  C.-L. Cheng,  
 Siu Hung Chien,  D. M. Chipman,  D. L. Crittenden,  H. Dachsel,  
 R. J. Doerksen,  A. D. Dutoi,  L. Fusti-Molnar,  W. A. Goddard III,  
 A. Golubeva-Zadorozhnaya,  S. R. Gwaltney,  G. Hawkins,  A. Heyden,  
 S. Hirata,  G. Kedziora,  F. J. Keil,  C. Kelley,  Jihan Kim,  R. A. King,  
 R. Z. Khaliullin,  P. P. Korambath,  W. Kurlancheek,  A. M. Lee,  M. S. Lee,  
 S. V. Levchenko,  Ching Yeh Lin,  D. Liotard,  R. C. Lochan,  I. Lotan,  
 P. E. Maslen,  N. Nair,  D. P. O'Neill,  D. Neuhauser,  E. Neuscamman,  
 C. M. Oana,  R. Olson,  B. Peters,  R. Peverati,  P. A. Pieniazek,  
 Y. M. Rhee,  J. Ritchie,  M. A. Rohrdanz,  E. Rosta,  N. J. Russ,  
 H. F. Schaefer III,  N. E. Schultz,  N. Shenvi,  A. C. Simmonett,  A. Sodt,  
 D. Stuck,  K. S. Thanthiriwatte,  V. Vanovschi,  Tao Wang,  A. Warshel,  
 C. F. Williams,  Q. Wu,  X. Xu,  W. Zhang

 Please cite Q-Chem as follows:
 Y. Shao et al., Mol. Phys. 113, 184-215 (2015)
 DOI: 10.1080/00268976.2014.952696

 Q-Chem 5.2.0 for Intel X86 EM64T Linux

 Parts of Q-Chem use Armadillo 8.300.2 (Tropical Shenanigans).
 http://arma.sourceforge.net/

 Q-Chem begins on Sun Sep 26 08:24:28 2021  

Host: cori01
0

     Scratch files written to /tmp/qchem46948//Frg1//
 May1019 |scratch|qcdevops|jenkins|workspace|build_RNUM -1
Processing $rem in /global/common/cori/software/qchem/5.2/config/preferences:
	 MEM_TOTAL  96000 
NAlpha2: 32
NElect   32
Mult     1
Symmetry turned off for PCM/SM12/SMD calculation

Checking the input file for inconsistencies... 	...done.

--------------------------------------------------------------
User input:
--------------------------------------------------------------
$molecule
0 1
 6	-1.7833642646	-1.5280149773	-2.2058963346
 6	-1.3823642646	-0.1230149773	-2.3598963346
 8	-0.5683642646	0.4759850227	-1.6648963346
 7	-1.9033642646	0.6379850227	-3.1588963346
 1	-2.7913642646	-1.6780149773	-2.5948963346
 1	-1.7713642646	-1.7570149773	-1.1448963346
 1	-1.5813642646	1.5919850227	-3.1628963346
 1	-2.6243642646	0.3189850227	-3.7888963346
 1	-1.0637112646	-2.1564549773	-2.7510233346
$end
$rem
EDA2		1
METHOD		WB97X-V
BASIS		DEF2-TZVPD
XC_GRID		000099000590
NL_GRID		1
UNRESTRICTED		FALSE
MAX_SCF_CYCLES		200
SYMMETRY		FALSE
SYM_IGNORE		TRUE
BASIS_LIN_DEP_THRESH		6
THRESH		14
SCF_CONVERGENCE		8
SCF_PRINT_FRGM		TRUE
SOLVENT_METHOD		SMD
!required keywords
JOBTYPE		SP
SYM_IGNORE		TRUE
SUBSYSTEM		TRUE
GEN_SCFMAN		TRUE
CHILD_INSTRUCTION		2
SYM_IGNORE		TRUE
SCFMI		0
RI_K 0		
PARI_K 0		
MIN_PARI_K 0		
IARI_K 0		
OCC_RI_K 0		
PURECART		1111
MEM_STATIC		2000
MEM_TOTAL		96000
GUI		0
CHILD_MP		1
CHILD_MP_ORDERS		232
FRZ_RELAX		0
FRZ_RELAX_METHOD		0
EDA_CLS_ELEC		1
EDA_CLS_DISP		0
FRZ_ORTHO_DECOMP		1
EDA2		FALSE
FRGM_METHOD		FALSE
CIS_N_ROOTS  0
LOCAL_CIS    0
CIS_RLX_DNS  1
$end
$smx
SOLVENT			WATER
$end
--------------------------------------------------------------
 ----------------------------------------------------------------
             Standard Nuclear Orientation (Angstroms)
    I     Atom           X                Y                Z
 ----------------------------------------------------------------
    1      C      -1.7833642646    -1.5280149773    -2.2058963346
    2      C      -1.3823642646    -0.1230149773    -2.3598963346
    3      O      -0.5683642646     0.4759850227    -1.6648963346
    4      N      -1.9033642646     0.6379850227    -3.1588963346
    5      H      -2.7913642646    -1.6780149773    -2.5948963346
    6      H      -1.7713642646    -1.7570149773    -1.1448963346
    7      H      -1.5813642646     1.5919850227    -3.1628963346
    8      H      -2.6243642646     0.3189850227    -3.7888963346
    9      H      -1.0637112646    -2.1564549773    -2.7510233346
 ----------------------------------------------------------------
 Nuclear Repulsion Energy =         126.58896774 hartrees
 There are       16 alpha and       16 beta electrons
 Requested basis set is def2-TZVPD
 There are 78 shells and 196 basis functions

 Total QAlloc Memory Limit  96000 MB
 Mega-Array Size      1956 MB
 MEM_STATIC part      2000 MB
 
 Citation of the SMD model:
 Marenich, A.V.; Cramer, C.J.; Truhlar, D.G.
 J. Phys. Chem. B 2009, 113, 6378-6396.
 iSolventCode=           1
 Solvent: water                                                           
 
 vradii
            1           2           3           4           5           6
    1   1.8500000   1.8500000   1.5200000   1.8900000   1.2000000   1.2000000
            7           8           9
    1   1.2000000   1.2000000   1.2000000
 Changing PCM_VDW_RADII to SMD_RADIUS
 Discretize the solute cavity surface with Lebedev spheres
	Using 110 Lebedev grid points for each H atom
	Using 194 Lebedev grid points for other atoms
	Atomic van der Waals radii will be scaled by 1.20
 Remove points where switching function is < 1.0e-08
 Keep 712 surface tesserae and discard 614 interior tesserae
 Molecular Surface Area = 88.103 Angst**2

                       Distance Matrix (Angstroms)
             C (  1)   C (  2)   O (  3)   N (  4)   H (  5)   H (  6)
   C (  2)  1.469198
   O (  3)  2.405186  1.226549
   N (  4)  2.369423  1.220231  2.010101
   H (  5)  1.090819  2.111523  3.232081  2.543717
   H (  6)  1.085498  2.073042  2.589189  3.132035  1.774582
   H (  7)  3.269718  1.904110  2.125001  1.006884  3.532651  3.914617
   H (  8)  2.573826  1.944214  2.960264  1.009209  2.332710  3.468158
   H (  9)  1.100000  2.095089  2.890464  2.946230  1.799463  1.799991
             H (  7)   H (  8)
   H (  8)  1.760754
   H (  9)  3.806364  3.104935
 
 A cutoff of  1.0D-14 yielded   3060 shell pairs
 There are     19554 function pairs (     24713 Cartesian)
 Smallest overlap matrix eigenvalue = 7.76E-06

 Scale SEOQF with 1.000000e-01/1.000000e-01/1.000000e-01

 Standard Electronic Orientation quadrupole field applied
 Nucleus-field energy     =    -0.0000000157 hartrees
 Guess from superposition of atomic densities
 Warning:  Energy on first SCF cycle will be non-variational
 SAD guess density has 31.604610 electrons

 -----------------------------------------------------------------------
  General SCF calculation program by
  Eric Jon Sundstrom, Paul Horn, Yuezhi Mao, Dmitri Zuev, Alec White,
  David Stuck, Shaama M.S., Shane Yost, Joonho Lee, David Small,
  Daniel Levine, Susi Lehtola, Hugh Burton, Evgeny Epifanovsky
 -----------------------------------------------------------------------
 Exchange:     0.1670 Hartree-Fock + 1.0000 wB97X-V + LR-HF
 Correlation:  1.0000 wB97X-V
 Using Euler-Maclaurin-Lebedev (99,590) quadrature formula
 Nonlocal Correlation:  VV10 with C = 0.0100 and b = 6.00 and scale = 1.00000
 Grid used for NLC:  SG-1 standard quadrature
Energy prior to optimization (guess energy) = -208.646699425511
Begin Timing: Total SCF Calculation
begin iterations for algorithm: DIIS         
the SCF tolerance is set to 1.00e-08
    1    -208.6466994255      1.28e-02     00000 
    2    -207.9857215163      1.69e-02     00000 
    3    -209.1965610122      2.86e-03     00000 
    4    -209.2229658672      1.01e-03     00000 
    5    -209.2277733231      1.95e-04     00000 
    6    -209.2280994446      6.62e-05     00000 
    7    -209.2281441056      2.30e-05     00000 
    8    -209.2281501956      6.99e-06     00000 
    9    -209.2281512010      2.54e-06     00000 
   10    -209.2281512787      4.58e-07     00000 
   11    -209.2281512816      1.57e-07     00000 
   12    -209.2281512818      4.03e-08     00000 
   13    -209.2281512818      8.72e-09     00000 Convergence criterion met
Timing for Total SCF: 341.00s (wall), 674.12s (cpu)
(3)  G-ENP(liq) elect-nuc-pol free energy of system     -209.228151282 a.u.
(4)  G-CDS(liq) cavity-dispersion-solvent structure 
     free energy                                                3.6987 kcal/mol
(6)  G-S(liq) free energy of system                     -209.222257106 a.u.
E_pcm = -0.0340198506
E_cds = 0.0058941763
Multipole orders to be included
        2
        3
computing dipole RHS
computing quadrupole RHS
total number of RHS in solve_reponses: 8
RHS batch sizes
        8
Beginning Block Conjugate Gradient Iterations. Batch Number: 0
computing hessian-vector products by finite difference
              1      5.63e-01     00000 Conjugate Gradient Iteration
computing hessian-vector products by finite difference
              2      1.78e-01     00000 Conjugate Gradient Iteration
computing hessian-vector products by finite difference
              3      4.93e-02     00000 Conjugate Gradient Iteration
computing hessian-vector products by finite difference
              4      1.25e-02     00000 Conjugate Gradient Iteration
computing hessian-vector products by finite difference
              5      1.70e-03     00000 Conjugate Gradient Iteration
computing hessian-vector products by finite difference
              6      3.51e-04     00000 Conjugate Gradient Iteration
computing hessian-vector products by finite difference
              7      4.96e-05     00000 Conjugate Gradient Iteration
computing hessian-vector products by finite difference
              8      5.51e-06     00000 Conjugate Gradient Iteration
computing hessian-vector products by finite difference
              9      7.13e-07     00000 Conjugate Gradient Iteration
computing hessian-vector products by finite difference
             10      9.13e-08     00000 Conjugate Gradient Iteration
computing hessian-vector products by finite difference
             11      1.00e-08     00000 Conjugate Gradient Iteration
computing hessian-vector products by finite difference
             12      4.51e-09     00000 CG Converged
batch 0 complete
Done Calculating Responses
TESTING ORTHOGONALIZATION OF MULTIPOLE BASIS
Multipole virts passed orthogonality test
Virts Per Order
        48
        80
 
 --------------------------------------------------------------
 
                    Orbital Energies (a.u.)
 --------------------------------------------------------------
 
 Alpha MOs
 -- Occupied --
-19.1595 -14.4181 -10.3538 -10.2631  -1.1949  -1.0443  -0.8775  -0.7160
 -0.6642  -0.5894  -0.5803  -0.5105  -0.5002  -0.4861  -0.3738  -0.3655
 -- Virtual --
  0.0655   0.0967   0.1006   0.1062   0.1321   0.1373   0.1431   0.1518
  0.1809   0.1849   0.2010   0.2183   0.2314   0.2502   0.2570   0.2682
  0.2713   0.2781   0.3032   0.3231   0.3364   0.3397   0.3471   0.3530
  0.3621   0.3628   0.3836   0.3875   0.3964   0.4112   0.4183   0.4291
  0.4387   0.4547   0.4652   0.4763   0.4789   0.5011   0.5048   0.5104
  0.5251   0.5400   0.5775   0.5880   0.5965   0.6138   0.6247   0.6380
  0.6490   0.6579   0.6767   0.7028   0.7143   0.7332   0.7365   0.7647
  0.7797   0.8017   0.8044   0.8212   0.8397   0.8519   0.8844   0.8904
  0.9177   0.9763   0.9883   1.0014   1.0112   1.0240   1.0858   1.0913
  1.1217   1.1877   1.2390   1.2595   1.2892   1.3311   1.3446   1.3946
  1.4933   1.5156   1.5427   1.6717   1.7199   1.7495   1.7844   1.8029
  1.8294   1.8943   1.9077   1.9328   1.9577   1.9692   1.9788   2.0426
  2.0879   2.1078   2.1474   2.1896   2.2014   2.2362   2.3500   2.4023
  2.4186   2.4210   2.4753   2.5009   2.5601   2.5771   2.5835   2.6641
  2.6930   2.7405   2.8095   2.8291   2.8543   2.9346   3.0079   3.0318
  3.0823   3.1219   3.1737   3.2141   3.2225   3.2465   3.2652   3.3120
  3.3253   3.3457   3.4358   3.4478   3.4949   3.5673   3.5914   3.6181
  3.6543   3.6701   3.7894   3.8559   3.9263   3.9419   4.0474   4.1224
  4.1612   4.2700   4.2854   4.4535   4.5412   4.6257   4.6663   4.7462
  4.8813   4.9037   4.9145   5.0201   5.1662   5.2730   5.2898   5.4038
  5.5095   5.5271   5.5677   5.5890   5.6468   5.8137   5.9852   6.2288
  6.3027   6.6053   6.6610   6.7843   6.8846   6.9945   7.2709   7.3501
 22.6210  23.8987  32.5325  44.3558
 --------------------------------------------------------------
 
          Ground-State Mulliken Net Atomic Charges

     Atom                 Charge (a.u.)
  ----------------------------------------
      1 C                    -0.622325
      2 C                     0.478186
      3 O                    -0.787599
      4 N                    -0.240860
      5 H                     0.251836
      6 H                     0.233399
      7 H                     0.243074
      8 H                     0.221364
      9 H                     0.222926
  ----------------------------------------
  Sum of atomic charges =     0.000000

 -----------------------------------------------------------------
                    Cartesian Multipole Moments
 -----------------------------------------------------------------
    Charge (ESU x 10^10)
                -0.0000
    Dipole Moment (Debye)
         X      -4.3752      Y      -1.5064      Z      -4.1456
       Tot       6.2127
    Quadrupole Moments (Debye-Ang)
        XX     -13.4764     XY       0.7671     YY     -20.5157
        XZ      15.4840     YZ       0.7118     ZZ      -4.6673
    Octopole Moments (Debye-Ang^2)
       XXX      78.8742    XXY       3.2174    XYY      28.6086
       YYY      17.3558    XXZ      19.1937    XYZ       2.1882
       YYZ      44.4553    XZZ     -19.8086    YZZ       9.4861
       ZZZ      97.4883
    Hexadecapole Moments (Debye-Ang^3)
      XXXX    -312.7423   XXXY     -28.2534   XXYY     -81.2422
      XYYY     -42.4252   YYYY    -158.5309   XXXZ    -169.1036
      XXYZ     -10.0108   XYYZ     -69.5944   YYYZ     -35.7109
      XXZZ     -72.4885   XYZZ     -27.4012   YYZZ    -134.0047
      XZZZ     -70.6004   YZZZ     -53.2289   ZZZZ    -624.0605
 -----------------------------------------------------------------
Archival summary:
1\1\nid00504\SP\ProcedureUnspecified\BasisUnspecified\1125\meili\SunSep2610:01:252021SunSep2610:01:252021\0\\#,ProcedureUnspecified,BasisUnspecified,\\0,1\C\N,1,1.22023\H,2,1.00688,1,117.191\H,2,1.00921,1,121.109,3,179.826,0\O,1,1.22655,2,110.476,3,2.42397,0\C,1,1.4692,2,123.264,3,177.681,0\H,6,1.0855,1,107.529,2,-140.036,0\H,6,1.09082,1,110.264,2,-21.0069,0\H,6,1.1,1,108.411,2,100.01,0\\\@

 Total job time:  5817.15s(wall), 11478.80s(cpu) 
 Sun Sep 26 10:01:25 2021

        *************************************************************
        *                                                           *
        *  Thank you very much for using Q-Chem.  Have a nice day.  *
        *                                                           *
        *************************************************************


Done Job For Fragment 0
calling putenv with: QCSCRATCH=/global/cscratch1/sd/meili 
calling putenv with: QCLOCALSCR=/tmp 
calling putenv with: QCTHREADS=32 
Creating input file /tmp/qchem46948/Frg2.input
using default PutDataFrgm: nothing
calling putenv with: QCSCRATCH=/tmp/qchem46948/ 
calling putenv with: QCLOCALSCR=/tmp/qchem46948/ 
Spawning Job For Fragment 1
                  Welcome to Q-Chem
     A Quantum Leap Into The Future Of Chemistry


 Q-Chem 5.2, Q-Chem, Inc., Pleasanton, CA (2019)

 License issued to: National Energy Research Scientific Computing Center

 Yihan Shao,  Zhengting Gan,  E. Epifanovsky,  A. T. B. Gilbert,  M. Wormit,  
 J. Kussmann,  A. W. Lange,  A. Behn,  Jia Deng,  Xintian Feng,  D. Ghosh,  
 M. Goldey,  P. R. Horn,  L. D. Jacobson,  I. Kaliman,  T. Kus,  A. Landau,  
 Jie Liu,  E. I. Proynov,  R. M. Richard,  R. P. Steele,  E. J. Sundstrom,  
 H. L. Woodcock III,  P. M. Zimmerman,  D. Zuev,  B. Albrecht,  E. Alguire,  
 S. A. Baeppler,  D. Barton,  Z. Benda,  Y. A. Bernard,  E. J. Berquist,  
 K. B. Bravaya,  H. Burton,  D. Casanova,  Chun-Min Chang,  Yunqing Chen,  
 A. Chien,  K. D. Closser,  M. P. Coons,  S. Coriani,  S. Dasgupta,  
 A. L. Dempwolff,  M. Diedenhofen,  Hainam Do,  R. G. Edgar,  Po-Tung Fang,  
 S. Faraji,  S. Fatehi,  Qingguo Feng,  K. D. Fenk,  J. Fosso-Tande,  
 J. Gayvert,  Qinghui Ge,  A. Ghysels,  G. Gidofalvi,  J. Gomes,  
 J. Gonthier,  A. Gunina,  D. Hait,  M. W. D. Hanson-Heine,  
 P. H. P. Harbach,  A. W. Hauser,  M. F. Herbst,  J. E. Herr,  
 E. G. Hohenstein,  Z. C. Holden,  Kerwin Hui,  B. C. Huynh,  T.-C. Jagau,  
 Hyunjun Ji,  B. Kaduk,  K. Khistyaev,  Jaehoon Kim,  P. Klunzinger,  K. Koh,  
 D. Kosenkov,  L. Koulias,  T. Kowalczyk,  C. M. Krauter,  A. Kunitsa,  
 Ka Un Lao,  A. Laurent,  K. V. Lawler,  Joonho Lee,  D. Lefrancois,  
 S. Lehtola,  D. S. Levine,  Yi-Pei Li,  You-Sheng Lin,  Fenglai Liu,  
 E. Livshits,  A. Luenser,  P. Manohar,  E. Mansoor,  S. F. Manzer,  
 Shan-Ping Mao,  Yuezhi Mao,  N. Mardirossian,  A. V. Marenich,  
 T. Markovich,  L. A. Martinez-Martinez,  S. A. Maurer,  N. J. Mayhall,  
 S. C. McKenzie,  J.-M. Mewes,  P. Morgante,  A. F. Morrison,  
 J. W. Mullinax,  K. Nanda,  T. S. Nguyen-Beck,  R. Olivares-Amaya,  
 J. A. Parkhill,  Zheng Pei,  T. M. Perrine,  F. Plasser,  P. Pokhilko,  
 S. Prager,  A. Prociuk,  E. Ramos,  D. R. Rehn,  F. Rob,  M. Scheurer,  
 M. Schneider,  N. Sergueev,  S. M. Sharada,  S. Sharma,  D. W. Small,  
 T. Stauch,  T. Stein,  Yu-Chuan Su,  A. J. W. Thom,  A. Tkatchenko,  
 T. Tsuchimochi,  N. M. Tubman,  L. Vogt,  M. L. Vidal,  O. Vydrov,  
 M. A. Watson,  J. Wenzel,  M. de Wergifosse,  T. A. Wesolowski,  A. White,  
 J. Witte,  A. Yamada,  Jun Yang,  K. Yao,  S. Yeganeh,  S. R. Yost,  
 Zhi-Qiang You,  A. Zech,  Igor Ying Zhang,  Xing Zhang,  Yan Zhao,  
 Ying Zhu,  B. R. Brooks,  G. K. L. Chan,  C. J. Cramer,  M. S. Gordon,  
 W. J. Hehre,  A. Klamt,  M. W. Schmidt,  C. D. Sherrill,  D. G. Truhlar,  
 A. Aspuru-Guzik,  R. Baer,  A. T. Bell,  N. A. Besley,  Jeng-Da Chai,  
 A. E. DePrince, III,  R. A. DiStasio Jr.,  A. Dreuw,  B. D. Dunietz,  
 T. R. Furlani,  Chao-Ping Hsu,  Yousung Jung,  Jing Kong,  D. S. Lambrecht,  
 WanZhen Liang,  C. Ochsenfeld,  V. A. Rassolov,  L. V. Slipchenko,  
 J. E. Subotnik,  T. Van Voorhis,  J. M. Herbert,  A. I. Krylov,  
 P. M. W. Gill,  M. Head-Gordon

 Contributors to earlier versions of Q-Chem not listed above: 
 R. D. Adamson,  B. Austin,  J. Baker,  G. J. O. Beran,  K. Brandhorst,  
 S. T. Brown,  E. F. C. Byrd,  A. K. Chakraborty,  C.-L. Cheng,  
 Siu Hung Chien,  D. M. Chipman,  D. L. Crittenden,  H. Dachsel,  
 R. J. Doerksen,  A. D. Dutoi,  L. Fusti-Molnar,  W. A. Goddard III,  
 A. Golubeva-Zadorozhnaya,  S. R. Gwaltney,  G. Hawkins,  A. Heyden,  
 S. Hirata,  G. Kedziora,  F. J. Keil,  C. Kelley,  Jihan Kim,  R. A. King,  
 R. Z. Khaliullin,  P. P. Korambath,  W. Kurlancheek,  A. M. Lee,  M. S. Lee,  
 S. V. Levchenko,  Ching Yeh Lin,  D. Liotard,  R. C. Lochan,  I. Lotan,  
 P. E. Maslen,  N. Nair,  D. P. O'Neill,  D. Neuhauser,  E. Neuscamman,  
 C. M. Oana,  R. Olson,  B. Peters,  R. Peverati,  P. A. Pieniazek,  
 Y. M. Rhee,  J. Ritchie,  M. A. Rohrdanz,  E. Rosta,  N. J. Russ,  
 H. F. Schaefer III,  N. E. Schultz,  N. Shenvi,  A. C. Simmonett,  A. Sodt,  
 D. Stuck,  K. S. Thanthiriwatte,  V. Vanovschi,  Tao Wang,  A. Warshel,  
 C. F. Williams,  Q. Wu,  X. Xu,  W. Zhang

 Please cite Q-Chem as follows:
 Y. Shao et al., Mol. Phys. 113, 184-215 (2015)
 DOI: 10.1080/00268976.2014.952696

 Q-Chem 5.2.0 for Intel X86 EM64T Linux

 Parts of Q-Chem use Armadillo 8.300.2 (Tropical Shenanigans).
 http://arma.sourceforge.net/

 Q-Chem begins on Sun Sep 26 10:01:26 2021  

Host: cori01
0

     Scratch files written to /tmp/qchem46948//Frg2//
 May1019 |scratch|qcdevops|jenkins|workspace|build_RNUM -1
Processing $rem in /global/common/cori/software/qchem/5.2/config/preferences:
	 MEM_TOTAL  96000 
NAlpha2: 40
NElect   40
Mult     1
Symmetry turned off for PCM/SM12/SMD calculation

Checking the input file for inconsistencies... 	...done.

--------------------------------------------------------------
User input:
--------------------------------------------------------------
$molecule
1 1
 6	3.0176357354	0.6949850227	2.0401036654
 6	0.6686357354	-0.0430149773	1.8401036654
 7	-0.1743642646	-0.8770149773	1.2471036654
 7	1.9466357354	-0.1600149773	1.5491036654
 7	0.2296357354	0.8459850227	2.7101036654
 1	0.2196357354	-1.6060149773	0.6461036654
 1	-1.1643642646	-0.8920149773	1.4251036654
 1	2.1986357354	-0.8630149773	0.8521036654
 1	0.8796357354	1.4329850227	3.2191036654
 1	-0.7583642646	0.9669850227	2.8491036654
 1	2.6346357354	1.6989850227	2.2241036654
 1	3.7726357354	0.7819850227	1.2561036654
 1	3.5028657354	0.2920850227	2.9413416654
$end
$rem
EDA2		1
METHOD		WB97X-V
BASIS		DEF2-TZVPD
XC_GRID		000099000590
NL_GRID		1
UNRESTRICTED		FALSE
MAX_SCF_CYCLES		200
SYMMETRY		FALSE
SYM_IGNORE		TRUE
BASIS_LIN_DEP_THRESH		6
THRESH		14
SCF_CONVERGENCE		8
SCF_PRINT_FRGM		TRUE
SOLVENT_METHOD		SMD
!required keywords
JOBTYPE		SP
SYM_IGNORE		TRUE
SUBSYSTEM		TRUE
GEN_SCFMAN		TRUE
CHILD_INSTRUCTION		2
SYM_IGNORE		TRUE
SCFMI		0
RI_K 0		
PARI_K 0		
MIN_PARI_K 0		
IARI_K 0		
OCC_RI_K 0		
PURECART		1111
MEM_STATIC		2000
MEM_TOTAL		96000
GUI		0
CHILD_MP		1
CHILD_MP_ORDERS		232
FRZ_RELAX		0
FRZ_RELAX_METHOD		0
EDA_CLS_ELEC		1
EDA_CLS_DISP		0
FRZ_ORTHO_DECOMP		1
EDA2		FALSE
FRGM_METHOD		FALSE
CIS_N_ROOTS  0
LOCAL_CIS    0
CIS_RLX_DNS  1
$end
$smx
SOLVENT			WATER
$end
--------------------------------------------------------------
 ----------------------------------------------------------------
             Standard Nuclear Orientation (Angstroms)
    I     Atom           X                Y                Z
 ----------------------------------------------------------------
    1      C       3.0176357354     0.6949850227     2.0401036654
    2      C       0.6686357354    -0.0430149773     1.8401036654
    3      N      -0.1743642646    -0.8770149773     1.2471036654
    4      N       1.9466357354    -0.1600149773     1.5491036654
    5      N       0.2296357354     0.8459850227     2.7101036654
    6      H       0.2196357354    -1.6060149773     0.6461036654
    7      H      -1.1643642646    -0.8920149773     1.4251036654
    8      H       2.1986357354    -0.8630149773     0.8521036654
    9      H       0.8796357354     1.4329850227     3.2191036654
   10      H      -0.7583642646     0.9669850227     2.8491036654
   11      H       2.6346357354     1.6989850227     2.2241036654
   12      H       3.7726357354     0.7819850227     1.2561036654
   13      H       3.5028657354     0.2920850227     2.9413416654
 ----------------------------------------------------------------
 Nuclear Repulsion Energy =         194.24222240 hartrees
 There are       20 alpha and       20 beta electrons
 Requested basis set is def2-TZVPD
 There are 105 shells and 257 basis functions

 Total QAlloc Memory Limit  96000 MB
 Mega-Array Size      1956 MB
 MEM_STATIC part      2000 MB
 
 Citation of the SMD model:
 Marenich, A.V.; Cramer, C.J.; Truhlar, D.G.
 J. Phys. Chem. B 2009, 113, 6378-6396.
 iSolventCode=           1
 Solvent: water                                                           
 
 vradii
            1           2           3           4           5           6
    1   1.8500000   1.8500000   1.8900000   1.8900000   1.8900000   1.2000000
            7           8           9          10          11          12
    1   1.2000000   1.2000000   1.2000000   1.2000000   1.2000000   1.2000000
           13
    1   1.2000000
 Changing PCM_VDW_RADII to SMD_RADIUS
 Discretize the solute cavity surface with Lebedev spheres
	Using 110 Lebedev grid points for each H atom
	Using 194 Lebedev grid points for other atoms
	Atomic van der Waals radii will be scaled by 1.20
 Remove points where switching function is < 1.0e-08
 Keep 906 surface tesserae and discard 944 interior tesserae
 Molecular Surface Area = 113.699 Angst**2

                       Distance Matrix (Angstroms)
             C (  1)   C (  2)   N (  3)   N (  4)   N (  5)   H (  6)
   C (  2)  2.470313
   N (  3)  3.645394  1.325841
   N (  4)  1.455729  1.315923  2.259189
   N (  5)  2.871349  1.319069  2.296152  2.303920
   H (  6)  3.881577  2.017475  1.023659  2.426696  3.205074
   H (  7)  4.515077  2.062260  1.005987  3.198362  2.571985  1.741291
   H (  8)  2.123551  1.997359  2.405691  1.021529  3.201532  2.123894
   H (  9)  2.550633  2.030945  3.214934  2.542644  1.012991  4.036267
   H ( 10)  3.871258  2.018542  2.511533  3.205800  1.005040  3.525624
   H ( 11)  1.090211  2.654652  3.934563  2.094003  2.597659  4.386950
   H ( 12)  1.091902  3.264429  4.281492  2.075449  3.830282  4.324171
   H ( 13)  1.100003  3.059065  4.214173  2.136486  3.327809  4.432888
             H (  7)   H (  8)   H (  9)   H ( 10)   H ( 11)   H ( 12)
   H (  8)  3.411589
   H (  9)  3.577988  3.551629
   H ( 10)  2.376656  4.010082  1.742728
   H ( 11)  4.667342  2.938762  2.034897  3.526882
   H ( 12)  5.215823  2.312297  3.556209  4.806437  1.752985
   H ( 13)  5.048179  2.720329  2.874046  4.315331  1.802116  1.775614

 
 A cutoff of  1.0D-14 yielded   5443 shell pairs
 There are     33171 function pairs (     41504 Cartesian)
 Smallest overlap matrix eigenvalue = 1.64E-05

 Scale SEOQF with 1.000000e-01/1.000000e-01/1.000000e-01

 Standard Electronic Orientation quadrupole field applied
 Nucleus-field energy     =    -0.0000000111 hartrees
 Guess from superposition of atomic densities
 Warning:  Energy on first SCF cycle will be non-variational
 SAD guess density has 40.388232 electrons

 -----------------------------------------------------------------------
  General SCF calculation program by
  Eric Jon Sundstrom, Paul Horn, Yuezhi Mao, Dmitri Zuev, Alec White,
  David Stuck, Shaama M.S., Shane Yost, Joonho Lee, David Small,
  Daniel Levine, Susi Lehtola, Hugh Burton, Evgeny Epifanovsky
 -----------------------------------------------------------------------
 Exchange:     0.1670 Hartree-Fock + 1.0000 wB97X-V + LR-HF
 Correlation:  1.0000 wB97X-V
 Using Euler-Maclaurin-Lebedev (99,590) quadrature formula
 Nonlocal Correlation:  VV10 with C = 0.0100 and b = 6.00 and scale = 1.00000
 Grid used for NLC:  SG-1 standard quadrature
Energy prior to optimization (guess energy) = -244.725264050990
Begin Timing: Total SCF Calculation
begin iterations for algorithm: DIIS         
the SCF tolerance is set to 1.00e-08
    1    -244.7252640510      7.93e-03     00000 
    2    -244.9647937996      6.23e-03     00000 
    3    -245.2045637318      3.15e-04     00000 
    4    -245.2054638300      1.60e-04     00000 
    5    -245.2056676530      4.41e-05     00000 
    6    -245.2056843150      1.85e-05     00000 
    7    -245.2056870842      3.30e-06     00000 
    8    -245.2056872566      8.74e-07     00000 
    9    -245.2056872675      3.53e-07     00000 
   10    -245.2056872696      7.64e-08     00000 
   11    -245.2056872698      2.13e-08     00000 
   12    -245.2056872698      1.09e-08     00000 
   13    -245.2056872698      2.37e-09     00000 Convergence criterion met
Timing for Total SCF: 732.00s (wall), 1450.28s (cpu)
(3)  G-ENP(liq) elect-nuc-pol free energy of system     -245.205687270 a.u.
(4)  G-CDS(liq) cavity-dispersion-solvent structure 
     free energy                                                2.8107 kcal/mol
(6)  G-S(liq) free energy of system                     -245.201208061 a.u.
E_pcm = -0.1082444385
E_cds = 0.0044792088
Multipole orders to be included
        2
        3
computing dipole RHS
computing quadrupole RHS
total number of RHS in solve_reponses: 8
RHS batch sizes
        8
Beginning Block Conjugate Gradient Iterations. Batch Number: 0
computing hessian-vector products by finite difference
              1      4.82e-01     00000 Conjugate Gradient Iteration
computing hessian-vector products by finite difference
              2      1.83e-01     00000 Conjugate Gradient Iteration
computing hessian-vector products by finite difference
              3      5.36e-02     00000 Conjugate Gradient Iteration
computing hessian-vector products by finite difference
              4      1.49e-02     00000 Conjugate Gradient Iteration
computing hessian-vector products by finite difference
              5      2.13e-03     00000 Conjugate Gradient Iteration
computing hessian-vector products by finite difference
              6      3.70e-04     00000 Conjugate Gradient Iteration
computing hessian-vector products by finite difference
              7      4.96e-05     00000 Conjugate Gradient Iteration
computing hessian-vector products by finite difference
              8      6.55e-06     00000 Conjugate Gradient Iteration
computing hessian-vector products by finite difference
              9      9.58e-07     00000 Conjugate Gradient Iteration
computing hessian-vector products by finite difference
             10      1.25e-07     00000 Conjugate Gradient Iteration
computing hessian-vector products by finite difference
             11      1.91e-08     00000 Conjugate Gradient Iteration
computing hessian-vector products by finite difference
             12      2.71e-09     00000 CG Converged
batch 0 complete
Done Calculating Responses
TESTING ORTHOGONALIZATION OF MULTIPOLE BASIS
Multipole virts passed orthogonality test
Virts Per Order
           60
          100
 
 --------------------------------------------------------------
 
                    Orbital Energies (a.u.)
 --------------------------------------------------------------
 
 Alpha MOs
 -- Occupied --
-14.4555 -14.4487 -14.4444 -10.4224 -10.3042  -1.1737  -1.0554  -1.0414
 -0.8546  -0.7645  -0.7202  -0.6879  -0.6185  -0.6068  -0.5963  -0.5704
 -0.5260  -0.5050  -0.3994  -0.3756
 -- Virtual --
  0.0585   0.0854   0.0981   0.1041   0.1237   0.1261   0.1387   0.1510
  0.1708   0.1745   0.1951   0.1981   0.2052   0.2119   0.2248   0.2404
  0.2417   0.2469   0.2476   0.2738   0.2808   0.2848   0.2926   0.3058
  0.3104   0.3214   0.3257   0.3281   0.3373   0.3461   0.3540   0.3618
  0.3708   0.3715   0.3799   0.3931   0.4044   0.4118   0.4180   0.4290
  0.4411   0.4459   0.4635   0.4667   0.4789   0.4816   0.4843   0.4970
  0.5015   0.5126   0.5159   0.5241   0.5326   0.5443   0.5505   0.5532
  0.5654   0.5710   0.5803   0.5890   0.6053   0.6191   0.6376   0.6525
  0.6616   0.6807   0.6863   0.7035   0.7282   0.7400   0.7463   0.7671
  0.8011   0.8053   0.8190   0.8265   0.8354   0.8450   0.8617   0.8689
  0.8793   0.8908   0.9027   0.9240   0.9362   0.9793   0.9899   0.9959
  1.0374   1.0653   1.0715   1.0956   1.1029   1.1152   1.1352   1.1475
  1.1573   1.1834   1.2146   1.2600   1.2753   1.3476   1.3665   1.4146
  1.4312   1.4540   1.4822   1.4916   1.5599   1.5745   1.6337   1.6776
  1.6895   1.7173   1.7542   1.7922   1.8424   1.8575   1.8853   1.8949
  1.9072   1.9157   1.9434   1.9573   2.0076   2.0112   2.0436   2.0724
  2.1178   2.1332   2.1764   2.2137   2.2239   2.2418   2.2516   2.3075
  2.3294   2.3368   2.3859   2.4100   2.4450   2.4726   2.5054   2.5134
  2.5604   2.5886   2.6241   2.6474   2.6638   2.6732   2.7128   2.7184
  2.7928   2.8112   2.8647   2.8713   2.8930   2.9040   2.9597   2.9701
  3.0450   3.1319   3.1434   3.1555   3.1758   3.1925   3.2347   3.2528
  3.2777   3.2820   3.3065   3.3410   3.3632   3.4057   3.4117   3.4437
  3.4724   3.5104   3.5397   3.5949   3.6025   3.6521   3.6968   3.7500
  3.8191   3.8956   3.9370   3.9971   4.0567   4.1319   4.1826   4.2313
  4.2901   4.3227   4.3384   4.3556   4.4023   4.4761   4.5906   4.6236
  4.6732   4.8403   4.8701   4.8797   4.9328   4.9934   5.0152   5.0571
  5.1032   5.1108   5.1317   5.1548   5.2066   5.2373   5.2913   5.3793
  5.4045   5.4232   5.4419   5.4551   5.4866   5.5151   5.5788   5.6487
  5.7067   5.7830   5.8127   5.8820   6.1332   6.2201   6.3907   6.4826
 22.6705  23.6577  32.3341  32.4632  32.8329
 --------------------------------------------------------------
 
          Ground-State Mulliken Net Atomic Charges

     Atom                 Charge (a.u.)
  ----------------------------------------
      1 C                    -0.810423
      2 C                     0.463652
      3 N                    -0.315165
      4 N                    -0.114984
      5 N                    -0.295201
      6 H                     0.256432
      7 H                     0.233723
      8 H                     0.291207
      9 H                     0.219803
     10 H                     0.244571
     11 H                     0.293389
     12 H                     0.281225
     13 H                     0.251772
  ----------------------------------------
  Sum of atomic charges =     1.000000

 -----------------------------------------------------------------
                    Cartesian Multipole Moments
 -----------------------------------------------------------------
    Charge (ESU x 10^10)
                 4.8032
    Dipole Moment (Debye)
         X       3.8707      Y      -0.1325      Z       8.7228
       Tot       9.5440
    Quadrupole Moments (Debye-Ang)
        XX     -11.6474     XY       1.5125     YY     -22.7071
        XZ       5.2393     YZ       7.6040     ZZ      -9.6776
    Octopole Moments (Debye-Ang^2)
       XXX     -68.5269    XXY      -0.2655    XYY     -30.5151
       YYY     -11.9921    XXZ     -26.0592    XYZ       7.7524
       YYZ     -44.4457    XZZ     -23.9512    YZZ      24.6057
       ZZZ    -115.9659
    Hexadecapole Moments (Debye-Ang^3)
      XXXX    -452.0956   XXXY     -32.3109   XXYY    -104.3551
      XYYY     -44.7068   YYYY    -110.7486   XXXZ    -147.1938
      XXYZ      -0.2545   XYYZ     -59.6586   YYYZ     -35.8052
      XXZZ    -153.5966   XYZZ       5.0340   YYZZ    -108.0082
      XZZZ    -171.7931   YZZZ      37.2887   ZZZZ    -581.4506
 -----------------------------------------------------------------
Archival summary:
1\1\nid00504\SP\ProcedureUnspecified\BasisUnspecified\328(1+,1)\meili\SunSep2613:31:032021SunSep2613:31:032021\0\\#,ProcedureUnspecified,BasisUnspecified,\\1,1\C\N,1,1.31592\H,2,1.02153,1,116.85\N,1,1.31907,2,121.938,3,-178.945,0\H,4,1.00504,1,119.969,2,174.482,0\H,4,1.01299,1,120.557,2,-3.41183,0\N,1,1.32584,2,117.559,3,2.55098,0\H,7,1.00599,1,123.777,2,177.751,0\H,7,1.02366,1,117.764,2,4.08231,0\C,2,1.45573,1,125.994,3,174.292,0\H,10,1.09021,2,109.837,1,-29.8908,0\H,10,1.0919,2,108.26,1,-146.281,0\H,10,1.1,2,112.691,1,94.0779,0\\\@

 Total job time:  12578.32s(wall), 24944.08s(cpu) 
 Sun Sep 26 13:31:05 2021

        *************************************************************
        *                                                           *
        *  Thank you very much for using Q-Chem.  Have a nice day.  *
        *                                                           *
        *************************************************************


Done Job For Fragment 1
calling putenv with: QCSCRATCH=/global/cscratch1/sd/meili 
calling putenv with: QCLOCALSCR=/tmp 
calling putenv with: QCTHREADS=32 
Doing General SCFMI
 Exchange:     0.1670 Hartree-Fock + 1.0000 wB97X-V + LR-HF
 Correlation:  1.0000 wB97X-V
 Using Euler-Maclaurin-Lebedev (99,590) quadrature formula
 Nonlocal Correlation:  VV10 with C = 0.0100 and b = 6.00 and scale = 1.00000
 Grid used for NLC:  SG-1 standard quadrature
performing fock build before subrot guess so that all methods have access
Printing subrot_rss_gen Method Specification:
Occupied Subspace Method is 0
Virtual Subspace Method is 0
Energy of the unrelaxed supersystem initial determinant -454.310651832317
performing fock build before subrot guess so that all methods have access
Printing subrot_rss_gen Method Specification:
Occupied Subspace Method is 0
Virtual Subspace Method is 0
Energy of the unrelaxed supersystem initial determinant w/ solvent -454.434272321720
write pseudocanon occs and virts to disk
write pseudocanon orbital energies to disk
Tolerance of ortho_decomp_scf: 1.00e-06
GDM subspace size: 20
Beginning the Orthogonal Decomposition of the Initial Supersystem Wavefunction
    1    -454.2780427472      3.42e-02     ortho_decomp Preconditoned Steepest Descent
    2    -454.2800300409      7.95e-04     ortho_decomp BFGS Step
    3    -454.2800353130      4.76e-05     ortho_decomp BFGS Step
    4    -454.2800353180      1.57e-06     ortho_decomp BFGS Step
    5    -454.2800353180      4.66e-08     ortho_decomp 00000 Convergence criterion met
 Hartree-Fock
 Hartree-Fock
 Hartree-Fock
Doing General SCFMI
 Exchange:     0.1670 Hartree-Fock + 1.0000 wB97X-V + LR-HF
 Correlation:  1.0000 wB97X-V
 Using Euler-Maclaurin-Lebedev (99,590) quadrature formula
 Nonlocal Correlation:  VV10 with C = 0.0100 and b = 6.00 and scale = 1.00000
 Grid used for NLC:  SG-1 standard quadrature
performing fock build at end of subrot_r(subrot) constructor so that all methods have access
<S^2> of initial wavefunction before polarization iterations 0.0000000000
Beginning iterations for the determination of the polarized wavefunction
Energy prior to optimization (guess energy) = -454.434272321721
Begin Timing: Total SCF Calculation
begin iterations for algorithm: DIIS         
the SCF tolerance is set to 1.00e-08
    1    -454.4342723217      4.13e-05     00000 
    2    -454.4343330725      3.36e-05     00000 
    3    -454.4343548682      8.35e-06     00000 
    4    -454.4343582953      3.78e-06     00000 
    5    -454.4343588417      1.34e-06     00000 
    6    -454.4343589582      4.89e-07     00000 
    7    -454.4343589713      1.64e-07     00000 
    8    -454.4343589729      4.35e-08     00000 
    9    -454.4343589731      2.08e-08     00000 
   10    -454.4343589731      5.50e-09     00000 Convergence criterion met
write pseudocanon occs and virts to disk
write pseudocanon orbital energies to disk
Timing for Total SCF: 2337.00s (wall), 4648.82s (cpu)
<S^2> of polarized wavefunction after polarization iterations 0.0000000000
relaxing scfmi constraint to allow all rotations in the entire AO span
Doing General SCFMI
 Exchange:     0.1670 Hartree-Fock + 1.0000 wB97X-V + LR-HF
 Correlation:  1.0000 wB97X-V
 Using Euler-Maclaurin-Lebedev (99,590) quadrature formula
 Nonlocal Correlation:  VV10 with C = 0.0100 and b = 6.00 and scale = 1.00000
 Grid used for NLC:  SG-1 standard quadrature
performing fock build at end of subrot_r(subrot) constructor so that all methods have access
<S^2> of polarized wavefunction before ct-allowed iterations 0.0000000000
Beginning iterations for the determination of the CT-Allowed wavefunction
Energy prior to optimization (guess energy) = -454.434358973101
Begin Timing: Total SCF Calculation
begin iterations for algorithm: DIIS         
the SCF tolerance is set to 1.00e-08
    1    -454.4343589731      5.86e-05     00000 
    2    -454.4346720506      5.47e-06     00000 
    3    -454.4346810104      1.11e-06     00000 
    4    -454.4346813137      9.77e-07     00000 
    5    -454.4346813821      1.24e-07     00000 
    6    -454.4346813853      5.07e-08     00000 
    7    -454.4346813856      1.59e-08     00000 
    8    -454.4346813857      4.03e-09     00000 Convergence criterion met
write pseudocanon occs and virts to disk
write pseudocanon orbital energies to disk
Timing for Total SCF: 1811.00s (wall), 3598.94s (cpu)
<S^2> of ct_allowed wavefunction after ct-allowed iterations 0.0000000000

================================
        Results of EDA2         
================================
Basic EDA Quantities
--------------------
Fragment Energies (Ha):
1 -209.2222571056
2 -245.2012080610
--------------------
  E_prp (kJ/mol) = -0.0000
  E_sol (kJ/mol) = 48.4947
  E_frz (kJ/mol) = -50.0888
  E_pol (kJ/mol) = -0.2275
  E_vct (kJ/mol) = -0.8465
  E_int (kJ/mol) = -2.6681
--------------------


Initial Wavefunction Decomposition
--------------------
  --------------------
  Orthogonal Fragment Subspace Decomposition:
  --------------------
     E_elec   (ELEC)   (kJ/mol) = -64.7950
     E_pauli  (PAULI)  (kJ/mol) = 23.9123
     E_disp   (DISP)   (kJ/mol) = -9.2060
     --------------------
     Terms summing to E_pauli:
     --------------------
        E_kep_pauli       (kJ/mol) = 30.2959
        E_disp_free_pauli (kJ/mol) = -6.3836
  --------------------
  Classical Frozen Decomposition:
  --------------------
     E_cls_elec  (CLS ELEC)  (kJ/mol) = -51.2994
     E_cls_pauli (CLS PAULI) (kJ/mol) = 1.2106
    [E_mod_pauli (MOD PAULI) (kJ/mol) = 10.4166 (CLS PAULI - DISP from orthogonal decomposition) ]
  --------------------
--------------------

Simplified EDA Summary (kJ/mol)
--------------------
 PREPARATION     -0.0000
 SOLVATION       48.4947
 FROZEN          -40.8828      (does not include dispersion)
[PAULI           23.9123]     (if this is negligible, then frozen describes electrostatics)
 DISPERSION      -9.2060
 POLARIZATION    -0.2275
 CHARGE TRANSFER -0.8465
 TOTAL           -2.6681     (PRP + SOL + FRZ + DISP + POL + CT)
--------------------
 
 --------------------------------------------------------------
 
                    Orbital Energies (a.u.)
 --------------------------------------------------------------
 
 Alpha MOs
 -- Occupied --
-19.1597 -14.4547 -14.4478 -14.4422 -14.4189 -10.4210 -10.3546 -10.3038
-10.2645  -1.1955  -1.1725  -1.0545  -1.0451  -1.0398  -0.8788  -0.8539
 -0.7636  -0.7196  -0.7166  -0.6867  -0.6651  -0.6176  -0.6056  -0.5959
 -0.5900  -0.5814  -0.5695  -0.5259  -0.5113  -0.5046  -0.5010  -0.4872
 -0.3995  -0.3779  -0.3725  -0.3623
 -- Virtual --
  0.0560   0.0737   0.0821   0.0876   0.0989   0.1040   0.1104   0.1184
  0.1219   0.1263   0.1361   0.1372   0.1452   0.1506   0.1658   0.1706
  0.1741   0.1775   0.1862   0.1951   0.2037   0.2122   0.2170   0.2185
  0.2295   0.2335   0.2388   0.2433   0.2446   0.2585   0.2629   0.2662
  0.2714   0.2745   0.2825   0.2906   0.2913   0.3004   0.3076   0.3088
  0.3146   0.3194   0.3278   0.3295   0.3360   0.3369   0.3416   0.3429
  0.3469   0.3520   0.3578   0.3604   0.3647   0.3694   0.3743   0.3745
  0.3795   0.3845   0.3900   0.3965   0.4031   0.4086   0.4136   0.4141
  0.4208   0.4223   0.4289   0.4322   0.4426   0.4484   0.4528   0.4611
  0.4632   0.4714   0.4753   0.4763   0.4810   0.4840   0.4882   0.4935
  0.4992   0.5060   0.5099   0.5133   0.5166   0.5262   0.5291   0.5383
  0.5428   0.5507   0.5528   0.5605   0.5658   0.5769   0.5805   0.5812
  0.5903   0.5942   0.5989   0.6091   0.6150   0.6216   0.6262   0.6339
  0.6378   0.6411   0.6535   0.6588   0.6613   0.6665   0.6802   0.6837
  0.6994   0.7066   0.7104   0.7207   0.7270   0.7295   0.7423   0.7465
  0.7573   0.7674   0.7741   0.7774   0.7838   0.7995   0.8033   0.8133
  0.8218   0.8238   0.8337   0.8391   0.8455   0.8490   0.8606   0.8684
  0.8780   0.8805   0.8900   0.8919   0.9020   0.9074   0.9126   0.9288
  0.9482   0.9537   0.9589   0.9687   0.9912   0.9946   0.9984   1.0051
  1.0269   1.0300   1.0409   1.0462   1.0650   1.0731   1.0758   1.0774
  1.0945   1.1149   1.1212   1.1260   1.1379   1.1556   1.1743   1.1754
  1.1952   1.2059   1.2170   1.2453   1.2525   1.2703   1.3030   1.3035
  1.3188   1.3523   1.3585   1.3669   1.3781   1.3900   1.4302   1.4607
  1.4748   1.5041   1.5096   1.5273   1.5440   1.5539   1.5816   1.5954
  1.6503   1.6679   1.6890   1.6938   1.7171   1.7515   1.7585   1.7658
  1.7761   1.8003   1.8267   1.8419   1.8449   1.8756   1.8771   1.8999
  1.9140   1.9157   1.9312   1.9400   1.9516   1.9590   1.9658   1.9819
  1.9914   1.9953   2.0179   2.0367   2.0416   2.0638   2.0908   2.0933
  2.1178   2.1291   2.1467   2.1741   2.1783   2.2103   2.2182   2.2221
  2.2376   2.2604   2.2655   2.2729   2.2955   2.3290   2.3440   2.3563
  2.3959   2.4124   2.4240   2.4304   2.4418   2.4516   2.4752   2.4902
  2.5063   2.5327   2.5376   2.5535   2.5817   2.5952   2.6150   2.6264
  2.6349   2.6456   2.6592   2.6840   2.6930   2.7034   2.7112   2.7258
  2.7359   2.7745   2.8164   2.8257   2.8320   2.8490   2.8660   2.8757
  2.9049   2.9196   2.9378   2.9646   2.9923   3.0113   3.0264   3.0615
  3.0685   3.0983   3.1309   3.1473   3.1641   3.1797   3.1915   3.2095
  3.2262   3.2387   3.2420   3.2494   3.2624   3.2818   3.2888   3.2978
  3.3033   3.3286   3.3464   3.3563   3.3581   3.3759   3.3875   3.4170
  3.4245   3.4517   3.4643   3.4757   3.4890   3.5068   3.5161   3.5486
  3.5814   3.6017   3.6129   3.6246   3.6400   3.6625   3.6685   3.6896
  3.7046   3.7577   3.7976   3.8352   3.8726   3.9012   3.9339   3.9479
  3.9668   4.0172   4.0601   4.0651   4.1385   4.1484   4.1853   4.2014
  4.2451   4.2815   4.3009   4.3059   4.3406   4.3581   4.3725   4.4083
  4.4639   4.4857   4.5535   4.5990   4.6334   4.6423   4.6819   4.6986
  4.7535   4.8551   4.8924   4.8971   4.9017   4.9158   4.9338   4.9564
  5.0162   5.0265   5.0316   5.0954   5.1149   5.1250   5.1461   5.1691
  5.1816   5.2137   5.2650   5.2829   5.3003   5.3042   5.3890   5.4166
  5.4240   5.4337   5.4592   5.4669   5.4991   5.5195   5.5310   5.5372
  5.5788   5.5869   5.5932   5.6627   5.6806   5.7223   5.7930   5.8162
  5.8212   5.8907   6.0000   6.1442   6.2250   6.2374   6.3150   6.4041
  6.4895   6.6255   6.6987   6.8069   6.8949   7.0114   7.2885   7.3793
 22.6466  22.6766  23.6721  23.9132  32.3877  32.4967  32.5667  32.8583
 44.3954
 --------------------------------------------------------------
 
          Ground-State Mulliken Net Atomic Charges

     Atom                 Charge (a.u.)
  ----------------------------------------
      1 C                    -0.534699
      2 C                     0.444862
      3 O                    -0.772273
      4 N                    -0.239594
      5 H                     0.260302
      6 H                     0.153347
      7 H                     0.249646
      8 H                     0.214645
      9 H                     0.222479
     10 C                    -0.848427
     11 C                     0.499864
     12 N                    -0.316952
     13 N                    -0.125797
     14 N                    -0.307432
     15 H                     0.263136
     16 H                     0.210483
     17 H                     0.300485
     18 H                     0.213603
     19 H                     0.253788
     20 H                     0.310682
     21 H                     0.289294
     22 H                     0.258558
  ----------------------------------------
  Sum of atomic charges =     1.000000

 -----------------------------------------------------------------
                    Cartesian Multipole Moments
 -----------------------------------------------------------------
    Charge (ESU x 10^10)
                 4.8032
    Dipole Moment (Debye)
         X      -0.5340      Y      -1.6458      Z       4.5262
       Tot       4.8456
    Quadrupole Moments (Debye-Ang)
        XX     -25.2391     XY       2.2789     YY     -43.3367
        XZ      20.6616     YZ       8.3716     ZZ     -14.6337
    Octopole Moments (Debye-Ang^2)
       XXX      10.1477    XXY       2.9117    XYY      -1.9110
       YYY       5.4284    XXZ      -7.0089    XYZ       9.8655
       YYZ      -0.1336    XZZ     -43.8143    YZZ      34.0239
       ZZZ     -18.8898
    Hexadecapole Moments (Debye-Ang^3)
      XXXX    -766.1355   XXXY     -60.6248   XXYY    -185.8105
      XYYY     -87.1786   YYYY    -269.9320   XXXZ    -317.0295
      XXYZ     -10.2032   XYYZ    -129.3476   YYYZ     -71.3344
      XXZZ    -226.8279   XYZZ     -22.3334   YYZZ    -242.5883
      XZZZ    -243.0192   YZZZ     -15.6968   ZZZZ   -1208.3870
 -----------------------------------------------------------------
Archival summary:
1\1\nid00504\SP\ProcedureUnspecified\BasisUnspecified\14413(1+,1)\meili\SunSep2615:44:072021SunSep2615:44:072021\0\\#,ProcedureUnspecified,BasisUnspecified,\\1,1\O\C,1,1.22655\N,2,1.22023,1,110.476\H,3,1.00688,2,117.191,1,2.42397,0\H,3,1.00921,2,121.109,1,-177.75,0\C,2,1.4692,1,126.069,3,-175.094,0\H,6,1.0855,2,107.529,1,34.4654,0\H,6,1.09082,2,110.264,1,153.494,0\H,6,1.1,2,108.411,1,-85.4888,0\H,7,2.68227,6,130.465,2,-58.2365,0\N,10,1.02366,7,98.4192,6,115.529,0\H,11,1.00599,10,118.167,7,38.5211,0\C,11,1.32584,10,117.764,7,-147.447,0\N,13,1.31592,11,117.559,10,4.08231,0\H,14,1.02153,13,116.85,11,2.55098,0\N,13,1.31907,11,120.486,10,-174.445,0\H,16,1.00504,13,119.969,11,-7.05669,0\H,16,1.01299,13,120.557,11,175.049,0\C,14,1.45573,13,125.994,11,176.843,0\H,19,1.09021,14,109.837,13,-29.8908,0\H,19,1.0919,14,108.26,13,-146.281,0\H,19,1.1,14,112.691,13,94.0779,0\\\@

 Total job time:  26384.83s(wall), 15892.53s(cpu) 
 Sun Sep 26 15:44:09 2021

        *************************************************************
        *                                                           *
        *  Thank you very much for using Q-Chem.  Have a nice day.  *
        *                                                           *
        *************************************************************


