
Running Job 1 of 1 SSI-035ASN-172GLU-1_SMD_TZVPD.in
qchem SSI-035ASN-172GLU-1_SMD_TZVPD.in_53396.0 /tmp/qchem53396/ 0
/global/common/cori/software/qchem/5.2/exe/qcprog.exe_s SSI-035ASN-172GLU-1_SMD_TZVPD.in_53396.0 /tmp/qchem53396/
                  Welcome to Q-Chem
     A Quantum Leap Into The Future Of Chemistry


 Q-Chem 5.2, Q-Chem, Inc., Pleasanton, CA (2019)

 License issued to: National Energy Research Scientific Computing Center

 Yihan Shao,  Zhengting Gan,  E. Epifanovsky,  A. T. B. Gilbert,  M. Wormit,  
 J. Kussmann,  A. W. Lange,  A. Behn,  Jia Deng,  Xintian Feng,  D. Ghosh,  
 M. Goldey,  P. R. Horn,  L. D. Jacobson,  I. Kaliman,  T. Kus,  A. Landau,  
 Jie Liu,  E. I. Proynov,  R. M. Richard,  R. P. Steele,  E. J. Sundstrom,  
 H. L. Woodcock III,  P. M. Zimmerman,  D. Zuev,  B. Albrecht,  E. Alguire,  
 S. A. Baeppler,  D. Barton,  Z. Benda,  Y. A. Bernard,  E. J. Berquist,  
 K. B. Bravaya,  H. Burton,  D. Casanova,  Chun-Min Chang,  Yunqing Chen,  
 A. Chien,  K. D. Closser,  M. P. Coons,  S. Coriani,  S. Dasgupta,  
 A. L. Dempwolff,  M. Diedenhofen,  Hainam Do,  R. G. Edgar,  Po-Tung Fang,  
 S. Faraji,  S. Fatehi,  Qingguo Feng,  K. D. Fenk,  J. Fosso-Tande,  
 J. Gayvert,  Qinghui Ge,  A. Ghysels,  G. Gidofalvi,  J. Gomes,  
 J. Gonthier,  A. Gunina,  D. Hait,  M. W. D. Hanson-Heine,  
 P. H. P. Harbach,  A. W. Hauser,  M. F. Herbst,  J. E. Herr,  
 E. G. Hohenstein,  Z. C. Holden,  Kerwin Hui,  B. C. Huynh,  T.-C. Jagau,  
 Hyunjun Ji,  B. Kaduk,  K. Khistyaev,  Jaehoon Kim,  P. Klunzinger,  K. Koh,  
 D. Kosenkov,  L. Koulias,  T. Kowalczyk,  C. M. Krauter,  A. Kunitsa,  
 Ka Un Lao,  A. Laurent,  K. V. Lawler,  Joonho Lee,  D. Lefrancois,  
 S. Lehtola,  D. S. Levine,  Yi-Pei Li,  You-Sheng Lin,  Fenglai Liu,  
 E. Livshits,  A. Luenser,  P. Manohar,  E. Mansoor,  S. F. Manzer,  
 Shan-Ping Mao,  Yuezhi Mao,  N. Mardirossian,  A. V. Marenich,  
 T. Markovich,  L. A. Martinez-Martinez,  S. A. Maurer,  N. J. Mayhall,  
 S. C. McKenzie,  J.-M. Mewes,  P. Morgante,  A. F. Morrison,  
 J. W. Mullinax,  K. Nanda,  T. S. Nguyen-Beck,  R. Olivares-Amaya,  
 J. A. Parkhill,  Zheng Pei,  T. M. Perrine,  F. Plasser,  P. Pokhilko,  
 S. Prager,  A. Prociuk,  E. Ramos,  D. R. Rehn,  F. Rob,  M. Scheurer,  
 M. Schneider,  N. Sergueev,  S. M. Sharada,  S. Sharma,  D. W. Small,  
 T. Stauch,  T. Stein,  Yu-Chuan Su,  A. J. W. Thom,  A. Tkatchenko,  
 T. Tsuchimochi,  N. M. Tubman,  L. Vogt,  M. L. Vidal,  O. Vydrov,  
 M. A. Watson,  J. Wenzel,  M. de Wergifosse,  T. A. Wesolowski,  A. White,  
 J. Witte,  A. Yamada,  Jun Yang,  K. Yao,  S. Yeganeh,  S. R. Yost,  
 Zhi-Qiang You,  A. Zech,  Igor Ying Zhang,  Xing Zhang,  Yan Zhao,  
 Ying Zhu,  B. R. Brooks,  G. K. L. Chan,  C. J. Cramer,  M. S. Gordon,  
 W. J. Hehre,  A. Klamt,  M. W. Schmidt,  C. D. Sherrill,  D. G. Truhlar,  
 A. Aspuru-Guzik,  R. Baer,  A. T. Bell,  N. A. Besley,  Jeng-Da Chai,  
 A. E. DePrince, III,  R. A. DiStasio Jr.,  A. Dreuw,  B. D. Dunietz,  
 T. R. Furlani,  Chao-Ping Hsu,  Yousung Jung,  Jing Kong,  D. S. Lambrecht,  
 WanZhen Liang,  C. Ochsenfeld,  V. A. Rassolov,  L. V. Slipchenko,  
 J. E. Subotnik,  T. Van Voorhis,  J. M. Herbert,  A. I. Krylov,  
 P. M. W. Gill,  M. Head-Gordon

 Contributors to earlier versions of Q-Chem not listed above: 
 R. D. Adamson,  B. Austin,  J. Baker,  G. J. O. Beran,  K. Brandhorst,  
 S. T. Brown,  E. F. C. Byrd,  A. K. Chakraborty,  C.-L. Cheng,  
 Siu Hung Chien,  D. M. Chipman,  D. L. Crittenden,  H. Dachsel,  
 R. J. Doerksen,  A. D. Dutoi,  L. Fusti-Molnar,  W. A. Goddard III,  
 A. Golubeva-Zadorozhnaya,  S. R. Gwaltney,  G. Hawkins,  A. Heyden,  
 S. Hirata,  G. Kedziora,  F. J. Keil,  C. Kelley,  Jihan Kim,  R. A. King,  
 R. Z. Khaliullin,  P. P. Korambath,  W. Kurlancheek,  A. M. Lee,  M. S. Lee,  
 S. V. Levchenko,  Ching Yeh Lin,  D. Liotard,  R. C. Lochan,  I. Lotan,  
 P. E. Maslen,  N. Nair,  D. P. O'Neill,  D. Neuhauser,  E. Neuscamman,  
 C. M. Oana,  R. Olson,  B. Peters,  R. Peverati,  P. A. Pieniazek,  
 Y. M. Rhee,  J. Ritchie,  M. A. Rohrdanz,  E. Rosta,  N. J. Russ,  
 H. F. Schaefer III,  N. E. Schultz,  N. Shenvi,  A. C. Simmonett,  A. Sodt,  
 D. Stuck,  K. S. Thanthiriwatte,  V. Vanovschi,  Tao Wang,  A. Warshel,  
 C. F. Williams,  Q. Wu,  X. Xu,  W. Zhang

 Please cite Q-Chem as follows:
 Y. Shao et al., Mol. Phys. 113, 184-215 (2015)
 DOI: 10.1080/00268976.2014.952696

 Q-Chem 5.2.0 for Intel X86 EM64T Linux

 Parts of Q-Chem use Armadillo 8.300.2 (Tropical Shenanigans).
 http://arma.sourceforge.net/

 Q-Chem begins on Sun Sep 26 05:39:06 2021  

Host: cori01
0

     Scratch files written to /tmp/qchem53396//
 May1019 |scratch|qcdevops|jenkins|workspace|build_RNUM -1
Processing $rem in /global/common/cori/software/qchem/5.2/config/preferences:
	 MEM_TOTAL  96000 
NAlpha2: 64
NElect   64
Mult     1
Symmetry turned off for PCM/SM12/SMD calculation

 Q-Chem warning in module libgen/rem_setup.C, line 2803:

 Neither GIA nor STOLL is specified by user. Use STOLL as the default


Checking the input file for inconsistencies... 	...done.

--------------------------------------------------------------
User input:
--------------------------------------------------------------
$comment
SSI-035ASN-172GLU-1.pdb
$end

$molecule
-1 1
--
0 1
C    2.428817691351   -1.549258533646    2.537021456519
C    1.262817691351   -0.864258533646    1.826021456519
O    0.357817691351   -0.340258533646    2.471021456519
N    1.257817691351   -0.865258533646    0.501021456519
H    0.436817691351   -0.464258533646    0.056021456519
H    1.995817691351   -1.261258533646   -0.062978543481
H    2.197817691351   -2.605258533646    2.639021456519
H    2.507817691351   -1.135258533646    3.543021456519
H    3.391167691351   -1.413308533646    2.021861456519
--
-1 1
C   -0.114182308649    0.935741466354   -2.587978543481
C   -1.401182308649    0.909741466354   -1.774978543481
O   -1.458182308649    0.121741466354   -0.800978543481
O   -2.337182308649    1.661741466354   -2.100978543481
H   -0.012182308649   -0.027258533646   -3.095978543481
H    0.719817691351    1.041741466354   -1.892978543481
H   -0.069752308649    1.745531466354   -3.331118543481
$end

$rem
JOBTYPE			EDA
EDA2			1
method			wB97X-V
BASIS			def2-TZVPD
XC_GRID			000099000590
NL_GRID			1
UNRESTRICTED		FALSE
MAX_SCF_CYCLES		200
SYMMETRY		FALSE
SYM_IGNORE		TRUE
MEM_STATIC		2000
BASIS_LIN_DEP_THRESH 	6
THRESH 			14
SCF_CONVERGENCE 	8
SCF_PRINT_FRGM 		TRUE
SOLVENT_METHOD          SMD
$end

$SMX
SOLVENT			WATER
$END
--------------------------------------------------------------
 ----------------------------------------------------------------
             Standard Nuclear Orientation (Angstroms)
    I     Atom           X                Y                Z
 ----------------------------------------------------------------
    1      C       2.4288176914    -1.5492585336     2.5370214565
    2      C       1.2628176914    -0.8642585336     1.8260214565
    3      O       0.3578176914    -0.3402585336     2.4710214565
    4      N       1.2578176914    -0.8652585336     0.5010214565
    5      H       0.4368176914    -0.4642585336     0.0560214565
    6      H       1.9958176914    -1.2612585336    -0.0629785435
    7      H       2.1978176914    -2.6052585336     2.6390214565
    8      H       2.5078176914    -1.1352585336     3.5430214565
    9      H       3.3911676914    -1.4133085336     2.0218614565
   10      C      -0.1141823086     0.9357414664    -2.5879785435
   11      C      -1.4011823086     0.9097414664    -1.7749785435
   12      O      -1.4581823086     0.1217414664    -0.8009785435
   13      O      -2.3371823086     1.6617414664    -2.1009785435
   14      H      -0.0121823086    -0.0272585336    -3.0959785435
   15      H       0.7198176914     1.0417414664    -1.8929785435
   16      H      -0.0697523086     1.7455314664    -3.3311185435
 ----------------------------------------------------------------
 Nuclear Repulsion Energy =         344.89685816 hartrees
 There are       32 alpha and       32 beta electrons
 Requested basis set is def2-TZVPD
 There are 147 shells and 377 basis functions

 Total QAlloc Memory Limit  96000 MB
 Mega-Array Size      1956 MB
 MEM_STATIC part      2000 MB
 
 Citation of the SMD model:
 Marenich, A.V.; Cramer, C.J.; Truhlar, D.G.
 J. Phys. Chem. B 2009, 113, 6378-6396.
 iSolventCode=           1
 Solvent: water                                                           
 
 vradii
            1           2           3           4           5           6
    1   1.8500000   1.8500000   1.5200000   1.8900000   1.2000000   1.2000000
            7           8           9          10          11          12
    1   1.2000000   1.2000000   1.2000000   1.8500000   1.8500000   1.5200000
           13          14          15          16
    1   1.5200000   1.2000000   1.2000000   1.2000000
 Changing PCM_VDW_RADII to SMD_RADIUS
 Discretize the solute cavity surface with Lebedev spheres
	Using 110 Lebedev grid points for each H atom
	Using 194 Lebedev grid points for other atoms
	Atomic van der Waals radii will be scaled by 1.20
 Remove points where switching function is < 1.0e-08
 Keep 1353 surface tesserae and discard 1079 interior tesserae
 Molecular Surface Area = 165.142 Angst**2
 A cutoff of  1.0D-14 yielded   9554 shell pairs
 There are     62744 function pairs (     79129 Cartesian)
 Smallest overlap matrix eigenvalue = 8.79E-06

 Scale SEOQF with 1.000000e-01/1.000000e-01/1.000000e-01

 Standard Electronic Orientation quadrupole field applied
 Nucleus-field energy     =    -0.0000000166 hartrees

 -----------------------------------------------------------------------
  General SCF calculation program by
  Eric Jon Sundstrom, Paul Horn, Yuezhi Mao, Dmitri Zuev, Alec White,
  David Stuck, Shaama M.S., Shane Yost, Joonho Lee, David Small,
  Daniel Levine, Susi Lehtola, Hugh Burton, Evgeny Epifanovsky
 -----------------------------------------------------------------------
================================================================
                 ALMO-EDA with the EDA2 driver                  
================================================================
 The second-generation ALMO-EDA (for DFT):                      
 P. R. Horn, Y. Mao and M. Head-Gordon, PCCP, 18, 23067 (2016)  
 Decomposition of the frozen energy:                            
 P. R. Horn, Y. Mao and M. Head-Gordon, JCP, 144, 114107 (2016) 
 FERF model for polarization:                                   
 P. R. Horn and M. Head-Gordon, JCP, 143, 114111 (2015)         
Using eda2 option set 1
Option set summary: Frozen orbital wavefunction, initial wavefunction decomposition, and nDQ polarization.
--------------------------------
Printing EDA Options
--------------------------------
eda_child_super_basis      0
fragmo_guess_mode          0
child_mp                   1
child_mp_orders            232
cls_elec                   1
cls_disp                   0
scfmi_mode                 1
scfmi_occs                 0
scfmi_virts                0
frz_relax                  0
frz_relax_method           0
dc_pen_start               0
dc_pen_conv                0
dc_pen_increment           0
dc_pen_steps               0
dc_pen_thresh_factor       0
dc_pen_pre_newton_thresh   0
frz_ortho_decomp           1
frz_ortho_decomp_conv      6
frgm_method                2
scfmi_freeze_ss            0
separate_rehyb             0
plot_diff_den              0
eda_nocv                   0
eda_vct_relax              1
disp_free_x                0
disp_free_c                0
eda_bsse                   0
eda_pct_a                  0
eda_covp                   0
--------------------------------
Attempting to make child job directory: /tmp/qchem53396//Frg1/
Attempting to make child job directory: /tmp/qchem53396//Frg2/
Creating input file /tmp/qchem53396/Frg1.input
using default PutDataFrgm: nothing
calling putenv with: QCSCRATCH=/tmp/qchem53396/ 
calling putenv with: QCLOCALSCR=/tmp/qchem53396/ 
Spawning Job For Fragment 0
                  Welcome to Q-Chem
     A Quantum Leap Into The Future Of Chemistry


 Q-Chem 5.2, Q-Chem, Inc., Pleasanton, CA (2019)

 License issued to: National Energy Research Scientific Computing Center

 Yihan Shao,  Zhengting Gan,  E. Epifanovsky,  A. T. B. Gilbert,  M. Wormit,  
 J. Kussmann,  A. W. Lange,  A. Behn,  Jia Deng,  Xintian Feng,  D. Ghosh,  
 M. Goldey,  P. R. Horn,  L. D. Jacobson,  I. Kaliman,  T. Kus,  A. Landau,  
 Jie Liu,  E. I. Proynov,  R. M. Richard,  R. P. Steele,  E. J. Sundstrom,  
 H. L. Woodcock III,  P. M. Zimmerman,  D. Zuev,  B. Albrecht,  E. Alguire,  
 S. A. Baeppler,  D. Barton,  Z. Benda,  Y. A. Bernard,  E. J. Berquist,  
 K. B. Bravaya,  H. Burton,  D. Casanova,  Chun-Min Chang,  Yunqing Chen,  
 A. Chien,  K. D. Closser,  M. P. Coons,  S. Coriani,  S. Dasgupta,  
 A. L. Dempwolff,  M. Diedenhofen,  Hainam Do,  R. G. Edgar,  Po-Tung Fang,  
 S. Faraji,  S. Fatehi,  Qingguo Feng,  K. D. Fenk,  J. Fosso-Tande,  
 J. Gayvert,  Qinghui Ge,  A. Ghysels,  G. Gidofalvi,  J. Gomes,  
 J. Gonthier,  A. Gunina,  D. Hait,  M. W. D. Hanson-Heine,  
 P. H. P. Harbach,  A. W. Hauser,  M. F. Herbst,  J. E. Herr,  
 E. G. Hohenstein,  Z. C. Holden,  Kerwin Hui,  B. C. Huynh,  T.-C. Jagau,  
 Hyunjun Ji,  B. Kaduk,  K. Khistyaev,  Jaehoon Kim,  P. Klunzinger,  K. Koh,  
 D. Kosenkov,  L. Koulias,  T. Kowalczyk,  C. M. Krauter,  A. Kunitsa,  
 Ka Un Lao,  A. Laurent,  K. V. Lawler,  Joonho Lee,  D. Lefrancois,  
 S. Lehtola,  D. S. Levine,  Yi-Pei Li,  You-Sheng Lin,  Fenglai Liu,  
 E. Livshits,  A. Luenser,  P. Manohar,  E. Mansoor,  S. F. Manzer,  
 Shan-Ping Mao,  Yuezhi Mao,  N. Mardirossian,  A. V. Marenich,  
 T. Markovich,  L. A. Martinez-Martinez,  S. A. Maurer,  N. J. Mayhall,  
 S. C. McKenzie,  J.-M. Mewes,  P. Morgante,  A. F. Morrison,  
 J. W. Mullinax,  K. Nanda,  T. S. Nguyen-Beck,  R. Olivares-Amaya,  
 J. A. Parkhill,  Zheng Pei,  T. M. Perrine,  F. Plasser,  P. Pokhilko,  
 S. Prager,  A. Prociuk,  E. Ramos,  D. R. Rehn,  F. Rob,  M. Scheurer,  
 M. Schneider,  N. Sergueev,  S. M. Sharada,  S. Sharma,  D. W. Small,  
 T. Stauch,  T. Stein,  Yu-Chuan Su,  A. J. W. Thom,  A. Tkatchenko,  
 T. Tsuchimochi,  N. M. Tubman,  L. Vogt,  M. L. Vidal,  O. Vydrov,  
 M. A. Watson,  J. Wenzel,  M. de Wergifosse,  T. A. Wesolowski,  A. White,  
 J. Witte,  A. Yamada,  Jun Yang,  K. Yao,  S. Yeganeh,  S. R. Yost,  
 Zhi-Qiang You,  A. Zech,  Igor Ying Zhang,  Xing Zhang,  Yan Zhao,  
 Ying Zhu,  B. R. Brooks,  G. K. L. Chan,  C. J. Cramer,  M. S. Gordon,  
 W. J. Hehre,  A. Klamt,  M. W. Schmidt,  C. D. Sherrill,  D. G. Truhlar,  
 A. Aspuru-Guzik,  R. Baer,  A. T. Bell,  N. A. Besley,  Jeng-Da Chai,  
 A. E. DePrince, III,  R. A. DiStasio Jr.,  A. Dreuw,  B. D. Dunietz,  
 T. R. Furlani,  Chao-Ping Hsu,  Yousung Jung,  Jing Kong,  D. S. Lambrecht,  
 WanZhen Liang,  C. Ochsenfeld,  V. A. Rassolov,  L. V. Slipchenko,  
 J. E. Subotnik,  T. Van Voorhis,  J. M. Herbert,  A. I. Krylov,  
 P. M. W. Gill,  M. Head-Gordon

 Contributors to earlier versions of Q-Chem not listed above: 
 R. D. Adamson,  B. Austin,  J. Baker,  G. J. O. Beran,  K. Brandhorst,  
 S. T. Brown,  E. F. C. Byrd,  A. K. Chakraborty,  C.-L. Cheng,  
 Siu Hung Chien,  D. M. Chipman,  D. L. Crittenden,  H. Dachsel,  
 R. J. Doerksen,  A. D. Dutoi,  L. Fusti-Molnar,  W. A. Goddard III,  
 A. Golubeva-Zadorozhnaya,  S. R. Gwaltney,  G. Hawkins,  A. Heyden,  
 S. Hirata,  G. Kedziora,  F. J. Keil,  C. Kelley,  Jihan Kim,  R. A. King,  
 R. Z. Khaliullin,  P. P. Korambath,  W. Kurlancheek,  A. M. Lee,  M. S. Lee,  
 S. V. Levchenko,  Ching Yeh Lin,  D. Liotard,  R. C. Lochan,  I. Lotan,  
 P. E. Maslen,  N. Nair,  D. P. O'Neill,  D. Neuhauser,  E. Neuscamman,  
 C. M. Oana,  R. Olson,  B. Peters,  R. Peverati,  P. A. Pieniazek,  
 Y. M. Rhee,  J. Ritchie,  M. A. Rohrdanz,  E. Rosta,  N. J. Russ,  
 H. F. Schaefer III,  N. E. Schultz,  N. Shenvi,  A. C. Simmonett,  A. Sodt,  
 D. Stuck,  K. S. Thanthiriwatte,  V. Vanovschi,  Tao Wang,  A. Warshel,  
 C. F. Williams,  Q. Wu,  X. Xu,  W. Zhang

 Please cite Q-Chem as follows:
 Y. Shao et al., Mol. Phys. 113, 184-215 (2015)
 DOI: 10.1080/00268976.2014.952696

 Q-Chem 5.2.0 for Intel X86 EM64T Linux

 Parts of Q-Chem use Armadillo 8.300.2 (Tropical Shenanigans).
 http://arma.sourceforge.net/

 Q-Chem begins on Sun Sep 26 05:40:27 2021  

Host: cori01
0

     Scratch files written to /tmp/qchem53396//Frg1//
 May1019 |scratch|qcdevops|jenkins|workspace|build_RNUM -1
Processing $rem in /global/common/cori/software/qchem/5.2/config/preferences:
	 MEM_TOTAL  96000 
NAlpha2: 32
NElect   32
Mult     1
Symmetry turned off for PCM/SM12/SMD calculation

Checking the input file for inconsistencies... 	...done.

--------------------------------------------------------------
User input:
--------------------------------------------------------------
$molecule
0 1
 6	2.4288176914	-1.5492585336	2.5370214565
 6	1.2628176914	-0.8642585336	1.8260214565
 8	0.3578176914	-0.3402585336	2.4710214565
 7	1.2578176914	-0.8652585336	0.5010214565
 1	0.4368176914	-0.4642585336	0.0560214565
 1	1.9958176914	-1.2612585336	-0.0629785435
 1	2.1978176914	-2.6052585336	2.6390214565
 1	2.5078176914	-1.1352585336	3.5430214565
 1	3.3911676914	-1.4133085336	2.0218614565
$end
$rem
EDA2		1
METHOD		WB97X-V
BASIS		DEF2-TZVPD
XC_GRID		000099000590
NL_GRID		1
UNRESTRICTED		FALSE
MAX_SCF_CYCLES		200
SYMMETRY		FALSE
SYM_IGNORE		TRUE
BASIS_LIN_DEP_THRESH		6
THRESH		14
SCF_CONVERGENCE		8
SCF_PRINT_FRGM		TRUE
SOLVENT_METHOD		SMD
!required keywords
JOBTYPE		SP
SYM_IGNORE		TRUE
SUBSYSTEM		TRUE
GEN_SCFMAN		TRUE
CHILD_INSTRUCTION		2
SYM_IGNORE		TRUE
SCFMI		0
RI_K 0		
PARI_K 0		
MIN_PARI_K 0		
IARI_K 0		
OCC_RI_K 0		
PURECART		1111
MEM_STATIC		2000
MEM_TOTAL		96000
GUI		0
CHILD_MP		1
CHILD_MP_ORDERS		232
FRZ_RELAX		0
FRZ_RELAX_METHOD		0
EDA_CLS_ELEC		1
EDA_CLS_DISP		0
FRZ_ORTHO_DECOMP		1
EDA2		FALSE
FRGM_METHOD		FALSE
CIS_N_ROOTS  0
LOCAL_CIS    0
CIS_RLX_DNS  1
$end
$smx
SOLVENT			WATER
$end
--------------------------------------------------------------
 ----------------------------------------------------------------
             Standard Nuclear Orientation (Angstroms)
    I     Atom           X                Y                Z
 ----------------------------------------------------------------
    1      C       2.4288176914    -1.5492585336     2.5370214565
    2      C       1.2628176914    -0.8642585336     1.8260214565
    3      O       0.3578176914    -0.3402585336     2.4710214565
    4      N       1.2578176914    -0.8652585336     0.5010214565
    5      H       0.4368176914    -0.4642585336     0.0560214565
    6      H       1.9958176914    -1.2612585336    -0.0629785435
    7      H       2.1978176914    -2.6052585336     2.6390214565
    8      H       2.5078176914    -1.1352585336     3.5430214565
    9      H       3.3911676914    -1.4133085336     2.0218614565
 ----------------------------------------------------------------
 Nuclear Repulsion Energy =         122.03587589 hartrees
 There are       16 alpha and       16 beta electrons
 Requested basis set is def2-TZVPD
 There are 78 shells and 196 basis functions

 Total QAlloc Memory Limit  96000 MB
 Mega-Array Size      1956 MB
 MEM_STATIC part      2000 MB
 
 Citation of the SMD model:
 Marenich, A.V.; Cramer, C.J.; Truhlar, D.G.
 J. Phys. Chem. B 2009, 113, 6378-6396.
 iSolventCode=           1
 Solvent: water                                                           
 
 vradii
            1           2           3           4           5           6
    1   1.8500000   1.8500000   1.5200000   1.8900000   1.2000000   1.2000000
            7           8           9
    1   1.2000000   1.2000000   1.2000000
 Changing PCM_VDW_RADII to SMD_RADIUS
 Discretize the solute cavity surface with Lebedev spheres
	Using 110 Lebedev grid points for each H atom
	Using 194 Lebedev grid points for other atoms
	Atomic van der Waals radii will be scaled by 1.20
 Remove points where switching function is < 1.0e-08
 Keep 725 surface tesserae and discard 601 interior tesserae
 Molecular Surface Area = 90.373 Angst**2

                       Distance Matrix (Angstroms)
             C (  1)   C (  2)   O (  3)   N (  4)   H (  5)   H (  6)
   C (  2)  1.527842
   O (  3)  2.398974  1.228668
   N (  4)  2.446302  1.325010  2.228570
   H (  5)  3.361644  1.993784  2.419471  1.016301
   H (  6)  2.651496  2.064756  3.154749  1.009731  1.754950
   H (  7)  1.085772  2.136884  2.923021  2.912429  3.789049  3.024557
   H (  8)  1.090721  2.138120  2.530555  3.299873  4.110773  3.644346
   H (  9)  1.099995  2.206736  3.248753  2.676657  3.673337  2.513300
             H (  7)   H (  8)
   H (  8)  1.753344
   H (  9)  1.796028  1.780884
 
 A cutoff of  1.0D-14 yielded   3053 shell pairs
 There are     19543 function pairs (     24701 Cartesian)
 Smallest overlap matrix eigenvalue = 1.14E-05

 Scale SEOQF with 1.000000e-01/1.000000e-01/1.000000e-01

 Standard Electronic Orientation quadrupole field applied
 Nucleus-field energy     =    -0.0000000086 hartrees
 Guess from superposition of atomic densities
 Warning:  Energy on first SCF cycle will be non-variational
 SAD guess density has 31.604610 electrons

 -----------------------------------------------------------------------
  General SCF calculation program by
  Eric Jon Sundstrom, Paul Horn, Yuezhi Mao, Dmitri Zuev, Alec White,
  David Stuck, Shaama M.S., Shane Yost, Joonho Lee, David Small,
  Daniel Levine, Susi Lehtola, Hugh Burton, Evgeny Epifanovsky
 -----------------------------------------------------------------------
 Exchange:     0.1670 Hartree-Fock + 1.0000 wB97X-V + LR-HF
 Correlation:  1.0000 wB97X-V
 Using Euler-Maclaurin-Lebedev (99,590) quadrature formula
 Nonlocal Correlation:  VV10 with C = 0.0100 and b = 6.00 and scale = 1.00000
 Grid used for NLC:  SG-1 standard quadrature
Energy prior to optimization (guess energy) = -208.706624864844
Begin Timing: Total SCF Calculation
begin iterations for algorithm: DIIS         
the SCF tolerance is set to 1.00e-08
    1    -208.7066248648      1.25e-02     00000 
    2    -208.3354309069      1.53e-02     00000 
    3    -209.2367539779      2.35e-03     00000 
    4    -209.2551098571      7.69e-04     00000 
    5    -209.2581613272      1.99e-04     00000 
    6    -209.2584323500      6.67e-05     00000 
    7    -209.2584731013      2.02e-05     00000 
    8    -209.2584781441      5.85e-06     00000 
    9    -209.2584788917      1.98e-06     00000 
   10    -209.2584789416      3.19e-07     00000 
   11    -209.2584789428      1.38e-07     00000 
   12    -209.2584789429      2.23e-08     00000 
   13    -209.2584789429      4.86e-09     00000 Convergence criterion met
Timing for Total SCF: 354.00s (wall), 698.78s (cpu)
(3)  G-ENP(liq) elect-nuc-pol free energy of system     -209.258478943 a.u.
(4)  G-CDS(liq) cavity-dispersion-solvent structure 
     free energy                                                3.5590 kcal/mol
(6)  G-S(liq) free energy of system                     -209.252807270 a.u.
E_pcm = -0.0291364337
E_cds = 0.0056716729
Multipole orders to be included
        2
        3
computing dipole RHS
computing quadrupole RHS
total number of RHS in solve_reponses: 8
RHS batch sizes
        8
Beginning Block Conjugate Gradient Iterations. Batch Number: 0
computing hessian-vector products by finite difference
              1      5.97e-01     00000 Conjugate Gradient Iteration
computing hessian-vector products by finite difference
              2      2.06e-01     00000 Conjugate Gradient Iteration
computing hessian-vector products by finite difference
              3      5.85e-02     00000 Conjugate Gradient Iteration
computing hessian-vector products by finite difference
              4      1.48e-02     00000 Conjugate Gradient Iteration
computing hessian-vector products by finite difference
              5      1.97e-03     00000 Conjugate Gradient Iteration
computing hessian-vector products by finite difference
              6      4.35e-04     00000 Conjugate Gradient Iteration
computing hessian-vector products by finite difference
              7      5.88e-05     00000 Conjugate Gradient Iteration
computing hessian-vector products by finite difference
              8      7.14e-06     00000 Conjugate Gradient Iteration
computing hessian-vector products by finite difference
              9      1.06e-06     00000 Conjugate Gradient Iteration
computing hessian-vector products by finite difference
             10      1.14e-07     00000 Conjugate Gradient Iteration
computing hessian-vector products by finite difference
             11      1.10e-08     00000 Conjugate Gradient Iteration
computing hessian-vector products by finite difference
             12      2.83e-09     00000 CG Converged
batch 0 complete
Done Calculating Responses
TESTING ORTHOGONALIZATION OF MULTIPOLE BASIS
Multipole virts passed orthogonality test
Virts Per Order
        48
        80
 
 --------------------------------------------------------------
 
                    Orbital Energies (a.u.)
 --------------------------------------------------------------
 
 Alpha MOs
 -- Occupied --
-19.1837 -14.4272 -10.3788 -10.2629  -1.1774  -1.0396  -0.8606  -0.7089
 -0.6504  -0.5904  -0.5640  -0.5190  -0.4961  -0.4794  -0.3834  -0.3759
 -- Virtual --
  0.0645   0.0964   0.0970   0.1035   0.1299   0.1332   0.1409   0.1496
  0.1758   0.1901   0.2026   0.2151   0.2294   0.2450   0.2519   0.2594
  0.2648   0.2786   0.3040   0.3147   0.3328   0.3397   0.3457   0.3515
  0.3592   0.3680   0.3751   0.3837   0.3952   0.4030   0.4164   0.4229
  0.4337   0.4537   0.4572   0.4800   0.4812   0.4883   0.4901   0.5078
  0.5258   0.5308   0.5432   0.5737   0.5833   0.5952   0.6247   0.6323
  0.6417   0.6502   0.6714   0.6998   0.7091   0.7184   0.7261   0.7626
  0.7765   0.7901   0.8021   0.8148   0.8189   0.8433   0.8532   0.8755
  0.9271   0.9513   0.9767   0.9928   1.0041   1.0405   1.0578   1.0887
  1.0999   1.1798   1.2267   1.2466   1.2852   1.3244   1.3361   1.3827
  1.4801   1.4946   1.5095   1.6180   1.6888   1.7273   1.7411   1.8082
  1.8426   1.8673   1.9018   1.9141   1.9319   1.9547   2.0022   2.0353
  2.0527   2.0889   2.1427   2.1871   2.2195   2.2405   2.3142   2.3561
  2.3739   2.3938   2.4490   2.4756   2.5443   2.5827   2.5986   2.6221
  2.6832   2.7046   2.7643   2.8190   2.8388   2.9241   2.9615   2.9771
  3.0591   3.1110   3.1414   3.1553   3.2053   3.2310   3.2506   3.2897
  3.3154   3.3337   3.3581   3.4175   3.4585   3.5235   3.5351   3.5740
  3.6070   3.6552   3.7132   3.7748   3.8596   3.9261   4.0117   4.0490
  4.0662   4.1971   4.2885   4.4068   4.5462   4.5540   4.6104   4.6671
  4.7807   4.8900   4.9010   4.9368   5.1583   5.1791   5.2692   5.3508
  5.3808   5.3923   5.3976   5.4954   5.5305   5.7625   5.9014   6.1513
  6.2463   6.5220   6.6345   6.7265   6.8100   6.9699   7.2186   7.3131
 22.5804  23.5593  32.4163  44.3066
 --------------------------------------------------------------
 
          Ground-State Mulliken Net Atomic Charges

     Atom                 Charge (a.u.)
  ----------------------------------------
      1 C                    -0.649158
      2 C                     0.450616
      3 O                    -0.689157
      4 N                    -0.305989
      5 H                     0.258244
      6 H                     0.233439
      7 H                     0.218339
      8 H                     0.226301
      9 H                     0.257366
  ----------------------------------------
  Sum of atomic charges =     0.000000

 -----------------------------------------------------------------
                    Cartesian Multipole Moments
 -----------------------------------------------------------------
    Charge (ESU x 10^10)
                -0.0000
    Dipole Moment (Debye)
         X       3.6056      Y      -2.2258      Z      -4.0794
       Tot       5.8818
    Quadrupole Moments (Debye-Ang)
        XX     -15.8125     XY      -5.8667     YY     -21.3992
        XZ       4.0567     YZ      -1.9870     ZZ     -35.0254
    Octopole Moments (Debye-Ang^2)
       XXX     -81.7738    XXY      10.2999    XYY     -26.5183
       YYY      64.2066    XXZ     -34.6512    XYZ      -6.9860
       YYZ     -39.9330    XZZ     -23.3911    YZZ      18.3780
       ZZZ    -165.9196
    Hexadecapole Moments (Debye-Ang^3)
      XXXX    -361.5384   XXXY      96.3602   XXYY     -86.1032
      XYYY     113.3406   YYYY    -182.7238   XXXZ    -175.7991
      XXYZ      31.1501   XYYZ     -55.6420   YYYZ     120.6386
      XXZZ    -148.8760   XYZZ      23.4794   YYZZ    -127.4076
      XZZZ    -172.4948   YZZZ     126.1476   ZZZZ    -733.0064
 -----------------------------------------------------------------
Archival summary:
1\1\nid00557\SP\ProcedureUnspecified\BasisUnspecified\1125\meili\SunSep2607:21:502021SunSep2607:21:502021\0\\#,ProcedureUnspecified,BasisUnspecified,\\0,1\C\O,1,1.22867\N,1,1.32501,2,121.5\H,3,1.00973,1,123.786,2,178.142,0\H,3,1.0163,1,116.143,2,-3.88389,0\C,1,1.52784,2,120.6,3,-179.457,0\H,6,1.08577,1,108.506,2,93.3144,0\H,6,1.09072,1,108.319,2,-22.9018,0\H,6,1.1,1,113.223,2,-143.618,0\\\@

 Total job time:  6083.66s(wall), 11940.10s(cpu) 
 Sun Sep 26 07:21:50 2021

        *************************************************************
        *                                                           *
        *  Thank you very much for using Q-Chem.  Have a nice day.  *
        *                                                           *
        *************************************************************


Done Job For Fragment 0
calling putenv with: QCSCRATCH=/global/cscratch1/sd/meili 
calling putenv with: QCLOCALSCR=/tmp 
calling putenv with: QCTHREADS=32 
Creating input file /tmp/qchem53396/Frg2.input
using default PutDataFrgm: nothing
calling putenv with: QCSCRATCH=/tmp/qchem53396/ 
calling putenv with: QCLOCALSCR=/tmp/qchem53396/ 
Spawning Job For Fragment 1
                  Welcome to Q-Chem
     A Quantum Leap Into The Future Of Chemistry


 Q-Chem 5.2, Q-Chem, Inc., Pleasanton, CA (2019)

 License issued to: National Energy Research Scientific Computing Center

 Yihan Shao,  Zhengting Gan,  E. Epifanovsky,  A. T. B. Gilbert,  M. Wormit,  
 J. Kussmann,  A. W. Lange,  A. Behn,  Jia Deng,  Xintian Feng,  D. Ghosh,  
 M. Goldey,  P. R. Horn,  L. D. Jacobson,  I. Kaliman,  T. Kus,  A. Landau,  
 Jie Liu,  E. I. Proynov,  R. M. Richard,  R. P. Steele,  E. J. Sundstrom,  
 H. L. Woodcock III,  P. M. Zimmerman,  D. Zuev,  B. Albrecht,  E. Alguire,  
 S. A. Baeppler,  D. Barton,  Z. Benda,  Y. A. Bernard,  E. J. Berquist,  
 K. B. Bravaya,  H. Burton,  D. Casanova,  Chun-Min Chang,  Yunqing Chen,  
 A. Chien,  K. D. Closser,  M. P. Coons,  S. Coriani,  S. Dasgupta,  
 A. L. Dempwolff,  M. Diedenhofen,  Hainam Do,  R. G. Edgar,  Po-Tung Fang,  
 S. Faraji,  S. Fatehi,  Qingguo Feng,  K. D. Fenk,  J. Fosso-Tande,  
 J. Gayvert,  Qinghui Ge,  A. Ghysels,  G. Gidofalvi,  J. Gomes,  
 J. Gonthier,  A. Gunina,  D. Hait,  M. W. D. Hanson-Heine,  
 P. H. P. Harbach,  A. W. Hauser,  M. F. Herbst,  J. E. Herr,  
 E. G. Hohenstein,  Z. C. Holden,  Kerwin Hui,  B. C. Huynh,  T.-C. Jagau,  
 Hyunjun Ji,  B. Kaduk,  K. Khistyaev,  Jaehoon Kim,  P. Klunzinger,  K. Koh,  
 D. Kosenkov,  L. Koulias,  T. Kowalczyk,  C. M. Krauter,  A. Kunitsa,  
 Ka Un Lao,  A. Laurent,  K. V. Lawler,  Joonho Lee,  D. Lefrancois,  
 S. Lehtola,  D. S. Levine,  Yi-Pei Li,  You-Sheng Lin,  Fenglai Liu,  
 E. Livshits,  A. Luenser,  P. Manohar,  E. Mansoor,  S. F. Manzer,  
 Shan-Ping Mao,  Yuezhi Mao,  N. Mardirossian,  A. V. Marenich,  
 T. Markovich,  L. A. Martinez-Martinez,  S. A. Maurer,  N. J. Mayhall,  
 S. C. McKenzie,  J.-M. Mewes,  P. Morgante,  A. F. Morrison,  
 J. W. Mullinax,  K. Nanda,  T. S. Nguyen-Beck,  R. Olivares-Amaya,  
 J. A. Parkhill,  Zheng Pei,  T. M. Perrine,  F. Plasser,  P. Pokhilko,  
 S. Prager,  A. Prociuk,  E. Ramos,  D. R. Rehn,  F. Rob,  M. Scheurer,  
 M. Schneider,  N. Sergueev,  S. M. Sharada,  S. Sharma,  D. W. Small,  
 T. Stauch,  T. Stein,  Yu-Chuan Su,  A. J. W. Thom,  A. Tkatchenko,  
 T. Tsuchimochi,  N. M. Tubman,  L. Vogt,  M. L. Vidal,  O. Vydrov,  
 M. A. Watson,  J. Wenzel,  M. de Wergifosse,  T. A. Wesolowski,  A. White,  
 J. Witte,  A. Yamada,  Jun Yang,  K. Yao,  S. Yeganeh,  S. R. Yost,  
 Zhi-Qiang You,  A. Zech,  Igor Ying Zhang,  Xing Zhang,  Yan Zhao,  
 Ying Zhu,  B. R. Brooks,  G. K. L. Chan,  C. J. Cramer,  M. S. Gordon,  
 W. J. Hehre,  A. Klamt,  M. W. Schmidt,  C. D. Sherrill,  D. G. Truhlar,  
 A. Aspuru-Guzik,  R. Baer,  A. T. Bell,  N. A. Besley,  Jeng-Da Chai,  
 A. E. DePrince, III,  R. A. DiStasio Jr.,  A. Dreuw,  B. D. Dunietz,  
 T. R. Furlani,  Chao-Ping Hsu,  Yousung Jung,  Jing Kong,  D. S. Lambrecht,  
 WanZhen Liang,  C. Ochsenfeld,  V. A. Rassolov,  L. V. Slipchenko,  
 J. E. Subotnik,  T. Van Voorhis,  J. M. Herbert,  A. I. Krylov,  
 P. M. W. Gill,  M. Head-Gordon

 Contributors to earlier versions of Q-Chem not listed above: 
 R. D. Adamson,  B. Austin,  J. Baker,  G. J. O. Beran,  K. Brandhorst,  
 S. T. Brown,  E. F. C. Byrd,  A. K. Chakraborty,  C.-L. Cheng,  
 Siu Hung Chien,  D. M. Chipman,  D. L. Crittenden,  H. Dachsel,  
 R. J. Doerksen,  A. D. Dutoi,  L. Fusti-Molnar,  W. A. Goddard III,  
 A. Golubeva-Zadorozhnaya,  S. R. Gwaltney,  G. Hawkins,  A. Heyden,  
 S. Hirata,  G. Kedziora,  F. J. Keil,  C. Kelley,  Jihan Kim,  R. A. King,  
 R. Z. Khaliullin,  P. P. Korambath,  W. Kurlancheek,  A. M. Lee,  M. S. Lee,  
 S. V. Levchenko,  Ching Yeh Lin,  D. Liotard,  R. C. Lochan,  I. Lotan,  
 P. E. Maslen,  N. Nair,  D. P. O'Neill,  D. Neuhauser,  E. Neuscamman,  
 C. M. Oana,  R. Olson,  B. Peters,  R. Peverati,  P. A. Pieniazek,  
 Y. M. Rhee,  J. Ritchie,  M. A. Rohrdanz,  E. Rosta,  N. J. Russ,  
 H. F. Schaefer III,  N. E. Schultz,  N. Shenvi,  A. C. Simmonett,  A. Sodt,  
 D. Stuck,  K. S. Thanthiriwatte,  V. Vanovschi,  Tao Wang,  A. Warshel,  
 C. F. Williams,  Q. Wu,  X. Xu,  W. Zhang

 Please cite Q-Chem as follows:
 Y. Shao et al., Mol. Phys. 113, 184-215 (2015)
 DOI: 10.1080/00268976.2014.952696

 Q-Chem 5.2.0 for Intel X86 EM64T Linux

 Parts of Q-Chem use Armadillo 8.300.2 (Tropical Shenanigans).
 http://arma.sourceforge.net/

 Q-Chem begins on Sun Sep 26 07:21:51 2021  

Host: cori01
0

     Scratch files written to /tmp/qchem53396//Frg2//
 May1019 |scratch|qcdevops|jenkins|workspace|build_RNUM -1
Processing $rem in /global/common/cori/software/qchem/5.2/config/preferences:
	 MEM_TOTAL  96000 
NAlpha2: 32
NElect   32
Mult     1
Symmetry turned off for PCM/SM12/SMD calculation

Checking the input file for inconsistencies... 	...done.

--------------------------------------------------------------
User input:
--------------------------------------------------------------
$molecule
-1 1
 6	-0.1141823086	0.9357414664	-2.5879785435
 6	-1.4011823086	0.9097414664	-1.7749785435
 8	-1.4581823086	0.1217414664	-0.8009785435
 8	-2.3371823086	1.6617414664	-2.1009785435
 1	-0.0121823086	-0.0272585336	-3.0959785435
 1	0.7198176914	1.0417414664	-1.8929785435
 1	-0.0697523086	1.7455314664	-3.3311185435
$end
$rem
EDA2		1
METHOD		WB97X-V
BASIS		DEF2-TZVPD
XC_GRID		000099000590
NL_GRID		1
UNRESTRICTED		FALSE
MAX_SCF_CYCLES		200
SYMMETRY		FALSE
SYM_IGNORE		TRUE
BASIS_LIN_DEP_THRESH		6
THRESH		14
SCF_CONVERGENCE		8
SCF_PRINT_FRGM		TRUE
SOLVENT_METHOD		SMD
!required keywords
JOBTYPE		SP
SYM_IGNORE		TRUE
SUBSYSTEM		TRUE
GEN_SCFMAN		TRUE
CHILD_INSTRUCTION		2
SYM_IGNORE		TRUE
SCFMI		0
RI_K 0		
PARI_K 0		
MIN_PARI_K 0		
IARI_K 0		
OCC_RI_K 0		
PURECART		1111
MEM_STATIC		2000
MEM_TOTAL		96000
GUI		0
CHILD_MP		1
CHILD_MP_ORDERS		232
FRZ_RELAX		0
FRZ_RELAX_METHOD		0
EDA_CLS_ELEC		1
EDA_CLS_DISP		0
FRZ_ORTHO_DECOMP		1
EDA2		FALSE
FRGM_METHOD		FALSE
CIS_N_ROOTS  0
LOCAL_CIS    0
CIS_RLX_DNS  1
$end
$smx
SOLVENT			WATER
$end
--------------------------------------------------------------
 ----------------------------------------------------------------
             Standard Nuclear Orientation (Angstroms)
    I     Atom           X                Y                Z
 ----------------------------------------------------------------
    1      C      -0.1141823086     0.9357414664    -2.5879785435
    2      C      -1.4011823086     0.9097414664    -1.7749785435
    3      O      -1.4581823086     0.1217414664    -0.8009785435
    4      O      -2.3371823086     1.6617414664    -2.1009785435
    5      H      -0.0121823086    -0.0272585336    -3.0959785435
    6      H       0.7198176914     1.0417414664    -1.8929785435
    7      H      -0.0697523086     1.7455314664    -3.3311185435
 ----------------------------------------------------------------
 Nuclear Repulsion Energy =         112.74963621 hartrees
 There are       16 alpha and       16 beta electrons
 Requested basis set is def2-TZVPD
 There are 69 shells and 181 basis functions

 Total QAlloc Memory Limit  96000 MB
 Mega-Array Size      1956 MB
 MEM_STATIC part      2000 MB
 
 Citation of the SMD model:
 Marenich, A.V.; Cramer, C.J.; Truhlar, D.G.
 J. Phys. Chem. B 2009, 113, 6378-6396.
 iSolventCode=           1
 Solvent: water                                                           
 
 vradii
            1           2           3           4           5           6
    1   1.8500000   1.8500000   1.5200000   1.5200000   1.2000000   1.2000000
            7
    1   1.2000000
 Changing PCM_VDW_RADII to SMD_RADIUS
 Discretize the solute cavity surface with Lebedev spheres
	Using 110 Lebedev grid points for each H atom
	Using 194 Lebedev grid points for other atoms
	Atomic van der Waals radii will be scaled by 1.20
 Remove points where switching function is < 1.0e-08
 Keep 645 surface tesserae and discard 461 interior tesserae
 Molecular Surface Area = 79.998 Angst**2

                       Distance Matrix (Angstroms)
             C (  1)   C (  2)   O (  3)   O (  4)   H (  5)   H (  6)
   C (  2)  1.522503
   O (  3)  2.379559  1.254141
   O (  4)  2.388718  1.244137  2.198691
   H (  5)  1.093543  2.133619  2.716642  3.041113
   H (  6)  1.090787  2.128377  2.604333  3.126166  1.767992
   H (  7)  1.099996  2.211973  3.311501  2.580989  1.789243  1.785214

 
 A cutoff of  1.0D-14 yielded   2391 shell pairs
 There are     16695 function pairs (     21491 Cartesian)
 Smallest overlap matrix eigenvalue = 1.66E-05

 Scale SEOQF with 1.000000e-01/1.000000e-01/1.000000e-01

 Standard Electronic Orientation quadrupole field applied
 Nucleus-field energy     =    -0.0000000080 hartrees
 Guess from superposition of atomic densities
 Warning:  Energy on first SCF cycle will be non-variational
 SAD guess density has 30.625312 electrons

 -----------------------------------------------------------------------
  General SCF calculation program by
  Eric Jon Sundstrom, Paul Horn, Yuezhi Mao, Dmitri Zuev, Alec White,
  David Stuck, Shaama M.S., Shane Yost, Joonho Lee, David Small,
  Daniel Levine, Susi Lehtola, Hugh Burton, Evgeny Epifanovsky
 -----------------------------------------------------------------------
 Exchange:     0.1670 Hartree-Fock + 1.0000 wB97X-V + LR-HF
 Correlation:  1.0000 wB97X-V
 Using Euler-Maclaurin-Lebedev (99,590) quadrature formula
 Nonlocal Correlation:  VV10 with C = 0.0100 and b = 6.00 and scale = 1.00000
 Grid used for NLC:  SG-1 standard quadrature
Energy prior to optimization (guess energy) = -227.765662952420
Begin Timing: Total SCF Calculation
begin iterations for algorithm: DIIS         
the SCF tolerance is set to 1.00e-08
    1    -227.7656629524      1.66e-02     00000 
    2    -225.6442746566      2.49e-02     00000 
    3    -228.6069737552      4.06e-03     00000 
    4    -228.6596095190      1.36e-03     00000 
    5    -228.6654732478      2.22e-04     00000 
    6    -228.6657250831      1.17e-04     00000 
    7    -228.6657599225      5.83e-05     00000 
    8    -228.6657708782      1.34e-05     00000 
    9    -228.6657719971      3.87e-06     00000 
   10    -228.6657721084      1.12e-06     00000 
   11    -228.6657721189      2.20e-07     00000 
   12    -228.6657721193      4.87e-08     00000 
   13    -228.6657721194      1.22e-08     00000 
   14    -228.6657721194      3.07e-09     00000 Convergence criterion met
Timing for Total SCF: 276.00s (wall), 543.88s (cpu)
(3)  G-ENP(liq) elect-nuc-pol free energy of system     -228.665772119 a.u.
(4)  G-CDS(liq) cavity-dispersion-solvent structure 
     free energy                                                3.9167 kcal/mol
(6)  G-S(liq) free energy of system                     -228.659530535 a.u.
E_pcm = -0.1306629745
E_cds = 0.0062415846
Multipole orders to be included
        2
        3
computing dipole RHS
computing quadrupole RHS
total number of RHS in solve_reponses: 8
RHS batch sizes
        8
Beginning Block Conjugate Gradient Iterations. Batch Number: 0
computing hessian-vector products by finite difference
              1      6.50e-01     00000 Conjugate Gradient Iteration
computing hessian-vector products by finite difference
              2      1.89e-01     00000 Conjugate Gradient Iteration
computing hessian-vector products by finite difference
              3      5.07e-02     00000 Conjugate Gradient Iteration
computing hessian-vector products by finite difference
              4      1.34e-02     00000 Conjugate Gradient Iteration
computing hessian-vector products by finite difference
              5      2.00e-03     00000 Conjugate Gradient Iteration
computing hessian-vector products by finite difference
              6      5.28e-04     00000 Conjugate Gradient Iteration
computing hessian-vector products by finite difference
              7      7.48e-05     00000 Conjugate Gradient Iteration
computing hessian-vector products by finite difference
              8      9.22e-06     00000 Conjugate Gradient Iteration
computing hessian-vector products by finite difference
              9      1.42e-06     00000 Conjugate Gradient Iteration
computing hessian-vector products by finite difference
             10      1.38e-07     00000 Conjugate Gradient Iteration
computing hessian-vector products by finite difference
             11      1.71e-08     00000 Conjugate Gradient Iteration
computing hessian-vector products by finite difference
             12      3.01e-09     00000 CG Converged
batch 0 complete
Done Calculating Responses
TESTING ORTHOGONALIZATION OF MULTIPOLE BASIS
Multipole virts passed orthogonality test
Virts Per Order
        48
        80
 
 --------------------------------------------------------------
 
                    Orbital Energies (a.u.)
 --------------------------------------------------------------
 
 Alpha MOs
 -- Occupied --
-19.1539 -19.1518 -10.3536 -10.2464  -1.1666  -1.0667  -0.8397  -0.6170
 -0.5481  -0.5466  -0.5417  -0.4824  -0.4627  -0.3659  -0.3569  -0.3454
 -- Virtual --
  0.0670   0.0998   0.1008   0.1076   0.1352   0.1449   0.1457   0.1497
  0.1576   0.1912   0.2029   0.2262   0.2329   0.2381   0.2603   0.2646
  0.2990   0.3151   0.3333   0.3462   0.3522   0.3625   0.3719   0.3837
  0.3876   0.3965   0.4149   0.4257   0.4294   0.4562   0.4673   0.4726
  0.4822   0.4905   0.5041   0.5100   0.5467   0.5570   0.5847   0.6019
  0.6106   0.6246   0.6275   0.6462   0.6583   0.6688   0.6788   0.6968
  0.7073   0.7254   0.7700   0.7917   0.8063   0.8116   0.8327   0.8482
  0.8636   0.9538   0.9695   0.9808   0.9845   1.0320   1.0384   1.1058
  1.1556   1.1890   1.2433   1.2618   1.2809   1.3026   1.3304   1.3431
  1.4381   1.5518   1.5853   1.7319   1.8059   1.8411   1.8578   1.8963
  1.9054   1.9406   1.9519   1.9578   2.0086   2.0975   2.1118   2.1487
  2.1961   2.2073   2.3085   2.3226   2.3961   2.4263   2.4654   2.4798
  2.5623   2.5776   2.5998   2.6505   2.7735   2.8148   2.8643   2.9134
  2.9388   2.9831   3.0101   3.1678   3.1890   3.2400   3.2632   3.2942
  3.3291   3.3386   3.3769   3.4017   3.4238   3.5238   3.5400   3.5561
  3.5971   3.6380   3.6784   3.7175   3.7577   3.8647   3.9318   4.0324
  4.0701   4.1894   4.3497   4.5472   4.6040   4.6571   4.7774   4.8042
  4.9707   5.2965   5.3237   5.3342   5.3403   5.4721   5.6880   5.7371
  5.7929   5.9962   6.2167   6.3123   6.3266   6.5971   6.6009   6.6851
  6.7121   6.7272   6.9290   6.9440   7.0112   7.2153   7.3330   7.3581
  7.3858  22.5859  23.7316  44.1896  44.3194
 --------------------------------------------------------------
 
          Ground-State Mulliken Net Atomic Charges

     Atom                 Charge (a.u.)
  ----------------------------------------
      1 C                    -0.580012
      2 C                     0.493967
      3 O                    -0.783538
      4 O                    -0.759111
      5 H                     0.198587
      6 H                     0.207139
      7 H                     0.222968
  ----------------------------------------
  Sum of atomic charges =    -1.000000

 -----------------------------------------------------------------
                    Cartesian Multipole Moments
 -----------------------------------------------------------------
    Charge (ESU x 10^10)
                -4.8032
    Dipole Moment (Debye)
         X      11.0112      Y      -4.2034      Z       5.6962
       Tot      13.0905
    Quadrupole Moments (Debye-Ang)
        XX     -50.7058     XY      12.7527     YY     -34.0619
        XZ     -16.5251     YZ       9.5981     ZZ     -35.0367
    Octopole Moments (Debye-Ang^2)
       XXX     155.2463    XXY     -56.2815    XYY      55.5244
       YYY     -85.7237    XXZ      90.1348    XYZ     -27.4475
       YYZ      66.0885    XZZ      63.7706    YZZ     -45.1760
       ZZZ     161.5313
    Hexadecapole Moments (Debye-Ang^3)
      XXXX    -534.3886   XXXY     183.3908   XXYY    -158.6819
      XYYY     142.0498   YYYY    -239.0984   XXXZ    -262.3571
      XXYZ     120.5531   XYYZ    -103.9027   YYYZ     185.4264
      XXZZ    -258.5844   XYZZ      94.4169   YYZZ    -180.2602
      XZZZ    -226.9349   YZZZ     199.7250   ZZZZ    -680.0681
 -----------------------------------------------------------------
Archival summary:
1\1\nid00557\SP\ProcedureUnspecified\BasisUnspecified\223(1-,1)\meili\SunSep2608:41:082021SunSep2608:41:082021\0\\#,ProcedureUnspecified,BasisUnspecified,\\-1,1\C\O,1,1.24414\O,1,1.25414,2,123.304\C,1,1.5225,2,119.059,3,-179.943,0\H,4,1.09079,1,107.923,2,129.942,0\H,4,1.09354,1,108.172,2,-113.356,0\H,4,1.1,1,114.046,2,8.48635,0\\\@

 Total job time:  4758.07s(wall), 9138.51s(cpu) 
 Sun Sep 26 08:41:09 2021

        *************************************************************
        *                                                           *
        *  Thank you very much for using Q-Chem.  Have a nice day.  *
        *                                                           *
        *************************************************************


Done Job For Fragment 1
calling putenv with: QCSCRATCH=/global/cscratch1/sd/meili 
calling putenv with: QCLOCALSCR=/tmp 
calling putenv with: QCTHREADS=32 
Doing General SCFMI
 Exchange:     0.1670 Hartree-Fock + 1.0000 wB97X-V + LR-HF
 Correlation:  1.0000 wB97X-V
 Using Euler-Maclaurin-Lebedev (99,590) quadrature formula
 Nonlocal Correlation:  VV10 with C = 0.0100 and b = 6.00 and scale = 1.00000
 Grid used for NLC:  SG-1 standard quadrature
performing fock build before subrot guess so that all methods have access
Printing subrot_rss_gen Method Specification:
Occupied Subspace Method is 0
Virtual Subspace Method is 0
Energy of the unrelaxed supersystem initial determinant -437.771244775846
performing fock build before subrot guess so that all methods have access
Printing subrot_rss_gen Method Specification:
Occupied Subspace Method is 0
Virtual Subspace Method is 0
Energy of the unrelaxed supersystem initial determinant w/ solvent -437.925644231792
write pseudocanon occs and virts to disk
write pseudocanon orbital energies to disk
Tolerance of ortho_decomp_scf: 1.00e-06
GDM subspace size: 20
Beginning the Orthogonal Decomposition of the Initial Supersystem Wavefunction
    1    -437.7367077304      5.73e-02     ortho_decomp Preconditoned Steepest Descent
    2    -437.7410054513      1.48e-03     ortho_decomp BFGS Step
    3    -437.7410207421      1.13e-04     ortho_decomp BFGS Step
    4    -437.7410207672      4.52e-06     ortho_decomp BFGS Step
    5    -437.7410207672      1.45e-07     ortho_decomp 00000 Convergence criterion met
 Hartree-Fock
 Hartree-Fock
 Hartree-Fock
Doing General SCFMI
 Exchange:     0.1670 Hartree-Fock + 1.0000 wB97X-V + LR-HF
 Correlation:  1.0000 wB97X-V
 Using Euler-Maclaurin-Lebedev (99,590) quadrature formula
 Nonlocal Correlation:  VV10 with C = 0.0100 and b = 6.00 and scale = 1.00000
 Grid used for NLC:  SG-1 standard quadrature
performing fock build at end of subrot_r(subrot) constructor so that all methods have access
<S^2> of initial wavefunction before polarization iterations 0.0000000000
Beginning iterations for the determination of the polarized wavefunction
Energy prior to optimization (guess energy) = -437.925644231792
Begin Timing: Total SCF Calculation
begin iterations for algorithm: DIIS         
the SCF tolerance is set to 1.00e-08
    1    -437.9256442318      9.91e-05     00000 
    2    -437.9260014851      5.77e-05     00000 
    3    -437.9260523689      3.15e-05     00000 
    4    -437.9260718836      8.21e-06     00000 
    5    -437.9260734096      3.20e-06     00000 
    6    -437.9260737473      1.25e-06     00000 
    7    -437.9260738032      4.88e-07     00000 
    8    -437.9260738136      1.96e-07     00000 
    9    -437.9260738150      7.76e-08     00000 
   10    -437.9260738151      2.10e-08     00000 
   11    -437.9260738151      1.42e-08     00000 
   12    -437.9260738152      3.10e-09     00000 Convergence criterion met
write pseudocanon occs and virts to disk
write pseudocanon orbital energies to disk
Timing for Total SCF: 1577.00s (wall), 3132.53s (cpu)
<S^2> of polarized wavefunction after polarization iterations 0.0000000000
relaxing scfmi constraint to allow all rotations in the entire AO span
Doing General SCFMI
 Exchange:     0.1670 Hartree-Fock + 1.0000 wB97X-V + LR-HF
 Correlation:  1.0000 wB97X-V
 Using Euler-Maclaurin-Lebedev (99,590) quadrature formula
 Nonlocal Correlation:  VV10 with C = 0.0100 and b = 6.00 and scale = 1.00000
 Grid used for NLC:  SG-1 standard quadrature
performing fock build at end of subrot_r(subrot) constructor so that all methods have access
<S^2> of polarized wavefunction before ct-allowed iterations 0.0000000000
Beginning iterations for the determination of the CT-Allowed wavefunction
Energy prior to optimization (guess energy) = -437.926073815152
Begin Timing: Total SCF Calculation
begin iterations for algorithm: DIIS         
the SCF tolerance is set to 1.00e-08
    1    -437.9260738152      1.47e-04     00000 
    2    -437.9279812891      2.28e-05     00000 
    3    -437.9280647750      9.80e-06     00000 
    4    -437.9280699363      6.01e-06     00000 
    5    -437.9280722305      1.08e-06     00000 
    6    -437.9280723318      5.12e-07     00000 
    7    -437.9280723612      1.58e-07     00000 
    8    -437.9280723637      5.02e-08     00000 
    9    -437.9280723640      1.94e-08     00000 
   10    -437.9280723641      7.66e-09     00000 Convergence criterion met
write pseudocanon occs and virts to disk
write pseudocanon orbital energies to disk
Timing for Total SCF: 1303.00s (wall), 2588.36s (cpu)
<S^2> of ct_allowed wavefunction after ct-allowed iterations 0.0000000000

================================
        Results of EDA2         
================================
Basic EDA Quantities
--------------------
Fragment Energies (Ha):
1 -209.2528072700
2 -228.6595305348
--------------------
  E_prp (kJ/mol) = 0.0000
  E_sol (kJ/mol) = 11.1400
  E_frz (kJ/mol) = -17.8356
  E_pol (kJ/mol) = -1.1279
  E_vct (kJ/mol) = -5.2473
  E_int (kJ/mol) = -13.0706
--------------------


Initial Wavefunction Decomposition
--------------------
  --------------------
  Orthogonal Fragment Subspace Decomposition:
  --------------------
     E_elec   (ELEC)   (kJ/mol) = -56.2095
     E_pauli  (PAULI)  (kJ/mol) = 49.4830
     E_disp   (DISP)   (kJ/mol) = -11.1090
     --------------------
     Terms summing to E_pauli:
     --------------------
        E_kep_pauli       (kJ/mol) = 61.5185
        E_disp_free_pauli (kJ/mol) = -12.0355
  --------------------
  Classical Frozen Decomposition:
  --------------------
     E_cls_elec  (CLS ELEC)  (kJ/mol) = -32.1219
     E_cls_pauli (CLS PAULI) (kJ/mol) = 14.2864
    [E_mod_pauli (MOD PAULI) (kJ/mol) = 25.3954 (CLS PAULI - DISP from orthogonal decomposition) ]
  --------------------
--------------------

Simplified EDA Summary (kJ/mol)
--------------------
 PREPARATION     0.0000
 SOLVATION       11.1400
 FROZEN          -6.7265      (does not include dispersion)
[PAULI           49.4830]     (if this is negligible, then frozen describes electrostatics)
 DISPERSION      -11.1090
 POLARIZATION    -1.1279
 CHARGE TRANSFER -5.2473
 TOTAL           -13.0706     (PRP + SOL + FRZ + DISP + POL + CT)
--------------------
 
 --------------------------------------------------------------
 
                    Orbital Energies (a.u.)
 --------------------------------------------------------------
 
 Alpha MOs
 -- Occupied --
-19.1804 -19.1550 -19.1543 -14.4192 -10.3750 -10.3551 -10.2606 -10.2472
 -1.1740  -1.1682  -1.0687  -1.0341  -0.8579  -0.8406  -0.7043  -0.6472
 -0.6174  -0.5875  -0.5613  -0.5492  -0.5481  -0.5433  -0.5154  -0.4946
 -0.4816  -0.4767  -0.4637  -0.3789  -0.3742  -0.3663  -0.3581  -0.3465
 -- Virtual --
  0.0613   0.0779   0.0904   0.0930   0.1022   0.1124   0.1181   0.1267
  0.1289   0.1349   0.1419   0.1480   0.1518   0.1577   0.1744   0.1762
  0.1812   0.1928   0.2031   0.2068   0.2185   0.2272   0.2315   0.2376
  0.2411   0.2458   0.2620   0.2628   0.2687   0.2751   0.2858   0.2894
  0.2969   0.3133   0.3199   0.3230   0.3358   0.3448   0.3457   0.3464
  0.3500   0.3545   0.3587   0.3690   0.3731   0.3794   0.3823   0.3879
  0.3952   0.3996   0.4060   0.4150   0.4196   0.4210   0.4300   0.4323
  0.4395   0.4438   0.4529   0.4610   0.4665   0.4778   0.4834   0.4848
  0.4917   0.4944   0.4999   0.5037   0.5158   0.5235   0.5306   0.5327
  0.5461   0.5474   0.5502   0.5595   0.5815   0.5838   0.5896   0.5982
  0.6068   0.6119   0.6150   0.6243   0.6284   0.6396   0.6511   0.6551
  0.6584   0.6626   0.6683   0.6883   0.6917   0.7040   0.7067   0.7224
  0.7248   0.7325   0.7364   0.7468   0.7575   0.7651   0.7716   0.7747
  0.7896   0.8014   0.8094   0.8180   0.8193   0.8273   0.8401   0.8491
  0.8501   0.8555   0.8806   0.8868   0.9016   0.9101   0.9162   0.9364
  0.9411   0.9748   0.9795   0.9990   1.0152   1.0263   1.0282   1.0396
  1.0425   1.0674   1.0801   1.0962   1.1065   1.1117   1.1350   1.1640
  1.1819   1.2014   1.2195   1.2498   1.2598   1.2841   1.2945   1.3100
  1.3155   1.3287   1.3351   1.3503   1.3605   1.3776   1.3836   1.4196
  1.4722   1.5064   1.5348   1.5756   1.5808   1.6201   1.6717   1.7224
  1.7464   1.7803   1.8117   1.8276   1.8404   1.8603   1.8737   1.8796
  1.9057   1.9161   1.9245   1.9394   1.9480   1.9624   1.9669   1.9730
  1.9884   2.0089   2.0222   2.0446   2.0513   2.0972   2.1137   2.1357
  2.1583   2.1737   2.1788   2.2050   2.2279   2.2312   2.2657   2.2951
  2.3238   2.3366   2.3540   2.3769   2.4081   2.4177   2.4412   2.4764
  2.4913   2.5041   2.5180   2.5377   2.5673   2.5784   2.6056   2.6092
  2.6180   2.6316   2.6450   2.6764   2.7152   2.7359   2.7776   2.8108
  2.8333   2.8435   2.8844   2.8944   2.9287   2.9428   2.9730   2.9902
  2.9969   3.0108   3.0845   3.1009   3.1457   3.1607   3.1765   3.2101
  3.2123   3.2255   3.2624   3.2707   3.2773   3.2988   3.3063   3.3249
  3.3325   3.3410   3.3552   3.3651   3.3782   3.4117   3.4312   3.4357
  3.4629   3.4868   3.5331   3.5484   3.5602   3.5671   3.6066   3.6179
  3.6232   3.6335   3.6441   3.6722   3.7036   3.7285   3.7414   3.7695
  3.7979   3.8812   3.8913   3.9382   3.9554   4.0268   4.0476   4.0615
  4.0786   4.0825   4.2008   4.2051   4.3016   4.3611   4.4294   4.5500
  4.5550   4.5650   4.6255   4.6278   4.6703   4.6793   4.7944   4.8019
  4.8273   4.9218   4.9372   4.9853   4.9932   5.1923   5.1979   5.2795
  5.2964   5.3235   5.3365   5.3443   5.3675   5.4031   5.4038   5.4603
  5.4743   5.5321   5.5607   5.6932   5.7432   5.7689   5.7940   5.9153
  6.0047   6.1803   6.2280   6.2508   6.3283   6.3365   6.5343   6.6057
  6.6159   6.6494   6.7125   6.7285   6.7363   6.7540   6.8208   6.9410
  6.9704   6.9839   7.0279   7.2244   7.2394   7.3222   7.3482   7.3741
  7.4184  22.5898  22.6234  23.5815  23.7512  32.5281  44.2679  44.3312
 44.3730
 --------------------------------------------------------------
 
          Ground-State Mulliken Net Atomic Charges

     Atom                 Charge (a.u.)
  ----------------------------------------
      1 C                    -0.755307
      2 C                     0.543233
      3 O                    -0.689238
      4 N                    -0.153879
      5 H                     0.103136
      6 H                     0.223626
      7 H                     0.221483
      8 H                     0.237827
      9 H                     0.264576
     10 C                    -0.573450
     11 C                     0.507580
     12 O                    -0.786748
     13 O                    -0.774162
     14 H                     0.205374
     15 H                     0.202338
     16 H                     0.223611
  ----------------------------------------
  Sum of atomic charges =    -1.000000

 -----------------------------------------------------------------
                    Cartesian Multipole Moments
 -----------------------------------------------------------------
    Charge (ESU x 10^10)
                -4.8032
    Dipole Moment (Debye)
         X      14.3661      Y      -6.3088      Z       1.3858
       Tot      15.7514
    Quadrupole Moments (Debye-Ang)
        XX     -66.6771     XY       7.0124     YY     -55.5323
        XZ     -12.5882     YZ       7.6703     ZZ     -70.2944
    Octopole Moments (Debye-Ang^2)
       XXX      71.7184    XXY     -45.2463    XYY      28.4110
       YYY     -20.9100    XXZ      54.4986    XYZ     -33.9402
       YYZ      25.5920    XZZ      39.3850    YZZ     -26.0613
       ZZZ      -6.4901
    Hexadecapole Moments (Debye-Ang^3)
      XXXX    -897.3508   XXXY     280.6015   XXYY    -245.3098
      XYYY     255.8821   YYYY    -422.3162   XXXZ    -439.1276
      XXYZ     152.2117   XYYZ    -159.9285   YYYZ     306.3669
      XXZZ    -408.6443   XYZZ     118.5367   YYZZ    -308.0927
      XZZZ    -401.0873   YZZZ     326.5252   ZZZZ   -1416.2067
 -----------------------------------------------------------------
Archival summary:
1\1\nid00557\SP\ProcedureUnspecified\BasisUnspecified\3148(1-,1)\meili\SunSep2610:04:242021SunSep2610:04:242021\0\\#,ProcedureUnspecified,BasisUnspecified,\\-1,1\O\C,1,1.25414\O,2,1.24414,1,123.304\C,2,1.5225,1,117.636,3,179.943,0\H,4,1.09079,2,107.923,1,-50.0037,0\H,4,1.09354,2,108.172,1,66.6986,0\H,4,1.1,2,114.046,1,-171.459,0\H,1,2.16076,2,116.013,3,-156.126,0\N,8,1.0163,1,171.551,2,-152.805,0\H,9,1.00973,8,120.04,1,103.942,0\C,9,1.32501,8,116.143,1,-74.1129,0\O,11,1.22867,9,121.5,8,-3.88389,0\C,11,1.52784,9,117.898,8,175.587,0\H,13,1.08577,11,108.506,9,-86.1613,0\H,13,1.09072,11,108.319,9,157.622,0\H,13,1.1,11,113.223,9,36.9059,0\\\@

 Total job time:  15919.01s(wall), 10084.65s(cpu) 
 Sun Sep 26 10:04:25 2021

        *************************************************************
        *                                                           *
        *  Thank you very much for using Q-Chem.  Have a nice day.  *
        *                                                           *
        *************************************************************


