
Running Job 1 of 1 SSI-012ASP-026TYR-1_SMD_TZVPD.in
qchem SSI-012ASP-026TYR-1_SMD_TZVPD.in_27032.0 /tmp/qchem27032/ 0
/global/common/cori/software/qchem/5.2/exe/qcprog.exe_s SSI-012ASP-026TYR-1_SMD_TZVPD.in_27032.0 /tmp/qchem27032/
                  Welcome to Q-Chem
     A Quantum Leap Into The Future Of Chemistry


 Q-Chem 5.2, Q-Chem, Inc., Pleasanton, CA (2019)

 License issued to: National Energy Research Scientific Computing Center

 Yihan Shao,  Zhengting Gan,  E. Epifanovsky,  A. T. B. Gilbert,  M. Wormit,  
 J. Kussmann,  A. W. Lange,  A. Behn,  Jia Deng,  Xintian Feng,  D. Ghosh,  
 M. Goldey,  P. R. Horn,  L. D. Jacobson,  I. Kaliman,  T. Kus,  A. Landau,  
 Jie Liu,  E. I. Proynov,  R. M. Richard,  R. P. Steele,  E. J. Sundstrom,  
 H. L. Woodcock III,  P. M. Zimmerman,  D. Zuev,  B. Albrecht,  E. Alguire,  
 S. A. Baeppler,  D. Barton,  Z. Benda,  Y. A. Bernard,  E. J. Berquist,  
 K. B. Bravaya,  H. Burton,  D. Casanova,  Chun-Min Chang,  Yunqing Chen,  
 A. Chien,  K. D. Closser,  M. P. Coons,  S. Coriani,  S. Dasgupta,  
 A. L. Dempwolff,  M. Diedenhofen,  Hainam Do,  R. G. Edgar,  Po-Tung Fang,  
 S. Faraji,  S. Fatehi,  Qingguo Feng,  K. D. Fenk,  J. Fosso-Tande,  
 J. Gayvert,  Qinghui Ge,  A. Ghysels,  G. Gidofalvi,  J. Gomes,  
 J. Gonthier,  A. Gunina,  D. Hait,  M. W. D. Hanson-Heine,  
 P. H. P. Harbach,  A. W. Hauser,  M. F. Herbst,  J. E. Herr,  
 E. G. Hohenstein,  Z. C. Holden,  Kerwin Hui,  B. C. Huynh,  T.-C. Jagau,  
 Hyunjun Ji,  B. Kaduk,  K. Khistyaev,  Jaehoon Kim,  P. Klunzinger,  K. Koh,  
 D. Kosenkov,  L. Koulias,  T. Kowalczyk,  C. M. Krauter,  A. Kunitsa,  
 Ka Un Lao,  A. Laurent,  K. V. Lawler,  Joonho Lee,  D. Lefrancois,  
 S. Lehtola,  D. S. Levine,  Yi-Pei Li,  You-Sheng Lin,  Fenglai Liu,  
 E. Livshits,  A. Luenser,  P. Manohar,  E. Mansoor,  S. F. Manzer,  
 Shan-Ping Mao,  Yuezhi Mao,  N. Mardirossian,  A. V. Marenich,  
 T. Markovich,  L. A. Martinez-Martinez,  S. A. Maurer,  N. J. Mayhall,  
 S. C. McKenzie,  J.-M. Mewes,  P. Morgante,  A. F. Morrison,  
 J. W. Mullinax,  K. Nanda,  T. S. Nguyen-Beck,  R. Olivares-Amaya,  
 J. A. Parkhill,  Zheng Pei,  T. M. Perrine,  F. Plasser,  P. Pokhilko,  
 S. Prager,  A. Prociuk,  E. Ramos,  D. R. Rehn,  F. Rob,  M. Scheurer,  
 M. Schneider,  N. Sergueev,  S. M. Sharada,  S. Sharma,  D. W. Small,  
 T. Stauch,  T. Stein,  Yu-Chuan Su,  A. J. W. Thom,  A. Tkatchenko,  
 T. Tsuchimochi,  N. M. Tubman,  L. Vogt,  M. L. Vidal,  O. Vydrov,  
 M. A. Watson,  J. Wenzel,  M. de Wergifosse,  T. A. Wesolowski,  A. White,  
 J. Witte,  A. Yamada,  Jun Yang,  K. Yao,  S. Yeganeh,  S. R. Yost,  
 Zhi-Qiang You,  A. Zech,  Igor Ying Zhang,  Xing Zhang,  Yan Zhao,  
 Ying Zhu,  B. R. Brooks,  G. K. L. Chan,  C. J. Cramer,  M. S. Gordon,  
 W. J. Hehre,  A. Klamt,  M. W. Schmidt,  C. D. Sherrill,  D. G. Truhlar,  
 A. Aspuru-Guzik,  R. Baer,  A. T. Bell,  N. A. Besley,  Jeng-Da Chai,  
 A. E. DePrince, III,  R. A. DiStasio Jr.,  A. Dreuw,  B. D. Dunietz,  
 T. R. Furlani,  Chao-Ping Hsu,  Yousung Jung,  Jing Kong,  D. S. Lambrecht,  
 WanZhen Liang,  C. Ochsenfeld,  V. A. Rassolov,  L. V. Slipchenko,  
 J. E. Subotnik,  T. Van Voorhis,  J. M. Herbert,  A. I. Krylov,  
 P. M. W. Gill,  M. Head-Gordon

 Contributors to earlier versions of Q-Chem not listed above: 
 R. D. Adamson,  B. Austin,  J. Baker,  G. J. O. Beran,  K. Brandhorst,  
 S. T. Brown,  E. F. C. Byrd,  A. K. Chakraborty,  C.-L. Cheng,  
 Siu Hung Chien,  D. M. Chipman,  D. L. Crittenden,  H. Dachsel,  
 R. J. Doerksen,  A. D. Dutoi,  L. Fusti-Molnar,  W. A. Goddard III,  
 A. Golubeva-Zadorozhnaya,  S. R. Gwaltney,  G. Hawkins,  A. Heyden,  
 S. Hirata,  G. Kedziora,  F. J. Keil,  C. Kelley,  Jihan Kim,  R. A. King,  
 R. Z. Khaliullin,  P. P. Korambath,  W. Kurlancheek,  A. M. Lee,  M. S. Lee,  
 S. V. Levchenko,  Ching Yeh Lin,  D. Liotard,  R. C. Lochan,  I. Lotan,  
 P. E. Maslen,  N. Nair,  D. P. O'Neill,  D. Neuhauser,  E. Neuscamman,  
 C. M. Oana,  R. Olson,  B. Peters,  R. Peverati,  P. A. Pieniazek,  
 Y. M. Rhee,  J. Ritchie,  M. A. Rohrdanz,  E. Rosta,  N. J. Russ,  
 H. F. Schaefer III,  N. E. Schultz,  N. Shenvi,  A. C. Simmonett,  A. Sodt,  
 D. Stuck,  K. S. Thanthiriwatte,  V. Vanovschi,  Tao Wang,  A. Warshel,  
 C. F. Williams,  Q. Wu,  X. Xu,  W. Zhang

 Please cite Q-Chem as follows:
 Y. Shao et al., Mol. Phys. 113, 184-215 (2015)
 DOI: 10.1080/00268976.2014.952696

 Q-Chem 5.2.0 for Intel X86 EM64T Linux

 Parts of Q-Chem use Armadillo 8.300.2 (Tropical Shenanigans).
 http://arma.sourceforge.net/

 Q-Chem begins on Sun Sep 26 02:54:09 2021  

Host: cori01
0

     Scratch files written to /tmp/qchem27032//
 May1019 |scratch|qcdevops|jenkins|workspace|build_RNUM -1
Processing $rem in /global/common/cori/software/qchem/5.2/config/preferences:
	 MEM_TOTAL  96000 
NAlpha2: 98
NElect   98
Mult     1
Symmetry turned off for PCM/SM12/SMD calculation

 Q-Chem warning in module libgen/rem_setup.C, line 2803:

 Neither GIA nor STOLL is specified by user. Use STOLL as the default


Checking the input file for inconsistencies... 	...done.

--------------------------------------------------------------
User input:
--------------------------------------------------------------
$comment
SSI-012ASP-026TYR-1.pdb
$end

$molecule
-1 1
--
-1 1
C    1.119712573110    1.131829761841   -2.026382582667
C    0.603712573110    2.574829761841   -2.023382582667
C    2.410712573110    0.964829761841   -1.264382582667
O    3.481712573110    1.266829761841   -1.835382582667
O    2.357712573110    0.498829761841   -0.116382582667
H    0.342712573110    0.489829761841   -1.614382582667
H    1.307712573110    0.792829761841   -3.036382582667
H    0.263712573110    2.798829761841   -1.011382582667
H   -0.228932426890    2.659607761841   -2.737186582667
H    1.392255573110    3.297660761841   -2.279731582667
--
0 1
C   -3.630287426890   -1.433170238159   -0.792382582667
C   -0.828287426890    0.399829761841    1.050617417333
C   -1.900287426890    0.131829761841    0.186617417333
C   -0.291287426890   -0.627170238159    1.823617417333
C   -2.436287426890   -1.160170238159    0.087617417333
C   -0.822287426890   -1.917170238159    1.741617417333
C   -1.888287426890   -2.178170238159    0.878617417333
O    0.740712573110   -0.340170238159    2.663617417333
H   -0.426287426890    1.399829761841    1.118617417333
H   -2.319287426890    0.934829761841   -0.404382582667
H    1.090712573110    0.529829761841    2.454617417333
H   -0.399287426890   -2.703170238159    2.346617417333
H   -4.162287426890   -0.498170238159   -0.963382582667
H   -4.307287426890   -2.067170238159   -0.217382582667
H   -2.302287426890   -3.176170238159    0.826617417333
H   -3.442478426890   -1.926530238159   -1.757433582667
$end

$rem
JOBTYPE			EDA
EDA2			1
method			wB97X-V
BASIS			def2-TZVPD
XC_GRID			000099000590
NL_GRID			1
UNRESTRICTED		FALSE
MAX_SCF_CYCLES		200
SYMMETRY		FALSE
SYM_IGNORE		TRUE
MEM_STATIC		2000
BASIS_LIN_DEP_THRESH 	6
THRESH 			14
SCF_CONVERGENCE 	8
SCF_PRINT_FRGM 		TRUE
SOLVENT_METHOD          SMD
$end

$SMX
SOLVENT			WATER
$END
--------------------------------------------------------------
 ----------------------------------------------------------------
             Standard Nuclear Orientation (Angstroms)
    I     Atom           X                Y                Z
 ----------------------------------------------------------------
    1      C       1.1197125731     1.1318297618    -2.0263825827
    2      C       0.6037125731     2.5748297618    -2.0233825827
    3      C       2.4107125731     0.9648297618    -1.2643825827
    4      O       3.4817125731     1.2668297618    -1.8353825827
    5      O       2.3577125731     0.4988297618    -0.1163825827
    6      H       0.3427125731     0.4898297618    -1.6143825827
    7      H       1.3077125731     0.7928297618    -3.0363825827
    8      H       0.2637125731     2.7988297618    -1.0113825827
    9      H      -0.2289324269     2.6596077618    -2.7371865827
   10      H       1.3922555731     3.2976607618    -2.2797315827
   11      C      -3.6302874269    -1.4331702382    -0.7923825827
   12      C      -0.8282874269     0.3998297618     1.0506174173
   13      C      -1.9002874269     0.1318297618     0.1866174173
   14      C      -0.2912874269    -0.6271702382     1.8236174173
   15      C      -2.4362874269    -1.1601702382     0.0876174173
   16      C      -0.8222874269    -1.9171702382     1.7416174173
   17      C      -1.8882874269    -2.1781702382     0.8786174173
   18      O       0.7407125731    -0.3401702382     2.6636174173
   19      H      -0.4262874269     1.3998297618     1.1186174173
   20      H      -2.3192874269     0.9348297618    -0.4043825827
   21      H       1.0907125731     0.5298297618     2.4546174173
   22      H      -0.3992874269    -2.7031702382     2.3466174173
   23      H      -4.1622874269    -0.4981702382    -0.9633825827
   24      H      -4.3072874269    -2.0671702382    -0.2173825827
   25      H      -2.3022874269    -3.1761702382     0.8266174173
   26      H      -3.4424784269    -1.9265302382    -1.7574335827
 ----------------------------------------------------------------
 Nuclear Repulsion Energy =         752.32413788 hartrees
 There are       49 alpha and       49 beta electrons
 Requested basis set is def2-TZVPD
 There are 237 shells and 607 basis functions

 Total QAlloc Memory Limit  96000 MB
 Mega-Array Size      1956 MB
 MEM_STATIC part      2000 MB
 
 Citation of the SMD model:
 Marenich, A.V.; Cramer, C.J.; Truhlar, D.G.
 J. Phys. Chem. B 2009, 113, 6378-6396.
 iSolventCode=           1
 Solvent: water                                                           
 
 vradii
            1           2           3           4           5           6
    1   1.8500000   1.8500000   1.8500000   1.5200000   1.5200000   1.2000000
            7           8           9          10          11          12
    1   1.2000000   1.2000000   1.2000000   1.2000000   1.8500000   1.8500000
           13          14          15          16          17          18
    1   1.8500000   1.8500000   1.8500000   1.8500000   1.8500000   1.5200000
           19          20          21          22          23          24
    1   1.2000000   1.2000000   1.2000000   1.2000000   1.2000000   1.2000000
           25          26
    1   1.2000000   1.2000000
 Changing PCM_VDW_RADII to SMD_RADIUS
 Discretize the solute cavity surface with Lebedev spheres
	Using 110 Lebedev grid points for each H atom
	Using 194 Lebedev grid points for other atoms
	Atomic van der Waals radii will be scaled by 1.20
 Remove points where switching function is < 1.0e-08
 Keep 2009 surface tesserae and discard 1943 interior tesserae
 Molecular Surface Area = 238.777 Angst**2
 A cutoff of  1.0D-14 yielded  24590 shell pairs
 There are    162202 function pairs (    205241 Cartesian)
 Smallest overlap matrix eigenvalue = 4.94E-07
 Linear dependence detected in AO basis
 Tighter screening thresholds may be required for diffuse basis sets
 Use S2THRESH > 14 and THRESH = 14 in case of SCF convergence issues
 Number of orthogonalized atomic orbitals = 605
 Maximum deviation from orthogonality = 2.431E-10

 Scale SEOQF with 1.000000e-01/1.000000e-01/1.000000e-01

 Standard Electronic Orientation quadrupole field applied
 Nucleus-field energy     =     0.0000000036 hartrees

 -----------------------------------------------------------------------
  General SCF calculation program by
  Eric Jon Sundstrom, Paul Horn, Yuezhi Mao, Dmitri Zuev, Alec White,
  David Stuck, Shaama M.S., Shane Yost, Joonho Lee, David Small,
  Daniel Levine, Susi Lehtola, Hugh Burton, Evgeny Epifanovsky
 -----------------------------------------------------------------------
================================================================
                 ALMO-EDA with the EDA2 driver                  
================================================================
 The second-generation ALMO-EDA (for DFT):                      
 P. R. Horn, Y. Mao and M. Head-Gordon, PCCP, 18, 23067 (2016)  
 Decomposition of the frozen energy:                            
 P. R. Horn, Y. Mao and M. Head-Gordon, JCP, 144, 114107 (2016) 
 FERF model for polarization:                                   
 P. R. Horn and M. Head-Gordon, JCP, 143, 114111 (2015)         
Using eda2 option set 1
Option set summary: Frozen orbital wavefunction, initial wavefunction decomposition, and nDQ polarization.
--------------------------------
Printing EDA Options
--------------------------------
eda_child_super_basis      0
fragmo_guess_mode          0
child_mp                   1
child_mp_orders            232
cls_elec                   1
cls_disp                   0
scfmi_mode                 1
scfmi_occs                 0
scfmi_virts                0
frz_relax                  0
frz_relax_method           0
dc_pen_start               0
dc_pen_conv                0
dc_pen_increment           0
dc_pen_steps               0
dc_pen_thresh_factor       0
dc_pen_pre_newton_thresh   0
frz_ortho_decomp           1
frz_ortho_decomp_conv      6
frgm_method                2
scfmi_freeze_ss            0
separate_rehyb             0
plot_diff_den              0
eda_nocv                   0
eda_vct_relax              1
disp_free_x                0
disp_free_c                0
eda_bsse                   0
eda_pct_a                  0
eda_covp                   0
--------------------------------
Attempting to make child job directory: /tmp/qchem27032//Frg1/
Attempting to make child job directory: /tmp/qchem27032//Frg2/
Creating input file /tmp/qchem27032/Frg1.input
using default PutDataFrgm: nothing
calling putenv with: QCSCRATCH=/tmp/qchem27032/ 
calling putenv with: QCLOCALSCR=/tmp/qchem27032/ 
Spawning Job For Fragment 0
                  Welcome to Q-Chem
     A Quantum Leap Into The Future Of Chemistry


 Q-Chem 5.2, Q-Chem, Inc., Pleasanton, CA (2019)

 License issued to: National Energy Research Scientific Computing Center

 Yihan Shao,  Zhengting Gan,  E. Epifanovsky,  A. T. B. Gilbert,  M. Wormit,  
 J. Kussmann,  A. W. Lange,  A. Behn,  Jia Deng,  Xintian Feng,  D. Ghosh,  
 M. Goldey,  P. R. Horn,  L. D. Jacobson,  I. Kaliman,  T. Kus,  A. Landau,  
 Jie Liu,  E. I. Proynov,  R. M. Richard,  R. P. Steele,  E. J. Sundstrom,  
 H. L. Woodcock III,  P. M. Zimmerman,  D. Zuev,  B. Albrecht,  E. Alguire,  
 S. A. Baeppler,  D. Barton,  Z. Benda,  Y. A. Bernard,  E. J. Berquist,  
 K. B. Bravaya,  H. Burton,  D. Casanova,  Chun-Min Chang,  Yunqing Chen,  
 A. Chien,  K. D. Closser,  M. P. Coons,  S. Coriani,  S. Dasgupta,  
 A. L. Dempwolff,  M. Diedenhofen,  Hainam Do,  R. G. Edgar,  Po-Tung Fang,  
 S. Faraji,  S. Fatehi,  Qingguo Feng,  K. D. Fenk,  J. Fosso-Tande,  
 J. Gayvert,  Qinghui Ge,  A. Ghysels,  G. Gidofalvi,  J. Gomes,  
 J. Gonthier,  A. Gunina,  D. Hait,  M. W. D. Hanson-Heine,  
 P. H. P. Harbach,  A. W. Hauser,  M. F. Herbst,  J. E. Herr,  
 E. G. Hohenstein,  Z. C. Holden,  Kerwin Hui,  B. C. Huynh,  T.-C. Jagau,  
 Hyunjun Ji,  B. Kaduk,  K. Khistyaev,  Jaehoon Kim,  P. Klunzinger,  K. Koh,  
 D. Kosenkov,  L. Koulias,  T. Kowalczyk,  C. M. Krauter,  A. Kunitsa,  
 Ka Un Lao,  A. Laurent,  K. V. Lawler,  Joonho Lee,  D. Lefrancois,  
 S. Lehtola,  D. S. Levine,  Yi-Pei Li,  You-Sheng Lin,  Fenglai Liu,  
 E. Livshits,  A. Luenser,  P. Manohar,  E. Mansoor,  S. F. Manzer,  
 Shan-Ping Mao,  Yuezhi Mao,  N. Mardirossian,  A. V. Marenich,  
 T. Markovich,  L. A. Martinez-Martinez,  S. A. Maurer,  N. J. Mayhall,  
 S. C. McKenzie,  J.-M. Mewes,  P. Morgante,  A. F. Morrison,  
 J. W. Mullinax,  K. Nanda,  T. S. Nguyen-Beck,  R. Olivares-Amaya,  
 J. A. Parkhill,  Zheng Pei,  T. M. Perrine,  F. Plasser,  P. Pokhilko,  
 S. Prager,  A. Prociuk,  E. Ramos,  D. R. Rehn,  F. Rob,  M. Scheurer,  
 M. Schneider,  N. Sergueev,  S. M. Sharada,  S. Sharma,  D. W. Small,  
 T. Stauch,  T. Stein,  Yu-Chuan Su,  A. J. W. Thom,  A. Tkatchenko,  
 T. Tsuchimochi,  N. M. Tubman,  L. Vogt,  M. L. Vidal,  O. Vydrov,  
 M. A. Watson,  J. Wenzel,  M. de Wergifosse,  T. A. Wesolowski,  A. White,  
 J. Witte,  A. Yamada,  Jun Yang,  K. Yao,  S. Yeganeh,  S. R. Yost,  
 Zhi-Qiang You,  A. Zech,  Igor Ying Zhang,  Xing Zhang,  Yan Zhao,  
 Ying Zhu,  B. R. Brooks,  G. K. L. Chan,  C. J. Cramer,  M. S. Gordon,  
 W. J. Hehre,  A. Klamt,  M. W. Schmidt,  C. D. Sherrill,  D. G. Truhlar,  
 A. Aspuru-Guzik,  R. Baer,  A. T. Bell,  N. A. Besley,  Jeng-Da Chai,  
 A. E. DePrince, III,  R. A. DiStasio Jr.,  A. Dreuw,  B. D. Dunietz,  
 T. R. Furlani,  Chao-Ping Hsu,  Yousung Jung,  Jing Kong,  D. S. Lambrecht,  
 WanZhen Liang,  C. Ochsenfeld,  V. A. Rassolov,  L. V. Slipchenko,  
 J. E. Subotnik,  T. Van Voorhis,  J. M. Herbert,  A. I. Krylov,  
 P. M. W. Gill,  M. Head-Gordon

 Contributors to earlier versions of Q-Chem not listed above: 
 R. D. Adamson,  B. Austin,  J. Baker,  G. J. O. Beran,  K. Brandhorst,  
 S. T. Brown,  E. F. C. Byrd,  A. K. Chakraborty,  C.-L. Cheng,  
 Siu Hung Chien,  D. M. Chipman,  D. L. Crittenden,  H. Dachsel,  
 R. J. Doerksen,  A. D. Dutoi,  L. Fusti-Molnar,  W. A. Goddard III,  
 A. Golubeva-Zadorozhnaya,  S. R. Gwaltney,  G. Hawkins,  A. Heyden,  
 S. Hirata,  G. Kedziora,  F. J. Keil,  C. Kelley,  Jihan Kim,  R. A. King,  
 R. Z. Khaliullin,  P. P. Korambath,  W. Kurlancheek,  A. M. Lee,  M. S. Lee,  
 S. V. Levchenko,  Ching Yeh Lin,  D. Liotard,  R. C. Lochan,  I. Lotan,  
 P. E. Maslen,  N. Nair,  D. P. O'Neill,  D. Neuhauser,  E. Neuscamman,  
 C. M. Oana,  R. Olson,  B. Peters,  R. Peverati,  P. A. Pieniazek,  
 Y. M. Rhee,  J. Ritchie,  M. A. Rohrdanz,  E. Rosta,  N. J. Russ,  
 H. F. Schaefer III,  N. E. Schultz,  N. Shenvi,  A. C. Simmonett,  A. Sodt,  
 D. Stuck,  K. S. Thanthiriwatte,  V. Vanovschi,  Tao Wang,  A. Warshel,  
 C. F. Williams,  Q. Wu,  X. Xu,  W. Zhang

 Please cite Q-Chem as follows:
 Y. Shao et al., Mol. Phys. 113, 184-215 (2015)
 DOI: 10.1080/00268976.2014.952696

 Q-Chem 5.2.0 for Intel X86 EM64T Linux

 Parts of Q-Chem use Armadillo 8.300.2 (Tropical Shenanigans).
 http://arma.sourceforge.net/

 Q-Chem begins on Sun Sep 26 02:54:16 2021  

Host: cori01
0

     Scratch files written to /tmp/qchem27032//Frg1//
 May1019 |scratch|qcdevops|jenkins|workspace|build_RNUM -1
Processing $rem in /global/common/cori/software/qchem/5.2/config/preferences:
	 MEM_TOTAL  96000 
NAlpha2: 40
NElect   40
Mult     1
Symmetry turned off for PCM/SM12/SMD calculation

Checking the input file for inconsistencies... 	...done.

--------------------------------------------------------------
User input:
--------------------------------------------------------------
$molecule
-1 1
 6	1.1197125731	1.1318297618	-2.0263825827
 6	0.6037125731	2.5748297618	-2.0233825827
 6	2.4107125731	0.9648297618	-1.2643825827
 8	3.4817125731	1.2668297618	-1.8353825827
 8	2.3577125731	0.4988297618	-0.1163825827
 1	0.3427125731	0.4898297618	-1.6143825827
 1	1.3077125731	0.7928297618	-3.0363825827
 1	0.2637125731	2.7988297618	-1.0113825827
 1	-0.2289324269	2.6596077618	-2.7371865827
 1	1.3922555731	3.2976607618	-2.2797315827
$end
$rem
EDA2		1
METHOD		WB97X-V
BASIS		DEF2-TZVPD
XC_GRID		000099000590
NL_GRID		1
UNRESTRICTED		FALSE
MAX_SCF_CYCLES		200
SYMMETRY		FALSE
SYM_IGNORE		TRUE
BASIS_LIN_DEP_THRESH		6
THRESH		14
SCF_CONVERGENCE		8
SCF_PRINT_FRGM		TRUE
SOLVENT_METHOD		SMD
!required keywords
JOBTYPE		SP
SYM_IGNORE		TRUE
SUBSYSTEM		TRUE
GEN_SCFMAN		TRUE
CHILD_INSTRUCTION		2
SYM_IGNORE		TRUE
SCFMI		0
RI_K 0		
PARI_K 0		
MIN_PARI_K 0		
IARI_K 0		
OCC_RI_K 0		
PURECART		1111
MEM_STATIC		2000
MEM_TOTAL		96000
GUI		0
CHILD_MP		1
CHILD_MP_ORDERS		232
FRZ_RELAX		0
FRZ_RELAX_METHOD		0
EDA_CLS_ELEC		1
EDA_CLS_DISP		0
FRZ_ORTHO_DECOMP		1
EDA2		FALSE
FRGM_METHOD		FALSE
CIS_N_ROOTS  0
LOCAL_CIS    0
CIS_RLX_DNS  1
$end
$smx
SOLVENT			WATER
$end
--------------------------------------------------------------
 ----------------------------------------------------------------
             Standard Nuclear Orientation (Angstroms)
    I     Atom           X                Y                Z
 ----------------------------------------------------------------
    1      C       1.1197125731     1.1318297618    -2.0263825827
    2      C       0.6037125731     2.5748297618    -2.0233825827
    3      C       2.4107125731     0.9648297618    -1.2643825827
    4      O       3.4817125731     1.2668297618    -1.8353825827
    5      O       2.3577125731     0.4988297618    -0.1163825827
    6      H       0.3427125731     0.4898297618    -1.6143825827
    7      H       1.3077125731     0.7928297618    -3.0363825827
    8      H       0.2637125731     2.7988297618    -1.0113825827
    9      H      -0.2289324269     2.6596077618    -2.7371865827
   10      H       1.3922555731     3.2976607618    -2.2797315827
 ----------------------------------------------------------------
 Nuclear Repulsion Energy =         169.50983351 hartrees
 There are       20 alpha and       20 beta electrons
 Requested basis set is def2-TZVPD
 There are 92 shells and 236 basis functions

 Total QAlloc Memory Limit  96000 MB
 Mega-Array Size      1956 MB
 MEM_STATIC part      2000 MB
 
 Citation of the SMD model:
 Marenich, A.V.; Cramer, C.J.; Truhlar, D.G.
 J. Phys. Chem. B 2009, 113, 6378-6396.
 iSolventCode=           1
 Solvent: water                                                           
 
 vradii
            1           2           3           4           5           6
    1   1.8500000   1.8500000   1.8500000   1.5200000   1.5200000   1.2000000
            7           8           9          10
    1   1.2000000   1.2000000   1.2000000   1.2000000
 Changing PCM_VDW_RADII to SMD_RADIUS
 Discretize the solute cavity surface with Lebedev spheres
	Using 110 Lebedev grid points for each H atom
	Using 194 Lebedev grid points for other atoms
	Atomic van der Waals radii will be scaled by 1.20
 Remove points where switching function is < 1.0e-08
 Keep 832 surface tesserae and discard 688 interior tesserae
 Molecular Surface Area = 99.911 Angst**2

                       Distance Matrix (Angstroms)
             C (  1)   C (  2)   C (  3)   O (  4)   O (  5)   H (  6)
   C (  2)  1.532486
   C (  3)  1.508381  2.536421
   O (  4)  2.373552  3.166874  1.250714
   O (  5)  2.362506  3.320081  1.240108  2.192752
   H (  6)  1.088870  2.140707  2.150523  3.241279  2.510839
   H (  7)  1.081834  2.167328  2.094320  2.528508  3.116943  1.745027
   H (  8)  2.131162  1.090835  2.834991  3.658077  3.236643  2.387746
   H (  9)  2.158284  1.100001  3.465422  4.064722  4.269462  2.509064
   H ( 10)  2.197564  1.100000  2.740491  2.947465  3.666830  3.070528
             H (  7)   H (  8)   H (  9)
   H (  8)  3.035555
   H (  9)  2.436320  1.800134
   H ( 10)  2.617985  1.769506  1.801285
 
 A cutoff of  1.0D-14 yielded   4191 shell pairs
 There are     28055 function pairs (     35756 Cartesian)
 Smallest overlap matrix eigenvalue = 1.11E-05

 Scale SEOQF with 1.000000e-01/1.000000e-01/1.000000e-01

 Standard Electronic Orientation quadrupole field applied
 Nucleus-field energy     =     0.0000000016 hartrees
 Guess from superposition of atomic densities
 Warning:  Energy on first SCF cycle will be non-variational
 SAD guess density has 38.612942 electrons

 -----------------------------------------------------------------------
  General SCF calculation program by
  Eric Jon Sundstrom, Paul Horn, Yuezhi Mao, Dmitri Zuev, Alec White,
  David Stuck, Shaama M.S., Shane Yost, Joonho Lee, David Small,
  Daniel Levine, Susi Lehtola, Hugh Burton, Evgeny Epifanovsky
 -----------------------------------------------------------------------
 Exchange:     0.1670 Hartree-Fock + 1.0000 wB97X-V + LR-HF
 Correlation:  1.0000 wB97X-V
 Using Euler-Maclaurin-Lebedev (99,590) quadrature formula
 Nonlocal Correlation:  VV10 with C = 0.0100 and b = 6.00 and scale = 1.00000
 Grid used for NLC:  SG-1 standard quadrature
Energy prior to optimization (guess energy) = -267.079668307557
Begin Timing: Total SCF Calculation
begin iterations for algorithm: DIIS         
the SCF tolerance is set to 1.00e-08
    1    -267.0796683076      1.27e-02     00000 
    2    -263.2543239444      2.02e-02     00000 
    3    -267.8313512118      5.01e-03     00000 
    4    -267.9531747490      2.19e-03     00000 
    5    -267.9784263610      3.69e-04     00000 
    6    -267.9795389120      1.75e-04     00000 
    7    -267.9796717819      7.80e-05     00000 
    8    -267.9797023842      1.61e-05     00000 
    9    -267.9797044015      5.77e-06     00000 
   10    -267.9797047018      2.02e-06     00000 
   11    -267.9797047582      2.59e-07     00000 
   12    -267.9797047604      6.49e-08     00000 
   13    -267.9797047604      2.49e-08     00000 
   14    -267.9797047604      8.31e-09     00000 Convergence criterion met
Timing for Total SCF: 589.00s (wall), 1150.35s (cpu)
(3)  G-ENP(liq) elect-nuc-pol free energy of system     -267.979704760 a.u.
(4)  G-CDS(liq) cavity-dispersion-solvent structure 
     free energy                                                4.0735 kcal/mol
(6)  G-S(liq) free energy of system                     -267.973213201 a.u.
E_pcm = -0.1308697666
E_cds = 0.0064915598
Multipole orders to be included
        2
        3
computing dipole RHS
computing quadrupole RHS
total number of RHS in solve_reponses: 8
RHS batch sizes
        8
Beginning Block Conjugate Gradient Iterations. Batch Number: 0
computing hessian-vector products by finite difference
              1      6.48e-01     00000 Conjugate Gradient Iteration
computing hessian-vector products by finite difference
              2      2.01e-01     00000 Conjugate Gradient Iteration
computing hessian-vector products by finite difference
              3      5.57e-02     00000 Conjugate Gradient Iteration
computing hessian-vector products by finite difference
              4      1.45e-02     00000 Conjugate Gradient Iteration
computing hessian-vector products by finite difference
              5      2.13e-03     00000 Conjugate Gradient Iteration
computing hessian-vector products by finite difference
              6      4.95e-04     00000 Conjugate Gradient Iteration
computing hessian-vector products by finite difference
              7      7.34e-05     00000 Conjugate Gradient Iteration
computing hessian-vector products by finite difference
              8      9.52e-06     00000 Conjugate Gradient Iteration
computing hessian-vector products by finite difference
              9      1.53e-06     00000 Conjugate Gradient Iteration
computing hessian-vector products by finite difference
             10      2.32e-07     00000 Conjugate Gradient Iteration
computing hessian-vector products by finite difference
             11      2.86e-08     00000 Conjugate Gradient Iteration
computing hessian-vector products by finite difference
             12      7.76e-09     00000 CG Converged
batch 0 complete
Done Calculating Responses
TESTING ORTHOGONALIZATION OF MULTIPOLE BASIS
Multipole virts passed orthogonality test
Virts Per Order
           60
          100
 
 --------------------------------------------------------------
 
                    Orbital Energies (a.u.)
 --------------------------------------------------------------
 
 Alpha MOs
 -- Occupied --
-19.1522 -19.1510 -10.3471 -10.2507 -10.2469  -1.1680  -1.0672  -0.8904
 -0.7533  -0.6178  -0.5610  -0.5595  -0.5298  -0.5134  -0.4784  -0.4475
 -0.4379  -0.3649  -0.3518  -0.3439
 -- Virtual --
  0.0672   0.0927   0.0972   0.0992   0.1261   0.1362   0.1417   0.1489
  0.1505   0.1607   0.1877   0.1972   0.1997   0.2078   0.2193   0.2301
  0.2545   0.2633   0.2768   0.2912   0.2992   0.3056   0.3239   0.3364
  0.3427   0.3454   0.3541   0.3610   0.3651   0.3764   0.3814   0.3896
  0.4002   0.4066   0.4190   0.4238   0.4322   0.4455   0.4626   0.4641
  0.4818   0.4941   0.4965   0.5064   0.5140   0.5246   0.5264   0.5352
  0.5409   0.5521   0.5633   0.5803   0.5958   0.6133   0.6279   0.6383
  0.6631   0.6671   0.6713   0.6796   0.7040   0.7191   0.7276   0.7438
  0.7506   0.7646   0.7744   0.7923   0.8012   0.8058   0.8150   0.8196
  0.8358   0.8521   0.8676   0.8863   0.9001   0.9211   0.9666   1.0005
  1.0152   1.0490   1.0650   1.0680   1.1045   1.1495   1.1725   1.1981
  1.2354   1.2640   1.2831   1.2993   1.3223   1.3699   1.3856   1.4104
  1.4550   1.4748   1.5150   1.5836   1.6238   1.7566   1.8497   1.8568
  1.8761   1.8973   1.9010   1.9321   1.9487   1.9653   1.9838   1.9963
  2.0286   2.0538   2.0840   2.1155   2.1686   2.1922   2.2022   2.2340
  2.2776   2.3172   2.3540   2.3727   2.4514   2.4674   2.4921   2.5181
  2.5594   2.5738   2.6021   2.6406   2.6451   2.6867   2.7618   2.7984
  2.8406   2.8500   2.8750   2.8915   2.9200   2.9532   3.0299   3.0569
  3.1205   3.1457   3.2404   3.2530   3.2624   3.2879   3.3013   3.3458
  3.3819   3.3870   3.4218   3.4628   3.5124   3.5219   3.5556   3.5645
  3.5966   3.6054   3.6340   3.6580   3.6732   3.7167   3.7432   3.7579
  3.8186   3.8860   3.9752   4.0316   4.0859   4.1182   4.1706   4.2445
  4.2661   4.4671   4.5434   4.6038   4.6563   4.7291   4.8007   4.8094
  4.8476   4.9953   5.1046   5.3025   5.3310   5.3439   5.3533   5.4870
  5.7116   5.7513   5.8095   6.0110   6.2468   6.3211   6.3552   6.6086
  6.6195   6.6967   6.7348   6.7528   6.9604   6.9706   7.0331   7.2320
  7.3500   7.3764   7.4048  22.6169  22.7872  23.7977  44.2327  44.3826
 --------------------------------------------------------------
 
          Ground-State Mulliken Net Atomic Charges

     Atom                 Charge (a.u.)
  ----------------------------------------
      1 C                    -0.017758
      2 C                    -0.858481
      3 C                     0.386394
      4 O                    -0.793941
      5 O                    -0.770605
      6 H                     0.167230
      7 H                     0.193612
      8 H                     0.227786
      9 H                     0.214609
     10 H                     0.251153
  ----------------------------------------
  Sum of atomic charges =    -1.000000

 -----------------------------------------------------------------
                    Cartesian Multipole Moments
 -----------------------------------------------------------------
    Charge (ESU x 10^10)
                -4.8032
    Dipole Moment (Debye)
         X     -16.0819      Y      -3.9847      Z       3.5970
       Tot      16.9541
    Quadrupole Moments (Debye-Ang)
        XX     -86.5570     XY     -15.3153     YY     -36.7591
        XZ      17.4063     YZ       5.8986     ZZ     -40.4829
    Octopole Moments (Debye-Ang^2)
       XXX    -372.9433    XXY    -100.3386    XYY     -78.6976
       YYY    -137.1136    XXZ     118.1844    XYZ      25.1126
       YYZ      57.1300    XZZ     -99.2224    YZZ     -56.2836
       ZZZ     161.4323
    Hexadecapole Moments (Debye-Ang^3)
      XXXX   -1640.9974   XXXY    -411.4601   XXYY    -315.3044
      XYYY    -220.6970   YYYY    -524.6761   XXXZ     517.1275
      XXYZ     172.9279   XYYZ     115.5069   YYYZ     246.0030
      XXZZ    -404.4822   XYZZ    -121.9798   YYZZ    -202.0403
      XZZZ     326.9030   YZZZ     257.4670   ZZZZ    -620.5088
 -----------------------------------------------------------------
Archival summary:
1\1\nid00522\SP\ProcedureUnspecified\BasisUnspecified\235(1-,1)\meili\SunSep2605:48:542021SunSep2605:48:542021\0\\#,ProcedureUnspecified,BasisUnspecified,\\-1,1\C\O,1,1.24011\O,1,1.25071,2,123.364\C,1,1.50838,2,118.208,3,177.878,0\H,4,1.08183,1,106.751,2,-137.055,0\H,4,1.08887,1,110.752,2,-20.9073,0\C,4,1.53249,1,113.044,2,100.847,0\H,7,1.09083,4,107.465,1,-70.2481,0\H,7,1.1,4,112.143,1,47.9741,0\H,7,1.1,4,109.037,1,169.951,0\\\@

 Total job time:  10479.79s(wall), 20752.75s(cpu) 
 Sun Sep 26 05:48:55 2021

        *************************************************************
        *                                                           *
        *  Thank you very much for using Q-Chem.  Have a nice day.  *
        *                                                           *
        *************************************************************


Done Job For Fragment 0
calling putenv with: QCSCRATCH=/global/cscratch1/sd/meili 
calling putenv with: QCLOCALSCR=/tmp 
calling putenv with: QCTHREADS=32 
Creating input file /tmp/qchem27032/Frg2.input
using default PutDataFrgm: nothing
calling putenv with: QCSCRATCH=/tmp/qchem27032/ 
calling putenv with: QCLOCALSCR=/tmp/qchem27032/ 
Spawning Job For Fragment 1
                  Welcome to Q-Chem
     A Quantum Leap Into The Future Of Chemistry


 Q-Chem 5.2, Q-Chem, Inc., Pleasanton, CA (2019)

 License issued to: National Energy Research Scientific Computing Center

 Yihan Shao,  Zhengting Gan,  E. Epifanovsky,  A. T. B. Gilbert,  M. Wormit,  
 J. Kussmann,  A. W. Lange,  A. Behn,  Jia Deng,  Xintian Feng,  D. Ghosh,  
 M. Goldey,  P. R. Horn,  L. D. Jacobson,  I. Kaliman,  T. Kus,  A. Landau,  
 Jie Liu,  E. I. Proynov,  R. M. Richard,  R. P. Steele,  E. J. Sundstrom,  
 H. L. Woodcock III,  P. M. Zimmerman,  D. Zuev,  B. Albrecht,  E. Alguire,  
 S. A. Baeppler,  D. Barton,  Z. Benda,  Y. A. Bernard,  E. J. Berquist,  
 K. B. Bravaya,  H. Burton,  D. Casanova,  Chun-Min Chang,  Yunqing Chen,  
 A. Chien,  K. D. Closser,  M. P. Coons,  S. Coriani,  S. Dasgupta,  
 A. L. Dempwolff,  M. Diedenhofen,  Hainam Do,  R. G. Edgar,  Po-Tung Fang,  
 S. Faraji,  S. Fatehi,  Qingguo Feng,  K. D. Fenk,  J. Fosso-Tande,  
 J. Gayvert,  Qinghui Ge,  A. Ghysels,  G. Gidofalvi,  J. Gomes,  
 J. Gonthier,  A. Gunina,  D. Hait,  M. W. D. Hanson-Heine,  
 P. H. P. Harbach,  A. W. Hauser,  M. F. Herbst,  J. E. Herr,  
 E. G. Hohenstein,  Z. C. Holden,  Kerwin Hui,  B. C. Huynh,  T.-C. Jagau,  
 Hyunjun Ji,  B. Kaduk,  K. Khistyaev,  Jaehoon Kim,  P. Klunzinger,  K. Koh,  
 D. Kosenkov,  L. Koulias,  T. Kowalczyk,  C. M. Krauter,  A. Kunitsa,  
 Ka Un Lao,  A. Laurent,  K. V. Lawler,  Joonho Lee,  D. Lefrancois,  
 S. Lehtola,  D. S. Levine,  Yi-Pei Li,  You-Sheng Lin,  Fenglai Liu,  
 E. Livshits,  A. Luenser,  P. Manohar,  E. Mansoor,  S. F. Manzer,  
 Shan-Ping Mao,  Yuezhi Mao,  N. Mardirossian,  A. V. Marenich,  
 T. Markovich,  L. A. Martinez-Martinez,  S. A. Maurer,  N. J. Mayhall,  
 S. C. McKenzie,  J.-M. Mewes,  P. Morgante,  A. F. Morrison,  
 J. W. Mullinax,  K. Nanda,  T. S. Nguyen-Beck,  R. Olivares-Amaya,  
 J. A. Parkhill,  Zheng Pei,  T. M. Perrine,  F. Plasser,  P. Pokhilko,  
 S. Prager,  A. Prociuk,  E. Ramos,  D. R. Rehn,  F. Rob,  M. Scheurer,  
 M. Schneider,  N. Sergueev,  S. M. Sharada,  S. Sharma,  D. W. Small,  
 T. Stauch,  T. Stein,  Yu-Chuan Su,  A. J. W. Thom,  A. Tkatchenko,  
 T. Tsuchimochi,  N. M. Tubman,  L. Vogt,  M. L. Vidal,  O. Vydrov,  
 M. A. Watson,  J. Wenzel,  M. de Wergifosse,  T. A. Wesolowski,  A. White,  
 J. Witte,  A. Yamada,  Jun Yang,  K. Yao,  S. Yeganeh,  S. R. Yost,  
 Zhi-Qiang You,  A. Zech,  Igor Ying Zhang,  Xing Zhang,  Yan Zhao,  
 Ying Zhu,  B. R. Brooks,  G. K. L. Chan,  C. J. Cramer,  M. S. Gordon,  
 W. J. Hehre,  A. Klamt,  M. W. Schmidt,  C. D. Sherrill,  D. G. Truhlar,  
 A. Aspuru-Guzik,  R. Baer,  A. T. Bell,  N. A. Besley,  Jeng-Da Chai,  
 A. E. DePrince, III,  R. A. DiStasio Jr.,  A. Dreuw,  B. D. Dunietz,  
 T. R. Furlani,  Chao-Ping Hsu,  Yousung Jung,  Jing Kong,  D. S. Lambrecht,  
 WanZhen Liang,  C. Ochsenfeld,  V. A. Rassolov,  L. V. Slipchenko,  
 J. E. Subotnik,  T. Van Voorhis,  J. M. Herbert,  A. I. Krylov,  
 P. M. W. Gill,  M. Head-Gordon

 Contributors to earlier versions of Q-Chem not listed above: 
 R. D. Adamson,  B. Austin,  J. Baker,  G. J. O. Beran,  K. Brandhorst,  
 S. T. Brown,  E. F. C. Byrd,  A. K. Chakraborty,  C.-L. Cheng,  
 Siu Hung Chien,  D. M. Chipman,  D. L. Crittenden,  H. Dachsel,  
 R. J. Doerksen,  A. D. Dutoi,  L. Fusti-Molnar,  W. A. Goddard III,  
 A. Golubeva-Zadorozhnaya,  S. R. Gwaltney,  G. Hawkins,  A. Heyden,  
 S. Hirata,  G. Kedziora,  F. J. Keil,  C. Kelley,  Jihan Kim,  R. A. King,  
 R. Z. Khaliullin,  P. P. Korambath,  W. Kurlancheek,  A. M. Lee,  M. S. Lee,  
 S. V. Levchenko,  Ching Yeh Lin,  D. Liotard,  R. C. Lochan,  I. Lotan,  
 P. E. Maslen,  N. Nair,  D. P. O'Neill,  D. Neuhauser,  E. Neuscamman,  
 C. M. Oana,  R. Olson,  B. Peters,  R. Peverati,  P. A. Pieniazek,  
 Y. M. Rhee,  J. Ritchie,  M. A. Rohrdanz,  E. Rosta,  N. J. Russ,  
 H. F. Schaefer III,  N. E. Schultz,  N. Shenvi,  A. C. Simmonett,  A. Sodt,  
 D. Stuck,  K. S. Thanthiriwatte,  V. Vanovschi,  Tao Wang,  A. Warshel,  
 C. F. Williams,  Q. Wu,  X. Xu,  W. Zhang

 Please cite Q-Chem as follows:
 Y. Shao et al., Mol. Phys. 113, 184-215 (2015)
 DOI: 10.1080/00268976.2014.952696

 Q-Chem 5.2.0 for Intel X86 EM64T Linux

 Parts of Q-Chem use Armadillo 8.300.2 (Tropical Shenanigans).
 http://arma.sourceforge.net/

 Q-Chem begins on Sun Sep 26 05:48:57 2021  

Host: cori01
0

     Scratch files written to /tmp/qchem27032//Frg2//
 May1019 |scratch|qcdevops|jenkins|workspace|build_RNUM -1
Processing $rem in /global/common/cori/software/qchem/5.2/config/preferences:
	 MEM_TOTAL  96000 
NAlpha2: 58
NElect   58
Mult     1
Symmetry turned off for PCM/SM12/SMD calculation

Checking the input file for inconsistencies... 	...done.

--------------------------------------------------------------
User input:
--------------------------------------------------------------
$molecule
0 1
 6	-3.6302874269	-1.4331702382	-0.7923825827
 6	-0.8282874269	0.3998297618	1.0506174173
 6	-1.9002874269	0.1318297618	0.1866174173
 6	-0.2912874269	-0.6271702382	1.8236174173
 6	-2.4362874269	-1.1601702382	0.0876174173
 6	-0.8222874269	-1.9171702382	1.7416174173
 6	-1.8882874269	-2.1781702382	0.8786174173
 8	0.7407125731	-0.3401702382	2.6636174173
 1	-0.4262874269	1.3998297618	1.1186174173
 1	-2.3192874269	0.9348297618	-0.4043825827
 1	1.0907125731	0.5298297618	2.4546174173
 1	-0.3992874269	-2.7031702382	2.3466174173
 1	-4.1622874269	-0.4981702382	-0.9633825827
 1	-4.3072874269	-2.0671702382	-0.2173825827
 1	-2.3022874269	-3.1761702382	0.8266174173
 1	-3.4424784269	-1.9265302382	-1.7574335827
$end
$rem
EDA2		1
METHOD		WB97X-V
BASIS		DEF2-TZVPD
XC_GRID		000099000590
NL_GRID		1
UNRESTRICTED		FALSE
MAX_SCF_CYCLES		200
SYMMETRY		FALSE
SYM_IGNORE		TRUE
BASIS_LIN_DEP_THRESH		6
THRESH		14
SCF_CONVERGENCE		8
SCF_PRINT_FRGM		TRUE
SOLVENT_METHOD		SMD
!required keywords
JOBTYPE		SP
SYM_IGNORE		TRUE
SUBSYSTEM		TRUE
GEN_SCFMAN		TRUE
CHILD_INSTRUCTION		2
SYM_IGNORE		TRUE
SCFMI		0
RI_K 0		
PARI_K 0		
MIN_PARI_K 0		
IARI_K 0		
OCC_RI_K 0		
PURECART		1111
MEM_STATIC		2000
MEM_TOTAL		96000
GUI		0
CHILD_MP		1
CHILD_MP_ORDERS		232
FRZ_RELAX		0
FRZ_RELAX_METHOD		0
EDA_CLS_ELEC		1
EDA_CLS_DISP		0
FRZ_ORTHO_DECOMP		1
EDA2		FALSE
FRGM_METHOD		FALSE
CIS_N_ROOTS  0
LOCAL_CIS    0
CIS_RLX_DNS  1
$end
$smx
SOLVENT			WATER
$end
--------------------------------------------------------------
 ----------------------------------------------------------------
             Standard Nuclear Orientation (Angstroms)
    I     Atom           X                Y                Z
 ----------------------------------------------------------------
    1      C      -3.6302874269    -1.4331702382    -0.7923825827
    2      C      -0.8282874269     0.3998297618     1.0506174173
    3      C      -1.9002874269     0.1318297618     0.1866174173
    4      C      -0.2912874269    -0.6271702382     1.8236174173
    5      C      -2.4362874269    -1.1601702382     0.0876174173
    6      C      -0.8222874269    -1.9171702382     1.7416174173
    7      C      -1.8882874269    -2.1781702382     0.8786174173
    8      O       0.7407125731    -0.3401702382     2.6636174173
    9      H      -0.4262874269     1.3998297618     1.1186174173
   10      H      -2.3192874269     0.9348297618    -0.4043825827
   11      H       1.0907125731     0.5298297618     2.4546174173
   12      H      -0.3992874269    -2.7031702382     2.3466174173
   13      H      -4.1622874269    -0.4981702382    -0.9633825827
   14      H      -4.3072874269    -2.0671702382    -0.2173825827
   15      H      -2.3022874269    -3.1761702382     0.8266174173
   16      H      -3.4424784269    -1.9265302382    -1.7574335827
 ----------------------------------------------------------------
 Nuclear Repulsion Energy =         342.35847631 hartrees
 There are       29 alpha and       29 beta electrons
 Requested basis set is def2-TZVPD
 There are 145 shells and 371 basis functions

 Total QAlloc Memory Limit  96000 MB
 Mega-Array Size      1956 MB
 MEM_STATIC part      2000 MB
 
 Citation of the SMD model:
 Marenich, A.V.; Cramer, C.J.; Truhlar, D.G.
 J. Phys. Chem. B 2009, 113, 6378-6396.
 iSolventCode=           1
 Solvent: water                                                           
 
 vradii
            1           2           3           4           5           6
    1   1.8500000   1.8500000   1.8500000   1.8500000   1.8500000   1.8500000
            7           8           9          10          11          12
    1   1.8500000   1.5200000   1.2000000   1.2000000   1.2000000   1.2000000
           13          14          15          16
    1   1.2000000   1.2000000   1.2000000   1.2000000
 Changing PCM_VDW_RADII to SMD_RADIUS
 Discretize the solute cavity surface with Lebedev spheres
	Using 110 Lebedev grid points for each H atom
	Using 194 Lebedev grid points for other atoms
	Atomic van der Waals radii will be scaled by 1.20
 Remove points where switching function is < 1.0e-08
 Keep 1177 surface tesserae and discard 1255 interior tesserae
 Molecular Surface Area = 141.549 Angst**2
 A cutoff of  1.0D-14 yielded  10047 shell pairs
 There are     67099 function pairs (     85799 Cartesian)
 Smallest overlap matrix eigenvalue = 5.83E-07
 Linear dependence detected in AO basis
 Tighter screening thresholds may be required for diffuse basis sets
 Use S2THRESH > 14 and THRESH = 14 in case of SCF convergence issues
 Number of orthogonalized atomic orbitals = 370
 Maximum deviation from orthogonality = 2.288E-10

 Scale SEOQF with 1.000000e-01/1.000000e-01/1.000000e-01

 Standard Electronic Orientation quadrupole field applied
 Nucleus-field energy     =     0.0000000020 hartrees
 Guess from superposition of atomic densities
 Warning:  Energy on first SCF cycle will be non-variational
 SAD guess density has 57.738434 electrons

 -----------------------------------------------------------------------
  General SCF calculation program by
  Eric Jon Sundstrom, Paul Horn, Yuezhi Mao, Dmitri Zuev, Alec White,
  David Stuck, Shaama M.S., Shane Yost, Joonho Lee, David Small,
  Daniel Levine, Susi Lehtola, Hugh Burton, Evgeny Epifanovsky
 -----------------------------------------------------------------------
 Exchange:     0.1670 Hartree-Fock + 1.0000 wB97X-V + LR-HF
 Correlation:  1.0000 wB97X-V
 Using Euler-Maclaurin-Lebedev (99,590) quadrature formula
 Nonlocal Correlation:  VV10 with C = 0.0100 and b = 6.00 and scale = 1.00000
 Grid used for NLC:  SG-1 standard quadrature
Energy prior to optimization (guess energy) = -346.496341523243
Begin Timing: Total SCF Calculation
begin iterations for algorithm: DIIS         
the SCF tolerance is set to 1.00e-08
    1    -346.4963415232      5.16e-03     00000 
    2    -346.4388820892      5.57e-03     00000 
    3    -346.8190797620      5.26e-04     00000 
    4    -346.8238767803      1.73e-04     00000 
    5    -346.8245603800      3.69e-05     00000 
    6    -346.8246092445      1.28e-05     00000 
    7    -346.8246137561      4.87e-06     00000 
    8    -346.8246144368      1.48e-06     00000 
    9    -346.8246145188      4.87e-07     00000 
   10    -346.8246145290      2.29e-07     00000 
   11    -346.8246145316      5.80e-08     00000 
   12    -346.8246145320      2.97e-08     00000 
   13    -346.8246145321      1.19e-08     00000 
   14    -346.8246145321      3.53e-09     00000 Convergence criterion met
Timing for Total SCF: 2301.00s (wall), 4578.54s (cpu)
(3)  G-ENP(liq) elect-nuc-pol free energy of system     -346.824614532 a.u.
(4)  G-CDS(liq) cavity-dispersion-solvent structure 
     free energy                                                3.8045 kcal/mol
(6)  G-S(liq) free energy of system                     -346.818551745 a.u.
E_pcm = -0.0173825091
E_cds = 0.0060627873
Multipole orders to be included
        2
        3
computing dipole RHS
computing quadrupole RHS
total number of RHS in solve_reponses: 8
RHS batch sizes
        8
Beginning Block Conjugate Gradient Iterations. Batch Number: 0
computing hessian-vector products by finite difference
              1      6.20e-01     00000 Conjugate Gradient Iteration
computing hessian-vector products by finite difference
              2      2.00e-01     00000 Conjugate Gradient Iteration
computing hessian-vector products by finite difference
              3      5.36e-02     00000 Conjugate Gradient Iteration
computing hessian-vector products by finite difference
              4      1.73e-02     00000 Conjugate Gradient Iteration
computing hessian-vector products by finite difference
              5      4.84e-03     00000 Conjugate Gradient Iteration
computing hessian-vector products by finite difference
              6      1.89e-03     00000 Conjugate Gradient Iteration
computing hessian-vector products by finite difference
              7      4.50e-04     00000 Conjugate Gradient Iteration
computing hessian-vector products by finite difference
              8      9.15e-05     00000 Conjugate Gradient Iteration
computing hessian-vector products by finite difference
              9      1.73e-05     00000 Conjugate Gradient Iteration
computing hessian-vector products by finite difference
             10      2.41e-06     00000 Conjugate Gradient Iteration
computing hessian-vector products by finite difference
             11      3.55e-07     00000 Conjugate Gradient Iteration
computing hessian-vector products by finite difference
             12      6.99e-08     00000 Conjugate Gradient Iteration
computing hessian-vector products by finite difference
             13      1.19e-08     00000 Conjugate Gradient Iteration
computing hessian-vector products by finite difference
             14      2.73e-09     00000 CG Converged
batch 0 complete
Done Calculating Responses
TESTING ORTHOGONALIZATION OF MULTIPOLE BASIS
Multipole virts passed orthogonality test
Virts Per Order
           87
          145
 
 --------------------------------------------------------------
 
                    Orbital Energies (a.u.)
 --------------------------------------------------------------
 
 Alpha MOs
 -- Occupied --
-19.2403 -10.3315 -10.2737 -10.2706 -10.2705 -10.2681 -10.2666 -10.2530
 -1.1928  -0.9884  -0.8951  -0.8777  -0.8034  -0.7422  -0.7080  -0.6583
 -0.5980  -0.5755  -0.5449  -0.5369  -0.5268  -0.5148  -0.5065  -0.4704
 -0.4497  -0.4402  -0.4330  -0.3485  -0.3098
 -- Virtual --
  0.0619   0.0638   0.0743   0.0809   0.0889   0.0997   0.1142   0.1158
  0.1181   0.1367   0.1521   0.1548   0.1625   0.1776   0.1797   0.1981
  0.2067   0.2118   0.2196   0.2279   0.2410   0.2471   0.2553   0.2613
  0.2664   0.2716   0.2767   0.2817   0.2877   0.2998   0.3018   0.3080
  0.3098   0.3136   0.3161   0.3321   0.3383   0.3452   0.3494   0.3522
  0.3572   0.3625   0.3642   0.3789   0.3821   0.3830   0.3877   0.3981
  0.4004   0.4009   0.4057   0.4132   0.4164   0.4280   0.4314   0.4358
  0.4406   0.4498   0.4592   0.4625   0.4732   0.4760   0.4777   0.4855
  0.4915   0.4997   0.5069   0.5093   0.5192   0.5234   0.5292   0.5392
  0.5465   0.5524   0.5583   0.5643   0.5690   0.5705   0.5848   0.5944
  0.6012   0.6128   0.6258   0.6303   0.6437   0.6567   0.6621   0.6767
  0.6826   0.6849   0.6914   0.6959   0.7041   0.7066   0.7214   0.7321
  0.7388   0.7469   0.7527   0.7567   0.7638   0.7791   0.7836   0.7895
  0.7906   0.7953   0.8008   0.8054   0.8136   0.8196   0.8322   0.8383
  0.8428   0.8506   0.8618   0.8649   0.8673   0.8762   0.8892   0.8986
  0.9016   0.9135   0.9287   0.9487   0.9528   0.9739   0.9902   1.0133
  1.0327   1.0401   1.0429   1.0507   1.0586   1.0722   1.0766   1.0822
  1.1045   1.1169   1.1345   1.1798   1.2009   1.2460   1.2502   1.2934
  1.3041   1.3211   1.3365   1.3581   1.3726   1.3803   1.3944   1.4346
  1.4544   1.4625   1.4811   1.4901   1.5325   1.5683   1.6062   1.6214
  1.6334   1.6395   1.6824   1.6998   1.7079   1.7315   1.7941   1.8067
  1.8219   1.8286   1.8390   1.8659   1.8816   1.8910   1.9200   1.9246
  1.9418   1.9525   1.9712   1.9960   2.0068   2.0306   2.0416   2.0573
  2.0647   2.0780   2.0963   2.1110   2.1213   2.1608   2.1977   2.2112
  2.2220   2.2429   2.2812   2.2827   2.3049   2.3101   2.3563   2.3654
  2.3987   2.4013   2.4289   2.4624   2.4959   2.5063   2.5326   2.5483
  2.5798   2.6044   2.6210   2.6464   2.6620   2.6892   2.6959   2.7337
  2.7455   2.7657   2.7798   2.8043   2.8167   2.8323   2.8678   2.8691
  2.8970   2.9223   2.9380   2.9501   2.9633   2.9694   2.9776   3.0060
  3.0199   3.0490   3.0709   3.0797   3.0978   3.1206   3.1475   3.1688
  3.1841   3.2136   3.2187   3.2384   3.2505   3.2566   3.2753   3.2950
  3.3149   3.3556   3.3770   3.3899   3.3970   3.4287   3.4478   3.4583
  3.4705   3.4785   3.4947   3.5106   3.5202   3.5271   3.5394   3.5511
  3.5548   3.5729   3.5850   3.5942   3.6037   3.6238   3.6456   3.6552
  3.6953   3.7013   3.7375   3.7549   3.7898   3.8185   3.8450   3.8880
  3.9294   3.9584   3.9746   4.0002   4.0439   4.0766   4.1308   4.1687
  4.2453   4.2701   4.2850   4.3120   4.3246   4.3305   4.3406   4.3604
  4.3733   4.3779   4.4208   4.4504   4.4799   4.5497   4.5818   4.6170
  4.7219   4.7333   4.7779   4.8115   4.8700   4.9164   5.0306   5.0511
  5.0864   5.1229   5.1499   5.2918   5.3076   5.4306   5.4500   5.5275
  5.6005   5.6590   5.7312   5.7644   5.9565   6.2029   6.4784   6.5617
  6.6749   6.8790   7.0225   7.2938   7.4506  22.6660  22.6866  22.9269
 22.9767  23.0130  23.1647  23.4859  44.4194
 --------------------------------------------------------------
 
          Ground-State Mulliken Net Atomic Charges

     Atom                 Charge (a.u.)
  ----------------------------------------
      1 C                    -1.072801
      2 C                    -0.395914
      3 C                    -0.624134
      4 C                     0.631245
      5 C                     0.516055
      6 C                    -0.774580
      7 C                    -0.459130
      8 O                    -0.540496
      9 H                     0.375145
     10 H                     0.381811
     11 H                     0.328897
     12 H                     0.403522
     13 H                     0.301300
     14 H                     0.274925
     15 H                     0.400547
     16 H                     0.253609
  ----------------------------------------
  Sum of atomic charges =     0.000000

 -----------------------------------------------------------------
                    Cartesian Multipole Moments
 -----------------------------------------------------------------
    Charge (ESU x 10^10)
                -0.0000
    Dipole Moment (Debye)
         X      -0.3791      Y       1.5752      Z      -1.1851
       Tot       2.0074
    Quadrupole Moments (Debye-Ang)
        XX     -44.9882     XY       3.9751     YY     -41.8952
        XZ       3.1259     YZ       3.0148     ZZ     -53.5634
    Octopole Moments (Debye-Ang^2)
       XXX     200.8782    XXY      39.8210    XYY      59.6264
       YYY     116.2550    XXZ     -51.7184    XYZ       5.8940
       YYZ     -34.1287    XZZ      72.7348    YZZ      51.2905
       ZZZ    -152.6546
    Hexadecapole Moments (Debye-Ang^3)
      XXXX   -1173.7465   XXXY    -234.4525   XXYY    -266.9748
      XYYY    -223.6540   YYYY    -510.6333   XXXZ       2.7839
      XXYZ      39.9628   XYYZ      -7.7882   YYYZ      74.1816
      XXZZ    -320.1657   XYZZ     -72.1231   YYZZ    -182.6286
      XZZZ     -17.5338   YZZZ     127.2430   ZZZZ    -725.4554
 -----------------------------------------------------------------
Archival summary:
1\1\nid00522\SP\ProcedureUnspecified\BasisUnspecified\178\meili\SunSep2617:10:382021SunSep2617:10:382021\0\\#,ProcedureUnspecified,BasisUnspecified,\\0,1\C\O,1,1.36125\H,2,0.960771,1,109.442\C,1,1.39306,2,118.635,3,-12.7083,0\H,4,1.07992,1,120.28,2,0.250075,0\C,1,1.39742,2,121.26,3,168.132,0\H,6,1.07831,1,119.4,2,-0.722281,0\C,6,1.39615,1,119.932,2,179.466,0\H,8,1.08171,6,119.631,1,-179.364,0\C,8,1.40082,6,120.789,1,0.063372,0\C,10,1.40227,8,118.697,6,-0.511407,0\H,11,1.0815,10,119.83,8,-179.064,0\C,10,1.50817,8,120.507,6,-177.018,0\H,13,1.08926,10,108.838,8,155.095,0\H,13,1.09129,10,106.79,8,40.8777,0\H,13,1.1,10,117.253,8,-80.2434,0\\\@

 Total job time:  40903.52s(wall), 81286.66s(cpu) 
 Sun Sep 26 17:10:41 2021

        *************************************************************
        *                                                           *
        *  Thank you very much for using Q-Chem.  Have a nice day.  *
        *                                                           *
        *************************************************************


Done Job For Fragment 1
calling putenv with: QCSCRATCH=/global/cscratch1/sd/meili 
calling putenv with: QCLOCALSCR=/tmp 
calling putenv with: QCTHREADS=32 
Doing General SCFMI
 Exchange:     0.1670 Hartree-Fock + 1.0000 wB97X-V + LR-HF
 Correlation:  1.0000 wB97X-V
 Using Euler-Maclaurin-Lebedev (99,590) quadrature formula
 Nonlocal Correlation:  VV10 with C = 0.0100 and b = 6.00 and scale = 1.00000
 Grid used for NLC:  SG-1 standard quadrature
performing fock build before subrot guess so that all methods have access
Printing subrot_rss_gen Method Specification:
Occupied Subspace Method is 0
Virtual Subspace Method is 0
Energy of the unrelaxed supersystem initial determinant -614.663175060724
performing fock build before subrot guess so that all methods have access
Printing subrot_rss_gen Method Specification:
Occupied Subspace Method is 0
Virtual Subspace Method is 0
Energy of the unrelaxed supersystem initial determinant w/ solvent -614.806501153046
write pseudocanon occs and virts to disk
write pseudocanon orbital energies to disk
Tolerance of ortho_decomp_scf: 1.00e-06
GDM subspace size: 20
Beginning the Orthogonal Decomposition of the Initial Supersystem Wavefunction
    1    -614.6331196285      2.99e-02     ortho_decomp Preconditoned Steepest Descent
    2    -614.6365075217      8.41e-04     ortho_decomp BFGS Step
    3    -614.6365204891      5.60e-05     ortho_decomp BFGS Step
    4    -614.6365205041      2.17e-06     ortho_decomp BFGS Step
    5    -614.6365205042      6.80e-08     ortho_decomp 00000 Convergence criterion met
 Hartree-Fock
 Hartree-Fock
 Hartree-Fock
Doing General SCFMI
 Exchange:     0.1670 Hartree-Fock + 1.0000 wB97X-V + LR-HF
 Correlation:  1.0000 wB97X-V
 Using Euler-Maclaurin-Lebedev (99,590) quadrature formula
 Nonlocal Correlation:  VV10 with C = 0.0100 and b = 6.00 and scale = 1.00000
 Grid used for NLC:  SG-1 standard quadrature
performing fock build at end of subrot_r(subrot) constructor so that all methods have access
<S^2> of initial wavefunction before polarization iterations 0.0000000000
Beginning iterations for the determination of the polarized wavefunction
Energy prior to optimization (guess energy) = -614.806501153047
Begin Timing: Total SCF Calculation
begin iterations for algorithm: DIIS         
the SCF tolerance is set to 1.00e-08
    1    -614.8065011530      4.40e-05     00000 
    2    -614.8066599437      2.95e-05     00000 
    3    -614.8066933781      1.21e-05     00000 
    4    -614.8067017992      4.91e-06     00000 
    5    -614.8067032486      1.77e-06     00000 
    6    -614.8067035684      8.59e-07     00000 
    7    -614.8067036263      3.11e-07     00000 
    8    -614.8067036353      1.34e-07     00000 
    9    -614.8067036367      5.99e-08     00000 
   10    -614.8067036370      1.93e-08     00000 
   11    -614.8067036370      8.65e-09     00000 Convergence criterion met
write pseudocanon occs and virts to disk
write pseudocanon orbital energies to disk
Timing for Total SCF: 7072.00s (wall), 14029.05s (cpu)
<S^2> of polarized wavefunction after polarization iterations 0.0000000000
relaxing scfmi constraint to allow all rotations in the entire AO span
Doing General SCFMI
 Exchange:     0.1670 Hartree-Fock + 1.0000 wB97X-V + LR-HF
 Correlation:  1.0000 wB97X-V
 Using Euler-Maclaurin-Lebedev (99,590) quadrature formula
 Nonlocal Correlation:  VV10 with C = 0.0100 and b = 6.00 and scale = 1.00000
 Grid used for NLC:  SG-1 standard quadrature
performing fock build at end of subrot_r(subrot) constructor so that all methods have access
<S^2> of polarized wavefunction before ct-allowed iterations 0.0000000000
Beginning iterations for the determination of the CT-Allowed wavefunction
Energy prior to optimization (guess energy) = -614.806703637025
Begin Timing: Total SCF Calculation
begin iterations for algorithm: DIIS         
the SCF tolerance is set to 1.00e-08
    1    -614.8067036370      6.75e-05     00000 
    2    -614.8075011712      6.91e-06     00000 
    3    -614.8075282292      1.65e-06     00000 
    4    -614.8075293416      1.59e-06     00000 
    5    -614.8075296897      2.10e-07     00000 
    6    -614.8075297081      1.41e-07     00000 
    7    -614.8075297118      3.06e-08     00000 
    8    -614.8075297122      1.31e-08     00000 
    9    -614.8075297122      3.59e-09     00000 Convergence criterion met
write pseudocanon occs and virts to disk
write pseudocanon orbital energies to disk
Timing for Total SCF: 5682.00s (wall), 11308.62s (cpu)
<S^2> of ct_allowed wavefunction after ct-allowed iterations 0.0000000000

================================
        Results of EDA2         
================================
Basic EDA Quantities
--------------------
Fragment Energies (Ha):
1 -267.9732132006
2 -346.8185517448
--------------------
  E_prp (kJ/mol) = 0.0000
  E_sol (kJ/mol) = 9.5571
  E_frz (kJ/mol) = -18.6624
  E_pol (kJ/mol) = -0.5316
  E_vct (kJ/mol) = -2.1689
  E_int (kJ/mol) = -11.8058
--------------------


Initial Wavefunction Decomposition
--------------------
  --------------------
  Orthogonal Fragment Subspace Decomposition:
  --------------------
     E_elec   (ELEC)   (kJ/mol) = -39.2831
     E_pauli  (PAULI)  (kJ/mol) = 39.9188
     E_disp   (DISP)   (kJ/mol) = -19.2981
     --------------------
     Terms summing to E_pauli:
     --------------------
        E_kep_pauli       (kJ/mol) = 51.3200
        E_disp_free_pauli (kJ/mol) = -11.4012
  --------------------
  Classical Frozen Decomposition:
  --------------------
     E_cls_elec  (CLS ELEC)  (kJ/mol) = -19.0548
     E_cls_pauli (CLS PAULI) (kJ/mol) = 0.3924
    [E_mod_pauli (MOD PAULI) (kJ/mol) = 19.6905 (CLS PAULI - DISP from orthogonal decomposition) ]
  --------------------
--------------------

Simplified EDA Summary (kJ/mol)
--------------------
 PREPARATION     0.0000
 SOLVATION       9.5571
 FROZEN          0.6357      (does not include dispersion)
[PAULI           39.9188]     (if this is negligible, then frozen describes electrostatics)
 DISPERSION      -19.2981
 POLARIZATION    -0.5316
 CHARGE TRANSFER -2.1689
 TOTAL           -11.8058     (PRP + SOL + FRZ + DISP + POL + CT)
--------------------
 
 --------------------------------------------------------------
 
                    Orbital Energies (a.u.)
 --------------------------------------------------------------
 
 Alpha MOs
 -- Occupied --
-19.2381 -19.1520 -19.1510 -10.3470 -10.3292 -10.2721 -10.2689 -10.2686
-10.2665 -10.2644 -10.2519 -10.2508 -10.2460  -1.1906  -1.1679  -1.0671
 -0.9866  -0.8935  -0.8904  -0.8757  -0.8019  -0.7532  -0.7404  -0.7064
 -0.6566  -0.6180  -0.5964  -0.5746  -0.5611  -0.5598  -0.5433  -0.5357
 -0.5297  -0.5255  -0.5149  -0.5100  -0.5047  -0.4784  -0.4691  -0.4483
 -0.4482  -0.4403  -0.4353  -0.4310  -0.3649  -0.3533  -0.3459  -0.3419
 -0.3076
 -- Virtual --
  0.0611   0.0639   0.0732   0.0762   0.0810   0.0877   0.0974   0.1003
  0.1080   0.1125   0.1161   0.1277   0.1293   0.1340   0.1409   0.1499
  0.1514   0.1582   0.1605   0.1625   0.1692   0.1794   0.1849   0.1879
  0.1925   0.2041   0.2084   0.2100   0.2111   0.2197   0.2236   0.2304
  0.2355   0.2377   0.2463   0.2540   0.2562   0.2643   0.2657   0.2701
  0.2768   0.2810   0.2848   0.2872   0.2910   0.2972   0.2989   0.3015
  0.3057   0.3098   0.3197   0.3209   0.3260   0.3286   0.3311   0.3392
  0.3426   0.3444   0.3488   0.3514   0.3572   0.3597   0.3622   0.3648
  0.3684   0.3712   0.3742   0.3784   0.3828   0.3837   0.3896   0.3914
  0.3951   0.3970   0.4072   0.4096   0.4118   0.4132   0.4158   0.4210
  0.4258   0.4325   0.4365   0.4420   0.4438   0.4445   0.4464   0.4549
  0.4600   0.4665   0.4702   0.4729   0.4758   0.4798   0.4820   0.4890
  0.4898   0.4926   0.4960   0.5024   0.5040   0.5101   0.5138   0.5161
  0.5210   0.5255   0.5278   0.5325   0.5346   0.5404   0.5440   0.5515
  0.5551   0.5606   0.5654   0.5721   0.5723   0.5793   0.5864   0.5920
  0.5939   0.5993   0.6023   0.6069   0.6128   0.6168   0.6235   0.6279
  0.6325   0.6388   0.6404   0.6507   0.6543   0.6612   0.6620   0.6689
  0.6745   0.6839   0.6917   0.6941   0.6954   0.7016   0.7043   0.7081
  0.7122   0.7196   0.7244   0.7343   0.7363   0.7428   0.7469   0.7513
  0.7560   0.7593   0.7648   0.7671   0.7706   0.7765   0.7831   0.7868
  0.7890   0.7921   0.7955   0.8007   0.8037   0.8105   0.8128   0.8159
  0.8195   0.8212   0.8273   0.8285   0.8334   0.8378   0.8417   0.8451
  0.8493   0.8551   0.8614   0.8630   0.8744   0.8817   0.8905   0.8933
  0.8950   0.8991   0.9065   0.9136   0.9190   0.9245   0.9262   0.9412
  0.9446   0.9553   0.9615   0.9714   0.9816   0.9885   1.0011   1.0035
  1.0060   1.0244   1.0326   1.0438   1.0502   1.0536   1.0537   1.0628
  1.0738   1.0873   1.0905   1.0978   1.1077   1.1150   1.1189   1.1313
  1.1347   1.1423   1.1625   1.1683   1.1864   1.2031   1.2126   1.2231
  1.2324   1.2487   1.2580   1.2642   1.2873   1.2902   1.3003   1.3143
  1.3377   1.3467   1.3479   1.3550   1.3580   1.3825   1.3965   1.4086
  1.4164   1.4262   1.4298   1.4458   1.4580   1.4672   1.4816   1.4862
  1.4982   1.5046   1.5209   1.5301   1.5483   1.5621   1.5796   1.5972
  1.6216   1.6304   1.6477   1.6585   1.6692   1.6756   1.7057   1.7241
  1.7427   1.7976   1.8094   1.8204   1.8275   1.8506   1.8619   1.8733
  1.8866   1.8900   1.9129   1.9161   1.9343   1.9385   1.9471   1.9560
  1.9609   1.9740   1.9775   1.9811   1.9916   1.9969   2.0144   2.0205
  2.0244   2.0337   2.0417   2.0630   2.0669   2.0751   2.0836   2.0872
  2.1038   2.1115   2.1195   2.1240   2.1405   2.1497   2.1518   2.1816
  2.2020   2.2213   2.2237   2.2257   2.2387   2.2391   2.2665   2.2831
  2.3101   2.3164   2.3186   2.3366   2.3482   2.3560   2.3726   2.3784
  2.3940   2.4086   2.4172   2.4284   2.4484   2.4596   2.4719   2.4927
  2.5189   2.5310   2.5432   2.5438   2.5543   2.5705   2.5869   2.5958
  2.6040   2.6171   2.6327   2.6480   2.6573   2.6598   2.6795   2.6904
  2.6959   2.7147   2.7254   2.7457   2.7564   2.7572   2.7850   2.7962
  2.8081   2.8176   2.8314   2.8417   2.8540   2.8749   2.8803   2.8884
  2.9153   2.9214   2.9266   2.9444   2.9550   2.9629   2.9660   2.9810
  2.9904   2.9955   3.0049   3.0169   3.0287   3.0423   3.0621   3.0719
  3.0919   3.0983   3.1037   3.1119   3.1383   3.1612   3.1759   3.1886
  3.2064   3.2153   3.2516   3.2536   3.2570   3.2718   3.2811   3.2904
  3.2986   3.3077   3.3175   3.3255   3.3442   3.3658   3.3763   3.3796
  3.4019   3.4121   3.4132   3.4170   3.4308   3.4397   3.4533   3.4560
  3.4611   3.4792   3.4904   3.5040   3.5184   3.5245   3.5328   3.5369
  3.5475   3.5543   3.5621   3.5671   3.5721   3.5810   3.5885   3.5938
  3.5965   3.6048   3.6187   3.6330   3.6368   3.6494   3.6566   3.6675
  3.6841   3.6912   3.6967   3.7054   3.7130   3.7234   3.7353   3.7604
  3.7682   3.7711   3.7947   3.8047   3.8338   3.8518   3.8554   3.8966
  3.9156   3.9383   3.9686   3.9857   4.0031   4.0142   4.0569   4.0618
  4.0943   4.1104   4.1441   4.1714   4.1885   4.2065   4.2588   4.2771
  4.2872   4.2932   4.2995   4.3213   4.3335   4.3464   4.3531   4.3738
  4.3884   4.3940   4.4476   4.4691   4.4874   4.4940   4.5570   4.5661
  4.6068   4.6272   4.6448   4.6700   4.7272   4.7479   4.7850   4.7929
  4.8202   4.8396   4.8438   4.8831   4.8959   4.9558   5.0226   5.0430
  5.0601   5.1008   5.1369   5.1411   5.1632   5.2989   5.3063   5.3143
  5.3374   5.3546   5.3604   5.4416   5.4551   5.4914   5.5327   5.6061
  5.6652   5.7167   5.7427   5.7523   5.7571   5.8134   5.9682   6.0297
  6.2140   6.2583   6.3516   6.3706   6.4740   6.5797   6.6342   6.6438
  6.7005   6.7317   6.7587   6.7723   6.9023   6.9699   6.9979   7.0362
  7.0517   7.2549   7.3132   7.3611   7.3993   7.4493   7.4698  22.6627
 22.6908  22.7527  22.8452  22.9741  23.0072  23.0457  23.1899  23.4964
 23.8373  44.2976  44.4461  44.5022
 --------------------------------------------------------------
 
          Ground-State Mulliken Net Atomic Charges

     Atom                 Charge (a.u.)
  ----------------------------------------
      1 C                     0.238263
      2 C                    -0.825408
      3 C                     0.272103
      4 O                    -0.815005
      5 O                    -0.722747
      6 H                    -0.018360
      7 H                     0.232705
      8 H                     0.149745
      9 H                     0.209507
     10 H                     0.283128
     11 C                    -1.181967
     12 C                    -0.299640
     13 C                    -0.736061
     14 C                     0.647022
     15 C                     0.491682
     16 C                    -0.793303
     17 C                    -0.379703
     18 O                    -0.569006
     19 H                     0.367316
     20 H                     0.404372
     21 H                     0.339670
     22 H                     0.405739
     23 H                     0.303852
     24 H                     0.299763
     25 H                     0.437955
     26 H                     0.258377
  ----------------------------------------
  Sum of atomic charges =    -1.000000

 -----------------------------------------------------------------
                    Cartesian Multipole Moments
 -----------------------------------------------------------------
    Charge (ESU x 10^10)
                -4.8032
    Dipole Moment (Debye)
         X     -16.3742      Y      -2.3634      Z       2.3827
       Tot      16.7145
    Quadrupole Moments (Debye-Ang)
        XX    -131.8979     XY     -11.4358     YY     -78.8622
        XZ      20.6279     YZ       8.9706     ZZ     -94.2810
    Octopole Moments (Debye-Ang^2)
       XXX    -171.4892    XXY     -60.3604    XYY     -18.7644
       YYY     -20.5780    XXZ      66.4318    XYZ      30.9876
       YYZ      22.8687    XZZ     -26.3790    YZZ      -4.9110
       ZZZ       8.4897
    Hexadecapole Moments (Debye-Ang^3)
      XXXX   -2819.4536   XXXY    -647.1053   XXYY    -583.5236
      XYYY    -445.1333   YYYY   -1037.2895   XXXZ     520.2540
      XXYZ     213.0088   XYYZ     107.9069   YYYZ     320.6387
      XXZZ    -725.6429   XYZZ    -194.3356   YYZZ    -385.2684
      XZZZ     309.9777   YZZZ     385.2649   ZZZZ   -1348.7409
 -----------------------------------------------------------------
Archival summary:
1\1\nid00522\SP\ProcedureUnspecified\BasisUnspecified\31013(1-,1)\meili\SunSep2623:50:212021SunSep2623:50:212021\0\\#,ProcedureUnspecified,BasisUnspecified,\\-1,1\O\C,1,1.24011\O,2,1.25071,1,123.364\C,2,1.50838,1,118.208,3,177.878,0\H,4,1.08183,2,106.751,1,-137.055,0\H,4,1.08887,2,110.752,1,-20.9073,0\C,4,1.53249,2,113.044,1,100.847,0\H,7,1.09083,4,107.465,2,-70.2481,0\H,7,1.1,4,112.143,2,47.9741,0\H,7,1.1,4,109.037,2,169.951,0\H,8,2.64011,7,136.147,4,-18.748,0\C,11,1.07992,8,122.491,7,-27.164,0\C,12,1.39306,11,120.28,8,129.849,0\O,13,1.36125,12,118.635,11,0.250075,0\H,14,0.960771,13,109.442,12,-12.7083,0\C,13,1.39742,12,120.1,11,179.42,0\H,16,1.07831,13,119.4,12,-179.87,0\C,16,1.39615,13,119.932,12,0.318695,0\H,18,1.08171,16,119.631,13,-179.364,0\C,18,1.40082,16,120.789,13,0.063372,0\C,20,1.40227,18,118.697,16,-0.511407,0\H,21,1.0815,20,119.83,18,-179.064,0\C,20,1.50817,18,120.507,16,-177.018,0\H,23,1.08926,20,108.838,18,155.095,0\H,23,1.09129,20,106.79,18,40.8777,0\H,23,1.1,20,117.253,18,-80.2434,0\\\@

 Total job time:  75374.75s(wall), 47723.64s(cpu) 
 Sun Sep 26 23:50:23 2021

        *************************************************************
        *                                                           *
        *  Thank you very much for using Q-Chem.  Have a nice day.  *
        *                                                           *
        *************************************************************


