
Running Job 1 of 1 SSI-037ARG-152GLU-1_SMD_TZVPD.in
qchem SSI-037ARG-152GLU-1_SMD_TZVPD.in_29366.0 /tmp/qchem29366/ 0
/global/common/cori/software/qchem/5.2/exe/qcprog.exe_s SSI-037ARG-152GLU-1_SMD_TZVPD.in_29366.0 /tmp/qchem29366/
                  Welcome to Q-Chem
     A Quantum Leap Into The Future Of Chemistry


 Q-Chem 5.2, Q-Chem, Inc., Pleasanton, CA (2019)

 License issued to: National Energy Research Scientific Computing Center

 Yihan Shao,  Zhengting Gan,  E. Epifanovsky,  A. T. B. Gilbert,  M. Wormit,  
 J. Kussmann,  A. W. Lange,  A. Behn,  Jia Deng,  Xintian Feng,  D. Ghosh,  
 M. Goldey,  P. R. Horn,  L. D. Jacobson,  I. Kaliman,  T. Kus,  A. Landau,  
 Jie Liu,  E. I. Proynov,  R. M. Richard,  R. P. Steele,  E. J. Sundstrom,  
 H. L. Woodcock III,  P. M. Zimmerman,  D. Zuev,  B. Albrecht,  E. Alguire,  
 S. A. Baeppler,  D. Barton,  Z. Benda,  Y. A. Bernard,  E. J. Berquist,  
 K. B. Bravaya,  H. Burton,  D. Casanova,  Chun-Min Chang,  Yunqing Chen,  
 A. Chien,  K. D. Closser,  M. P. Coons,  S. Coriani,  S. Dasgupta,  
 A. L. Dempwolff,  M. Diedenhofen,  Hainam Do,  R. G. Edgar,  Po-Tung Fang,  
 S. Faraji,  S. Fatehi,  Qingguo Feng,  K. D. Fenk,  J. Fosso-Tande,  
 J. Gayvert,  Qinghui Ge,  A. Ghysels,  G. Gidofalvi,  J. Gomes,  
 J. Gonthier,  A. Gunina,  D. Hait,  M. W. D. Hanson-Heine,  
 P. H. P. Harbach,  A. W. Hauser,  M. F. Herbst,  J. E. Herr,  
 E. G. Hohenstein,  Z. C. Holden,  Kerwin Hui,  B. C. Huynh,  T.-C. Jagau,  
 Hyunjun Ji,  B. Kaduk,  K. Khistyaev,  Jaehoon Kim,  P. Klunzinger,  K. Koh,  
 D. Kosenkov,  L. Koulias,  T. Kowalczyk,  C. M. Krauter,  A. Kunitsa,  
 Ka Un Lao,  A. Laurent,  K. V. Lawler,  Joonho Lee,  D. Lefrancois,  
 S. Lehtola,  D. S. Levine,  Yi-Pei Li,  You-Sheng Lin,  Fenglai Liu,  
 E. Livshits,  A. Luenser,  P. Manohar,  E. Mansoor,  S. F. Manzer,  
 Shan-Ping Mao,  Yuezhi Mao,  N. Mardirossian,  A. V. Marenich,  
 T. Markovich,  L. A. Martinez-Martinez,  S. A. Maurer,  N. J. Mayhall,  
 S. C. McKenzie,  J.-M. Mewes,  P. Morgante,  A. F. Morrison,  
 J. W. Mullinax,  K. Nanda,  T. S. Nguyen-Beck,  R. Olivares-Amaya,  
 J. A. Parkhill,  Zheng Pei,  T. M. Perrine,  F. Plasser,  P. Pokhilko,  
 S. Prager,  A. Prociuk,  E. Ramos,  D. R. Rehn,  F. Rob,  M. Scheurer,  
 M. Schneider,  N. Sergueev,  S. M. Sharada,  S. Sharma,  D. W. Small,  
 T. Stauch,  T. Stein,  Yu-Chuan Su,  A. J. W. Thom,  A. Tkatchenko,  
 T. Tsuchimochi,  N. M. Tubman,  L. Vogt,  M. L. Vidal,  O. Vydrov,  
 M. A. Watson,  J. Wenzel,  M. de Wergifosse,  T. A. Wesolowski,  A. White,  
 J. Witte,  A. Yamada,  Jun Yang,  K. Yao,  S. Yeganeh,  S. R. Yost,  
 Zhi-Qiang You,  A. Zech,  Igor Ying Zhang,  Xing Zhang,  Yan Zhao,  
 Ying Zhu,  B. R. Brooks,  G. K. L. Chan,  C. J. Cramer,  M. S. Gordon,  
 W. J. Hehre,  A. Klamt,  M. W. Schmidt,  C. D. Sherrill,  D. G. Truhlar,  
 A. Aspuru-Guzik,  R. Baer,  A. T. Bell,  N. A. Besley,  Jeng-Da Chai,  
 A. E. DePrince, III,  R. A. DiStasio Jr.,  A. Dreuw,  B. D. Dunietz,  
 T. R. Furlani,  Chao-Ping Hsu,  Yousung Jung,  Jing Kong,  D. S. Lambrecht,  
 WanZhen Liang,  C. Ochsenfeld,  V. A. Rassolov,  L. V. Slipchenko,  
 J. E. Subotnik,  T. Van Voorhis,  J. M. Herbert,  A. I. Krylov,  
 P. M. W. Gill,  M. Head-Gordon

 Contributors to earlier versions of Q-Chem not listed above: 
 R. D. Adamson,  B. Austin,  J. Baker,  G. J. O. Beran,  K. Brandhorst,  
 S. T. Brown,  E. F. C. Byrd,  A. K. Chakraborty,  C.-L. Cheng,  
 Siu Hung Chien,  D. M. Chipman,  D. L. Crittenden,  H. Dachsel,  
 R. J. Doerksen,  A. D. Dutoi,  L. Fusti-Molnar,  W. A. Goddard III,  
 A. Golubeva-Zadorozhnaya,  S. R. Gwaltney,  G. Hawkins,  A. Heyden,  
 S. Hirata,  G. Kedziora,  F. J. Keil,  C. Kelley,  Jihan Kim,  R. A. King,  
 R. Z. Khaliullin,  P. P. Korambath,  W. Kurlancheek,  A. M. Lee,  M. S. Lee,  
 S. V. Levchenko,  Ching Yeh Lin,  D. Liotard,  R. C. Lochan,  I. Lotan,  
 P. E. Maslen,  N. Nair,  D. P. O'Neill,  D. Neuhauser,  E. Neuscamman,  
 C. M. Oana,  R. Olson,  B. Peters,  R. Peverati,  P. A. Pieniazek,  
 Y. M. Rhee,  J. Ritchie,  M. A. Rohrdanz,  E. Rosta,  N. J. Russ,  
 H. F. Schaefer III,  N. E. Schultz,  N. Shenvi,  A. C. Simmonett,  A. Sodt,  
 D. Stuck,  K. S. Thanthiriwatte,  V. Vanovschi,  Tao Wang,  A. Warshel,  
 C. F. Williams,  Q. Wu,  X. Xu,  W. Zhang

 Please cite Q-Chem as follows:
 Y. Shao et al., Mol. Phys. 113, 184-215 (2015)
 DOI: 10.1080/00268976.2014.952696

 Q-Chem 5.2.0 for Intel X86 EM64T Linux

 Parts of Q-Chem use Armadillo 8.300.2 (Tropical Shenanigans).
 http://arma.sourceforge.net/

 Q-Chem begins on Sun Sep 26 05:51:58 2021  

Host: cori01
0

     Scratch files written to /tmp/qchem29366//
 May1019 |scratch|qcdevops|jenkins|workspace|build_RNUM -1
Processing $rem in /global/common/cori/software/qchem/5.2/config/preferences:
	 MEM_TOTAL  96000 
NAlpha2: 72
NElect   72
Mult     1
Symmetry turned off for PCM/SM12/SMD calculation

 Q-Chem warning in module libgen/rem_setup.C, line 2803:

 Neither GIA nor STOLL is specified by user. Use STOLL as the default


Checking the input file for inconsistencies... 	...done.

--------------------------------------------------------------
User input:
--------------------------------------------------------------
$comment
SSI-037ARG-152GLU-1.pdb
$end

$molecule
0 1
--
1 1
C   -0.645384828832    1.456792014044   -2.432680099947
C   -1.432384828832    1.154792014044   -0.107680099947
N   -1.245384828832    0.647792014044    1.094319900053
N   -0.562384828832    0.904792014044   -1.074680099947
N   -2.478384828832    1.928792014044   -0.329680099947
H   -0.411384828832    0.064792014044    1.253319900053
H   -1.926384828832    0.762792014044    1.826319900053
H    0.170615171168    0.221792014044   -0.873680099947
H   -2.678384828832    2.241792014044   -1.277680099947
H   -3.152384828832    2.141792014044    0.385319900053
H    0.339615171168    1.418792014044   -2.902680099947
H   -0.929384828832    2.508792014044   -2.375680099947
H   -1.374644828832    0.937432014044   -3.071780099947
--
-1 1
C    2.609615171168   -2.523207985956    1.020319900053
C    1.548615171168   -1.483207985956    0.688319900053
O    1.000615171168   -0.874207985956    1.638319900053
O    1.273615171168   -1.253207985956   -0.510680099947
H    2.542615171168   -2.763207985956    2.082319900053
H    3.592615171168   -2.085207985956    0.834319900053
H    2.515065171168   -3.449357985956    0.434399900053
$end

$rem
JOBTYPE			EDA
EDA2			1
method			wB97X-V
BASIS			def2-TZVPD
XC_GRID			000099000590
NL_GRID			1
UNRESTRICTED		FALSE
MAX_SCF_CYCLES		200
SYMMETRY		FALSE
SYM_IGNORE		TRUE
MEM_STATIC		2000
BASIS_LIN_DEP_THRESH 	6
THRESH 			14
SCF_CONVERGENCE 	8
SCF_PRINT_FRGM 		TRUE
SOLVENT_METHOD          SMD
$end

$SMX
SOLVENT			WATER
$END
--------------------------------------------------------------
 ----------------------------------------------------------------
             Standard Nuclear Orientation (Angstroms)
    I     Atom           X                Y                Z
 ----------------------------------------------------------------
    1      C      -0.6453848288     1.4567920140    -2.4326800999
    2      C      -1.4323848288     1.1547920140    -0.1076800999
    3      N      -1.2453848288     0.6477920140     1.0943199001
    4      N      -0.5623848288     0.9047920140    -1.0746800999
    5      N      -2.4783848288     1.9287920140    -0.3296800999
    6      H      -0.4113848288     0.0647920140     1.2533199001
    7      H      -1.9263848288     0.7627920140     1.8263199001
    8      H       0.1706151712     0.2217920140    -0.8736800999
    9      H      -2.6783848288     2.2417920140    -1.2776800999
   10      H      -3.1523848288     2.1417920140     0.3853199001
   11      H       0.3396151712     1.4187920140    -2.9026800999
   12      H      -0.9293848288     2.5087920140    -2.3756800999
   13      H      -1.3746448288     0.9374320140    -3.0717800999
   14      C       2.6096151712    -2.5232079860     1.0203199001
   15      C       1.5486151712    -1.4832079860     0.6883199001
   16      O       1.0006151712    -0.8742079860     1.6383199001
   17      O       1.2736151712    -1.2532079860    -0.5106800999
   18      H       2.5426151712    -2.7632079860     2.0823199001
   19      H       3.5926151712    -2.0852079860     0.8343199001
   20      H       2.5150651712    -3.4493579860     0.4343999001
 ----------------------------------------------------------------
 Nuclear Repulsion Energy =         465.13834900 hartrees
 There are       36 alpha and       36 beta electrons
 Requested basis set is def2-TZVPD
 There are 174 shells and 438 basis functions

 Total QAlloc Memory Limit  96000 MB
 Mega-Array Size      1956 MB
 MEM_STATIC part      2000 MB
 
 Citation of the SMD model:
 Marenich, A.V.; Cramer, C.J.; Truhlar, D.G.
 J. Phys. Chem. B 2009, 113, 6378-6396.
 iSolventCode=           1
 Solvent: water                                                           
 
 vradii
            1           2           3           4           5           6
    1   1.8500000   1.8500000   1.8900000   1.8900000   1.8900000   1.2000000
            7           8           9          10          11          12
    1   1.2000000   1.2000000   1.2000000   1.2000000   1.2000000   1.2000000
           13          14          15          16          17          18
    1   1.2000000   1.8500000   1.8500000   1.5200000   1.5200000   1.2000000
           19          20
    1   1.2000000   1.2000000
 Changing PCM_VDW_RADII to SMD_RADIUS
 Discretize the solute cavity surface with Lebedev spheres
	Using 110 Lebedev grid points for each H atom
	Using 194 Lebedev grid points for other atoms
	Atomic van der Waals radii will be scaled by 1.20
 Remove points where switching function is < 1.0e-08
 Keep 1490 surface tesserae and discard 1466 interior tesserae
 Molecular Surface Area = 178.097 Angst**2
 A cutoff of  1.0D-14 yielded  13600 shell pairs
 There are     87350 function pairs (    109974 Cartesian)
 Smallest overlap matrix eigenvalue = 7.40E-06

 Scale SEOQF with 1.000000e-01/1.000000e-01/1.000000e-01

 Standard Electronic Orientation quadrupole field applied
 Nucleus-field energy     =     0.0000000061 hartrees

 -----------------------------------------------------------------------
  General SCF calculation program by
  Eric Jon Sundstrom, Paul Horn, Yuezhi Mao, Dmitri Zuev, Alec White,
  David Stuck, Shaama M.S., Shane Yost, Joonho Lee, David Small,
  Daniel Levine, Susi Lehtola, Hugh Burton, Evgeny Epifanovsky
 -----------------------------------------------------------------------
================================================================
                 ALMO-EDA with the EDA2 driver                  
================================================================
 The second-generation ALMO-EDA (for DFT):                      
 P. R. Horn, Y. Mao and M. Head-Gordon, PCCP, 18, 23067 (2016)  
 Decomposition of the frozen energy:                            
 P. R. Horn, Y. Mao and M. Head-Gordon, JCP, 144, 114107 (2016) 
 FERF model for polarization:                                   
 P. R. Horn and M. Head-Gordon, JCP, 143, 114111 (2015)         
Using eda2 option set 1
Option set summary: Frozen orbital wavefunction, initial wavefunction decomposition, and nDQ polarization.
--------------------------------
Printing EDA Options
--------------------------------
eda_child_super_basis      0
fragmo_guess_mode          0
child_mp                   1
child_mp_orders            232
cls_elec                   1
cls_disp                   0
scfmi_mode                 1
scfmi_occs                 0
scfmi_virts                0
frz_relax                  0
frz_relax_method           0
dc_pen_start               0
dc_pen_conv                0
dc_pen_increment           0
dc_pen_steps               0
dc_pen_thresh_factor       0
dc_pen_pre_newton_thresh   0
frz_ortho_decomp           1
frz_ortho_decomp_conv      6
frgm_method                2
scfmi_freeze_ss            0
separate_rehyb             0
plot_diff_den              0
eda_nocv                   0
eda_vct_relax              1
disp_free_x                0
disp_free_c                0
eda_bsse                   0
eda_pct_a                  0
eda_covp                   0
--------------------------------
Attempting to make child job directory: /tmp/qchem29366//Frg1/
Attempting to make child job directory: /tmp/qchem29366//Frg2/
Creating input file /tmp/qchem29366/Frg1.input
using default PutDataFrgm: nothing
calling putenv with: QCSCRATCH=/tmp/qchem29366/ 
calling putenv with: QCLOCALSCR=/tmp/qchem29366/ 
Spawning Job For Fragment 0
                  Welcome to Q-Chem
     A Quantum Leap Into The Future Of Chemistry


 Q-Chem 5.2, Q-Chem, Inc., Pleasanton, CA (2019)

 License issued to: National Energy Research Scientific Computing Center

 Yihan Shao,  Zhengting Gan,  E. Epifanovsky,  A. T. B. Gilbert,  M. Wormit,  
 J. Kussmann,  A. W. Lange,  A. Behn,  Jia Deng,  Xintian Feng,  D. Ghosh,  
 M. Goldey,  P. R. Horn,  L. D. Jacobson,  I. Kaliman,  T. Kus,  A. Landau,  
 Jie Liu,  E. I. Proynov,  R. M. Richard,  R. P. Steele,  E. J. Sundstrom,  
 H. L. Woodcock III,  P. M. Zimmerman,  D. Zuev,  B. Albrecht,  E. Alguire,  
 S. A. Baeppler,  D. Barton,  Z. Benda,  Y. A. Bernard,  E. J. Berquist,  
 K. B. Bravaya,  H. Burton,  D. Casanova,  Chun-Min Chang,  Yunqing Chen,  
 A. Chien,  K. D. Closser,  M. P. Coons,  S. Coriani,  S. Dasgupta,  
 A. L. Dempwolff,  M. Diedenhofen,  Hainam Do,  R. G. Edgar,  Po-Tung Fang,  
 S. Faraji,  S. Fatehi,  Qingguo Feng,  K. D. Fenk,  J. Fosso-Tande,  
 J. Gayvert,  Qinghui Ge,  A. Ghysels,  G. Gidofalvi,  J. Gomes,  
 J. Gonthier,  A. Gunina,  D. Hait,  M. W. D. Hanson-Heine,  
 P. H. P. Harbach,  A. W. Hauser,  M. F. Herbst,  J. E. Herr,  
 E. G. Hohenstein,  Z. C. Holden,  Kerwin Hui,  B. C. Huynh,  T.-C. Jagau,  
 Hyunjun Ji,  B. Kaduk,  K. Khistyaev,  Jaehoon Kim,  P. Klunzinger,  K. Koh,  
 D. Kosenkov,  L. Koulias,  T. Kowalczyk,  C. M. Krauter,  A. Kunitsa,  
 Ka Un Lao,  A. Laurent,  K. V. Lawler,  Joonho Lee,  D. Lefrancois,  
 S. Lehtola,  D. S. Levine,  Yi-Pei Li,  You-Sheng Lin,  Fenglai Liu,  
 E. Livshits,  A. Luenser,  P. Manohar,  E. Mansoor,  S. F. Manzer,  
 Shan-Ping Mao,  Yuezhi Mao,  N. Mardirossian,  A. V. Marenich,  
 T. Markovich,  L. A. Martinez-Martinez,  S. A. Maurer,  N. J. Mayhall,  
 S. C. McKenzie,  J.-M. Mewes,  P. Morgante,  A. F. Morrison,  
 J. W. Mullinax,  K. Nanda,  T. S. Nguyen-Beck,  R. Olivares-Amaya,  
 J. A. Parkhill,  Zheng Pei,  T. M. Perrine,  F. Plasser,  P. Pokhilko,  
 S. Prager,  A. Prociuk,  E. Ramos,  D. R. Rehn,  F. Rob,  M. Scheurer,  
 M. Schneider,  N. Sergueev,  S. M. Sharada,  S. Sharma,  D. W. Small,  
 T. Stauch,  T. Stein,  Yu-Chuan Su,  A. J. W. Thom,  A. Tkatchenko,  
 T. Tsuchimochi,  N. M. Tubman,  L. Vogt,  M. L. Vidal,  O. Vydrov,  
 M. A. Watson,  J. Wenzel,  M. de Wergifosse,  T. A. Wesolowski,  A. White,  
 J. Witte,  A. Yamada,  Jun Yang,  K. Yao,  S. Yeganeh,  S. R. Yost,  
 Zhi-Qiang You,  A. Zech,  Igor Ying Zhang,  Xing Zhang,  Yan Zhao,  
 Ying Zhu,  B. R. Brooks,  G. K. L. Chan,  C. J. Cramer,  M. S. Gordon,  
 W. J. Hehre,  A. Klamt,  M. W. Schmidt,  C. D. Sherrill,  D. G. Truhlar,  
 A. Aspuru-Guzik,  R. Baer,  A. T. Bell,  N. A. Besley,  Jeng-Da Chai,  
 A. E. DePrince, III,  R. A. DiStasio Jr.,  A. Dreuw,  B. D. Dunietz,  
 T. R. Furlani,  Chao-Ping Hsu,  Yousung Jung,  Jing Kong,  D. S. Lambrecht,  
 WanZhen Liang,  C. Ochsenfeld,  V. A. Rassolov,  L. V. Slipchenko,  
 J. E. Subotnik,  T. Van Voorhis,  J. M. Herbert,  A. I. Krylov,  
 P. M. W. Gill,  M. Head-Gordon

 Contributors to earlier versions of Q-Chem not listed above: 
 R. D. Adamson,  B. Austin,  J. Baker,  G. J. O. Beran,  K. Brandhorst,  
 S. T. Brown,  E. F. C. Byrd,  A. K. Chakraborty,  C.-L. Cheng,  
 Siu Hung Chien,  D. M. Chipman,  D. L. Crittenden,  H. Dachsel,  
 R. J. Doerksen,  A. D. Dutoi,  L. Fusti-Molnar,  W. A. Goddard III,  
 A. Golubeva-Zadorozhnaya,  S. R. Gwaltney,  G. Hawkins,  A. Heyden,  
 S. Hirata,  G. Kedziora,  F. J. Keil,  C. Kelley,  Jihan Kim,  R. A. King,  
 R. Z. Khaliullin,  P. P. Korambath,  W. Kurlancheek,  A. M. Lee,  M. S. Lee,  
 S. V. Levchenko,  Ching Yeh Lin,  D. Liotard,  R. C. Lochan,  I. Lotan,  
 P. E. Maslen,  N. Nair,  D. P. O'Neill,  D. Neuhauser,  E. Neuscamman,  
 C. M. Oana,  R. Olson,  B. Peters,  R. Peverati,  P. A. Pieniazek,  
 Y. M. Rhee,  J. Ritchie,  M. A. Rohrdanz,  E. Rosta,  N. J. Russ,  
 H. F. Schaefer III,  N. E. Schultz,  N. Shenvi,  A. C. Simmonett,  A. Sodt,  
 D. Stuck,  K. S. Thanthiriwatte,  V. Vanovschi,  Tao Wang,  A. Warshel,  
 C. F. Williams,  Q. Wu,  X. Xu,  W. Zhang

 Please cite Q-Chem as follows:
 Y. Shao et al., Mol. Phys. 113, 184-215 (2015)
 DOI: 10.1080/00268976.2014.952696

 Q-Chem 5.2.0 for Intel X86 EM64T Linux

 Parts of Q-Chem use Armadillo 8.300.2 (Tropical Shenanigans).
 http://arma.sourceforge.net/

 Q-Chem begins on Sun Sep 26 05:52:01 2021  

Host: cori01
0

     Scratch files written to /tmp/qchem29366//Frg1//
 May1019 |scratch|qcdevops|jenkins|workspace|build_RNUM -1
Processing $rem in /global/common/cori/software/qchem/5.2/config/preferences:
	 MEM_TOTAL  96000 
NAlpha2: 40
NElect   40
Mult     1
Symmetry turned off for PCM/SM12/SMD calculation

Checking the input file for inconsistencies... 	...done.

--------------------------------------------------------------
User input:
--------------------------------------------------------------
$molecule
1 1
 6	-0.6453848288	1.4567920140	-2.4326800999
 6	-1.4323848288	1.1547920140	-0.1076800999
 7	-1.2453848288	0.6477920140	1.0943199001
 7	-0.5623848288	0.9047920140	-1.0746800999
 7	-2.4783848288	1.9287920140	-0.3296800999
 1	-0.4113848288	0.0647920140	1.2533199001
 1	-1.9263848288	0.7627920140	1.8263199001
 1	0.1706151712	0.2217920140	-0.8736800999
 1	-2.6783848288	2.2417920140	-1.2776800999
 1	-3.1523848288	2.1417920140	0.3853199001
 1	0.3396151712	1.4187920140	-2.9026800999
 1	-0.9293848288	2.5087920140	-2.3756800999
 1	-1.3746448288	0.9374320140	-3.0717800999
$end
$rem
EDA2		1
METHOD		WB97X-V
BASIS		DEF2-TZVPD
XC_GRID		000099000590
NL_GRID		1
UNRESTRICTED		FALSE
MAX_SCF_CYCLES		200
SYMMETRY		FALSE
SYM_IGNORE		TRUE
BASIS_LIN_DEP_THRESH		6
THRESH		14
SCF_CONVERGENCE		8
SCF_PRINT_FRGM		TRUE
SOLVENT_METHOD		SMD
!required keywords
JOBTYPE		SP
SYM_IGNORE		TRUE
SUBSYSTEM		TRUE
GEN_SCFMAN		TRUE
CHILD_INSTRUCTION		2
SYM_IGNORE		TRUE
SCFMI		0
RI_K 0		
PARI_K 0		
MIN_PARI_K 0		
IARI_K 0		
OCC_RI_K 0		
PURECART		1111
MEM_STATIC		2000
MEM_TOTAL		96000
GUI		0
CHILD_MP		1
CHILD_MP_ORDERS		232
FRZ_RELAX		0
FRZ_RELAX_METHOD		0
EDA_CLS_ELEC		1
EDA_CLS_DISP		0
FRZ_ORTHO_DECOMP		1
EDA2		FALSE
FRGM_METHOD		FALSE
CIS_N_ROOTS  0
LOCAL_CIS    0
CIS_RLX_DNS  1
$end
$smx
SOLVENT			WATER
$end
--------------------------------------------------------------
 ----------------------------------------------------------------
             Standard Nuclear Orientation (Angstroms)
    I     Atom           X                Y                Z
 ----------------------------------------------------------------
    1      C      -0.6453848288     1.4567920140    -2.4326800999
    2      C      -1.4323848288     1.1547920140    -0.1076800999
    3      N      -1.2453848288     0.6477920140     1.0943199001
    4      N      -0.5623848288     0.9047920140    -1.0746800999
    5      N      -2.4783848288     1.9287920140    -0.3296800999
    6      H      -0.4113848288     0.0647920140     1.2533199001
    7      H      -1.9263848288     0.7627920140     1.8263199001
    8      H       0.1706151712     0.2217920140    -0.8736800999
    9      H      -2.6783848288     2.2417920140    -1.2776800999
   10      H      -3.1523848288     2.1417920140     0.3853199001
   11      H       0.3396151712     1.4187920140    -2.9026800999
   12      H      -0.9293848288     2.5087920140    -2.3756800999
   13      H      -1.3746448288     0.9374320140    -3.0717800999
 ----------------------------------------------------------------
 Nuclear Repulsion Energy =         194.08254922 hartrees
 There are       20 alpha and       20 beta electrons
 Requested basis set is def2-TZVPD
 There are 105 shells and 257 basis functions

 Total QAlloc Memory Limit  96000 MB
 Mega-Array Size      1956 MB
 MEM_STATIC part      2000 MB
 
 Citation of the SMD model:
 Marenich, A.V.; Cramer, C.J.; Truhlar, D.G.
 J. Phys. Chem. B 2009, 113, 6378-6396.
 iSolventCode=           1
 Solvent: water                                                           
 
 vradii
            1           2           3           4           5           6
    1   1.8500000   1.8500000   1.8900000   1.8900000   1.8900000   1.2000000
            7           8           9          10          11          12
    1   1.2000000   1.2000000   1.2000000   1.2000000   1.2000000   1.2000000
           13
    1   1.2000000
 Changing PCM_VDW_RADII to SMD_RADIUS
 Discretize the solute cavity surface with Lebedev spheres
	Using 110 Lebedev grid points for each H atom
	Using 194 Lebedev grid points for other atoms
	Atomic van der Waals radii will be scaled by 1.20
 Remove points where switching function is < 1.0e-08
 Keep 924 surface tesserae and discard 926 interior tesserae
 Molecular Surface Area = 113.699 Angst**2

                       Distance Matrix (Angstroms)
             C (  1)   C (  2)   N (  3)   N (  4)   N (  5)   H (  6)
   C (  2)  2.473095
   N (  3)  3.667998  1.317885
   N (  4)  1.468250  1.324571  2.288471
   N (  5)  2.829361  1.320029  2.277943  2.296662
   H (  6)  3.947026  2.020609  1.029916  2.479513  3.202011
   H (  7)  4.501297  2.034221  1.006385  3.208810  2.512488  1.763734
   H (  8)  2.149782  2.006702  2.461617  1.021851  3.197966  2.210770
   H (  9)  2.466443  2.025583  3.196984  2.511222  1.018171  4.035416
   H ( 10)  3.833458  2.043433  2.524156  3.220228  1.005420  3.546891
   H ( 11)  1.092048  3.319895  4.368372  2.102233  3.849877  4.435048
   H ( 12)  1.091150  2.688894  3.950200  2.097643  2.630954  4.405803
   H ( 13)  1.100002  2.972620  4.178156  2.156210  3.117715  4.516178
             H (  7)   H (  8)   H (  9)   H ( 10)   H ( 11)   H ( 12)
   H (  8)  3.461227
   H (  9)  3.519625  3.515738
   H ( 10)  2.341196  4.039036  1.732122
   H ( 11)  5.284745  2.361824  3.525093  4.850540
   H ( 12)  4.658254  2.948961  2.082281  3.563641  1.753907
   H ( 13)  4.932170  2.780578  2.572914  4.069691  1.788572  1.775383

 
 A cutoff of  1.0D-14 yielded   5441 shell pairs
 There are     33177 function pairs (     41513 Cartesian)
 Smallest overlap matrix eigenvalue = 1.66E-05

 Scale SEOQF with 1.000000e-01/1.000000e-01/1.000000e-01

 Standard Electronic Orientation quadrupole field applied
 Nucleus-field energy     =    -0.0000000002 hartrees
 Guess from superposition of atomic densities
 Warning:  Energy on first SCF cycle will be non-variational
 SAD guess density has 40.388232 electrons

 -----------------------------------------------------------------------
  General SCF calculation program by
  Eric Jon Sundstrom, Paul Horn, Yuezhi Mao, Dmitri Zuev, Alec White,
  David Stuck, Shaama M.S., Shane Yost, Joonho Lee, David Small,
  Daniel Levine, Susi Lehtola, Hugh Burton, Evgeny Epifanovsky
 -----------------------------------------------------------------------
 Exchange:     0.1670 Hartree-Fock + 1.0000 wB97X-V + LR-HF
 Correlation:  1.0000 wB97X-V
 Using Euler-Maclaurin-Lebedev (99,590) quadrature formula
 Nonlocal Correlation:  VV10 with C = 0.0100 and b = 6.00 and scale = 1.00000
 Grid used for NLC:  SG-1 standard quadrature
Energy prior to optimization (guess energy) = -244.726142907506
Begin Timing: Total SCF Calculation
begin iterations for algorithm: DIIS         
the SCF tolerance is set to 1.00e-08
    1    -244.7261429075      7.92e-03     00000 
    2    -244.9633338513      6.25e-03     00000 
    3    -245.2052677186      3.19e-04     00000 
    4    -245.2061763438      1.66e-04     00000 
    5    -245.2063903885      4.54e-05     00000 
    6    -245.2064079453      1.88e-05     00000 
    7    -245.2064108284      3.28e-06     00000 
    8    -245.2064110017      8.81e-07     00000 
    9    -245.2064110134      3.70e-07     00000 
   10    -245.2064110155      9.78e-08     00000 
   11    -245.2064110158      4.31e-08     00000 
   12    -245.2064110158      1.65e-08     00000 
   13    -245.2064110158      2.09e-09     00000 Convergence criterion met
Timing for Total SCF: 750.00s (wall), 1487.01s (cpu)
(3)  G-ENP(liq) elect-nuc-pol free energy of system     -245.206411016 a.u.
(4)  G-CDS(liq) cavity-dispersion-solvent structure 
     free energy                                                2.7378 kcal/mol
(6)  G-S(liq) free energy of system                     -245.202048098 a.u.
E_pcm = -0.1080488709
E_cds = 0.0043629173
Multipole orders to be included
        2
        3
computing dipole RHS
computing quadrupole RHS
total number of RHS in solve_reponses: 8
RHS batch sizes
        8
Beginning Block Conjugate Gradient Iterations. Batch Number: 0
computing hessian-vector products by finite difference
              1      4.72e-01     00000 Conjugate Gradient Iteration
computing hessian-vector products by finite difference
              2      1.75e-01     00000 Conjugate Gradient Iteration
computing hessian-vector products by finite difference
              3      5.17e-02     00000 Conjugate Gradient Iteration
computing hessian-vector products by finite difference
              4      1.44e-02     00000 Conjugate Gradient Iteration
computing hessian-vector products by finite difference
              5      1.95e-03     00000 Conjugate Gradient Iteration
computing hessian-vector products by finite difference
              6      3.37e-04     00000 Conjugate Gradient Iteration
computing hessian-vector products by finite difference
              7      4.28e-05     00000 Conjugate Gradient Iteration
computing hessian-vector products by finite difference
              8      6.07e-06     00000 Conjugate Gradient Iteration
computing hessian-vector products by finite difference
              9      9.04e-07     00000 Conjugate Gradient Iteration
computing hessian-vector products by finite difference
             10      1.07e-07     00000 Conjugate Gradient Iteration
computing hessian-vector products by finite difference
             11      1.67e-08     00000 Conjugate Gradient Iteration
computing hessian-vector products by finite difference
             12      4.20e-09     00000 CG Converged
batch 0 complete
Done Calculating Responses
TESTING ORTHOGONALIZATION OF MULTIPOLE BASIS
Multipole virts passed orthogonality test
Virts Per Order
           60
          100
 
 --------------------------------------------------------------
 
                    Orbital Energies (a.u.)
 --------------------------------------------------------------
 
 Alpha MOs
 -- Occupied --
-14.4563 -14.4479 -14.4466 -10.4220 -10.3056  -1.1726  -1.0534  -1.0408
 -0.8522  -0.7648  -0.7183  -0.6892  -0.6161  -0.6068  -0.5932  -0.5704
 -0.5248  -0.5057  -0.3991  -0.3769
 -- Virtual --
  0.0586   0.0846   0.0977   0.1034   0.1235   0.1259   0.1366   0.1503
  0.1725   0.1761   0.1934   0.1983   0.2037   0.2132   0.2205   0.2397
  0.2427   0.2451   0.2503   0.2711   0.2816   0.2839   0.2966   0.3029
  0.3123   0.3200   0.3236   0.3258   0.3386   0.3408   0.3506   0.3596
  0.3674   0.3752   0.3809   0.3972   0.4059   0.4120   0.4133   0.4329
  0.4415   0.4486   0.4580   0.4593   0.4716   0.4766   0.4897   0.4990
  0.5016   0.5113   0.5204   0.5216   0.5326   0.5337   0.5480   0.5571
  0.5598   0.5683   0.5820   0.5961   0.6066   0.6162   0.6367   0.6585
  0.6624   0.6756   0.6856   0.7039   0.7200   0.7350   0.7505   0.7644
  0.7947   0.8023   0.8173   0.8293   0.8389   0.8445   0.8577   0.8675
  0.8853   0.8922   0.9024   0.9212   0.9357   0.9769   0.9912   0.9957
  1.0313   1.0651   1.0753   1.0953   1.1133   1.1200   1.1340   1.1356
  1.1636   1.1872   1.2275   1.2565   1.2702   1.3337   1.3686   1.4198
  1.4240   1.4505   1.4815   1.4895   1.5539   1.5685   1.6310   1.6684
  1.6901   1.7241   1.7589   1.7922   1.8404   1.8629   1.8727   1.8893
  1.9133   1.9207   1.9256   1.9823   1.9963   2.0200   2.0418   2.0605
  2.0898   2.1204   2.1683   2.2018   2.2186   2.2469   2.2729   2.3043
  2.3319   2.3574   2.3807   2.4168   2.4478   2.4627   2.5073   2.5157
  2.5728   2.5923   2.6320   2.6394   2.6531   2.6739   2.7105   2.7316
  2.7865   2.8124   2.8562   2.8878   2.8950   2.9040   2.9394   2.9686
  3.0492   3.1162   3.1344   3.1611   3.1888   3.1996   3.2279   3.2608
  3.2649   3.2883   3.3103   3.3192   3.3710   3.4108   3.4192   3.4314
  3.4688   3.5123   3.5331   3.5834   3.6008   3.6506   3.6564   3.7611
  3.8130   3.8598   3.9288   3.9977   4.0551   4.1335   4.1591   4.2101
  4.2721   4.3104   4.3488   4.3898   4.4277   4.4969   4.5659   4.6168
  4.6577   4.8451   4.8586   4.8757   4.9370   4.9971   5.0191   5.0530
  5.1128   5.1213   5.1440   5.1745   5.1908   5.2149   5.2743   5.3553
  5.3917   5.4004   5.4390   5.4752   5.5004   5.5079   5.5656   5.6623
  5.7052   5.7753   5.8079   5.8884   6.1244   6.2011   6.3667   6.4811
 22.6664  23.6600  32.3383  32.4531  32.8186
 --------------------------------------------------------------
 
          Ground-State Mulliken Net Atomic Charges

     Atom                 Charge (a.u.)
  ----------------------------------------
      1 C                    -0.807529
      2 C                     0.431169
      3 N                    -0.313800
      4 N                    -0.114358
      5 N                    -0.294435
      6 H                     0.263004
      7 H                     0.245441
      8 H                     0.288876
      9 H                     0.222496
     10 H                     0.237414
     11 H                     0.273966
     12 H                     0.298206
     13 H                     0.269550
  ----------------------------------------
  Sum of atomic charges =     1.000000

 -----------------------------------------------------------------
                    Cartesian Multipole Moments
 -----------------------------------------------------------------
    Charge (ESU x 10^10)
                 4.8032
    Dipole Moment (Debye)
         X      -6.8396      Y       5.2684      Z      -1.1838
       Tot       8.7142
    Quadrupole Moments (Debye-Ang)
        XX     -10.4447     XY     -14.3945     YY     -21.0215
        XZ      -1.4728     YZ      -4.9727     ZZ     -15.5983
    Octopole Moments (Debye-Ang^2)
       XXX      58.5658    XXY       4.5218    XYY      10.0559
       YYY     -94.1488    XXZ      22.7850    XYZ       3.3880
       YYZ       8.1623    XZZ      19.5930    YZZ     -19.3270
       ZZZ      45.2199
    Hexadecapole Moments (Debye-Ang^3)
      XXXX    -262.0490   XXXY      36.0435   XXYY     -43.9458
      XYYY     104.3671   YYYY    -323.3794   XXXZ     -50.0981
      XXYZ      28.0359   XYYZ       2.8270   YYYZ      71.7859
      XXZZ     -93.2208   XYZZ      26.1778   YYZZ     -96.7775
      XZZZ     -35.0602   YZZZ      67.3497   ZZZZ    -330.1609
 -----------------------------------------------------------------
Archival summary:
1\1\nid00539\SP\ProcedureUnspecified\BasisUnspecified\328(1+,1)\meili\SunSep2609:35:542021SunSep2609:35:542021\0\\#,ProcedureUnspecified,BasisUnspecified,\\1,1\C\N,1,1.31789\H,2,1.00638,1,121.562\H,2,1.02992,1,118.26,3,175.483,0\N,1,1.32003,2,119.433,3,5.95782,0\H,5,1.00542,1,122.4,2,-0.736819,0\H,5,1.01817,1,119.505,2,-173.647,0\N,1,1.32457,2,120.003,3,-175.185,0\H,8,1.02185,1,116.981,2,7.46504,0\C,8,1.46825,1,124.551,2,-177.62,0\H,10,1.09115,8,109.2,1,42.0498,0\H,10,1.09205,8,109.511,1,158.798,0\H,10,1.1,8,113.412,1,-78.7444,0\\\@

 Total job time:  13434.09s(wall), 26575.02s(cpu) 
 Sun Sep 26 09:35:55 2021

        *************************************************************
        *                                                           *
        *  Thank you very much for using Q-Chem.  Have a nice day.  *
        *                                                           *
        *************************************************************


Done Job For Fragment 0
calling putenv with: QCSCRATCH=/global/cscratch1/sd/meili 
calling putenv with: QCLOCALSCR=/tmp 
calling putenv with: QCTHREADS=32 
Creating input file /tmp/qchem29366/Frg2.input
using default PutDataFrgm: nothing
calling putenv with: QCSCRATCH=/tmp/qchem29366/ 
calling putenv with: QCLOCALSCR=/tmp/qchem29366/ 
Spawning Job For Fragment 1
                  Welcome to Q-Chem
     A Quantum Leap Into The Future Of Chemistry


 Q-Chem 5.2, Q-Chem, Inc., Pleasanton, CA (2019)

 License issued to: National Energy Research Scientific Computing Center

 Yihan Shao,  Zhengting Gan,  E. Epifanovsky,  A. T. B. Gilbert,  M. Wormit,  
 J. Kussmann,  A. W. Lange,  A. Behn,  Jia Deng,  Xintian Feng,  D. Ghosh,  
 M. Goldey,  P. R. Horn,  L. D. Jacobson,  I. Kaliman,  T. Kus,  A. Landau,  
 Jie Liu,  E. I. Proynov,  R. M. Richard,  R. P. Steele,  E. J. Sundstrom,  
 H. L. Woodcock III,  P. M. Zimmerman,  D. Zuev,  B. Albrecht,  E. Alguire,  
 S. A. Baeppler,  D. Barton,  Z. Benda,  Y. A. Bernard,  E. J. Berquist,  
 K. B. Bravaya,  H. Burton,  D. Casanova,  Chun-Min Chang,  Yunqing Chen,  
 A. Chien,  K. D. Closser,  M. P. Coons,  S. Coriani,  S. Dasgupta,  
 A. L. Dempwolff,  M. Diedenhofen,  Hainam Do,  R. G. Edgar,  Po-Tung Fang,  
 S. Faraji,  S. Fatehi,  Qingguo Feng,  K. D. Fenk,  J. Fosso-Tande,  
 J. Gayvert,  Qinghui Ge,  A. Ghysels,  G. Gidofalvi,  J. Gomes,  
 J. Gonthier,  A. Gunina,  D. Hait,  M. W. D. Hanson-Heine,  
 P. H. P. Harbach,  A. W. Hauser,  M. F. Herbst,  J. E. Herr,  
 E. G. Hohenstein,  Z. C. Holden,  Kerwin Hui,  B. C. Huynh,  T.-C. Jagau,  
 Hyunjun Ji,  B. Kaduk,  K. Khistyaev,  Jaehoon Kim,  P. Klunzinger,  K. Koh,  
 D. Kosenkov,  L. Koulias,  T. Kowalczyk,  C. M. Krauter,  A. Kunitsa,  
 Ka Un Lao,  A. Laurent,  K. V. Lawler,  Joonho Lee,  D. Lefrancois,  
 S. Lehtola,  D. S. Levine,  Yi-Pei Li,  You-Sheng Lin,  Fenglai Liu,  
 E. Livshits,  A. Luenser,  P. Manohar,  E. Mansoor,  S. F. Manzer,  
 Shan-Ping Mao,  Yuezhi Mao,  N. Mardirossian,  A. V. Marenich,  
 T. Markovich,  L. A. Martinez-Martinez,  S. A. Maurer,  N. J. Mayhall,  
 S. C. McKenzie,  J.-M. Mewes,  P. Morgante,  A. F. Morrison,  
 J. W. Mullinax,  K. Nanda,  T. S. Nguyen-Beck,  R. Olivares-Amaya,  
 J. A. Parkhill,  Zheng Pei,  T. M. Perrine,  F. Plasser,  P. Pokhilko,  
 S. Prager,  A. Prociuk,  E. Ramos,  D. R. Rehn,  F. Rob,  M. Scheurer,  
 M. Schneider,  N. Sergueev,  S. M. Sharada,  S. Sharma,  D. W. Small,  
 T. Stauch,  T. Stein,  Yu-Chuan Su,  A. J. W. Thom,  A. Tkatchenko,  
 T. Tsuchimochi,  N. M. Tubman,  L. Vogt,  M. L. Vidal,  O. Vydrov,  
 M. A. Watson,  J. Wenzel,  M. de Wergifosse,  T. A. Wesolowski,  A. White,  
 J. Witte,  A. Yamada,  Jun Yang,  K. Yao,  S. Yeganeh,  S. R. Yost,  
 Zhi-Qiang You,  A. Zech,  Igor Ying Zhang,  Xing Zhang,  Yan Zhao,  
 Ying Zhu,  B. R. Brooks,  G. K. L. Chan,  C. J. Cramer,  M. S. Gordon,  
 W. J. Hehre,  A. Klamt,  M. W. Schmidt,  C. D. Sherrill,  D. G. Truhlar,  
 A. Aspuru-Guzik,  R. Baer,  A. T. Bell,  N. A. Besley,  Jeng-Da Chai,  
 A. E. DePrince, III,  R. A. DiStasio Jr.,  A. Dreuw,  B. D. Dunietz,  
 T. R. Furlani,  Chao-Ping Hsu,  Yousung Jung,  Jing Kong,  D. S. Lambrecht,  
 WanZhen Liang,  C. Ochsenfeld,  V. A. Rassolov,  L. V. Slipchenko,  
 J. E. Subotnik,  T. Van Voorhis,  J. M. Herbert,  A. I. Krylov,  
 P. M. W. Gill,  M. Head-Gordon

 Contributors to earlier versions of Q-Chem not listed above: 
 R. D. Adamson,  B. Austin,  J. Baker,  G. J. O. Beran,  K. Brandhorst,  
 S. T. Brown,  E. F. C. Byrd,  A. K. Chakraborty,  C.-L. Cheng,  
 Siu Hung Chien,  D. M. Chipman,  D. L. Crittenden,  H. Dachsel,  
 R. J. Doerksen,  A. D. Dutoi,  L. Fusti-Molnar,  W. A. Goddard III,  
 A. Golubeva-Zadorozhnaya,  S. R. Gwaltney,  G. Hawkins,  A. Heyden,  
 S. Hirata,  G. Kedziora,  F. J. Keil,  C. Kelley,  Jihan Kim,  R. A. King,  
 R. Z. Khaliullin,  P. P. Korambath,  W. Kurlancheek,  A. M. Lee,  M. S. Lee,  
 S. V. Levchenko,  Ching Yeh Lin,  D. Liotard,  R. C. Lochan,  I. Lotan,  
 P. E. Maslen,  N. Nair,  D. P. O'Neill,  D. Neuhauser,  E. Neuscamman,  
 C. M. Oana,  R. Olson,  B. Peters,  R. Peverati,  P. A. Pieniazek,  
 Y. M. Rhee,  J. Ritchie,  M. A. Rohrdanz,  E. Rosta,  N. J. Russ,  
 H. F. Schaefer III,  N. E. Schultz,  N. Shenvi,  A. C. Simmonett,  A. Sodt,  
 D. Stuck,  K. S. Thanthiriwatte,  V. Vanovschi,  Tao Wang,  A. Warshel,  
 C. F. Williams,  Q. Wu,  X. Xu,  W. Zhang

 Please cite Q-Chem as follows:
 Y. Shao et al., Mol. Phys. 113, 184-215 (2015)
 DOI: 10.1080/00268976.2014.952696

 Q-Chem 5.2.0 for Intel X86 EM64T Linux

 Parts of Q-Chem use Armadillo 8.300.2 (Tropical Shenanigans).
 http://arma.sourceforge.net/

 Q-Chem begins on Sun Sep 26 09:35:57 2021  

Host: cori01
0

     Scratch files written to /tmp/qchem29366//Frg2//
 May1019 |scratch|qcdevops|jenkins|workspace|build_RNUM -1
Processing $rem in /global/common/cori/software/qchem/5.2/config/preferences:
	 MEM_TOTAL  96000 
NAlpha2: 32
NElect   32
Mult     1
Symmetry turned off for PCM/SM12/SMD calculation

Checking the input file for inconsistencies... 	...done.

--------------------------------------------------------------
User input:
--------------------------------------------------------------
$molecule
-1 1
 6	2.6096151712	-2.5232079860	1.0203199001
 6	1.5486151712	-1.4832079860	0.6883199001
 8	1.0006151712	-0.8742079860	1.6383199001
 8	1.2736151712	-1.2532079860	-0.5106800999
 1	2.5426151712	-2.7632079860	2.0823199001
 1	3.5926151712	-2.0852079860	0.8343199001
 1	2.5150651712	-3.4493579860	0.4343999001
$end
$rem
EDA2		1
METHOD		WB97X-V
BASIS		DEF2-TZVPD
XC_GRID		000099000590
NL_GRID		1
UNRESTRICTED		FALSE
MAX_SCF_CYCLES		200
SYMMETRY		FALSE
SYM_IGNORE		TRUE
BASIS_LIN_DEP_THRESH		6
THRESH		14
SCF_CONVERGENCE		8
SCF_PRINT_FRGM		TRUE
SOLVENT_METHOD		SMD
!required keywords
JOBTYPE		SP
SYM_IGNORE		TRUE
SUBSYSTEM		TRUE
GEN_SCFMAN		TRUE
CHILD_INSTRUCTION		2
SYM_IGNORE		TRUE
SCFMI		0
RI_K 0		
PARI_K 0		
MIN_PARI_K 0		
IARI_K 0		
OCC_RI_K 0		
PURECART		1111
MEM_STATIC		2000
MEM_TOTAL		96000
GUI		0
CHILD_MP		1
CHILD_MP_ORDERS		232
FRZ_RELAX		0
FRZ_RELAX_METHOD		0
EDA_CLS_ELEC		1
EDA_CLS_DISP		0
FRZ_ORTHO_DECOMP		1
EDA2		FALSE
FRGM_METHOD		FALSE
CIS_N_ROOTS  0
LOCAL_CIS    0
CIS_RLX_DNS  1
$end
$smx
SOLVENT			WATER
$end
--------------------------------------------------------------
 ----------------------------------------------------------------
             Standard Nuclear Orientation (Angstroms)
    I     Atom           X                Y                Z
 ----------------------------------------------------------------
    1      C       2.6096151712    -2.5232079860     1.0203199001
    2      C       1.5486151712    -1.4832079860     0.6883199001
    3      O       1.0006151712    -0.8742079860     1.6383199001
    4      O       1.2736151712    -1.2532079860    -0.5106800999
    5      H       2.5426151712    -2.7632079860     2.0823199001
    6      H       3.5926151712    -2.0852079860     0.8343199001
    7      H       2.5150651712    -3.4493579860     0.4343999001
 ----------------------------------------------------------------
 Nuclear Repulsion Energy =         112.54199291 hartrees
 There are       16 alpha and       16 beta electrons
 Requested basis set is def2-TZVPD
 There are 69 shells and 181 basis functions

 Total QAlloc Memory Limit  96000 MB
 Mega-Array Size      1956 MB
 MEM_STATIC part      2000 MB
 
 Citation of the SMD model:
 Marenich, A.V.; Cramer, C.J.; Truhlar, D.G.
 J. Phys. Chem. B 2009, 113, 6378-6396.
 iSolventCode=           1
 Solvent: water                                                           
 
 vradii
            1           2           3           4           5           6
    1   1.8500000   1.8500000   1.5200000   1.5200000   1.2000000   1.2000000
            7
    1   1.2000000
 Changing PCM_VDW_RADII to SMD_RADIUS
 Discretize the solute cavity surface with Lebedev spheres
	Using 110 Lebedev grid points for each H atom
	Using 194 Lebedev grid points for other atoms
	Atomic van der Waals radii will be scaled by 1.20
 Remove points where switching function is < 1.0e-08
 Keep 635 surface tesserae and discard 471 interior tesserae
 Molecular Surface Area = 80.143 Angst**2

                       Distance Matrix (Angstroms)
             C (  1)   C (  2)   O (  3)   O (  4)   H (  5)   H (  6)
   C (  2)  1.522349
   O (  3)  2.385373  1.254466
   O (  4)  2.396196  1.251450  2.199175
   H (  5)  1.090841  2.137679  2.478552  3.257930
   H (  6)  1.092121  2.135803  2.971767  2.806957  1.766264
   H (  7)  1.099998  2.205504  3.220928  2.693965  1.785273  1.783804

 
 A cutoff of  1.0D-14 yielded   2391 shell pairs
 There are     16695 function pairs (     21491 Cartesian)
 Smallest overlap matrix eigenvalue = 1.67E-05

 Scale SEOQF with 1.000000e-01/1.000000e-01/1.000000e-01

 Standard Electronic Orientation quadrupole field applied
 Nucleus-field energy     =     0.0000000063 hartrees
 Guess from superposition of atomic densities
 Warning:  Energy on first SCF cycle will be non-variational
 SAD guess density has 30.625312 electrons

 -----------------------------------------------------------------------
  General SCF calculation program by
  Eric Jon Sundstrom, Paul Horn, Yuezhi Mao, Dmitri Zuev, Alec White,
  David Stuck, Shaama M.S., Shane Yost, Joonho Lee, David Small,
  Daniel Levine, Susi Lehtola, Hugh Burton, Evgeny Epifanovsky
 -----------------------------------------------------------------------
 Exchange:     0.1670 Hartree-Fock + 1.0000 wB97X-V + LR-HF
 Correlation:  1.0000 wB97X-V
 Using Euler-Maclaurin-Lebedev (99,590) quadrature formula
 Nonlocal Correlation:  VV10 with C = 0.0100 and b = 6.00 and scale = 1.00000
 Grid used for NLC:  SG-1 standard quadrature
Energy prior to optimization (guess energy) = -227.761039264637
Begin Timing: Total SCF Calculation
begin iterations for algorithm: DIIS         
the SCF tolerance is set to 1.00e-08
    1    -227.7610392646      1.66e-02     00000 
    2    -225.6206826791      2.50e-02     00000 
    3    -228.6065999612      4.07e-03     00000 
    4    -228.6592486602      1.40e-03     00000 
    5    -228.6652463695      3.06e-04     00000 
    6    -228.6655259395      2.14e-04     00000 
    7    -228.6656486875      4.91e-05     00000 
    8    -228.6656583288      1.33e-05     00000 
    9    -228.6656594408      3.83e-06     00000 
   10    -228.6656595506      1.11e-06     00000 
   11    -228.6656595609      2.18e-07     00000 
   12    -228.6656595613      4.72e-08     00000 
   13    -228.6656595613      1.15e-08     00000 
   14    -228.6656595613      2.94e-09     00000 Convergence criterion met
Timing for Total SCF: 275.00s (wall), 540.94s (cpu)
(3)  G-ENP(liq) elect-nuc-pol free energy of system     -228.665659561 a.u.
(4)  G-CDS(liq) cavity-dispersion-solvent structure 
     free energy                                                3.9020 kcal/mol
(6)  G-S(liq) free energy of system                     -228.659441325 a.u.
E_pcm = -0.1311167674
E_cds = 0.0062182365
Multipole orders to be included
        2
        3
computing dipole RHS
computing quadrupole RHS
total number of RHS in solve_reponses: 8
RHS batch sizes
        8
Beginning Block Conjugate Gradient Iterations. Batch Number: 0
computing hessian-vector products by finite difference
              1      7.70e-01     00000 Conjugate Gradient Iteration
computing hessian-vector products by finite difference
              2      2.42e-01     00000 Conjugate Gradient Iteration
computing hessian-vector products by finite difference
              3      6.72e-02     00000 Conjugate Gradient Iteration
computing hessian-vector products by finite difference
              4      1.81e-02     00000 Conjugate Gradient Iteration
computing hessian-vector products by finite difference
              5      2.68e-03     00000 Conjugate Gradient Iteration
computing hessian-vector products by finite difference
              6      7.09e-04     00000 Conjugate Gradient Iteration
computing hessian-vector products by finite difference
              7      1.01e-04     00000 Conjugate Gradient Iteration
computing hessian-vector products by finite difference
              8      1.25e-05     00000 Conjugate Gradient Iteration
computing hessian-vector products by finite difference
              9      1.92e-06     00000 Conjugate Gradient Iteration
computing hessian-vector products by finite difference
             10      1.87e-07     00000 Conjugate Gradient Iteration
computing hessian-vector products by finite difference
             11      2.80e-08     00000 Conjugate Gradient Iteration
computing hessian-vector products by finite difference
             12      5.90e-09     00000 CG Converged
batch 0 complete
Done Calculating Responses
TESTING ORTHOGONALIZATION OF MULTIPOLE BASIS
Multipole virts passed orthogonality test
Virts Per Order
        48
        80
 
 --------------------------------------------------------------
 
                    Orbital Energies (a.u.)
 --------------------------------------------------------------
 
 Alpha MOs
 -- Occupied --
-19.1532 -19.1531 -10.3547 -10.2470  -1.1648  -1.0647  -0.8403  -0.6177
 -0.5469  -0.5467  -0.5412  -0.4816  -0.4632  -0.3655  -0.3580  -0.3446
 -- Virtual --
  0.0670   0.1001   0.1007   0.1072   0.1353   0.1440   0.1461   0.1506
  0.1556   0.1895   0.2035   0.2228   0.2345   0.2399   0.2591   0.2668
  0.2983   0.3142   0.3329   0.3459   0.3558   0.3608   0.3722   0.3824
  0.3857   0.4020   0.4164   0.4243   0.4295   0.4531   0.4658   0.4735
  0.4837   0.4891   0.5059   0.5089   0.5477   0.5626   0.5764   0.5975
  0.6114   0.6285   0.6316   0.6400   0.6524   0.6671   0.6865   0.6931
  0.7084   0.7200   0.7723   0.7944   0.8040   0.8088   0.8333   0.8467
  0.8577   0.9553   0.9716   0.9823   0.9890   1.0279   1.0429   1.0967
  1.1397   1.2076   1.2387   1.2612   1.2633   1.2991   1.3339   1.3550
  1.4288   1.5438   1.5810   1.7362   1.8027   1.8517   1.8528   1.8964
  1.9138   1.9353   1.9441   1.9585   2.0011   2.0917   2.1118   2.1688
  2.1806   2.2033   2.2924   2.3245   2.4015   2.4374   2.4530   2.4689
  2.5606   2.5708   2.6238   2.6349   2.7806   2.7960   2.8697   2.8961
  2.9381   2.9935   3.0335   3.1495   3.1970   3.2298   3.2628   3.2897
  3.3299   3.3327   3.3776   3.3934   3.4084   3.5105   3.5517   3.5734
  3.5872   3.6463   3.6754   3.7140   3.7426   3.8436   3.9430   4.0416
  4.0775   4.1871   4.3182   4.5318   4.6253   4.6526   4.7818   4.8099
  4.9767   5.2959   5.3231   5.3322   5.3403   5.4654   5.6778   5.7371
  5.7838   5.9889   6.2041   6.3051   6.3226   6.5848   6.5971   6.6872
  6.7131   6.7267   6.9194   6.9461   7.0095   7.2135   7.3154   7.3512
  7.3806  22.5808  23.6938  44.1891  44.3249
 --------------------------------------------------------------
 
          Ground-State Mulliken Net Atomic Charges

     Atom                 Charge (a.u.)
  ----------------------------------------
      1 C                    -0.591992
      2 C                     0.500589
      3 O                    -0.771403
      4 O                    -0.774100
      5 H                     0.204542
      6 H                     0.195999
      7 H                     0.236366
  ----------------------------------------
  Sum of atomic charges =    -1.000000

 -----------------------------------------------------------------
                    Cartesian Multipole Moments
 -----------------------------------------------------------------
    Charge (ESU x 10^10)
                -4.8032
    Dipole Moment (Debye)
         X      -3.8122      Y       3.5161      Z      -2.2216
       Tot       5.6419
    Quadrupole Moments (Debye-Ang)
        XX     -27.0476     XY       2.0456     YY     -26.9339
        XZ      -0.1365     YZ      -0.4741     ZZ     -36.5914
    Octopole Moments (Debye-Ang^2)
       XXX    -122.2715    XXY      39.2867    XYY     -41.0364
       YYY     117.4277    XXZ     -15.3030    XYZ      -3.4692
       YYZ     -14.8187    XZZ     -53.3846    YZZ      49.4766
       ZZZ     -72.7246
    Hexadecapole Moments (Debye-Ang^3)
      XXXX    -501.1239   XXXY     229.0004   XXYY    -164.0334
      XYYY     226.6514   YYYY    -468.4153   XXXZ     -87.9200
      XXYZ      22.1961   XYYZ     -24.8436   YYYZ      83.5351
      XXZZ    -135.9931   XYZZ      87.1081   YYZZ    -124.4372
      XZZZ    -113.3457   YZZZ     102.1345   ZZZZ    -248.1070
 -----------------------------------------------------------------
Archival summary:
1\1\nid00539\SP\ProcedureUnspecified\BasisUnspecified\223(1-,1)\meili\SunSep2610:52:502021SunSep2610:52:502021\0\\#,ProcedureUnspecified,BasisUnspecified,\\-1,1\C\O,1,1.25145\O,1,1.25447,2,122.707\C,1,1.52235,2,119.186,3,-178.767,0\H,4,1.09084,1,108.652,2,-166.325,0\H,4,1.09212,1,108.433,2,76.5049,0\H,4,1.1,1,113.523,2,-44.6877,0\\\@

 Total job time:  4613.64s(wall), 9069.23s(cpu) 
 Sun Sep 26 10:52:51 2021

        *************************************************************
        *                                                           *
        *  Thank you very much for using Q-Chem.  Have a nice day.  *
        *                                                           *
        *************************************************************


Done Job For Fragment 1
calling putenv with: QCSCRATCH=/global/cscratch1/sd/meili 
calling putenv with: QCLOCALSCR=/tmp 
calling putenv with: QCTHREADS=32 
Doing General SCFMI
 Exchange:     0.1670 Hartree-Fock + 1.0000 wB97X-V + LR-HF
 Correlation:  1.0000 wB97X-V
 Using Euler-Maclaurin-Lebedev (99,590) quadrature formula
 Nonlocal Correlation:  VV10 with C = 0.0100 and b = 6.00 and scale = 1.00000
 Grid used for NLC:  SG-1 standard quadrature
performing fock build before subrot guess so that all methods have access
Printing subrot_rss_gen Method Specification:
Occupied Subspace Method is 0
Virtual Subspace Method is 0
Energy of the unrelaxed supersystem initial determinant -473.795911241741
performing fock build before subrot guess so that all methods have access
Printing subrot_rss_gen Method Specification:
Occupied Subspace Method is 0
Virtual Subspace Method is 0
Energy of the unrelaxed supersystem initial determinant w/ solvent -473.868296154849
write pseudocanon occs and virts to disk
write pseudocanon orbital energies to disk
Tolerance of ortho_decomp_scf: 1.00e-06
GDM subspace size: 20
Beginning the Orthogonal Decomposition of the Initial Supersystem Wavefunction
    1    -473.5069395146      1.19e-01     ortho_decomp Preconditoned Steepest Descent
    2    -473.5301708003      3.49e-03     ortho_decomp BFGS Step
    3    -473.5302767621      3.09e-04     ortho_decomp BFGS Step
    4    -473.5302769829      1.42e-05     ortho_decomp BFGS Step
    5    -473.5302769836      5.42e-07     ortho_decomp 00000 Convergence criterion met
 Hartree-Fock
 Hartree-Fock
 Hartree-Fock
Doing General SCFMI
 Exchange:     0.1670 Hartree-Fock + 1.0000 wB97X-V + LR-HF
 Correlation:  1.0000 wB97X-V
 Using Euler-Maclaurin-Lebedev (99,590) quadrature formula
 Nonlocal Correlation:  VV10 with C = 0.0100 and b = 6.00 and scale = 1.00000
 Grid used for NLC:  SG-1 standard quadrature
performing fock build at end of subrot_r(subrot) constructor so that all methods have access
<S^2> of initial wavefunction before polarization iterations 0.0000000000
Beginning iterations for the determination of the polarized wavefunction
Energy prior to optimization (guess energy) = -473.868296154848
Begin Timing: Total SCF Calculation
begin iterations for algorithm: DIIS         
the SCF tolerance is set to 1.00e-08
    1    -473.8682961548      2.81e-04     00000 
    2    -473.8721063051      1.23e-04     00000 
    3    -473.8725502981      7.29e-05     00000 
    4    -473.8727096351      2.03e-05     00000 
    5    -473.8727296173      8.91e-06     00000 
    6    -473.8727351017      3.47e-06     00000 
    7    -473.8727358977      1.63e-06     00000 
    8    -473.8727360429      5.88e-07     00000 
    9    -473.8727360589      2.52e-07     00000 
   10    -473.8727360606      1.08e-07     00000 
   11    -473.8727360610      4.07e-08     00000 
   12    -473.8727360611      1.75e-08     00000 
   13    -473.8727360611      6.13e-09     00000 Convergence criterion met
write pseudocanon occs and virts to disk
write pseudocanon orbital energies to disk
Timing for Total SCF: 3053.00s (wall), 6071.75s (cpu)
<S^2> of polarized wavefunction after polarization iterations 0.0000000000
relaxing scfmi constraint to allow all rotations in the entire AO span
Doing General SCFMI
 Exchange:     0.1670 Hartree-Fock + 1.0000 wB97X-V + LR-HF
 Correlation:  1.0000 wB97X-V
 Using Euler-Maclaurin-Lebedev (99,590) quadrature formula
 Nonlocal Correlation:  VV10 with C = 0.0100 and b = 6.00 and scale = 1.00000
 Grid used for NLC:  SG-1 standard quadrature
performing fock build at end of subrot_r(subrot) constructor so that all methods have access
<S^2> of polarized wavefunction before ct-allowed iterations 0.0000000000
Beginning iterations for the determination of the CT-Allowed wavefunction
Energy prior to optimization (guess energy) = -473.872736061078
Begin Timing: Total SCF Calculation
begin iterations for algorithm: DIIS         
the SCF tolerance is set to 1.00e-08
    1    -473.8727360611      3.19e-04     00000 
    2    -473.8846764301      5.55e-05     00000 
    3    -473.8852099801      2.67e-05     00000 
    4    -473.8852603622      1.09e-05     00000 
    5    -473.8852718439      2.62e-06     00000 
    6    -473.8852725849      9.22e-07     00000 
    7    -473.8852726966      5.05e-07     00000 
    8    -473.8852727187      9.01e-08     00000 
    9    -473.8852727210      3.83e-08     00000 
   10    -473.8852727213      1.18e-08     00000 
   11    -473.8852727213      3.89e-09     00000 Convergence criterion met
write pseudocanon occs and virts to disk
write pseudocanon orbital energies to disk
Timing for Total SCF: 2559.00s (wall), 5087.04s (cpu)
<S^2> of ct_allowed wavefunction after ct-allowed iterations 0.0000000000

================================
        Results of EDA2         
================================
Basic EDA Quantities
--------------------
Fragment Energies (Ha):
1 -245.2020480985
2 -228.6594413249
--------------------
  E_prp (kJ/mol) = 0.0000
  E_sol (kJ/mol) = 431.6019
  E_frz (kJ/mol) = -427.9781
  E_pol (kJ/mol) = -11.6571
  E_vct (kJ/mol) = -32.9154
  E_int (kJ/mol) = -40.9487
--------------------


Initial Wavefunction Decomposition
--------------------
  --------------------
  Orthogonal Fragment Subspace Decomposition:
  --------------------
     E_elec   (ELEC)   (kJ/mol) = -624.9274
     E_pauli  (PAULI)  (kJ/mol) = 223.7705
     E_disp   (DISP)   (kJ/mol) = -26.8212
     --------------------
     Terms summing to E_pauli:
     --------------------
        E_kep_pauli       (kJ/mol) = 269.4529
        E_disp_free_pauli (kJ/mol) = -45.6823
  --------------------
  Classical Frozen Decomposition:
  --------------------
     E_cls_elec  (CLS ELEC)  (kJ/mol) = -546.7786
     E_cls_pauli (CLS PAULI) (kJ/mol) = 118.8005
    [E_mod_pauli (MOD PAULI) (kJ/mol) = 145.6217 (CLS PAULI - DISP from orthogonal decomposition) ]
  --------------------
--------------------

Simplified EDA Summary (kJ/mol)
--------------------
 PREPARATION     0.0000
 SOLVATION       431.6019
 FROZEN          -401.1569      (does not include dispersion)
[PAULI           223.7705]     (if this is negligible, then frozen describes electrostatics)
 DISPERSION      -26.8212
 POLARIZATION    -11.6571
 CHARGE TRANSFER -32.9154
 TOTAL           -40.9487     (PRP + SOL + FRZ + DISP + POL + CT)
--------------------
 
 --------------------------------------------------------------
 
                    Orbital Energies (a.u.)
 --------------------------------------------------------------
 
 Alpha MOs
 -- Occupied --
-19.1652 -19.1643 -14.4386 -14.4358 -14.4211 -10.4076 -10.3653 -10.2993
-10.2510  -1.1786  -1.1582  -1.0785  -1.0394  -1.0266  -0.8463  -0.8426
 -0.7540  -0.7067  -0.6762  -0.6383  -0.6054  -0.5918  -0.5832  -0.5614
 -0.5551  -0.5541  -0.5417  -0.5169  -0.4991  -0.4864  -0.4699  -0.3879
 -0.3783  -0.3653  -0.3617  -0.3570
 -- Virtual --
  0.0578   0.0781   0.0843   0.0946   0.1041   0.1070   0.1183   0.1234
  0.1305   0.1352   0.1406   0.1446   0.1512   0.1569   0.1671   0.1736
  0.1828   0.1904   0.1967   0.2074   0.2097   0.2173   0.2268   0.2301
  0.2432   0.2461   0.2512   0.2597   0.2638   0.2662   0.2709   0.2806
  0.2820   0.2886   0.2997   0.3071   0.3090   0.3160   0.3177   0.3271
  0.3314   0.3323   0.3383   0.3414   0.3477   0.3498   0.3544   0.3605
  0.3632   0.3700   0.3759   0.3779   0.3814   0.3824   0.3920   0.3952
  0.4001   0.4078   0.4115   0.4174   0.4216   0.4268   0.4397   0.4480
  0.4531   0.4583   0.4613   0.4643   0.4742   0.4768   0.4810   0.4851
  0.4886   0.4967   0.5015   0.5067   0.5086   0.5158   0.5227   0.5321
  0.5362   0.5407   0.5506   0.5532   0.5576   0.5647   0.5698   0.5754
  0.5803   0.5912   0.5937   0.6015   0.6107   0.6133   0.6215   0.6260
  0.6435   0.6451   0.6519   0.6595   0.6643   0.6720   0.6778   0.6875
  0.6931   0.7095   0.7127   0.7224   0.7256   0.7322   0.7397   0.7535
  0.7604   0.7658   0.7712   0.7758   0.7914   0.7998   0.8072   0.8132
  0.8149   0.8215   0.8245   0.8295   0.8317   0.8428   0.8535   0.8687
  0.8776   0.8830   0.8876   0.8924   0.9047   0.9236   0.9299   0.9381
  0.9451   0.9501   0.9709   0.9780   0.9900   0.9954   1.0119   1.0319
  1.0456   1.0527   1.0693   1.0912   1.0929   1.1024   1.1172   1.1254
  1.1398   1.1460   1.1567   1.1671   1.1694   1.1899   1.2055   1.2275
  1.2360   1.2458   1.2554   1.2799   1.2882   1.2958   1.3150   1.3253
  1.3367   1.3463   1.3564   1.3842   1.3953   1.4156   1.4403   1.4612
  1.4787   1.5045   1.5080   1.5414   1.5508   1.6183   1.6434   1.6458
  1.6767   1.7066   1.7269   1.7359   1.7510   1.7707   1.7781   1.8458
  1.8534   1.8773   1.8919   1.9069   1.9120   1.9172   1.9226   1.9302
  1.9493   1.9509   1.9584   1.9690   1.9823   1.9911   2.0041   2.0411
  2.0473   2.0577   2.0718   2.1026   2.1119   2.1258   2.1399   2.1563
  2.1712   2.2044   2.2139   2.2347   2.2578   2.2714   2.2780   2.2993
  2.3151   2.3379   2.3577   2.3735   2.3951   2.4190   2.4342   2.4562
  2.4772   2.4845   2.5016   2.5181   2.5357   2.5437   2.5648   2.5998
  2.6092   2.6098   2.6353   2.6543   2.6621   2.6857   2.6933   2.7155
  2.7277   2.7387   2.7498   2.7720   2.7964   2.8102   2.8468   2.8851
  2.8920   2.9072   2.9179   2.9289   2.9401   2.9822   2.9914   3.0013
  3.0121   3.0377   3.0783   3.1163   3.1578   3.1726   3.1825   3.2102
  3.2195   3.2343   3.2538   3.2667   3.2791   3.2806   3.3078   3.3201
  3.3255   3.3360   3.3408   3.3478   3.3680   3.3862   3.4063   3.4206
  3.4287   3.4418   3.4536   3.4617   3.4701   3.5193   3.5335   3.5385
  3.5631   3.5867   3.5932   3.6274   3.6352   3.6525   3.6584   3.6765
  3.7092   3.7192   3.7660   3.7744   3.7841   3.8362   3.8658   3.8912
  3.9603   3.9711   4.0404   4.0816   4.0834   4.1002   4.1683   4.1954
  4.2080   4.2454   4.3038   4.3434   4.3599   4.3747   4.4239   4.4582
  4.5226   4.5453   4.5964   4.6392   4.6436   4.6715   4.6885   4.8254
  4.8650   4.8706   4.8823   4.9166   4.9868   5.0107   5.0416   5.0641
  5.0897   5.1397   5.1652   5.1740   5.2127   5.2146   5.2464   5.2973
  5.3158   5.3292   5.3779   5.3843   5.4039   5.4194   5.4361   5.4660
  5.4933   5.5023   5.5463   5.5532   5.5988   5.7082   5.7328   5.7332
  5.7518   5.7850   5.8308   5.8462   5.9313   6.0084   6.1662   6.2262
  6.2382   6.3038   6.3543   6.4127   6.5160   6.6137   6.6526   6.7204
  6.7361   6.8530   6.9599   6.9930   7.0180   7.2526   7.3416   7.4232
  7.4491  22.6066  22.6957  23.7174  23.7317  32.4060  32.5637  32.9904
 44.2673  44.3881
 --------------------------------------------------------------
 
          Ground-State Mulliken Net Atomic Charges

     Atom                 Charge (a.u.)
  ----------------------------------------
      1 C                    -0.883740
      2 C                     0.391843
      3 N                    -0.146674
      4 N                     0.115141
      5 N                    -0.287363
      6 H                     0.172910
      7 H                     0.246051
      8 H                     0.199204
      9 H                     0.218280
     10 H                     0.242690
     11 H                     0.276135
     12 H                     0.330838
     13 H                     0.272641
     14 C                    -0.878543
     15 C                     0.679971
     16 O                    -0.835100
     17 O                    -0.838796
     18 H                     0.245775
     19 H                     0.218278
     20 H                     0.260461
  ----------------------------------------
  Sum of atomic charges =     0.000000

 -----------------------------------------------------------------
                    Cartesian Multipole Moments
 -----------------------------------------------------------------
    Charge (ESU x 10^10)
                 0.0000
    Dipole Moment (Debye)
         X      -9.4870      Y       7.7447      Z      -3.0104
       Tot      12.6114
    Quadrupole Moments (Debye-Ang)
        XX     -38.0763     XY     -12.0770     YY     -48.1310
        XZ      -1.2347     YZ      -5.3102     ZZ     -52.5548
    Octopole Moments (Debye-Ang^2)
       XXX     -55.6951    XXY      38.8101    XYY     -26.4260
       YYY      17.1162    XXZ       8.3524    XYZ      -0.9048
       YYZ      -4.9091    XZZ     -30.8449    YZZ      26.9902
       ZZZ     -23.5963
    Hexadecapole Moments (Debye-Ang^3)
      XXXX    -766.7797   XXXY     265.7578   XXYY    -207.7221
      XYYY     330.0057   YYYY    -790.8423   XXXZ    -135.1456
      XXYZ      49.1026   XYYZ     -21.2455   YYYZ     156.1644
      XXZZ    -230.2119   XYZZ     113.6436   YYZZ    -222.8448
      XZZZ    -147.1380   YZZZ     171.4991   ZZZZ    -583.9455
 -----------------------------------------------------------------
Archival summary:
1\1\nid00539\SP\ProcedureUnspecified\BasisUnspecified\23411\meili\SunSep2613:30:022021SunSep2613:30:022021\0\\#,ProcedureUnspecified,BasisUnspecified,\\0,1\N\H,1,1.02185\C,1,1.32457,2,116.981\N,3,1.31789,1,120.003,2,7.46504,0\H,4,1.00638,3,121.562,1,-175.185,0\H,4,1.02992,3,118.26,1,0.297128,0\N,3,1.32003,1,120.554,2,-173.691,0\H,7,1.00542,3,122.4,1,-179.587,0\H,7,1.01817,3,119.505,1,7.50233,0\C,1,1.46825,2,118.279,3,-175.245,0\H,10,1.09115,1,109.2,2,-143.096,0\H,10,1.09205,1,109.511,2,-26.3474,0\H,10,1.1,1,113.412,2,96.1099,0\O,6,1.73888,4,175.877,3,146.235,0\C,14,1.25447,6,116.693,4,-171.861,0\O,15,1.25145,14,122.707,6,12.9903,0\C,15,1.52235,14,118.096,6,-168.23,0\H,17,1.09084,15,108.652,14,14.8505,0\H,17,1.09212,15,108.433,14,-102.319,0\H,17,1.1,15,113.523,14,136.488,0\\\@

 Total job time:  27487.15s(wall), 18774.48s(cpu) 
 Sun Sep 26 13:30:05 2021

        *************************************************************
        *                                                           *
        *  Thank you very much for using Q-Chem.  Have a nice day.  *
        *                                                           *
        *************************************************************


