
Running Job 1 of 1 SSI-062GLN-110GLN-1_SMD_TZVPD.in
qchem SSI-062GLN-110GLN-1_SMD_TZVPD.in_52579.0 /tmp/qchem52579/ 0
/global/common/cori/software/qchem/5.2/exe/qcprog.exe_s SSI-062GLN-110GLN-1_SMD_TZVPD.in_52579.0 /tmp/qchem52579/
                  Welcome to Q-Chem
     A Quantum Leap Into The Future Of Chemistry


 Q-Chem 5.2, Q-Chem, Inc., Pleasanton, CA (2019)

 License issued to: National Energy Research Scientific Computing Center

 Yihan Shao,  Zhengting Gan,  E. Epifanovsky,  A. T. B. Gilbert,  M. Wormit,  
 J. Kussmann,  A. W. Lange,  A. Behn,  Jia Deng,  Xintian Feng,  D. Ghosh,  
 M. Goldey,  P. R. Horn,  L. D. Jacobson,  I. Kaliman,  T. Kus,  A. Landau,  
 Jie Liu,  E. I. Proynov,  R. M. Richard,  R. P. Steele,  E. J. Sundstrom,  
 H. L. Woodcock III,  P. M. Zimmerman,  D. Zuev,  B. Albrecht,  E. Alguire,  
 S. A. Baeppler,  D. Barton,  Z. Benda,  Y. A. Bernard,  E. J. Berquist,  
 K. B. Bravaya,  H. Burton,  D. Casanova,  Chun-Min Chang,  Yunqing Chen,  
 A. Chien,  K. D. Closser,  M. P. Coons,  S. Coriani,  S. Dasgupta,  
 A. L. Dempwolff,  M. Diedenhofen,  Hainam Do,  R. G. Edgar,  Po-Tung Fang,  
 S. Faraji,  S. Fatehi,  Qingguo Feng,  K. D. Fenk,  J. Fosso-Tande,  
 J. Gayvert,  Qinghui Ge,  A. Ghysels,  G. Gidofalvi,  J. Gomes,  
 J. Gonthier,  A. Gunina,  D. Hait,  M. W. D. Hanson-Heine,  
 P. H. P. Harbach,  A. W. Hauser,  M. F. Herbst,  J. E. Herr,  
 E. G. Hohenstein,  Z. C. Holden,  Kerwin Hui,  B. C. Huynh,  T.-C. Jagau,  
 Hyunjun Ji,  B. Kaduk,  K. Khistyaev,  Jaehoon Kim,  P. Klunzinger,  K. Koh,  
 D. Kosenkov,  L. Koulias,  T. Kowalczyk,  C. M. Krauter,  A. Kunitsa,  
 Ka Un Lao,  A. Laurent,  K. V. Lawler,  Joonho Lee,  D. Lefrancois,  
 S. Lehtola,  D. S. Levine,  Yi-Pei Li,  You-Sheng Lin,  Fenglai Liu,  
 E. Livshits,  A. Luenser,  P. Manohar,  E. Mansoor,  S. F. Manzer,  
 Shan-Ping Mao,  Yuezhi Mao,  N. Mardirossian,  A. V. Marenich,  
 T. Markovich,  L. A. Martinez-Martinez,  S. A. Maurer,  N. J. Mayhall,  
 S. C. McKenzie,  J.-M. Mewes,  P. Morgante,  A. F. Morrison,  
 J. W. Mullinax,  K. Nanda,  T. S. Nguyen-Beck,  R. Olivares-Amaya,  
 J. A. Parkhill,  Zheng Pei,  T. M. Perrine,  F. Plasser,  P. Pokhilko,  
 S. Prager,  A. Prociuk,  E. Ramos,  D. R. Rehn,  F. Rob,  M. Scheurer,  
 M. Schneider,  N. Sergueev,  S. M. Sharada,  S. Sharma,  D. W. Small,  
 T. Stauch,  T. Stein,  Yu-Chuan Su,  A. J. W. Thom,  A. Tkatchenko,  
 T. Tsuchimochi,  N. M. Tubman,  L. Vogt,  M. L. Vidal,  O. Vydrov,  
 M. A. Watson,  J. Wenzel,  M. de Wergifosse,  T. A. Wesolowski,  A. White,  
 J. Witte,  A. Yamada,  Jun Yang,  K. Yao,  S. Yeganeh,  S. R. Yost,  
 Zhi-Qiang You,  A. Zech,  Igor Ying Zhang,  Xing Zhang,  Yan Zhao,  
 Ying Zhu,  B. R. Brooks,  G. K. L. Chan,  C. J. Cramer,  M. S. Gordon,  
 W. J. Hehre,  A. Klamt,  M. W. Schmidt,  C. D. Sherrill,  D. G. Truhlar,  
 A. Aspuru-Guzik,  R. Baer,  A. T. Bell,  N. A. Besley,  Jeng-Da Chai,  
 A. E. DePrince, III,  R. A. DiStasio Jr.,  A. Dreuw,  B. D. Dunietz,  
 T. R. Furlani,  Chao-Ping Hsu,  Yousung Jung,  Jing Kong,  D. S. Lambrecht,  
 WanZhen Liang,  C. Ochsenfeld,  V. A. Rassolov,  L. V. Slipchenko,  
 J. E. Subotnik,  T. Van Voorhis,  J. M. Herbert,  A. I. Krylov,  
 P. M. W. Gill,  M. Head-Gordon

 Contributors to earlier versions of Q-Chem not listed above: 
 R. D. Adamson,  B. Austin,  J. Baker,  G. J. O. Beran,  K. Brandhorst,  
 S. T. Brown,  E. F. C. Byrd,  A. K. Chakraborty,  C.-L. Cheng,  
 Siu Hung Chien,  D. M. Chipman,  D. L. Crittenden,  H. Dachsel,  
 R. J. Doerksen,  A. D. Dutoi,  L. Fusti-Molnar,  W. A. Goddard III,  
 A. Golubeva-Zadorozhnaya,  S. R. Gwaltney,  G. Hawkins,  A. Heyden,  
 S. Hirata,  G. Kedziora,  F. J. Keil,  C. Kelley,  Jihan Kim,  R. A. King,  
 R. Z. Khaliullin,  P. P. Korambath,  W. Kurlancheek,  A. M. Lee,  M. S. Lee,  
 S. V. Levchenko,  Ching Yeh Lin,  D. Liotard,  R. C. Lochan,  I. Lotan,  
 P. E. Maslen,  N. Nair,  D. P. O'Neill,  D. Neuhauser,  E. Neuscamman,  
 C. M. Oana,  R. Olson,  B. Peters,  R. Peverati,  P. A. Pieniazek,  
 Y. M. Rhee,  J. Ritchie,  M. A. Rohrdanz,  E. Rosta,  N. J. Russ,  
 H. F. Schaefer III,  N. E. Schultz,  N. Shenvi,  A. C. Simmonett,  A. Sodt,  
 D. Stuck,  K. S. Thanthiriwatte,  V. Vanovschi,  Tao Wang,  A. Warshel,  
 C. F. Williams,  Q. Wu,  X. Xu,  W. Zhang

 Please cite Q-Chem as follows:
 Y. Shao et al., Mol. Phys. 113, 184-215 (2015)
 DOI: 10.1080/00268976.2014.952696

 Q-Chem 5.2.0 for Intel X86 EM64T Linux

 Parts of Q-Chem use Armadillo 8.300.2 (Tropical Shenanigans).
 http://arma.sourceforge.net/

 Q-Chem begins on Sun Sep 26 09:33:41 2021  

Host: cori01
0

     Scratch files written to /tmp/qchem52579//
 May1019 |scratch|qcdevops|jenkins|workspace|build_RNUM -1
Processing $rem in /global/common/cori/software/qchem/5.2/config/preferences:
	 MEM_TOTAL  96000 
NAlpha2: 64
NElect   64
Mult     1
Symmetry turned off for PCM/SM12/SMD calculation

 Q-Chem warning in module libgen/rem_setup.C, line 2803:

 Neither GIA nor STOLL is specified by user. Use STOLL as the default


Checking the input file for inconsistencies... 	...done.

--------------------------------------------------------------
User input:
--------------------------------------------------------------
$comment
SSI-062GLN-110GLN-1.pdb
$end

$molecule
0 1
--
0 1
C   -1.358287947723   -2.707072900765    0.110262464905
C   -1.726287947723   -1.792072900765   -1.041737535095
O   -2.579287947723   -2.114072900765   -1.869737535095
N   -1.072287947723   -0.646072900765   -1.122737535095
H   -1.265287947723   -0.050072900765   -1.914737535095
H   -0.371287947723   -0.361072900765   -0.444737535095
H   -0.932287947723   -2.116072900765    0.922262464905
H   -0.586287947723   -3.393072900765   -0.216737535095
H   -2.240547947723   -3.245422900765    0.486822464905
--
0 1
C    2.586712052277    1.026927099235    1.796262464905
C    1.601712052277    1.788927099235    0.947262464905
O    0.628712052277    1.223927099235    0.452262464905
N    1.855712052277    3.070927099235    0.742262464905
H    2.079712052277    0.705927099235    2.705262464905
H    3.422712052277    1.669927099235    2.076262464905
H    1.234712052277    3.580927099235    0.127262464905
H    2.626712052277    3.541927099235    1.210262464905
H    2.960406052277    0.145157099235    1.255122464905
$end

$rem
JOBTYPE			EDA
EDA2			1
method			wB97X-V
BASIS			def2-TZVPD
XC_GRID			000099000590
NL_GRID			1
UNRESTRICTED		FALSE
MAX_SCF_CYCLES		200
SYMMETRY		FALSE
SYM_IGNORE		TRUE
MEM_STATIC		2000
BASIS_LIN_DEP_THRESH 	6
THRESH 			14
SCF_CONVERGENCE 	8
SCF_PRINT_FRGM 		TRUE
SOLVENT_METHOD          SMD
$end

$SMX
SOLVENT			WATER
$END
--------------------------------------------------------------
 ----------------------------------------------------------------
             Standard Nuclear Orientation (Angstroms)
    I     Atom           X                Y                Z
 ----------------------------------------------------------------
    1      C      -1.3582879477    -2.7070729008     0.1102624649
    2      C      -1.7262879477    -1.7920729008    -1.0417375351
    3      O      -2.5792879477    -2.1140729008    -1.8697375351
    4      N      -1.0722879477    -0.6460729008    -1.1227375351
    5      H      -1.2652879477    -0.0500729008    -1.9147375351
    6      H      -0.3712879477    -0.3610729008    -0.4447375351
    7      H      -0.9322879477    -2.1160729008     0.9222624649
    8      H      -0.5862879477    -3.3930729008    -0.2167375351
    9      H      -2.2405479477    -3.2454229008     0.4868224649
   10      C       2.5867120523     1.0269270992     1.7962624649
   11      C       1.6017120523     1.7889270992     0.9472624649
   12      O       0.6287120523     1.2239270992     0.4522624649
   13      N       1.8557120523     3.0709270992     0.7422624649
   14      H       2.0797120523     0.7059270992     2.7052624649
   15      H       3.4227120523     1.6699270992     2.0762624649
   16      H       1.2347120523     3.5809270992     0.1272624649
   17      H       2.6267120523     3.5419270992     1.2102624649
   18      H       2.9604060523     0.1451570992     1.2551224649
 ----------------------------------------------------------------
 Nuclear Repulsion Energy =         349.93461487 hartrees
 There are       32 alpha and       32 beta electrons
 Requested basis set is def2-TZVPD
 There are 156 shells and 392 basis functions

 Total QAlloc Memory Limit  96000 MB
 Mega-Array Size      1956 MB
 MEM_STATIC part      2000 MB
 
 Citation of the SMD model:
 Marenich, A.V.; Cramer, C.J.; Truhlar, D.G.
 J. Phys. Chem. B 2009, 113, 6378-6396.
 iSolventCode=           1
 Solvent: water                                                           
 
 vradii
            1           2           3           4           5           6
    1   1.8500000   1.8500000   1.5200000   1.8900000   1.2000000   1.2000000
            7           8           9          10          11          12
    1   1.2000000   1.2000000   1.2000000   1.8500000   1.8500000   1.5200000
           13          14          15          16          17          18
    1   1.8900000   1.2000000   1.2000000   1.2000000   1.2000000   1.2000000
 Changing PCM_VDW_RADII to SMD_RADIUS
 Discretize the solute cavity surface with Lebedev spheres
	Using 110 Lebedev grid points for each H atom
	Using 194 Lebedev grid points for other atoms
	Atomic van der Waals radii will be scaled by 1.20
 Remove points where switching function is < 1.0e-08
 Keep 1423 surface tesserae and discard 1229 interior tesserae
 Molecular Surface Area = 173.714 Angst**2
 A cutoff of  1.0D-14 yielded  10598 shell pairs
 There are     66696 function pairs (     83313 Cartesian)
 Smallest overlap matrix eigenvalue = 8.59E-06

 Scale SEOQF with 1.000000e-01/1.000000e-01/1.000000e-01

 Standard Electronic Orientation quadrupole field applied
 Nucleus-field energy     =     0.0000000163 hartrees

 -----------------------------------------------------------------------
  General SCF calculation program by
  Eric Jon Sundstrom, Paul Horn, Yuezhi Mao, Dmitri Zuev, Alec White,
  David Stuck, Shaama M.S., Shane Yost, Joonho Lee, David Small,
  Daniel Levine, Susi Lehtola, Hugh Burton, Evgeny Epifanovsky
 -----------------------------------------------------------------------
================================================================
                 ALMO-EDA with the EDA2 driver                  
================================================================
 The second-generation ALMO-EDA (for DFT):                      
 P. R. Horn, Y. Mao and M. Head-Gordon, PCCP, 18, 23067 (2016)  
 Decomposition of the frozen energy:                            
 P. R. Horn, Y. Mao and M. Head-Gordon, JCP, 144, 114107 (2016) 
 FERF model for polarization:                                   
 P. R. Horn and M. Head-Gordon, JCP, 143, 114111 (2015)         
Using eda2 option set 1
Option set summary: Frozen orbital wavefunction, initial wavefunction decomposition, and nDQ polarization.
--------------------------------
Printing EDA Options
--------------------------------
eda_child_super_basis      0
fragmo_guess_mode          0
child_mp                   1
child_mp_orders            232
cls_elec                   1
cls_disp                   0
scfmi_mode                 1
scfmi_occs                 0
scfmi_virts                0
frz_relax                  0
frz_relax_method           0
dc_pen_start               0
dc_pen_conv                0
dc_pen_increment           0
dc_pen_steps               0
dc_pen_thresh_factor       0
dc_pen_pre_newton_thresh   0
frz_ortho_decomp           1
frz_ortho_decomp_conv      6
frgm_method                2
scfmi_freeze_ss            0
separate_rehyb             0
plot_diff_den              0
eda_nocv                   0
eda_vct_relax              1
disp_free_x                0
disp_free_c                0
eda_bsse                   0
eda_pct_a                  0
eda_covp                   0
--------------------------------
Attempting to make child job directory: /tmp/qchem52579//Frg1/
Attempting to make child job directory: /tmp/qchem52579//Frg2/
Creating input file /tmp/qchem52579/Frg1.input
using default PutDataFrgm: nothing
calling putenv with: QCSCRATCH=/tmp/qchem52579/ 
calling putenv with: QCLOCALSCR=/tmp/qchem52579/ 
Spawning Job For Fragment 0
                  Welcome to Q-Chem
     A Quantum Leap Into The Future Of Chemistry


 Q-Chem 5.2, Q-Chem, Inc., Pleasanton, CA (2019)

 License issued to: National Energy Research Scientific Computing Center

 Yihan Shao,  Zhengting Gan,  E. Epifanovsky,  A. T. B. Gilbert,  M. Wormit,  
 J. Kussmann,  A. W. Lange,  A. Behn,  Jia Deng,  Xintian Feng,  D. Ghosh,  
 M. Goldey,  P. R. Horn,  L. D. Jacobson,  I. Kaliman,  T. Kus,  A. Landau,  
 Jie Liu,  E. I. Proynov,  R. M. Richard,  R. P. Steele,  E. J. Sundstrom,  
 H. L. Woodcock III,  P. M. Zimmerman,  D. Zuev,  B. Albrecht,  E. Alguire,  
 S. A. Baeppler,  D. Barton,  Z. Benda,  Y. A. Bernard,  E. J. Berquist,  
 K. B. Bravaya,  H. Burton,  D. Casanova,  Chun-Min Chang,  Yunqing Chen,  
 A. Chien,  K. D. Closser,  M. P. Coons,  S. Coriani,  S. Dasgupta,  
 A. L. Dempwolff,  M. Diedenhofen,  Hainam Do,  R. G. Edgar,  Po-Tung Fang,  
 S. Faraji,  S. Fatehi,  Qingguo Feng,  K. D. Fenk,  J. Fosso-Tande,  
 J. Gayvert,  Qinghui Ge,  A. Ghysels,  G. Gidofalvi,  J. Gomes,  
 J. Gonthier,  A. Gunina,  D. Hait,  M. W. D. Hanson-Heine,  
 P. H. P. Harbach,  A. W. Hauser,  M. F. Herbst,  J. E. Herr,  
 E. G. Hohenstein,  Z. C. Holden,  Kerwin Hui,  B. C. Huynh,  T.-C. Jagau,  
 Hyunjun Ji,  B. Kaduk,  K. Khistyaev,  Jaehoon Kim,  P. Klunzinger,  K. Koh,  
 D. Kosenkov,  L. Koulias,  T. Kowalczyk,  C. M. Krauter,  A. Kunitsa,  
 Ka Un Lao,  A. Laurent,  K. V. Lawler,  Joonho Lee,  D. Lefrancois,  
 S. Lehtola,  D. S. Levine,  Yi-Pei Li,  You-Sheng Lin,  Fenglai Liu,  
 E. Livshits,  A. Luenser,  P. Manohar,  E. Mansoor,  S. F. Manzer,  
 Shan-Ping Mao,  Yuezhi Mao,  N. Mardirossian,  A. V. Marenich,  
 T. Markovich,  L. A. Martinez-Martinez,  S. A. Maurer,  N. J. Mayhall,  
 S. C. McKenzie,  J.-M. Mewes,  P. Morgante,  A. F. Morrison,  
 J. W. Mullinax,  K. Nanda,  T. S. Nguyen-Beck,  R. Olivares-Amaya,  
 J. A. Parkhill,  Zheng Pei,  T. M. Perrine,  F. Plasser,  P. Pokhilko,  
 S. Prager,  A. Prociuk,  E. Ramos,  D. R. Rehn,  F. Rob,  M. Scheurer,  
 M. Schneider,  N. Sergueev,  S. M. Sharada,  S. Sharma,  D. W. Small,  
 T. Stauch,  T. Stein,  Yu-Chuan Su,  A. J. W. Thom,  A. Tkatchenko,  
 T. Tsuchimochi,  N. M. Tubman,  L. Vogt,  M. L. Vidal,  O. Vydrov,  
 M. A. Watson,  J. Wenzel,  M. de Wergifosse,  T. A. Wesolowski,  A. White,  
 J. Witte,  A. Yamada,  Jun Yang,  K. Yao,  S. Yeganeh,  S. R. Yost,  
 Zhi-Qiang You,  A. Zech,  Igor Ying Zhang,  Xing Zhang,  Yan Zhao,  
 Ying Zhu,  B. R. Brooks,  G. K. L. Chan,  C. J. Cramer,  M. S. Gordon,  
 W. J. Hehre,  A. Klamt,  M. W. Schmidt,  C. D. Sherrill,  D. G. Truhlar,  
 A. Aspuru-Guzik,  R. Baer,  A. T. Bell,  N. A. Besley,  Jeng-Da Chai,  
 A. E. DePrince, III,  R. A. DiStasio Jr.,  A. Dreuw,  B. D. Dunietz,  
 T. R. Furlani,  Chao-Ping Hsu,  Yousung Jung,  Jing Kong,  D. S. Lambrecht,  
 WanZhen Liang,  C. Ochsenfeld,  V. A. Rassolov,  L. V. Slipchenko,  
 J. E. Subotnik,  T. Van Voorhis,  J. M. Herbert,  A. I. Krylov,  
 P. M. W. Gill,  M. Head-Gordon

 Contributors to earlier versions of Q-Chem not listed above: 
 R. D. Adamson,  B. Austin,  J. Baker,  G. J. O. Beran,  K. Brandhorst,  
 S. T. Brown,  E. F. C. Byrd,  A. K. Chakraborty,  C.-L. Cheng,  
 Siu Hung Chien,  D. M. Chipman,  D. L. Crittenden,  H. Dachsel,  
 R. J. Doerksen,  A. D. Dutoi,  L. Fusti-Molnar,  W. A. Goddard III,  
 A. Golubeva-Zadorozhnaya,  S. R. Gwaltney,  G. Hawkins,  A. Heyden,  
 S. Hirata,  G. Kedziora,  F. J. Keil,  C. Kelley,  Jihan Kim,  R. A. King,  
 R. Z. Khaliullin,  P. P. Korambath,  W. Kurlancheek,  A. M. Lee,  M. S. Lee,  
 S. V. Levchenko,  Ching Yeh Lin,  D. Liotard,  R. C. Lochan,  I. Lotan,  
 P. E. Maslen,  N. Nair,  D. P. O'Neill,  D. Neuhauser,  E. Neuscamman,  
 C. M. Oana,  R. Olson,  B. Peters,  R. Peverati,  P. A. Pieniazek,  
 Y. M. Rhee,  J. Ritchie,  M. A. Rohrdanz,  E. Rosta,  N. J. Russ,  
 H. F. Schaefer III,  N. E. Schultz,  N. Shenvi,  A. C. Simmonett,  A. Sodt,  
 D. Stuck,  K. S. Thanthiriwatte,  V. Vanovschi,  Tao Wang,  A. Warshel,  
 C. F. Williams,  Q. Wu,  X. Xu,  W. Zhang

 Please cite Q-Chem as follows:
 Y. Shao et al., Mol. Phys. 113, 184-215 (2015)
 DOI: 10.1080/00268976.2014.952696

 Q-Chem 5.2.0 for Intel X86 EM64T Linux

 Parts of Q-Chem use Armadillo 8.300.2 (Tropical Shenanigans).
 http://arma.sourceforge.net/

 Q-Chem begins on Sun Sep 26 09:33:44 2021  

Host: cori01
0

     Scratch files written to /tmp/qchem52579//Frg1//
 May1019 |scratch|qcdevops|jenkins|workspace|build_RNUM -1
Processing $rem in /global/common/cori/software/qchem/5.2/config/preferences:
	 MEM_TOTAL  96000 
NAlpha2: 32
NElect   32
Mult     1
Symmetry turned off for PCM/SM12/SMD calculation

Checking the input file for inconsistencies... 	...done.

--------------------------------------------------------------
User input:
--------------------------------------------------------------
$molecule
0 1
 6	-1.3582879477	-2.7070729008	0.1102624649
 6	-1.7262879477	-1.7920729008	-1.0417375351
 8	-2.5792879477	-2.1140729008	-1.8697375351
 7	-1.0722879477	-0.6460729008	-1.1227375351
 1	-1.2652879477	-0.0500729008	-1.9147375351
 1	-0.3712879477	-0.3610729008	-0.4447375351
 1	-0.9322879477	-2.1160729008	0.9222624649
 1	-0.5862879477	-3.3930729008	-0.2167375351
 1	-2.2405479477	-3.2454229008	0.4868224649
$end
$rem
EDA2		1
METHOD		WB97X-V
BASIS		DEF2-TZVPD
XC_GRID		000099000590
NL_GRID		1
UNRESTRICTED		FALSE
MAX_SCF_CYCLES		200
SYMMETRY		FALSE
SYM_IGNORE		TRUE
BASIS_LIN_DEP_THRESH		6
THRESH		14
SCF_CONVERGENCE		8
SCF_PRINT_FRGM		TRUE
SOLVENT_METHOD		SMD
!required keywords
JOBTYPE		SP
SYM_IGNORE		TRUE
SUBSYSTEM		TRUE
GEN_SCFMAN		TRUE
CHILD_INSTRUCTION		2
SYM_IGNORE		TRUE
SCFMI		0
RI_K 0		
PARI_K 0		
MIN_PARI_K 0		
IARI_K 0		
OCC_RI_K 0		
PURECART		1111
MEM_STATIC		2000
MEM_TOTAL		96000
GUI		0
CHILD_MP		1
CHILD_MP_ORDERS		232
FRZ_RELAX		0
FRZ_RELAX_METHOD		0
EDA_CLS_ELEC		1
EDA_CLS_DISP		0
FRZ_ORTHO_DECOMP		1
EDA2		FALSE
FRGM_METHOD		FALSE
CIS_N_ROOTS  0
LOCAL_CIS    0
CIS_RLX_DNS  1
$end
$smx
SOLVENT			WATER
$end
--------------------------------------------------------------
 ----------------------------------------------------------------
             Standard Nuclear Orientation (Angstroms)
    I     Atom           X                Y                Z
 ----------------------------------------------------------------
    1      C      -1.3582879477    -2.7070729008     0.1102624649
    2      C      -1.7262879477    -1.7920729008    -1.0417375351
    3      O      -2.5792879477    -2.1140729008    -1.8697375351
    4      N      -1.0722879477    -0.6460729008    -1.1227375351
    5      H      -1.2652879477    -0.0500729008    -1.9147375351
    6      H      -0.3712879477    -0.3610729008    -0.4447375351
    7      H      -0.9322879477    -2.1160729008     0.9222624649
    8      H      -0.5862879477    -3.3930729008    -0.2167375351
    9      H      -2.2405479477    -3.2454229008     0.4868224649
 ----------------------------------------------------------------
 Nuclear Repulsion Energy =         122.29196527 hartrees
 There are       16 alpha and       16 beta electrons
 Requested basis set is def2-TZVPD
 There are 78 shells and 196 basis functions

 Total QAlloc Memory Limit  96000 MB
 Mega-Array Size      1956 MB
 MEM_STATIC part      2000 MB
 
 Citation of the SMD model:
 Marenich, A.V.; Cramer, C.J.; Truhlar, D.G.
 J. Phys. Chem. B 2009, 113, 6378-6396.
 iSolventCode=           1
 Solvent: water                                                           
 
 vradii
            1           2           3           4           5           6
    1   1.8500000   1.8500000   1.5200000   1.8900000   1.2000000   1.2000000
            7           8           9
    1   1.2000000   1.2000000   1.2000000
 Changing PCM_VDW_RADII to SMD_RADIUS
 Discretize the solute cavity surface with Lebedev spheres
	Using 110 Lebedev grid points for each H atom
	Using 194 Lebedev grid points for other atoms
	Atomic van der Waals radii will be scaled by 1.20
 Remove points where switching function is < 1.0e-08
 Keep 728 surface tesserae and discard 598 interior tesserae
 Molecular Surface Area = 89.830 Angst**2

                       Distance Matrix (Angstroms)
             C (  1)   C (  2)   O (  3)   N (  4)   H (  5)   H (  6)
   C (  2)  1.516494
   O (  3)  2.400602  1.231616
   N (  4)  2.418637  1.321966  2.232506
   H (  5)  3.341994  2.002302  2.447186  1.009816
   H (  6)  2.604978  2.059173  3.158939  1.016027  1.748387
   H (  7)  1.090918  2.143060  3.241586  2.522405  3.525310  2.294218
   H (  8)  1.083286  2.131531  2.887958  2.933094  3.810498  3.048152
   H (  9)  1.100000  2.170987  2.635920  3.272940  4.114473  3.561097
             H (  7)   H (  8)
   H (  8)  1.745785
   H (  9)  1.782297  1.803711
 
 A cutoff of  1.0D-14 yielded   3054 shell pairs
 There are     19544 function pairs (     24702 Cartesian)
 Smallest overlap matrix eigenvalue = 1.14E-05

 Scale SEOQF with 1.000000e-01/1.000000e-01/1.000000e-01

 Standard Electronic Orientation quadrupole field applied
 Nucleus-field energy     =     0.0000000075 hartrees
 Guess from superposition of atomic densities
 Warning:  Energy on first SCF cycle will be non-variational
 SAD guess density has 31.604610 electrons

 -----------------------------------------------------------------------
  General SCF calculation program by
  Eric Jon Sundstrom, Paul Horn, Yuezhi Mao, Dmitri Zuev, Alec White,
  David Stuck, Shaama M.S., Shane Yost, Joonho Lee, David Small,
  Daniel Levine, Susi Lehtola, Hugh Burton, Evgeny Epifanovsky
 -----------------------------------------------------------------------
 Exchange:     0.1670 Hartree-Fock + 1.0000 wB97X-V + LR-HF
 Correlation:  1.0000 wB97X-V
 Using Euler-Maclaurin-Lebedev (99,590) quadrature formula
 Nonlocal Correlation:  VV10 with C = 0.0100 and b = 6.00 and scale = 1.00000
 Grid used for NLC:  SG-1 standard quadrature
Energy prior to optimization (guess energy) = -208.704242108193
Begin Timing: Total SCF Calculation
begin iterations for algorithm: DIIS         
the SCF tolerance is set to 1.00e-08
    1    -208.7042421082      1.26e-02     00000 
    2    -208.3244334959      1.54e-02     00000 
    3    -209.2365541454      2.38e-03     00000 
    4    -209.2554359184      7.77e-04     00000 
    5    -209.2585707464      2.01e-04     00000 
    6    -209.2588500702      6.78e-05     00000 
    7    -209.2588923381      2.08e-05     00000 
    8    -209.2588976549      6.03e-06     00000 
    9    -209.2588984465      2.04e-06     00000 
   10    -209.2588984989      3.71e-07     00000 
   11    -209.2588985003      1.51e-07     00000 
   12    -209.2588985005      2.07e-08     00000 
   13    -209.2588985005      4.78e-09     00000 Convergence criterion met
Timing for Total SCF: 347.00s (wall), 685.40s (cpu)
(3)  G-ENP(liq) elect-nuc-pol free energy of system     -209.258898500 a.u.
(4)  G-CDS(liq) cavity-dispersion-solvent structure 
     free energy                                                3.5451 kcal/mol
(6)  G-S(liq) free energy of system                     -209.253248967 a.u.
E_pcm = -0.0303872872
E_cds = 0.0056495336
Multipole orders to be included
        2
        3
computing dipole RHS
computing quadrupole RHS
total number of RHS in solve_reponses: 8
RHS batch sizes
        8
Beginning Block Conjugate Gradient Iterations. Batch Number: 0
computing hessian-vector products by finite difference
              1      5.92e-01     00000 Conjugate Gradient Iteration
computing hessian-vector products by finite difference
              2      1.77e-01     00000 Conjugate Gradient Iteration
computing hessian-vector products by finite difference
              3      4.94e-02     00000 Conjugate Gradient Iteration
computing hessian-vector products by finite difference
              4      1.20e-02     00000 Conjugate Gradient Iteration
computing hessian-vector products by finite difference
              5      1.60e-03     00000 Conjugate Gradient Iteration
computing hessian-vector products by finite difference
              6      3.60e-04     00000 Conjugate Gradient Iteration
computing hessian-vector products by finite difference
              7      4.87e-05     00000 Conjugate Gradient Iteration
computing hessian-vector products by finite difference
              8      5.48e-06     00000 Conjugate Gradient Iteration
computing hessian-vector products by finite difference
              9      8.01e-07     00000 Conjugate Gradient Iteration
computing hessian-vector products by finite difference
             10      8.93e-08     00000 Conjugate Gradient Iteration
computing hessian-vector products by finite difference
             11      1.15e-08     00000 Conjugate Gradient Iteration
computing hessian-vector products by finite difference
             12      5.36e-09     00000 CG Converged
batch 0 complete
Done Calculating Responses
TESTING ORTHOGONALIZATION OF MULTIPOLE BASIS
Multipole virts passed orthogonality test
Virts Per Order
        48
        80
 
 --------------------------------------------------------------
 
                    Orbital Energies (a.u.)
 --------------------------------------------------------------
 
 Alpha MOs
 -- Occupied --
-19.1830 -14.4278 -10.3780 -10.2622  -1.1756  -1.0415  -0.8633  -0.7097
 -0.6499  -0.5915  -0.5655  -0.5191  -0.4967  -0.4790  -0.3837  -0.3756
 -- Virtual --
  0.0647   0.0962   0.0965   0.1033   0.1303   0.1336   0.1408   0.1499
  0.1792   0.1879   0.1990   0.2184   0.2285   0.2468   0.2517   0.2628
  0.2681   0.2774   0.3006   0.3162   0.3373   0.3386   0.3473   0.3508
  0.3622   0.3664   0.3741   0.3793   0.3946   0.4055   0.4175   0.4204
  0.4373   0.4586   0.4626   0.4750   0.4817   0.4937   0.4997   0.5051
  0.5251   0.5311   0.5468   0.5737   0.5825   0.5984   0.6211   0.6351
  0.6386   0.6541   0.6726   0.7021   0.7089   0.7222   0.7292   0.7699
  0.7751   0.7866   0.7998   0.8189   0.8204   0.8390   0.8526   0.8715
  0.9124   0.9532   0.9866   0.9891   1.0112   1.0369   1.0604   1.0877
  1.1046   1.1815   1.2251   1.2481   1.2869   1.3264   1.3355   1.3830
  1.4848   1.4888   1.5157   1.6209   1.6802   1.7306   1.7433   1.8114
  1.8551   1.8649   1.9051   1.9223   1.9273   1.9529   1.9840   2.0440
  2.0528   2.0924   2.1442   2.1688   2.2119   2.2385   2.3102   2.3727
  2.4005   2.4220   2.4494   2.4710   2.5523   2.5654   2.5901   2.6398
  2.6908   2.6982   2.7824   2.8088   2.8343   2.9047   2.9767   2.9923
  3.0627   3.0998   3.1409   3.1545   3.2086   3.2337   3.2569   3.2849
  3.3168   3.3421   3.3585   3.4077   3.4606   3.5044   3.5580   3.5715
  3.6354   3.6532   3.6825   3.7904   3.8748   3.9419   4.0095   4.0459
  4.0748   4.1960   4.3020   4.4192   4.4999   4.6062   4.6256   4.6726
  4.7780   4.8935   4.9001   4.9424   5.1492   5.1824   5.2668   5.3565
  5.3717   5.3975   5.4069   5.4957   5.5353   5.7640   5.9102   6.1484
  6.2435   6.5193   6.6346   6.7314   6.8199   6.9679   7.2139   7.3127
 22.5884  23.5785  32.4158  44.3090
 --------------------------------------------------------------
 
          Ground-State Mulliken Net Atomic Charges

     Atom                 Charge (a.u.)
  ----------------------------------------
      1 C                    -0.646485
      2 C                     0.454769
      3 O                    -0.697591
      4 N                    -0.300422
      5 H                     0.248831
      6 H                     0.239879
      7 H                     0.240147
      8 H                     0.217268
      9 H                     0.243606
  ----------------------------------------
  Sum of atomic charges =     0.000000

 -----------------------------------------------------------------
                    Cartesian Multipole Moments
 -----------------------------------------------------------------
    Charge (ESU x 10^10)
                 0.0000
    Dipole Moment (Debye)
         X       4.3770      Y       2.5978      Z       3.2721
       Tot       6.0509
    Quadrupole Moments (Debye-Ang)
        XX     -40.3332     XY     -11.1015     YY     -29.5958
        XZ     -11.5397     YZ     -11.1016     ZZ     -31.5795
    Octopole Moments (Debye-Ang^2)
       XXX     168.9831    XXY      80.2373    XYY      64.7977
       YYY     145.2476    XXZ      58.4680    XYZ      30.9546
       YYZ      45.9623    XZZ      63.8368    YZZ      68.9264
       ZZZ      81.9831
    Hexadecapole Moments (Debye-Ang^3)
      XXXX    -620.9413   XXXY    -339.0980   XXYY    -261.9793
      XYYY    -292.8405   YYYY    -650.3583   XXXZ    -237.6898
      XXYZ    -119.8894   XYYZ    -114.6388   YYYZ    -155.0347
      XXZZ    -193.0193   XYZZ    -140.9824   YYZZ    -196.4219
      XZZZ    -180.9451   YZZZ    -150.2297   ZZZZ    -275.5840
 -----------------------------------------------------------------
Archival summary:
1\1\nid00563\SP\ProcedureUnspecified\BasisUnspecified\1125\meili\SunSep2611:12:272021SunSep2611:12:272021\0\\#,ProcedureUnspecified,BasisUnspecified,\\0,1\C\O,1,1.23162\N,1,1.32197,2,121.876\H,3,1.00982,1,117.72,2,-2.56605,0\H,3,1.01603,1,122.929,2,179.487,0\C,1,1.51649,2,121.401,3,-178.913,0\H,6,1.08329,1,109.009,2,86.8295,0\H,6,1.09092,1,109.47,2,-156.65,0\H,6,1.1,1,111.144,2,-36.3419,0\\\@

 Total job time:  5923.27s(wall), 11714.46s(cpu) 
 Sun Sep 26 11:12:27 2021

        *************************************************************
        *                                                           *
        *  Thank you very much for using Q-Chem.  Have a nice day.  *
        *                                                           *
        *************************************************************


Done Job For Fragment 0
calling putenv with: QCSCRATCH=/global/cscratch1/sd/meili 
calling putenv with: QCLOCALSCR=/tmp 
calling putenv with: QCTHREADS=32 
Creating input file /tmp/qchem52579/Frg2.input
using default PutDataFrgm: nothing
calling putenv with: QCSCRATCH=/tmp/qchem52579/ 
calling putenv with: QCLOCALSCR=/tmp/qchem52579/ 
Spawning Job For Fragment 1
                  Welcome to Q-Chem
     A Quantum Leap Into The Future Of Chemistry


 Q-Chem 5.2, Q-Chem, Inc., Pleasanton, CA (2019)

 License issued to: National Energy Research Scientific Computing Center

 Yihan Shao,  Zhengting Gan,  E. Epifanovsky,  A. T. B. Gilbert,  M. Wormit,  
 J. Kussmann,  A. W. Lange,  A. Behn,  Jia Deng,  Xintian Feng,  D. Ghosh,  
 M. Goldey,  P. R. Horn,  L. D. Jacobson,  I. Kaliman,  T. Kus,  A. Landau,  
 Jie Liu,  E. I. Proynov,  R. M. Richard,  R. P. Steele,  E. J. Sundstrom,  
 H. L. Woodcock III,  P. M. Zimmerman,  D. Zuev,  B. Albrecht,  E. Alguire,  
 S. A. Baeppler,  D. Barton,  Z. Benda,  Y. A. Bernard,  E. J. Berquist,  
 K. B. Bravaya,  H. Burton,  D. Casanova,  Chun-Min Chang,  Yunqing Chen,  
 A. Chien,  K. D. Closser,  M. P. Coons,  S. Coriani,  S. Dasgupta,  
 A. L. Dempwolff,  M. Diedenhofen,  Hainam Do,  R. G. Edgar,  Po-Tung Fang,  
 S. Faraji,  S. Fatehi,  Qingguo Feng,  K. D. Fenk,  J. Fosso-Tande,  
 J. Gayvert,  Qinghui Ge,  A. Ghysels,  G. Gidofalvi,  J. Gomes,  
 J. Gonthier,  A. Gunina,  D. Hait,  M. W. D. Hanson-Heine,  
 P. H. P. Harbach,  A. W. Hauser,  M. F. Herbst,  J. E. Herr,  
 E. G. Hohenstein,  Z. C. Holden,  Kerwin Hui,  B. C. Huynh,  T.-C. Jagau,  
 Hyunjun Ji,  B. Kaduk,  K. Khistyaev,  Jaehoon Kim,  P. Klunzinger,  K. Koh,  
 D. Kosenkov,  L. Koulias,  T. Kowalczyk,  C. M. Krauter,  A. Kunitsa,  
 Ka Un Lao,  A. Laurent,  K. V. Lawler,  Joonho Lee,  D. Lefrancois,  
 S. Lehtola,  D. S. Levine,  Yi-Pei Li,  You-Sheng Lin,  Fenglai Liu,  
 E. Livshits,  A. Luenser,  P. Manohar,  E. Mansoor,  S. F. Manzer,  
 Shan-Ping Mao,  Yuezhi Mao,  N. Mardirossian,  A. V. Marenich,  
 T. Markovich,  L. A. Martinez-Martinez,  S. A. Maurer,  N. J. Mayhall,  
 S. C. McKenzie,  J.-M. Mewes,  P. Morgante,  A. F. Morrison,  
 J. W. Mullinax,  K. Nanda,  T. S. Nguyen-Beck,  R. Olivares-Amaya,  
 J. A. Parkhill,  Zheng Pei,  T. M. Perrine,  F. Plasser,  P. Pokhilko,  
 S. Prager,  A. Prociuk,  E. Ramos,  D. R. Rehn,  F. Rob,  M. Scheurer,  
 M. Schneider,  N. Sergueev,  S. M. Sharada,  S. Sharma,  D. W. Small,  
 T. Stauch,  T. Stein,  Yu-Chuan Su,  A. J. W. Thom,  A. Tkatchenko,  
 T. Tsuchimochi,  N. M. Tubman,  L. Vogt,  M. L. Vidal,  O. Vydrov,  
 M. A. Watson,  J. Wenzel,  M. de Wergifosse,  T. A. Wesolowski,  A. White,  
 J. Witte,  A. Yamada,  Jun Yang,  K. Yao,  S. Yeganeh,  S. R. Yost,  
 Zhi-Qiang You,  A. Zech,  Igor Ying Zhang,  Xing Zhang,  Yan Zhao,  
 Ying Zhu,  B. R. Brooks,  G. K. L. Chan,  C. J. Cramer,  M. S. Gordon,  
 W. J. Hehre,  A. Klamt,  M. W. Schmidt,  C. D. Sherrill,  D. G. Truhlar,  
 A. Aspuru-Guzik,  R. Baer,  A. T. Bell,  N. A. Besley,  Jeng-Da Chai,  
 A. E. DePrince, III,  R. A. DiStasio Jr.,  A. Dreuw,  B. D. Dunietz,  
 T. R. Furlani,  Chao-Ping Hsu,  Yousung Jung,  Jing Kong,  D. S. Lambrecht,  
 WanZhen Liang,  C. Ochsenfeld,  V. A. Rassolov,  L. V. Slipchenko,  
 J. E. Subotnik,  T. Van Voorhis,  J. M. Herbert,  A. I. Krylov,  
 P. M. W. Gill,  M. Head-Gordon

 Contributors to earlier versions of Q-Chem not listed above: 
 R. D. Adamson,  B. Austin,  J. Baker,  G. J. O. Beran,  K. Brandhorst,  
 S. T. Brown,  E. F. C. Byrd,  A. K. Chakraborty,  C.-L. Cheng,  
 Siu Hung Chien,  D. M. Chipman,  D. L. Crittenden,  H. Dachsel,  
 R. J. Doerksen,  A. D. Dutoi,  L. Fusti-Molnar,  W. A. Goddard III,  
 A. Golubeva-Zadorozhnaya,  S. R. Gwaltney,  G. Hawkins,  A. Heyden,  
 S. Hirata,  G. Kedziora,  F. J. Keil,  C. Kelley,  Jihan Kim,  R. A. King,  
 R. Z. Khaliullin,  P. P. Korambath,  W. Kurlancheek,  A. M. Lee,  M. S. Lee,  
 S. V. Levchenko,  Ching Yeh Lin,  D. Liotard,  R. C. Lochan,  I. Lotan,  
 P. E. Maslen,  N. Nair,  D. P. O'Neill,  D. Neuhauser,  E. Neuscamman,  
 C. M. Oana,  R. Olson,  B. Peters,  R. Peverati,  P. A. Pieniazek,  
 Y. M. Rhee,  J. Ritchie,  M. A. Rohrdanz,  E. Rosta,  N. J. Russ,  
 H. F. Schaefer III,  N. E. Schultz,  N. Shenvi,  A. C. Simmonett,  A. Sodt,  
 D. Stuck,  K. S. Thanthiriwatte,  V. Vanovschi,  Tao Wang,  A. Warshel,  
 C. F. Williams,  Q. Wu,  X. Xu,  W. Zhang

 Please cite Q-Chem as follows:
 Y. Shao et al., Mol. Phys. 113, 184-215 (2015)
 DOI: 10.1080/00268976.2014.952696

 Q-Chem 5.2.0 for Intel X86 EM64T Linux

 Parts of Q-Chem use Armadillo 8.300.2 (Tropical Shenanigans).
 http://arma.sourceforge.net/

 Q-Chem begins on Sun Sep 26 11:12:29 2021  

Host: cori01
0

     Scratch files written to /tmp/qchem52579//Frg2//
 May1019 |scratch|qcdevops|jenkins|workspace|build_RNUM -1
Processing $rem in /global/common/cori/software/qchem/5.2/config/preferences:
	 MEM_TOTAL  96000 
NAlpha2: 32
NElect   32
Mult     1
Symmetry turned off for PCM/SM12/SMD calculation

Checking the input file for inconsistencies... 	...done.

--------------------------------------------------------------
User input:
--------------------------------------------------------------
$molecule
0 1
 6	2.5867120523	1.0269270992	1.7962624649
 6	1.6017120523	1.7889270992	0.9472624649
 8	0.6287120523	1.2239270992	0.4522624649
 7	1.8557120523	3.0709270992	0.7422624649
 1	2.0797120523	0.7059270992	2.7052624649
 1	3.4227120523	1.6699270992	2.0762624649
 1	1.2347120523	3.5809270992	0.1272624649
 1	2.6267120523	3.5419270992	1.2102624649
 1	2.9604060523	0.1451570992	1.2551224649
$end
$rem
EDA2		1
METHOD		WB97X-V
BASIS		DEF2-TZVPD
XC_GRID		000099000590
NL_GRID		1
UNRESTRICTED		FALSE
MAX_SCF_CYCLES		200
SYMMETRY		FALSE
SYM_IGNORE		TRUE
BASIS_LIN_DEP_THRESH		6
THRESH		14
SCF_CONVERGENCE		8
SCF_PRINT_FRGM		TRUE
SOLVENT_METHOD		SMD
!required keywords
JOBTYPE		SP
SYM_IGNORE		TRUE
SUBSYSTEM		TRUE
GEN_SCFMAN		TRUE
CHILD_INSTRUCTION		2
SYM_IGNORE		TRUE
SCFMI		0
RI_K 0		
PARI_K 0		
MIN_PARI_K 0		
IARI_K 0		
OCC_RI_K 0		
PURECART		1111
MEM_STATIC		2000
MEM_TOTAL		96000
GUI		0
CHILD_MP		1
CHILD_MP_ORDERS		232
FRZ_RELAX		0
FRZ_RELAX_METHOD		0
EDA_CLS_ELEC		1
EDA_CLS_DISP		0
FRZ_ORTHO_DECOMP		1
EDA2		FALSE
FRGM_METHOD		FALSE
CIS_N_ROOTS  0
LOCAL_CIS    0
CIS_RLX_DNS  1
$end
$smx
SOLVENT			WATER
$end
--------------------------------------------------------------
 ----------------------------------------------------------------
             Standard Nuclear Orientation (Angstroms)
    I     Atom           X                Y                Z
 ----------------------------------------------------------------
    1      C       2.5867120523     1.0269270992     1.7962624649
    2      C       1.6017120523     1.7889270992     0.9472624649
    3      O       0.6287120523     1.2239270992     0.4522624649
    4      N       1.8557120523     3.0709270992     0.7422624649
    5      H       2.0797120523     0.7059270992     2.7052624649
    6      H       3.4227120523     1.6699270992     2.0762624649
    7      H       1.2347120523     3.5809270992     0.1272624649
    8      H       2.6267120523     3.5419270992     1.2102624649
    9      H       2.9604060523     0.1451570992     1.2551224649
 ----------------------------------------------------------------
 Nuclear Repulsion Energy =         122.51526553 hartrees
 There are       16 alpha and       16 beta electrons
 Requested basis set is def2-TZVPD
 There are 78 shells and 196 basis functions

 Total QAlloc Memory Limit  96000 MB
 Mega-Array Size      1956 MB
 MEM_STATIC part      2000 MB
 
 Citation of the SMD model:
 Marenich, A.V.; Cramer, C.J.; Truhlar, D.G.
 J. Phys. Chem. B 2009, 113, 6378-6396.
 iSolventCode=           1
 Solvent: water                                                           
 
 vradii
            1           2           3           4           5           6
    1   1.8500000   1.8500000   1.5200000   1.8900000   1.2000000   1.2000000
            7           8           9
    1   1.2000000   1.2000000   1.2000000
 Changing PCM_VDW_RADII to SMD_RADIUS
 Discretize the solute cavity surface with Lebedev spheres
	Using 110 Lebedev grid points for each H atom
	Using 194 Lebedev grid points for other atoms
	Atomic van der Waals radii will be scaled by 1.20
 Remove points where switching function is < 1.0e-08
 Keep 717 surface tesserae and discard 609 interior tesserae
 Molecular Surface Area = 89.883 Angst**2

                       Distance Matrix (Angstroms)
             C (  1)   C (  2)   O (  3)   N (  4)   H (  5)   H (  6)
   C (  2)  1.507206
   O (  3)  2.383046  1.229219
   N (  4)  2.413133  1.322900  2.236300
   H (  5)  1.089207  2.119419  2.729420  3.081683
   H (  6)  1.091213  2.145890  3.262319  2.489547  1.768781
   H (  7)  3.337122  2.004583  2.455262  1.011912  3.952940  3.498266
   H (  8)  2.582677  2.047634  3.152728  1.017500  3.252250  2.210872
   H (  9)  1.099999  2.154717  2.691677  3.169149  1.786894  1.792462
             H (  7)   H (  8)
   H (  8)  1.764107
   H (  9)  4.006820  3.413416
 
 A cutoff of  1.0D-14 yielded   3053 shell pairs
 There are     19543 function pairs (     24701 Cartesian)
 Smallest overlap matrix eigenvalue = 1.07E-05

 Scale SEOQF with 1.000000e-01/1.000000e-01/1.000000e-01

 Standard Electronic Orientation quadrupole field applied
 Nucleus-field energy     =     0.0000000088 hartrees
 Guess from superposition of atomic densities
 Warning:  Energy on first SCF cycle will be non-variational
 SAD guess density has 31.604610 electrons

 -----------------------------------------------------------------------
  General SCF calculation program by
  Eric Jon Sundstrom, Paul Horn, Yuezhi Mao, Dmitri Zuev, Alec White,
  David Stuck, Shaama M.S., Shane Yost, Joonho Lee, David Small,
  Daniel Levine, Susi Lehtola, Hugh Burton, Evgeny Epifanovsky
 -----------------------------------------------------------------------
 Exchange:     0.1670 Hartree-Fock + 1.0000 wB97X-V + LR-HF
 Correlation:  1.0000 wB97X-V
 Using Euler-Maclaurin-Lebedev (99,590) quadrature formula
 Nonlocal Correlation:  VV10 with C = 0.0100 and b = 6.00 and scale = 1.00000
 Grid used for NLC:  SG-1 standard quadrature
Energy prior to optimization (guess energy) = -208.705041773178
Begin Timing: Total SCF Calculation
begin iterations for algorithm: DIIS         
the SCF tolerance is set to 1.00e-08
    1    -208.7050417732      1.25e-02     00000 
    2    -208.3372002777      1.53e-02     00000 
    3    -209.2371739019      2.35e-03     00000 
    4    -209.2556661324      7.72e-04     00000 
    5    -209.2587513958      2.00e-04     00000 
    6    -209.2590245719      6.77e-05     00000 
    7    -209.2590661815      2.06e-05     00000 
    8    -209.2590713807      5.92e-06     00000 
    9    -209.2590721466      2.00e-06     00000 
   10    -209.2590721971      3.96e-07     00000 
   11    -209.2590721986      1.50e-07     00000 
   12    -209.2590721988      2.01e-08     00000 
   13    -209.2590721988      4.68e-09     00000 Convergence criterion met
Timing for Total SCF: 350.00s (wall), 691.01s (cpu)
(3)  G-ENP(liq) elect-nuc-pol free energy of system     -209.259072199 a.u.
(4)  G-CDS(liq) cavity-dispersion-solvent structure 
     free energy                                                3.5178 kcal/mol
(6)  G-S(liq) free energy of system                     -209.253466227 a.u.
E_pcm = -0.0303984779
E_cds = 0.0056059722
Multipole orders to be included
        2
        3
computing dipole RHS
computing quadrupole RHS
total number of RHS in solve_reponses: 8
RHS batch sizes
        8
Beginning Block Conjugate Gradient Iterations. Batch Number: 0
computing hessian-vector products by finite difference
              1      5.82e-01     00000 Conjugate Gradient Iteration
computing hessian-vector products by finite difference
              2      1.99e-01     00000 Conjugate Gradient Iteration
computing hessian-vector products by finite difference
              3      5.61e-02     00000 Conjugate Gradient Iteration
computing hessian-vector products by finite difference
              4      1.40e-02     00000 Conjugate Gradient Iteration
computing hessian-vector products by finite difference
              5      1.87e-03     00000 Conjugate Gradient Iteration
computing hessian-vector products by finite difference
              6      4.11e-04     00000 Conjugate Gradient Iteration
computing hessian-vector products by finite difference
              7      5.46e-05     00000 Conjugate Gradient Iteration
computing hessian-vector products by finite difference
              8      6.28e-06     00000 Conjugate Gradient Iteration
computing hessian-vector products by finite difference
              9      8.89e-07     00000 Conjugate Gradient Iteration
computing hessian-vector products by finite difference
             10      1.36e-07     00000 Conjugate Gradient Iteration
computing hessian-vector products by finite difference
             11      1.70e-08     00000 Conjugate Gradient Iteration
computing hessian-vector products by finite difference
             12      3.13e-09     00000 CG Converged
batch 0 complete
Done Calculating Responses
TESTING ORTHOGONALIZATION OF MULTIPOLE BASIS
Multipole virts passed orthogonality test
Virts Per Order
        48
        80
 
 --------------------------------------------------------------
 
                    Orbital Energies (a.u.)
 --------------------------------------------------------------
 
 Alpha MOs
 -- Occupied --
-19.1822 -14.4284 -10.3765 -10.2619  -1.1763  -1.0417  -0.8639  -0.7075
 -0.6512  -0.5916  -0.5657  -0.5200  -0.4976  -0.4768  -0.3839  -0.3755
 -- Virtual --
  0.0650   0.0958   0.0970   0.1032   0.1333   0.1338   0.1374   0.1516
  0.1820   0.1902   0.1934   0.2156   0.2312   0.2495   0.2533   0.2652
  0.2677   0.2789   0.3029   0.3143   0.3337   0.3404   0.3464   0.3560
  0.3600   0.3665   0.3743   0.3798   0.3886   0.4012   0.4170   0.4278
  0.4374   0.4626   0.4671   0.4763   0.4787   0.4952   0.5051   0.5116
  0.5163   0.5339   0.5599   0.5677   0.5836   0.5946   0.6161   0.6305
  0.6389   0.6513   0.6720   0.6985   0.7107   0.7219   0.7359   0.7690
  0.7744   0.7801   0.7962   0.8102   0.8266   0.8344   0.8558   0.8877
  0.9147   0.9598   0.9632   0.9985   1.0151   1.0299   1.0606   1.1057
  1.1176   1.1778   1.2328   1.2380   1.2966   1.3200   1.3287   1.3949
  1.4789   1.4973   1.5314   1.6160   1.6854   1.7319   1.7361   1.8063
  1.8518   1.8773   1.8847   1.9211   1.9320   1.9670   1.9815   2.0533
  2.0546   2.0841   2.1342   2.1721   2.1975   2.2362   2.3121   2.3844
  2.4255   2.4368   2.4671   2.4901   2.5184   2.5721   2.6040   2.6370
  2.6455   2.6921   2.7935   2.8048   2.8616   2.9000   2.9547   2.9750
  3.0759   3.1104   3.1245   3.1659   3.2086   3.2138   3.2655   3.3015
  3.3168   3.3373   3.3929   3.4231   3.4752   3.4916   3.5437   3.5508
  3.5958   3.6814   3.6907   3.8275   3.8738   3.9416   4.0170   4.0556
  4.0792   4.2156   4.3251   4.4248   4.4633   4.6206   4.6439   4.6771
  4.7792   4.8972   4.9047   4.9324   5.1448   5.1781   5.2595   5.3479
  5.3854   5.3995   5.4048   5.4940   5.5393   5.7688   5.9178   6.1444
  6.2440   6.5247   6.6352   6.7397   6.8368   6.9628   7.2178   7.3184
 22.6006  23.5992  32.4128  44.2868
 --------------------------------------------------------------
 
          Ground-State Mulliken Net Atomic Charges

     Atom                 Charge (a.u.)
  ----------------------------------------
      1 C                    -0.608404
      2 C                     0.424872
      3 O                    -0.698201
      4 N                    -0.298202
      5 H                     0.213757
      6 H                     0.235195
      7 H                     0.246451
      8 H                     0.252595
      9 H                     0.231937
  ----------------------------------------
  Sum of atomic charges =     0.000000

 -----------------------------------------------------------------
                    Cartesian Multipole Moments
 -----------------------------------------------------------------
    Charge (ESU x 10^10)
                -0.0000
    Dipole Moment (Debye)
         X       4.2575      Y       3.7571      Z       1.8595
       Tot       5.9749
    Quadrupole Moments (Debye-Ang)
        XX     -12.4772     XY      12.1476     YY      -6.5308
        XZ       6.9996     YZ       4.5717     ZZ     -20.7484
    Octopole Moments (Debye-Ang^2)
       XXX     -95.9783    XXY     -12.1987    XYY      -0.4706
       YYY     -57.4563    XXZ      -5.9285    XYZ      16.8908
       YYZ     -12.2692    XZZ     -32.2020    YZZ     -36.4136
       ZZZ     -68.6591
    Hexadecapole Moments (Debye-Ang^3)
      XXXX    -474.0247   XXXY    -140.3114   XXYY     -87.8986
      XYYY     -71.3553   YYYY    -321.4143   XXXZ    -106.7370
      XXYZ      12.0173   XYYZ      -2.9592   YYYZ     -75.1811
      XXZZ    -105.4895   XYZZ     -51.4181   YYZZ    -123.0868
      XZZZ    -144.1611   YZZZ    -108.4666   ZZZZ    -219.0768
 -----------------------------------------------------------------
Archival summary:
1\1\nid00563\SP\ProcedureUnspecified\BasisUnspecified\1125\meili\SunSep2612:59:032021SunSep2612:59:032021\0\\#,ProcedureUnspecified,BasisUnspecified,\\0,1\C\O,1,1.22922\N,1,1.3229,2,122.345\H,3,1.01191,1,117.695,2,-2.18947,0\H,3,1.0175,1,121.52,2,175.61,0\C,1,1.50721,2,120.781,3,-178.397,0\H,6,1.08921,1,108.354,2,-66.2051,0\H,6,1.09121,1,110.323,2,175.236,0\H,6,1.1,1,110.498,2,53.6609,0\\\@

 Total job time:  6395.01s(wall), 12608.09s(cpu) 
 Sun Sep 26 12:59:04 2021

        *************************************************************
        *                                                           *
        *  Thank you very much for using Q-Chem.  Have a nice day.  *
        *                                                           *
        *************************************************************


Done Job For Fragment 1
calling putenv with: QCSCRATCH=/global/cscratch1/sd/meili 
calling putenv with: QCLOCALSCR=/tmp 
calling putenv with: QCTHREADS=32 
Doing General SCFMI
 Exchange:     0.1670 Hartree-Fock + 1.0000 wB97X-V + LR-HF
 Correlation:  1.0000 wB97X-V
 Using Euler-Maclaurin-Lebedev (99,590) quadrature formula
 Nonlocal Correlation:  VV10 with C = 0.0100 and b = 6.00 and scale = 1.00000
 Grid used for NLC:  SG-1 standard quadrature
performing fock build before subrot guess so that all methods have access
Printing subrot_rss_gen Method Specification:
Occupied Subspace Method is 0
Virtual Subspace Method is 0
Energy of the unrelaxed supersystem initial determinant -418.472458575397
performing fock build before subrot guess so that all methods have access
Printing subrot_rss_gen Method Specification:
Occupied Subspace Method is 0
Virtual Subspace Method is 0
Energy of the unrelaxed supersystem initial determinant w/ solvent -418.518534459488
write pseudocanon occs and virts to disk
write pseudocanon orbital energies to disk
Tolerance of ortho_decomp_scf: 1.00e-06
GDM subspace size: 20
Beginning the Orthogonal Decomposition of the Initial Supersystem Wavefunction
    1    -418.4333335874      6.74e-02     ortho_decomp Preconditoned Steepest Descent
    2    -418.4377120902      1.28e-03     ortho_decomp BFGS Step
    3    -418.4377220544      1.11e-04     ortho_decomp BFGS Step
    4    -418.4377220837      4.42e-06     ortho_decomp BFGS Step
    5    -418.4377220838      1.32e-07     ortho_decomp 00000 Convergence criterion met
 Hartree-Fock
 Hartree-Fock
 Hartree-Fock
Doing General SCFMI
 Exchange:     0.1670 Hartree-Fock + 1.0000 wB97X-V + LR-HF
 Correlation:  1.0000 wB97X-V
 Using Euler-Maclaurin-Lebedev (99,590) quadrature formula
 Nonlocal Correlation:  VV10 with C = 0.0100 and b = 6.00 and scale = 1.00000
 Grid used for NLC:  SG-1 standard quadrature
performing fock build at end of subrot_r(subrot) constructor so that all methods have access
<S^2> of initial wavefunction before polarization iterations 0.0000000000
Beginning iterations for the determination of the polarized wavefunction
Energy prior to optimization (guess energy) = -418.518534459488
Begin Timing: Total SCF Calculation
begin iterations for algorithm: DIIS         
the SCF tolerance is set to 1.00e-08
    1    -418.5185344595      9.61e-05     00000 
    2    -418.5188905717      4.42e-05     00000 
    3    -418.5189306022      2.98e-05     00000 
    4    -418.5189489149      8.21e-06     00000 
    5    -418.5189508954      3.35e-06     00000 
    6    -418.5189514578      1.23e-06     00000 
    7    -418.5189515231      4.56e-07     00000 
    8    -418.5189515301      1.04e-07     00000 
    9    -418.5189515305      3.09e-08     00000 
   10    -418.5189515305      1.59e-08     00000 
   11    -418.5189515305      6.69e-09     00000 Convergence criterion met
write pseudocanon occs and virts to disk
write pseudocanon orbital energies to disk
Timing for Total SCF: 1621.00s (wall), 3219.17s (cpu)
<S^2> of polarized wavefunction after polarization iterations 0.0000000000
relaxing scfmi constraint to allow all rotations in the entire AO span
Doing General SCFMI
 Exchange:     0.1670 Hartree-Fock + 1.0000 wB97X-V + LR-HF
 Correlation:  1.0000 wB97X-V
 Using Euler-Maclaurin-Lebedev (99,590) quadrature formula
 Nonlocal Correlation:  VV10 with C = 0.0100 and b = 6.00 and scale = 1.00000
 Grid used for NLC:  SG-1 standard quadrature
performing fock build at end of subrot_r(subrot) constructor so that all methods have access
<S^2> of polarized wavefunction before ct-allowed iterations 0.0000000000
Beginning iterations for the determination of the CT-Allowed wavefunction
Energy prior to optimization (guess energy) = -418.518951530528
Begin Timing: Total SCF Calculation
begin iterations for algorithm: DIIS         
the SCF tolerance is set to 1.00e-08
    1    -418.5189515305      1.30e-04     00000 
    2    -418.5203848175      1.81e-05     00000 
    3    -418.5204358559      6.60e-06     00000 
    4    -418.5204379720      4.57e-06     00000 
    5    -418.5204391981      5.38e-07     00000 
    6    -418.5204392293      2.62e-07     00000 
    7    -418.5204392367      6.67e-08     00000 
    8    -418.5204392373      2.27e-08     00000 
    9    -418.5204392374      8.10e-09     00000 Convergence criterion met
write pseudocanon occs and virts to disk
write pseudocanon orbital energies to disk
Timing for Total SCF: 1314.00s (wall), 2608.65s (cpu)
<S^2> of ct_allowed wavefunction after ct-allowed iterations 0.0000000000

================================
        Results of EDA2         
================================
Basic EDA Quantities
--------------------
Fragment Energies (Ha):
1 -209.2532489669
2 -209.2534662266
--------------------
  E_prp (kJ/mol) = 0.0000
  E_sol (kJ/mol) = 35.7620
  E_frz (kJ/mol) = -40.1014
  E_pol (kJ/mol) = -1.0950
  E_vct (kJ/mol) = -3.9060
  E_int (kJ/mol) = -9.3405
--------------------


Initial Wavefunction Decomposition
--------------------
  --------------------
  Orthogonal Fragment Subspace Decomposition:
  --------------------
     E_elec   (ELEC)   (kJ/mol) = -72.7797
     E_pauli  (PAULI)  (kJ/mol) = 41.2808
     E_disp   (DISP)   (kJ/mol) = -8.6026
     --------------------
     Terms summing to E_pauli:
     --------------------
        E_kep_pauli       (kJ/mol) = 51.1003
        E_disp_free_pauli (kJ/mol) = -9.8195
  --------------------
  Classical Frozen Decomposition:
  --------------------
     E_cls_elec  (CLS ELEC)  (kJ/mol) = -53.2304
     E_cls_pauli (CLS PAULI) (kJ/mol) = 13.1290
    [E_mod_pauli (MOD PAULI) (kJ/mol) = 21.7315 (CLS PAULI - DISP from orthogonal decomposition) ]
  --------------------
--------------------

Simplified EDA Summary (kJ/mol)
--------------------
 PREPARATION     0.0000
 SOLVATION       35.7620
 FROZEN          -31.4989      (does not include dispersion)
[PAULI           41.2808]     (if this is negligible, then frozen describes electrostatics)
 DISPERSION      -8.6026
 POLARIZATION    -1.0950
 CHARGE TRANSFER -3.9060
 TOTAL           -9.3405     (PRP + SOL + FRZ + DISP + POL + CT)
--------------------
 
 --------------------------------------------------------------
 
                    Orbital Energies (a.u.)
 --------------------------------------------------------------
 
 Alpha MOs
 -- Occupied --
-19.1854 -19.1810 -14.4300 -14.4218 -10.3789 -10.3754 -10.2628 -10.2613
 -1.1794  -1.1735  -1.0440  -1.0373  -0.8651  -0.8619  -0.7133  -0.7038
 -0.6544  -0.6463  -0.5941  -0.5887  -0.5673  -0.5638  -0.5274  -0.5112
 -0.4983  -0.4956  -0.4784  -0.4775  -0.3869  -0.3807  -0.3779  -0.3736
 -- Virtual --
  0.0591   0.0752   0.0868   0.0893   0.1020   0.1041   0.1096   0.1242
  0.1288   0.1321   0.1346   0.1364   0.1465   0.1587   0.1672   0.1717
  0.1847   0.1930   0.1999   0.2094   0.2117   0.2226   0.2289   0.2318
  0.2360   0.2433   0.2547   0.2610   0.2671   0.2707   0.2744   0.2812
  0.2904   0.2977   0.3052   0.3158   0.3227   0.3286   0.3303   0.3341
  0.3379   0.3399   0.3477   0.3506   0.3541   0.3567   0.3602   0.3675
  0.3706   0.3781   0.3808   0.3903   0.3909   0.3966   0.3989   0.4081
  0.4116   0.4160   0.4279   0.4308   0.4340   0.4441   0.4529   0.4568
  0.4660   0.4700   0.4774   0.4848   0.4900   0.4937   0.4954   0.5003
  0.5104   0.5140   0.5169   0.5250   0.5302   0.5404   0.5470   0.5509
  0.5576   0.5694   0.5721   0.5798   0.5884   0.5954   0.6005   0.6124
  0.6163   0.6178   0.6245   0.6353   0.6498   0.6582   0.6640   0.6673
  0.6733   0.6872   0.6931   0.6941   0.7128   0.7215   0.7239   0.7339
  0.7402   0.7443   0.7547   0.7722   0.7752   0.7782   0.7880   0.7983
  0.8048   0.8099   0.8126   0.8211   0.8264   0.8306   0.8500   0.8682
  0.8723   0.8776   0.8867   0.9086   0.9160   0.9237   0.9430   0.9515
  0.9656   0.9752   0.9950   1.0077   1.0164   1.0236   1.0394   1.0439
  1.0588   1.0721   1.0924   1.1050   1.1106   1.1275   1.1484   1.1568
  1.1903   1.1960   1.2259   1.2430   1.2476   1.2794   1.2821   1.3039
  1.3168   1.3251   1.3335   1.3445   1.3642   1.3743   1.4251   1.4424
  1.4979   1.5105   1.5145   1.5255   1.5610   1.5895   1.6450   1.6524
  1.6948   1.7275   1.7416   1.7571   1.7619   1.7937   1.8357   1.8736
  1.8751   1.8840   1.8997   1.9104   1.9163   1.9324   1.9362   1.9656
  1.9696   1.9749   1.9821   1.9944   2.0021   2.0163   2.0587   2.0618
  2.0695   2.1080   2.1189   2.1298   2.1492   2.1693   2.1826   2.2194
  2.2226   2.2524   2.2762   2.2935   2.3617   2.4002   2.4012   2.4092
  2.4228   2.4362   2.4518   2.4635   2.4905   2.4999   2.5110   2.5254
  2.5729   2.5971   2.6015   2.6084   2.6277   2.6344   2.6557   2.6661
  2.6702   2.6989   2.7246   2.7768   2.8084   2.8095   2.8168   2.8326
  2.8635   2.8743   2.9154   2.9208   2.9772   2.9819   3.0117   3.0176
  3.0908   3.1136   3.1223   3.1333   3.1458   3.1625   3.1723   3.1905
  3.2176   3.2232   3.2537   3.2680   3.2767   3.2963   3.3153   3.3285
  3.3315   3.3371   3.3508   3.3562   3.3769   3.4097   3.4259   3.4438
  3.4788   3.4867   3.5004   3.5339   3.5555   3.5811   3.6059   3.6207
  3.6436   3.6560   3.6775   3.6886   3.7016   3.7116   3.8031   3.8383
  3.8792   3.8999   3.9549   3.9599   4.0235   4.0293   4.0515   4.0615
  4.0981   4.1121   4.2085   4.2245   4.3167   4.3459   4.4311   4.4393
  4.4675   4.5121   4.6172   4.6373   4.6418   4.6659   4.6810   4.6993
  4.7924   4.8297   4.9051   4.9067   4.9067   4.9344   4.9472   4.9638
  5.1719   5.1817   5.1896   5.1948   5.2637   5.2769   5.3526   5.3709
  5.3894   5.3918   5.4049   5.4055   5.4100   5.4576   5.5026   5.5376
  5.5575   5.5815   5.7685   5.7713   5.9191   5.9267   6.1517   6.1759
  6.2462   6.2827   6.5259   6.6144   6.6470   6.6605   6.7438   6.7540
  6.8235   6.8462   6.9762   6.9867   7.2189   7.2271   7.3232   7.3851
 22.6057  22.6163  23.5983  23.6286  32.4340  32.5383  44.3581  44.3790
 --------------------------------------------------------------
 
          Ground-State Mulliken Net Atomic Charges

     Atom                 Charge (a.u.)
  ----------------------------------------
      1 C                    -0.653045
      2 C                     0.501828
      3 O                    -0.717802
      4 N                    -0.163557
      5 H                     0.232494
      6 H                     0.149025
      7 H                     0.236301
      8 H                     0.216367
      9 H                     0.247917
     10 C                    -0.608981
     11 C                     0.373561
     12 O                    -0.710838
     13 N                    -0.310668
     14 H                     0.217883
     15 H                     0.257384
     16 H                     0.256129
     17 H                     0.247470
     18 H                     0.228532
  ----------------------------------------
  Sum of atomic charges =     0.000000

 -----------------------------------------------------------------
                    Cartesian Multipole Moments
 -----------------------------------------------------------------
    Charge (ESU x 10^10)
                 0.0000
    Dipole Moment (Debye)
         X       8.8586      Y       6.6004      Z       5.2865
       Tot      12.2470
    Quadrupole Moments (Debye-Ang)
        XX     -52.8998     XY       1.0056     YY     -36.0781
        XZ      -4.6315     YZ      -6.5724     ZZ     -52.4505
    Octopole Moments (Debye-Ang^2)
       XXX      74.7276    XXY      69.2299    XYY      65.6461
       YYY      90.0049    XXZ      53.4239    XYZ      48.4048
       YYZ      34.3335    XZZ      32.3878    YZZ      33.1092
       ZZZ      14.1566
    Hexadecapole Moments (Debye-Ang^3)
      XXXX   -1095.5849   XXXY    -479.9858   XXYY    -350.0957
      XYYY    -363.8629   YYYY    -970.5246   XXXZ    -344.8745
      XXYZ    -108.3229   XYYZ    -117.8493   YYYZ    -230.0740
      XXZZ    -298.9758   XYZZ    -192.8403   YYZZ    -319.8980
      XZZZ    -325.5538   YZZZ    -259.1058   ZZZZ    -495.4220
 -----------------------------------------------------------------
Archival summary:
1\1\nid00563\SP\ProcedureUnspecified\BasisUnspecified\22410\meili\SunSep2614:27:122021SunSep2614:27:122021\0\\#,ProcedureUnspecified,BasisUnspecified,\\0,1\O\C,1,1.22922\N,2,1.3229,1,122.345\H,3,1.01191,2,117.695,1,-2.18947,0\H,3,1.0175,2,121.52,1,175.61,0\C,2,1.50721,1,120.781,3,-178.397,0\H,6,1.08921,2,108.354,1,-66.2051,0\H,6,1.09121,2,110.323,1,175.236,0\H,6,1.1,2,110.498,1,53.6609,0\H,1,2.0777,2,154.888,3,141.435,0\N,10,1.01603,1,146.528,2,-143.632,0\H,11,1.00982,10,119.319,1,27.0927,0\C,11,1.32197,10,122.929,1,-154.992,0\O,13,1.23162,11,121.876,10,179.487,0\C,13,1.51649,11,116.715,10,-1.55232,0\H,15,1.08329,13,109.009,11,-92.1367,0\H,15,1.09092,13,109.47,11,24.3838,0\H,15,1.1,13,111.144,11,144.692,0\\\@

 Total job time:  17613.16s(wall), 10517.80s(cpu) 
 Sun Sep 26 14:27:14 2021

        *************************************************************
        *                                                           *
        *  Thank you very much for using Q-Chem.  Have a nice day.  *
        *                                                           *
        *************************************************************


