
Running Job 1 of 1 SSI-030GLU-033GLN-1_SMD_TZVPD.in
qchem SSI-030GLU-033GLN-1_SMD_TZVPD.in_5615.0 /tmp/qchem5615/ 0
/global/common/cori/software/qchem/5.2/exe/qcprog.exe_s SSI-030GLU-033GLN-1_SMD_TZVPD.in_5615.0 /tmp/qchem5615/
                  Welcome to Q-Chem
     A Quantum Leap Into The Future Of Chemistry


 Q-Chem 5.2, Q-Chem, Inc., Pleasanton, CA (2019)

 License issued to: National Energy Research Scientific Computing Center

 Yihan Shao,  Zhengting Gan,  E. Epifanovsky,  A. T. B. Gilbert,  M. Wormit,  
 J. Kussmann,  A. W. Lange,  A. Behn,  Jia Deng,  Xintian Feng,  D. Ghosh,  
 M. Goldey,  P. R. Horn,  L. D. Jacobson,  I. Kaliman,  T. Kus,  A. Landau,  
 Jie Liu,  E. I. Proynov,  R. M. Richard,  R. P. Steele,  E. J. Sundstrom,  
 H. L. Woodcock III,  P. M. Zimmerman,  D. Zuev,  B. Albrecht,  E. Alguire,  
 S. A. Baeppler,  D. Barton,  Z. Benda,  Y. A. Bernard,  E. J. Berquist,  
 K. B. Bravaya,  H. Burton,  D. Casanova,  Chun-Min Chang,  Yunqing Chen,  
 A. Chien,  K. D. Closser,  M. P. Coons,  S. Coriani,  S. Dasgupta,  
 A. L. Dempwolff,  M. Diedenhofen,  Hainam Do,  R. G. Edgar,  Po-Tung Fang,  
 S. Faraji,  S. Fatehi,  Qingguo Feng,  K. D. Fenk,  J. Fosso-Tande,  
 J. Gayvert,  Qinghui Ge,  A. Ghysels,  G. Gidofalvi,  J. Gomes,  
 J. Gonthier,  A. Gunina,  D. Hait,  M. W. D. Hanson-Heine,  
 P. H. P. Harbach,  A. W. Hauser,  M. F. Herbst,  J. E. Herr,  
 E. G. Hohenstein,  Z. C. Holden,  Kerwin Hui,  B. C. Huynh,  T.-C. Jagau,  
 Hyunjun Ji,  B. Kaduk,  K. Khistyaev,  Jaehoon Kim,  P. Klunzinger,  K. Koh,  
 D. Kosenkov,  L. Koulias,  T. Kowalczyk,  C. M. Krauter,  A. Kunitsa,  
 Ka Un Lao,  A. Laurent,  K. V. Lawler,  Joonho Lee,  D. Lefrancois,  
 S. Lehtola,  D. S. Levine,  Yi-Pei Li,  You-Sheng Lin,  Fenglai Liu,  
 E. Livshits,  A. Luenser,  P. Manohar,  E. Mansoor,  S. F. Manzer,  
 Shan-Ping Mao,  Yuezhi Mao,  N. Mardirossian,  A. V. Marenich,  
 T. Markovich,  L. A. Martinez-Martinez,  S. A. Maurer,  N. J. Mayhall,  
 S. C. McKenzie,  J.-M. Mewes,  P. Morgante,  A. F. Morrison,  
 J. W. Mullinax,  K. Nanda,  T. S. Nguyen-Beck,  R. Olivares-Amaya,  
 J. A. Parkhill,  Zheng Pei,  T. M. Perrine,  F. Plasser,  P. Pokhilko,  
 S. Prager,  A. Prociuk,  E. Ramos,  D. R. Rehn,  F. Rob,  M. Scheurer,  
 M. Schneider,  N. Sergueev,  S. M. Sharada,  S. Sharma,  D. W. Small,  
 T. Stauch,  T. Stein,  Yu-Chuan Su,  A. J. W. Thom,  A. Tkatchenko,  
 T. Tsuchimochi,  N. M. Tubman,  L. Vogt,  M. L. Vidal,  O. Vydrov,  
 M. A. Watson,  J. Wenzel,  M. de Wergifosse,  T. A. Wesolowski,  A. White,  
 J. Witte,  A. Yamada,  Jun Yang,  K. Yao,  S. Yeganeh,  S. R. Yost,  
 Zhi-Qiang You,  A. Zech,  Igor Ying Zhang,  Xing Zhang,  Yan Zhao,  
 Ying Zhu,  B. R. Brooks,  G. K. L. Chan,  C. J. Cramer,  M. S. Gordon,  
 W. J. Hehre,  A. Klamt,  M. W. Schmidt,  C. D. Sherrill,  D. G. Truhlar,  
 A. Aspuru-Guzik,  R. Baer,  A. T. Bell,  N. A. Besley,  Jeng-Da Chai,  
 A. E. DePrince, III,  R. A. DiStasio Jr.,  A. Dreuw,  B. D. Dunietz,  
 T. R. Furlani,  Chao-Ping Hsu,  Yousung Jung,  Jing Kong,  D. S. Lambrecht,  
 WanZhen Liang,  C. Ochsenfeld,  V. A. Rassolov,  L. V. Slipchenko,  
 J. E. Subotnik,  T. Van Voorhis,  J. M. Herbert,  A. I. Krylov,  
 P. M. W. Gill,  M. Head-Gordon

 Contributors to earlier versions of Q-Chem not listed above: 
 R. D. Adamson,  B. Austin,  J. Baker,  G. J. O. Beran,  K. Brandhorst,  
 S. T. Brown,  E. F. C. Byrd,  A. K. Chakraborty,  C.-L. Cheng,  
 Siu Hung Chien,  D. M. Chipman,  D. L. Crittenden,  H. Dachsel,  
 R. J. Doerksen,  A. D. Dutoi,  L. Fusti-Molnar,  W. A. Goddard III,  
 A. Golubeva-Zadorozhnaya,  S. R. Gwaltney,  G. Hawkins,  A. Heyden,  
 S. Hirata,  G. Kedziora,  F. J. Keil,  C. Kelley,  Jihan Kim,  R. A. King,  
 R. Z. Khaliullin,  P. P. Korambath,  W. Kurlancheek,  A. M. Lee,  M. S. Lee,  
 S. V. Levchenko,  Ching Yeh Lin,  D. Liotard,  R. C. Lochan,  I. Lotan,  
 P. E. Maslen,  N. Nair,  D. P. O'Neill,  D. Neuhauser,  E. Neuscamman,  
 C. M. Oana,  R. Olson,  B. Peters,  R. Peverati,  P. A. Pieniazek,  
 Y. M. Rhee,  J. Ritchie,  M. A. Rohrdanz,  E. Rosta,  N. J. Russ,  
 H. F. Schaefer III,  N. E. Schultz,  N. Shenvi,  A. C. Simmonett,  A. Sodt,  
 D. Stuck,  K. S. Thanthiriwatte,  V. Vanovschi,  Tao Wang,  A. Warshel,  
 C. F. Williams,  Q. Wu,  X. Xu,  W. Zhang

 Please cite Q-Chem as follows:
 Y. Shao et al., Mol. Phys. 113, 184-215 (2015)
 DOI: 10.1080/00268976.2014.952696

 Q-Chem 5.2.0 for Intel X86 EM64T Linux

 Parts of Q-Chem use Armadillo 8.300.2 (Tropical Shenanigans).
 http://arma.sourceforge.net/

 Q-Chem begins on Sun Sep 26 04:46:13 2021  

Host: cori01
0

     Scratch files written to /tmp/qchem5615//
 May1019 |scratch|qcdevops|jenkins|workspace|build_RNUM -1
Processing $rem in /global/common/cori/software/qchem/5.2/config/preferences:
	 MEM_TOTAL  96000 
NAlpha2: 64
NElect   64
Mult     1
Symmetry turned off for PCM/SM12/SMD calculation

 Q-Chem warning in module libgen/rem_setup.C, line 2803:

 Neither GIA nor STOLL is specified by user. Use STOLL as the default


Checking the input file for inconsistencies... 	...done.

--------------------------------------------------------------
User input:
--------------------------------------------------------------
$comment
SSI-030GLU-033GLN-1.pdb
$end

$molecule
-1 1
--
-1 1
C    1.481071437421    2.741456666432    0.134135097791
C    0.314071437421    1.912456666432    0.600135097791
O    0.426071437421    1.243456666432    1.649135097791
O   -0.739928562579    1.987456666432   -0.069864902209
H    1.353071437421    3.757456666432    0.512135097791
H    1.485071437421    2.808456666432   -0.954864902209
H    2.455831437421    2.374929666432    0.488395097791
--
0 1
C    0.981071437421   -2.394543333568   -0.201864902209
C   -0.441928562579   -2.007543333568   -0.591864902209
O   -1.291928562579   -2.858543333568   -0.837864902209
N   -0.714928562579   -0.717543333568   -0.680864902209
H   -1.632928562579   -0.428543333568   -0.969864902209
H   -0.041928562579   -0.012543333568   -0.436864902209
H    1.005071437421   -2.495543333568    0.881135097791
H    1.675071437421   -1.607543333568   -0.461864902209
H    1.325251437421   -3.335110333568   -0.656694902209
$end

$rem
JOBTYPE			EDA
EDA2			1
method			wB97X-V
BASIS			def2-TZVPD
XC_GRID			000099000590
NL_GRID			1
UNRESTRICTED		FALSE
MAX_SCF_CYCLES		200
SYMMETRY		FALSE
SYM_IGNORE		TRUE
MEM_STATIC		2000
BASIS_LIN_DEP_THRESH 	6
THRESH 			14
SCF_CONVERGENCE 	8
SCF_PRINT_FRGM 		TRUE
SOLVENT_METHOD          SMD
$end

$SMX
SOLVENT			WATER
$END
--------------------------------------------------------------
 ----------------------------------------------------------------
             Standard Nuclear Orientation (Angstroms)
    I     Atom           X                Y                Z
 ----------------------------------------------------------------
    1      C       1.4810714374     2.7414566664     0.1341350978
    2      C       0.3140714374     1.9124566664     0.6001350978
    3      O       0.4260714374     1.2434566664     1.6491350978
    4      O      -0.7399285626     1.9874566664    -0.0698649022
    5      H       1.3530714374     3.7574566664     0.5121350978
    6      H       1.4850714374     2.8084566664    -0.9548649022
    7      H       2.4558314374     2.3749296664     0.4883950978
    8      C       0.9810714374    -2.3945433336    -0.2018649022
    9      C      -0.4419285626    -2.0075433336    -0.5918649022
   10      O      -1.2919285626    -2.8585433336    -0.8378649022
   11      N      -0.7149285626    -0.7175433336    -0.6808649022
   12      H      -1.6329285626    -0.4285433336    -0.9698649022
   13      H      -0.0419285626    -0.0125433336    -0.4368649022
   14      H       1.0050714374    -2.4955433336     0.8811350978
   15      H       1.6750714374    -1.6075433336    -0.4618649022
   16      H       1.3252514374    -3.3351103336    -0.6566949022
 ----------------------------------------------------------------
 Nuclear Repulsion Energy =         359.69011438 hartrees
 There are       32 alpha and       32 beta electrons
 Requested basis set is def2-TZVPD
 There are 147 shells and 377 basis functions

 Total QAlloc Memory Limit  96000 MB
 Mega-Array Size      1956 MB
 MEM_STATIC part      2000 MB
 
 Citation of the SMD model:
 Marenich, A.V.; Cramer, C.J.; Truhlar, D.G.
 J. Phys. Chem. B 2009, 113, 6378-6396.
 iSolventCode=           1
 Solvent: water                                                           
 
 vradii
            1           2           3           4           5           6
    1   1.8500000   1.8500000   1.5200000   1.5200000   1.2000000   1.2000000
            7           8           9          10          11          12
    1   1.2000000   1.8500000   1.8500000   1.5200000   1.8900000   1.2000000
           13          14          15          16
    1   1.2000000   1.2000000   1.2000000   1.2000000
 Changing PCM_VDW_RADII to SMD_RADIUS
 Discretize the solute cavity surface with Lebedev spheres
	Using 110 Lebedev grid points for each H atom
	Using 194 Lebedev grid points for other atoms
	Atomic van der Waals radii will be scaled by 1.20
 Remove points where switching function is < 1.0e-08
 Keep 1305 surface tesserae and discard 1127 interior tesserae
 Molecular Surface Area = 158.199 Angst**2
 A cutoff of  1.0D-14 yielded   9885 shell pairs
 There are     65355 function pairs (     82710 Cartesian)
 Smallest overlap matrix eigenvalue = 8.96E-06

 Scale SEOQF with 1.000000e-01/1.000000e-01/1.000000e-01

 Standard Electronic Orientation quadrupole field applied
 Nucleus-field energy     =     0.0000000185 hartrees

 -----------------------------------------------------------------------
  General SCF calculation program by
  Eric Jon Sundstrom, Paul Horn, Yuezhi Mao, Dmitri Zuev, Alec White,
  David Stuck, Shaama M.S., Shane Yost, Joonho Lee, David Small,
  Daniel Levine, Susi Lehtola, Hugh Burton, Evgeny Epifanovsky
 -----------------------------------------------------------------------
================================================================
                 ALMO-EDA with the EDA2 driver                  
================================================================
 The second-generation ALMO-EDA (for DFT):                      
 P. R. Horn, Y. Mao and M. Head-Gordon, PCCP, 18, 23067 (2016)  
 Decomposition of the frozen energy:                            
 P. R. Horn, Y. Mao and M. Head-Gordon, JCP, 144, 114107 (2016) 
 FERF model for polarization:                                   
 P. R. Horn and M. Head-Gordon, JCP, 143, 114111 (2015)         
Using eda2 option set 1
Option set summary: Frozen orbital wavefunction, initial wavefunction decomposition, and nDQ polarization.
--------------------------------
Printing EDA Options
--------------------------------
eda_child_super_basis      0
fragmo_guess_mode          0
child_mp                   1
child_mp_orders            232
cls_elec                   1
cls_disp                   0
scfmi_mode                 1
scfmi_occs                 0
scfmi_virts                0
frz_relax                  0
frz_relax_method           0
dc_pen_start               0
dc_pen_conv                0
dc_pen_increment           0
dc_pen_steps               0
dc_pen_thresh_factor       0
dc_pen_pre_newton_thresh   0
frz_ortho_decomp           1
frz_ortho_decomp_conv      6
frgm_method                2
scfmi_freeze_ss            0
separate_rehyb             0
plot_diff_den              0
eda_nocv                   0
eda_vct_relax              1
disp_free_x                0
disp_free_c                0
eda_bsse                   0
eda_pct_a                  0
eda_covp                   0
--------------------------------
Attempting to make child job directory: /tmp/qchem5615//Frg1/
Attempting to make child job directory: /tmp/qchem5615//Frg2/
Creating input file /tmp/qchem5615/Frg1.input
using default PutDataFrgm: nothing
calling putenv with: QCSCRATCH=/tmp/qchem5615/ 
calling putenv with: QCLOCALSCR=/tmp/qchem5615/ 
Spawning Job For Fragment 0
                  Welcome to Q-Chem
     A Quantum Leap Into The Future Of Chemistry


 Q-Chem 5.2, Q-Chem, Inc., Pleasanton, CA (2019)

 License issued to: National Energy Research Scientific Computing Center

 Yihan Shao,  Zhengting Gan,  E. Epifanovsky,  A. T. B. Gilbert,  M. Wormit,  
 J. Kussmann,  A. W. Lange,  A. Behn,  Jia Deng,  Xintian Feng,  D. Ghosh,  
 M. Goldey,  P. R. Horn,  L. D. Jacobson,  I. Kaliman,  T. Kus,  A. Landau,  
 Jie Liu,  E. I. Proynov,  R. M. Richard,  R. P. Steele,  E. J. Sundstrom,  
 H. L. Woodcock III,  P. M. Zimmerman,  D. Zuev,  B. Albrecht,  E. Alguire,  
 S. A. Baeppler,  D. Barton,  Z. Benda,  Y. A. Bernard,  E. J. Berquist,  
 K. B. Bravaya,  H. Burton,  D. Casanova,  Chun-Min Chang,  Yunqing Chen,  
 A. Chien,  K. D. Closser,  M. P. Coons,  S. Coriani,  S. Dasgupta,  
 A. L. Dempwolff,  M. Diedenhofen,  Hainam Do,  R. G. Edgar,  Po-Tung Fang,  
 S. Faraji,  S. Fatehi,  Qingguo Feng,  K. D. Fenk,  J. Fosso-Tande,  
 J. Gayvert,  Qinghui Ge,  A. Ghysels,  G. Gidofalvi,  J. Gomes,  
 J. Gonthier,  A. Gunina,  D. Hait,  M. W. D. Hanson-Heine,  
 P. H. P. Harbach,  A. W. Hauser,  M. F. Herbst,  J. E. Herr,  
 E. G. Hohenstein,  Z. C. Holden,  Kerwin Hui,  B. C. Huynh,  T.-C. Jagau,  
 Hyunjun Ji,  B. Kaduk,  K. Khistyaev,  Jaehoon Kim,  P. Klunzinger,  K. Koh,  
 D. Kosenkov,  L. Koulias,  T. Kowalczyk,  C. M. Krauter,  A. Kunitsa,  
 Ka Un Lao,  A. Laurent,  K. V. Lawler,  Joonho Lee,  D. Lefrancois,  
 S. Lehtola,  D. S. Levine,  Yi-Pei Li,  You-Sheng Lin,  Fenglai Liu,  
 E. Livshits,  A. Luenser,  P. Manohar,  E. Mansoor,  S. F. Manzer,  
 Shan-Ping Mao,  Yuezhi Mao,  N. Mardirossian,  A. V. Marenich,  
 T. Markovich,  L. A. Martinez-Martinez,  S. A. Maurer,  N. J. Mayhall,  
 S. C. McKenzie,  J.-M. Mewes,  P. Morgante,  A. F. Morrison,  
 J. W. Mullinax,  K. Nanda,  T. S. Nguyen-Beck,  R. Olivares-Amaya,  
 J. A. Parkhill,  Zheng Pei,  T. M. Perrine,  F. Plasser,  P. Pokhilko,  
 S. Prager,  A. Prociuk,  E. Ramos,  D. R. Rehn,  F. Rob,  M. Scheurer,  
 M. Schneider,  N. Sergueev,  S. M. Sharada,  S. Sharma,  D. W. Small,  
 T. Stauch,  T. Stein,  Yu-Chuan Su,  A. J. W. Thom,  A. Tkatchenko,  
 T. Tsuchimochi,  N. M. Tubman,  L. Vogt,  M. L. Vidal,  O. Vydrov,  
 M. A. Watson,  J. Wenzel,  M. de Wergifosse,  T. A. Wesolowski,  A. White,  
 J. Witte,  A. Yamada,  Jun Yang,  K. Yao,  S. Yeganeh,  S. R. Yost,  
 Zhi-Qiang You,  A. Zech,  Igor Ying Zhang,  Xing Zhang,  Yan Zhao,  
 Ying Zhu,  B. R. Brooks,  G. K. L. Chan,  C. J. Cramer,  M. S. Gordon,  
 W. J. Hehre,  A. Klamt,  M. W. Schmidt,  C. D. Sherrill,  D. G. Truhlar,  
 A. Aspuru-Guzik,  R. Baer,  A. T. Bell,  N. A. Besley,  Jeng-Da Chai,  
 A. E. DePrince, III,  R. A. DiStasio Jr.,  A. Dreuw,  B. D. Dunietz,  
 T. R. Furlani,  Chao-Ping Hsu,  Yousung Jung,  Jing Kong,  D. S. Lambrecht,  
 WanZhen Liang,  C. Ochsenfeld,  V. A. Rassolov,  L. V. Slipchenko,  
 J. E. Subotnik,  T. Van Voorhis,  J. M. Herbert,  A. I. Krylov,  
 P. M. W. Gill,  M. Head-Gordon

 Contributors to earlier versions of Q-Chem not listed above: 
 R. D. Adamson,  B. Austin,  J. Baker,  G. J. O. Beran,  K. Brandhorst,  
 S. T. Brown,  E. F. C. Byrd,  A. K. Chakraborty,  C.-L. Cheng,  
 Siu Hung Chien,  D. M. Chipman,  D. L. Crittenden,  H. Dachsel,  
 R. J. Doerksen,  A. D. Dutoi,  L. Fusti-Molnar,  W. A. Goddard III,  
 A. Golubeva-Zadorozhnaya,  S. R. Gwaltney,  G. Hawkins,  A. Heyden,  
 S. Hirata,  G. Kedziora,  F. J. Keil,  C. Kelley,  Jihan Kim,  R. A. King,  
 R. Z. Khaliullin,  P. P. Korambath,  W. Kurlancheek,  A. M. Lee,  M. S. Lee,  
 S. V. Levchenko,  Ching Yeh Lin,  D. Liotard,  R. C. Lochan,  I. Lotan,  
 P. E. Maslen,  N. Nair,  D. P. O'Neill,  D. Neuhauser,  E. Neuscamman,  
 C. M. Oana,  R. Olson,  B. Peters,  R. Peverati,  P. A. Pieniazek,  
 Y. M. Rhee,  J. Ritchie,  M. A. Rohrdanz,  E. Rosta,  N. J. Russ,  
 H. F. Schaefer III,  N. E. Schultz,  N. Shenvi,  A. C. Simmonett,  A. Sodt,  
 D. Stuck,  K. S. Thanthiriwatte,  V. Vanovschi,  Tao Wang,  A. Warshel,  
 C. F. Williams,  Q. Wu,  X. Xu,  W. Zhang

 Please cite Q-Chem as follows:
 Y. Shao et al., Mol. Phys. 113, 184-215 (2015)
 DOI: 10.1080/00268976.2014.952696

 Q-Chem 5.2.0 for Intel X86 EM64T Linux

 Parts of Q-Chem use Armadillo 8.300.2 (Tropical Shenanigans).
 http://arma.sourceforge.net/

 Q-Chem begins on Sun Sep 26 04:46:17 2021  

Host: cori01
0

     Scratch files written to /tmp/qchem5615//Frg1//
 May1019 |scratch|qcdevops|jenkins|workspace|build_RNUM -1
Processing $rem in /global/common/cori/software/qchem/5.2/config/preferences:
	 MEM_TOTAL  96000 
NAlpha2: 32
NElect   32
Mult     1
Symmetry turned off for PCM/SM12/SMD calculation

Checking the input file for inconsistencies... 	...done.

--------------------------------------------------------------
User input:
--------------------------------------------------------------
$molecule
-1 1
 6	1.4810714374	2.7414566664	0.1341350978
 6	0.3140714374	1.9124566664	0.6001350978
 8	0.4260714374	1.2434566664	1.6491350978
 8	-0.7399285626	1.9874566664	-0.0698649022
 1	1.3530714374	3.7574566664	0.5121350978
 1	1.4850714374	2.8084566664	-0.9548649022
 1	2.4558314374	2.3749296664	0.4883950978
$end
$rem
EDA2		1
METHOD		WB97X-V
BASIS		DEF2-TZVPD
XC_GRID		000099000590
NL_GRID		1
UNRESTRICTED		FALSE
MAX_SCF_CYCLES		200
SYMMETRY		FALSE
SYM_IGNORE		TRUE
BASIS_LIN_DEP_THRESH		6
THRESH		14
SCF_CONVERGENCE		8
SCF_PRINT_FRGM		TRUE
SOLVENT_METHOD		SMD
!required keywords
JOBTYPE		SP
SYM_IGNORE		TRUE
SUBSYSTEM		TRUE
GEN_SCFMAN		TRUE
CHILD_INSTRUCTION		2
SYM_IGNORE		TRUE
SCFMI		0
RI_K 0		
PARI_K 0		
MIN_PARI_K 0		
IARI_K 0		
OCC_RI_K 0		
PURECART		1111
MEM_STATIC		2000
MEM_TOTAL		96000
GUI		0
CHILD_MP		1
CHILD_MP_ORDERS		232
FRZ_RELAX		0
FRZ_RELAX_METHOD		0
EDA_CLS_ELEC		1
EDA_CLS_DISP		0
FRZ_ORTHO_DECOMP		1
EDA2		FALSE
FRGM_METHOD		FALSE
CIS_N_ROOTS  0
LOCAL_CIS    0
CIS_RLX_DNS  1
$end
$smx
SOLVENT			WATER
$end
--------------------------------------------------------------
 ----------------------------------------------------------------
             Standard Nuclear Orientation (Angstroms)
    I     Atom           X                Y                Z
 ----------------------------------------------------------------
    1      C       1.4810714374     2.7414566664     0.1341350978
    2      C       0.3140714374     1.9124566664     0.6001350978
    3      O       0.4260714374     1.2434566664     1.6491350978
    4      O      -0.7399285626     1.9874566664    -0.0698649022
    5      H       1.3530714374     3.7574566664     0.5121350978
    6      H       1.4850714374     2.8084566664    -0.9548649022
    7      H       2.4558314374     2.3749296664     0.4883950978
 ----------------------------------------------------------------
 Nuclear Repulsion Energy =         113.01920190 hartrees
 There are       16 alpha and       16 beta electrons
 Requested basis set is def2-TZVPD
 There are 69 shells and 181 basis functions

 Total QAlloc Memory Limit  96000 MB
 Mega-Array Size      1956 MB
 MEM_STATIC part      2000 MB
 
 Citation of the SMD model:
 Marenich, A.V.; Cramer, C.J.; Truhlar, D.G.
 J. Phys. Chem. B 2009, 113, 6378-6396.
 iSolventCode=           1
 Solvent: water                                                           
 
 vradii
            1           2           3           4           5           6
    1   1.8500000   1.8500000   1.5200000   1.5200000   1.2000000   1.2000000
            7
    1   1.2000000
 Changing PCM_VDW_RADII to SMD_RADIUS
 Discretize the solute cavity surface with Lebedev spheres
	Using 110 Lebedev grid points for each H atom
	Using 194 Lebedev grid points for other atoms
	Atomic van der Waals radii will be scaled by 1.20
 Remove points where switching function is < 1.0e-08
 Keep 638 surface tesserae and discard 468 interior tesserae
 Molecular Surface Area = 79.532 Angst**2

                       Distance Matrix (Angstroms)
             C (  1)   C (  2)   O (  3)   O (  4)   H (  5)   H (  6)
   C (  2)  1.505419
   O (  3)  2.377447  1.249202
   O (  4)  2.354352  1.251176  2.206366
   H (  5)  1.091570  2.119266  2.910721  2.802191
   H (  6)  1.091066  2.142914  3.217378  2.531381  1.752174
   H (  7)  1.100000  2.193970  2.597590  3.267212  1.768622  1.792574

 
 A cutoff of  1.0D-14 yielded   2391 shell pairs
 There are     16695 function pairs (     21491 Cartesian)
 Smallest overlap matrix eigenvalue = 1.65E-05

 Scale SEOQF with 1.000000e-01/1.000000e-01/1.000000e-01

 Standard Electronic Orientation quadrupole field applied
 Nucleus-field energy     =     0.0000000082 hartrees
 Guess from superposition of atomic densities
 Warning:  Energy on first SCF cycle will be non-variational
 SAD guess density has 30.625312 electrons

 -----------------------------------------------------------------------
  General SCF calculation program by
  Eric Jon Sundstrom, Paul Horn, Yuezhi Mao, Dmitri Zuev, Alec White,
  David Stuck, Shaama M.S., Shane Yost, Joonho Lee, David Small,
  Daniel Levine, Susi Lehtola, Hugh Burton, Evgeny Epifanovsky
 -----------------------------------------------------------------------
 Exchange:     0.1670 Hartree-Fock + 1.0000 wB97X-V + LR-HF
 Correlation:  1.0000 wB97X-V
 Using Euler-Maclaurin-Lebedev (99,590) quadrature formula
 Nonlocal Correlation:  VV10 with C = 0.0100 and b = 6.00 and scale = 1.00000
 Grid used for NLC:  SG-1 standard quadrature
Energy prior to optimization (guess energy) = -227.765466600668
Begin Timing: Total SCF Calculation
begin iterations for algorithm: DIIS         
the SCF tolerance is set to 1.00e-08
    1    -227.7654666007      1.66e-02     00000 
    2    -225.6437204672      2.49e-02     00000 
    3    -228.6071313029      4.06e-03     00000 
    4    -228.6597425852      1.35e-03     00000 
    5    -228.6655059731      2.02e-04     00000 
    6    -228.6657576670      6.41e-05     00000 
    7    -228.6657745192      2.98e-05     00000 
    8    -228.6657774820      1.49e-05     00000 
    9    -228.6657784464      3.61e-06     00000 
   10    -228.6657785427      1.07e-06     00000 
   11    -228.6657785513      2.07e-07     00000 
   12    -228.6657785516      4.49e-08     00000 
   13    -228.6657785517      1.04e-08     00000 
   14    -228.6657785517      2.55e-09     00000 Convergence criterion met
Timing for Total SCF: 294.00s (wall), 577.70s (cpu)
(3)  G-ENP(liq) elect-nuc-pol free energy of system     -228.665778552 a.u.
(4)  G-CDS(liq) cavity-dispersion-solvent structure 
     free energy                                                3.8834 kcal/mol
(6)  G-S(liq) free energy of system                     -228.659590016 a.u.
E_pcm = -0.1305468160
E_cds = 0.0061885362
Multipole orders to be included
        2
        3
computing dipole RHS
computing quadrupole RHS
total number of RHS in solve_reponses: 8
RHS batch sizes
        8
Beginning Block Conjugate Gradient Iterations. Batch Number: 0
computing hessian-vector products by finite difference
              1      6.89e-01     00000 Conjugate Gradient Iteration
computing hessian-vector products by finite difference
              2      2.10e-01     00000 Conjugate Gradient Iteration
computing hessian-vector products by finite difference
              3      5.69e-02     00000 Conjugate Gradient Iteration
computing hessian-vector products by finite difference
              4      1.51e-02     00000 Conjugate Gradient Iteration
computing hessian-vector products by finite difference
              5      2.23e-03     00000 Conjugate Gradient Iteration
computing hessian-vector products by finite difference
              6      5.86e-04     00000 Conjugate Gradient Iteration
computing hessian-vector products by finite difference
              7      8.32e-05     00000 Conjugate Gradient Iteration
computing hessian-vector products by finite difference
              8      1.02e-05     00000 Conjugate Gradient Iteration
computing hessian-vector products by finite difference
              9      1.58e-06     00000 Conjugate Gradient Iteration
computing hessian-vector products by finite difference
             10      1.57e-07     00000 Conjugate Gradient Iteration
computing hessian-vector products by finite difference
             11      2.00e-08     00000 Conjugate Gradient Iteration
computing hessian-vector products by finite difference
             12      4.46e-09     00000 CG Converged
batch 0 complete
Done Calculating Responses
TESTING ORTHOGONALIZATION OF MULTIPOLE BASIS
Multipole virts passed orthogonality test
Virts Per Order
        48
        80
 
 --------------------------------------------------------------
 
                    Orbital Energies (a.u.)
 --------------------------------------------------------------
 
 Alpha MOs
 -- Occupied --
-19.1536 -19.1522 -10.3529 -10.2447  -1.1659  -1.0672  -0.8418  -0.6186
 -0.5484  -0.5472  -0.5428  -0.4824  -0.4598  -0.3662  -0.3573  -0.3458
 -- Virtual --
  0.0670   0.1000   0.1006   0.1071   0.1356   0.1428   0.1454   0.1509
  0.1578   0.1910   0.2057   0.2203   0.2375   0.2402   0.2582   0.2665
  0.2992   0.3119   0.3337   0.3470   0.3556   0.3640   0.3727   0.3779
  0.3846   0.4059   0.4170   0.4221   0.4329   0.4556   0.4659   0.4738
  0.4837   0.4885   0.5032   0.5126   0.5467   0.5671   0.5759   0.5984
  0.6218   0.6254   0.6326   0.6465   0.6488   0.6744   0.6836   0.6937
  0.7074   0.7235   0.7801   0.7928   0.8087   0.8127   0.8332   0.8467
  0.8623   0.9577   0.9791   0.9863   0.9916   1.0194   1.0536   1.0819
  1.1260   1.2160   1.2396   1.2572   1.2655   1.3056   1.3446   1.3799
  1.4232   1.5395   1.5806   1.7417   1.8060   1.8535   1.8605   1.8919
  1.9166   1.9389   1.9517   1.9560   2.0140   2.0943   2.1125   2.1711
  2.1883   2.2147   2.2875   2.3208   2.4095   2.4327   2.4564   2.4795
  2.5597   2.5736   2.6300   2.6610   2.7674   2.8105   2.8488   2.8901
  2.9393   3.0147   3.0614   3.1311   3.2041   3.2292   3.2605   3.2838
  3.3321   3.3384   3.3685   3.3964   3.4037   3.5118   3.5651   3.5798
  3.5864   3.6536   3.7032   3.7255   3.7347   3.8391   3.9543   4.0518
  4.0923   4.2109   4.3394   4.5996   4.6021   4.6557   4.7744   4.8012
  4.9642   5.2955   5.3260   5.3325   5.3453   5.4795   5.6908   5.7293
  5.7899   5.9955   6.2290   6.3052   6.3276   6.5995   6.6038   6.6781
  6.7183   6.7272   6.9298   6.9445   7.0186   7.2101   7.3463   7.3504
  7.3872  22.6021  23.7339  44.1931  44.3451
 --------------------------------------------------------------
 
          Ground-State Mulliken Net Atomic Charges

     Atom                 Charge (a.u.)
  ----------------------------------------
      1 C                    -0.598974
      2 C                     0.502662
      3 O                    -0.769059
      4 O                    -0.773257
      5 H                     0.190909
      6 H                     0.218434
      7 H                     0.229285
  ----------------------------------------
  Sum of atomic charges =    -1.000000

 -----------------------------------------------------------------
                    Cartesian Multipole Moments
 -----------------------------------------------------------------
    Charge (ESU x 10^10)
                -4.8032
    Dipole Moment (Debye)
         X       2.5538      Y      -6.4886      Z      -4.4869
       Tot       8.2919
    Quadrupole Moments (Debye-Ang)
        XX     -28.3713     XY       6.3277     YY     -34.2643
        XZ      -2.6027     YZ      -3.4871     ZZ     -35.7623
    Octopole Moments (Debye-Ang^2)
       XXX     -30.0344    XXY     -56.3034    XYY       3.7975
       YYY    -164.2807    XXZ     -15.4334    XYZ      -3.2060
       YYZ     -13.5075    XZZ     -15.4230    YZZ     -62.9506
       ZZZ     -61.5037
    Hexadecapole Moments (Debye-Ang^3)
      XXXX    -174.2132   XXXY     -82.7235   XXYY    -157.2631
      XYYY     -52.3793   YYYY    -707.6232   XXXZ     -20.3377
      XXYZ     -21.0365   XYYZ     -10.6436   YYYZ     -45.1642
      XXZZ     -58.7700   XYZZ     -34.3080   YYZZ    -155.5211
      XZZZ     -31.8645   YZZZ     -84.6208   ZZZZ    -187.4973
 -----------------------------------------------------------------
Archival summary:
1\1\nid00525\SP\ProcedureUnspecified\BasisUnspecified\223(1-,1)\meili\SunSep2606:06:022021SunSep2606:06:022021\0\\#,ProcedureUnspecified,BasisUnspecified,\\-1,1\C\O,1,1.2492\O,1,1.25118,2,123.87\C,1,1.50542,2,119.035,3,176.697,0\H,4,1.09107,1,110.22,2,148.96,0\H,4,1.09157,1,108.328,2,-94.531,0\H,4,1.1,1,113.813,2,25.1089,0\\\@

 Total job time:  4786.80s(wall), 9415.32s(cpu) 
 Sun Sep 26 06:06:04 2021

        *************************************************************
        *                                                           *
        *  Thank you very much for using Q-Chem.  Have a nice day.  *
        *                                                           *
        *************************************************************


Done Job For Fragment 0
calling putenv with: QCSCRATCH=/global/cscratch1/sd/meili 
calling putenv with: QCLOCALSCR=/tmp 
calling putenv with: QCTHREADS=32 
Creating input file /tmp/qchem5615/Frg2.input
using default PutDataFrgm: nothing
calling putenv with: QCSCRATCH=/tmp/qchem5615/ 
calling putenv with: QCLOCALSCR=/tmp/qchem5615/ 
Spawning Job For Fragment 1
                  Welcome to Q-Chem
     A Quantum Leap Into The Future Of Chemistry


 Q-Chem 5.2, Q-Chem, Inc., Pleasanton, CA (2019)

 License issued to: National Energy Research Scientific Computing Center

 Yihan Shao,  Zhengting Gan,  E. Epifanovsky,  A. T. B. Gilbert,  M. Wormit,  
 J. Kussmann,  A. W. Lange,  A. Behn,  Jia Deng,  Xintian Feng,  D. Ghosh,  
 M. Goldey,  P. R. Horn,  L. D. Jacobson,  I. Kaliman,  T. Kus,  A. Landau,  
 Jie Liu,  E. I. Proynov,  R. M. Richard,  R. P. Steele,  E. J. Sundstrom,  
 H. L. Woodcock III,  P. M. Zimmerman,  D. Zuev,  B. Albrecht,  E. Alguire,  
 S. A. Baeppler,  D. Barton,  Z. Benda,  Y. A. Bernard,  E. J. Berquist,  
 K. B. Bravaya,  H. Burton,  D. Casanova,  Chun-Min Chang,  Yunqing Chen,  
 A. Chien,  K. D. Closser,  M. P. Coons,  S. Coriani,  S. Dasgupta,  
 A. L. Dempwolff,  M. Diedenhofen,  Hainam Do,  R. G. Edgar,  Po-Tung Fang,  
 S. Faraji,  S. Fatehi,  Qingguo Feng,  K. D. Fenk,  J. Fosso-Tande,  
 J. Gayvert,  Qinghui Ge,  A. Ghysels,  G. Gidofalvi,  J. Gomes,  
 J. Gonthier,  A. Gunina,  D. Hait,  M. W. D. Hanson-Heine,  
 P. H. P. Harbach,  A. W. Hauser,  M. F. Herbst,  J. E. Herr,  
 E. G. Hohenstein,  Z. C. Holden,  Kerwin Hui,  B. C. Huynh,  T.-C. Jagau,  
 Hyunjun Ji,  B. Kaduk,  K. Khistyaev,  Jaehoon Kim,  P. Klunzinger,  K. Koh,  
 D. Kosenkov,  L. Koulias,  T. Kowalczyk,  C. M. Krauter,  A. Kunitsa,  
 Ka Un Lao,  A. Laurent,  K. V. Lawler,  Joonho Lee,  D. Lefrancois,  
 S. Lehtola,  D. S. Levine,  Yi-Pei Li,  You-Sheng Lin,  Fenglai Liu,  
 E. Livshits,  A. Luenser,  P. Manohar,  E. Mansoor,  S. F. Manzer,  
 Shan-Ping Mao,  Yuezhi Mao,  N. Mardirossian,  A. V. Marenich,  
 T. Markovich,  L. A. Martinez-Martinez,  S. A. Maurer,  N. J. Mayhall,  
 S. C. McKenzie,  J.-M. Mewes,  P. Morgante,  A. F. Morrison,  
 J. W. Mullinax,  K. Nanda,  T. S. Nguyen-Beck,  R. Olivares-Amaya,  
 J. A. Parkhill,  Zheng Pei,  T. M. Perrine,  F. Plasser,  P. Pokhilko,  
 S. Prager,  A. Prociuk,  E. Ramos,  D. R. Rehn,  F. Rob,  M. Scheurer,  
 M. Schneider,  N. Sergueev,  S. M. Sharada,  S. Sharma,  D. W. Small,  
 T. Stauch,  T. Stein,  Yu-Chuan Su,  A. J. W. Thom,  A. Tkatchenko,  
 T. Tsuchimochi,  N. M. Tubman,  L. Vogt,  M. L. Vidal,  O. Vydrov,  
 M. A. Watson,  J. Wenzel,  M. de Wergifosse,  T. A. Wesolowski,  A. White,  
 J. Witte,  A. Yamada,  Jun Yang,  K. Yao,  S. Yeganeh,  S. R. Yost,  
 Zhi-Qiang You,  A. Zech,  Igor Ying Zhang,  Xing Zhang,  Yan Zhao,  
 Ying Zhu,  B. R. Brooks,  G. K. L. Chan,  C. J. Cramer,  M. S. Gordon,  
 W. J. Hehre,  A. Klamt,  M. W. Schmidt,  C. D. Sherrill,  D. G. Truhlar,  
 A. Aspuru-Guzik,  R. Baer,  A. T. Bell,  N. A. Besley,  Jeng-Da Chai,  
 A. E. DePrince, III,  R. A. DiStasio Jr.,  A. Dreuw,  B. D. Dunietz,  
 T. R. Furlani,  Chao-Ping Hsu,  Yousung Jung,  Jing Kong,  D. S. Lambrecht,  
 WanZhen Liang,  C. Ochsenfeld,  V. A. Rassolov,  L. V. Slipchenko,  
 J. E. Subotnik,  T. Van Voorhis,  J. M. Herbert,  A. I. Krylov,  
 P. M. W. Gill,  M. Head-Gordon

 Contributors to earlier versions of Q-Chem not listed above: 
 R. D. Adamson,  B. Austin,  J. Baker,  G. J. O. Beran,  K. Brandhorst,  
 S. T. Brown,  E. F. C. Byrd,  A. K. Chakraborty,  C.-L. Cheng,  
 Siu Hung Chien,  D. M. Chipman,  D. L. Crittenden,  H. Dachsel,  
 R. J. Doerksen,  A. D. Dutoi,  L. Fusti-Molnar,  W. A. Goddard III,  
 A. Golubeva-Zadorozhnaya,  S. R. Gwaltney,  G. Hawkins,  A. Heyden,  
 S. Hirata,  G. Kedziora,  F. J. Keil,  C. Kelley,  Jihan Kim,  R. A. King,  
 R. Z. Khaliullin,  P. P. Korambath,  W. Kurlancheek,  A. M. Lee,  M. S. Lee,  
 S. V. Levchenko,  Ching Yeh Lin,  D. Liotard,  R. C. Lochan,  I. Lotan,  
 P. E. Maslen,  N. Nair,  D. P. O'Neill,  D. Neuhauser,  E. Neuscamman,  
 C. M. Oana,  R. Olson,  B. Peters,  R. Peverati,  P. A. Pieniazek,  
 Y. M. Rhee,  J. Ritchie,  M. A. Rohrdanz,  E. Rosta,  N. J. Russ,  
 H. F. Schaefer III,  N. E. Schultz,  N. Shenvi,  A. C. Simmonett,  A. Sodt,  
 D. Stuck,  K. S. Thanthiriwatte,  V. Vanovschi,  Tao Wang,  A. Warshel,  
 C. F. Williams,  Q. Wu,  X. Xu,  W. Zhang

 Please cite Q-Chem as follows:
 Y. Shao et al., Mol. Phys. 113, 184-215 (2015)
 DOI: 10.1080/00268976.2014.952696

 Q-Chem 5.2.0 for Intel X86 EM64T Linux

 Parts of Q-Chem use Armadillo 8.300.2 (Tropical Shenanigans).
 http://arma.sourceforge.net/

 Q-Chem begins on Sun Sep 26 06:06:06 2021  

Host: cori01
0

     Scratch files written to /tmp/qchem5615//Frg2//
 May1019 |scratch|qcdevops|jenkins|workspace|build_RNUM -1
Processing $rem in /global/common/cori/software/qchem/5.2/config/preferences:
	 MEM_TOTAL  96000 
NAlpha2: 32
NElect   32
Mult     1
Symmetry turned off for PCM/SM12/SMD calculation

Checking the input file for inconsistencies... 	...done.

--------------------------------------------------------------
User input:
--------------------------------------------------------------
$molecule
0 1
 6	0.9810714374	-2.3945433336	-0.2018649022
 6	-0.4419285626	-2.0075433336	-0.5918649022
 8	-1.2919285626	-2.8585433336	-0.8378649022
 7	-0.7149285626	-0.7175433336	-0.6808649022
 1	-1.6329285626	-0.4285433336	-0.9698649022
 1	-0.0419285626	-0.0125433336	-0.4368649022
 1	1.0050714374	-2.4955433336	0.8811350978
 1	1.6750714374	-1.6075433336	-0.4618649022
 1	1.3252514374	-3.3351103336	-0.6566949022
$end
$rem
EDA2		1
METHOD		WB97X-V
BASIS		DEF2-TZVPD
XC_GRID		000099000590
NL_GRID		1
UNRESTRICTED		FALSE
MAX_SCF_CYCLES		200
SYMMETRY		FALSE
SYM_IGNORE		TRUE
BASIS_LIN_DEP_THRESH		6
THRESH		14
SCF_CONVERGENCE		8
SCF_PRINT_FRGM		TRUE
SOLVENT_METHOD		SMD
!required keywords
JOBTYPE		SP
SYM_IGNORE		TRUE
SUBSYSTEM		TRUE
GEN_SCFMAN		TRUE
CHILD_INSTRUCTION		2
SYM_IGNORE		TRUE
SCFMI		0
RI_K 0		
PARI_K 0		
MIN_PARI_K 0		
IARI_K 0		
OCC_RI_K 0		
PURECART		1111
MEM_STATIC		2000
MEM_TOTAL		96000
GUI		0
CHILD_MP		1
CHILD_MP_ORDERS		232
FRZ_RELAX		0
FRZ_RELAX_METHOD		0
EDA_CLS_ELEC		1
EDA_CLS_DISP		0
FRZ_ORTHO_DECOMP		1
EDA2		FALSE
FRGM_METHOD		FALSE
CIS_N_ROOTS  0
LOCAL_CIS    0
CIS_RLX_DNS  1
$end
$smx
SOLVENT			WATER
$end
--------------------------------------------------------------
 ----------------------------------------------------------------
             Standard Nuclear Orientation (Angstroms)
    I     Atom           X                Y                Z
 ----------------------------------------------------------------
    1      C       0.9810714374    -2.3945433336    -0.2018649022
    2      C      -0.4419285626    -2.0075433336    -0.5918649022
    3      O      -1.2919285626    -2.8585433336    -0.8378649022
    4      N      -0.7149285626    -0.7175433336    -0.6808649022
    5      H      -1.6329285626    -0.4285433336    -0.9698649022
    6      H      -0.0419285626    -0.0125433336    -0.4368649022
    7      H       1.0050714374    -2.4955433336     0.8811350978
    8      H       1.6750714374    -1.6075433336    -0.4618649022
    9      H       1.3252514374    -3.3351103336    -0.6566949022
 ----------------------------------------------------------------
 Nuclear Repulsion Energy =         122.26754361 hartrees
 There are       16 alpha and       16 beta electrons
 Requested basis set is def2-TZVPD
 There are 78 shells and 196 basis functions

 Total QAlloc Memory Limit  96000 MB
 Mega-Array Size      1956 MB
 MEM_STATIC part      2000 MB
 
 Citation of the SMD model:
 Marenich, A.V.; Cramer, C.J.; Truhlar, D.G.
 J. Phys. Chem. B 2009, 113, 6378-6396.
 iSolventCode=           1
 Solvent: water                                                           
 
 vradii
            1           2           3           4           5           6
    1   1.8500000   1.8500000   1.5200000   1.8900000   1.2000000   1.2000000
            7           8           9
    1   1.2000000   1.2000000   1.2000000
 Changing PCM_VDW_RADII to SMD_RADIUS
 Discretize the solute cavity surface with Lebedev spheres
	Using 110 Lebedev grid points for each H atom
	Using 194 Lebedev grid points for other atoms
	Atomic van der Waals radii will be scaled by 1.20
 Remove points where switching function is < 1.0e-08
 Keep 721 surface tesserae and discard 605 interior tesserae
 Molecular Surface Area = 90.206 Angst**2

                       Distance Matrix (Angstroms)
             C (  1)   C (  2)   O (  3)   N (  4)   H (  5)   H (  6)
   C (  2)  1.525385
   O (  3)  2.405477  1.227688
   N (  4)  2.432732  1.321571  2.222939
   H (  5)  3.359758  2.013605  2.457357  1.004871
   H (  6)  2.603013  2.040600  3.134169  1.004734  1.728706
   H (  7)  1.087964  2.121717  2.891875  2.925667  3.828542  2.999770
   H (  8)  1.081020  2.158376  3.241831  2.559719  3.548376  2.343659
   H (  9)  1.099998  2.211235  2.666378  3.318821  4.158971  3.599577
             H (  7)   H (  8)
   H (  8)  1.743873
   H (  9)  1.781098  1.773364
 
 A cutoff of  1.0D-14 yielded   3054 shell pairs
 There are     19544 function pairs (     24702 Cartesian)
 Smallest overlap matrix eigenvalue = 1.17E-05

 Scale SEOQF with 1.000000e-01/1.000000e-01/1.000000e-01

 Standard Electronic Orientation quadrupole field applied
 Nucleus-field energy     =     0.0000000102 hartrees
 Guess from superposition of atomic densities
 Warning:  Energy on first SCF cycle will be non-variational
 SAD guess density has 31.604610 electrons

 -----------------------------------------------------------------------
  General SCF calculation program by
  Eric Jon Sundstrom, Paul Horn, Yuezhi Mao, Dmitri Zuev, Alec White,
  David Stuck, Shaama M.S., Shane Yost, Joonho Lee, David Small,
  Daniel Levine, Susi Lehtola, Hugh Burton, Evgeny Epifanovsky
 -----------------------------------------------------------------------
 Exchange:     0.1670 Hartree-Fock + 1.0000 wB97X-V + LR-HF
 Correlation:  1.0000 wB97X-V
 Using Euler-Maclaurin-Lebedev (99,590) quadrature formula
 Nonlocal Correlation:  VV10 with C = 0.0100 and b = 6.00 and scale = 1.00000
 Grid used for NLC:  SG-1 standard quadrature
Energy prior to optimization (guess energy) = -208.703801005998
Begin Timing: Total SCF Calculation
begin iterations for algorithm: DIIS         
the SCF tolerance is set to 1.00e-08
    1    -208.7038010060      1.26e-02     00000 
    2    -208.3308295121      1.54e-02     00000 
    3    -209.2362757906      2.35e-03     00000 
    4    -209.2548136340      7.68e-04     00000 
    5    -209.2578793342      1.99e-04     00000 
    6    -209.2581528979      6.70e-05     00000 
    7    -209.2581942225      2.05e-05     00000 
    8    -209.2581993964      5.95e-06     00000 
    9    -209.2582001639      2.00e-06     00000 
   10    -209.2582002144      3.17e-07     00000 
   11    -209.2582002156      1.36e-07     00000 
   12    -209.2582002157      2.21e-08     00000 
   13    -209.2582002157      4.75e-09     00000 Convergence criterion met
Timing for Total SCF: 362.00s (wall), 717.52s (cpu)
(3)  G-ENP(liq) elect-nuc-pol free energy of system     -209.258200216 a.u.
(4)  G-CDS(liq) cavity-dispersion-solvent structure 
     free energy                                                3.5611 kcal/mol
(6)  G-S(liq) free energy of system                     -209.252525205 a.u.
E_pcm = -0.0300679466
E_cds = 0.0056750107
Multipole orders to be included
        2
        3
computing dipole RHS
computing quadrupole RHS
total number of RHS in solve_reponses: 8
RHS batch sizes
        8
Beginning Block Conjugate Gradient Iterations. Batch Number: 0
computing hessian-vector products by finite difference
              1      6.48e-01     00000 Conjugate Gradient Iteration
computing hessian-vector products by finite difference
              2      2.18e-01     00000 Conjugate Gradient Iteration
computing hessian-vector products by finite difference
              3      6.16e-02     00000 Conjugate Gradient Iteration
computing hessian-vector products by finite difference
              4      1.55e-02     00000 Conjugate Gradient Iteration
computing hessian-vector products by finite difference
              5      2.08e-03     00000 Conjugate Gradient Iteration
computing hessian-vector products by finite difference
              6      4.68e-04     00000 Conjugate Gradient Iteration
computing hessian-vector products by finite difference
              7      6.23e-05     00000 Conjugate Gradient Iteration
computing hessian-vector products by finite difference
              8      7.08e-06     00000 Conjugate Gradient Iteration
computing hessian-vector products by finite difference
              9      1.02e-06     00000 Conjugate Gradient Iteration
computing hessian-vector products by finite difference
             10      1.09e-07     00000 Conjugate Gradient Iteration
computing hessian-vector products by finite difference
             11      1.18e-08     00000 Conjugate Gradient Iteration
computing hessian-vector products by finite difference
             12      3.81e-09     00000 CG Converged
batch 0 complete
Done Calculating Responses
TESTING ORTHOGONALIZATION OF MULTIPOLE BASIS
Multipole virts passed orthogonality test
Virts Per Order
        48
        80
 
 --------------------------------------------------------------
 
                    Orbital Energies (a.u.)
 --------------------------------------------------------------
 
 Alpha MOs
 -- Occupied --
-19.1827 -14.4259 -10.3787 -10.2625  -1.1776  -1.0424  -0.8623  -0.7120
 -0.6515  -0.5921  -0.5641  -0.5203  -0.5000  -0.4775  -0.3837  -0.3753
 -- Virtual --
  0.0647   0.0958   0.0972   0.1033   0.1309   0.1334   0.1407   0.1492
  0.1789   0.1872   0.2000   0.2189   0.2287   0.2461   0.2508   0.2637
  0.2690   0.2781   0.2983   0.3151   0.3378   0.3385   0.3483   0.3496
  0.3610   0.3664   0.3743   0.3786   0.3965   0.4039   0.4168   0.4202
  0.4370   0.4564   0.4586   0.4767   0.4842   0.4943   0.4983   0.5063
  0.5257   0.5339   0.5464   0.5790   0.5835   0.5983   0.6186   0.6358
  0.6418   0.6531   0.6743   0.6928   0.7085   0.7194   0.7284   0.7727
  0.7759   0.7867   0.8003   0.8190   0.8209   0.8406   0.8505   0.8748
  0.9166   0.9534   0.9849   0.9889   1.0057   1.0382   1.0651   1.0806
  1.1057   1.1859   1.2267   1.2434   1.2880   1.3216   1.3361   1.3799
  1.4806   1.4956   1.5077   1.6239   1.6828   1.7314   1.7472   1.8126
  1.8504   1.8646   1.9028   1.9213   1.9276   1.9548   1.9907   2.0400
  2.0600   2.0963   2.1414   2.1621   2.2019   2.2388   2.3109   2.3768
  2.3886   2.4143   2.4432   2.4690   2.5528   2.5885   2.5975   2.6481
  2.6977   2.7097   2.7624   2.8123   2.8325   2.8957   2.9691   2.9930
  3.0574   3.1088   3.1442   3.1589   3.2040   3.2344   3.2688   3.2761
  3.3195   3.3400   3.3799   3.4031   3.4514   3.5102   3.5487   3.5730
  3.6247   3.6524   3.6654   3.7927   3.8847   3.9492   4.0045   4.0464
  4.0786   4.2136   4.2917   4.4134   4.5078   4.6050   4.6186   4.6764
  4.7780   4.8936   4.8980   4.9370   5.1472   5.1808   5.2659   5.3481
  5.3907   5.4053   5.4190   5.4958   5.5446   5.7648   5.9160   6.1700
  6.2521   6.5250   6.6361   6.7342   6.8213   6.9713   7.2191   7.3158
 22.5891  23.5768  32.4189  44.3138
 --------------------------------------------------------------
 
          Ground-State Mulliken Net Atomic Charges

     Atom                 Charge (a.u.)
  ----------------------------------------
      1 C                    -0.663991
      2 C                     0.464520
      3 O                    -0.693096
      4 N                    -0.294692
      5 H                     0.246329
      6 H                     0.231770
      7 H                     0.212937
      8 H                     0.243070
      9 H                     0.253154
  ----------------------------------------
  Sum of atomic charges =     0.000000

 -----------------------------------------------------------------
                    Cartesian Multipole Moments
 -----------------------------------------------------------------
    Charge (ESU x 10^10)
                 0.0000
    Dipole Moment (Debye)
         X       3.1963      Y       4.9678      Z       1.0128
       Tot       5.9934
    Quadrupole Moments (Debye-Ang)
        XX     -26.5172     XY     -12.4091     YY     -41.4666
        XZ      -1.7702     YZ      -5.8988     ZZ     -26.1163
    Octopole Moments (Debye-Ang^2)
       XXX      24.6237    XXY      62.7912    XYY      45.3266
       YYY     203.4808    XXZ      14.4031    XYZ       9.8861
       YYZ      31.6012    XZZ       8.8900    YZZ      53.8174
       ZZZ      44.1802
    Hexadecapole Moments (Debye-Ang^3)
      XXXX    -174.2471   XXXY     -58.2599   XXYY    -191.3015
      XYYY    -151.6525   YYYY    -907.6708   XXXZ     -31.7946
      XXYZ     -38.2121   XYYZ     -41.6117   YYYZ    -132.6452
      XXZZ     -44.1683   XYZZ     -21.2079   YYZZ    -149.7631
      XZZZ     -30.8434   YZZZ     -86.9321   ZZZZ     -90.3292
 -----------------------------------------------------------------
Archival summary:
1\1\nid00525\SP\ProcedureUnspecified\BasisUnspecified\1125\meili\SunSep2607:51:072021SunSep2607:51:072021\0\\#,ProcedureUnspecified,BasisUnspecified,\\0,1\C\O,1,1.22769\N,1,1.32157,2,121.339\H,3,1.00473,1,122.019,2,176.811,0\H,3,1.00487,1,119.262,2,-0.977717,0\C,1,1.52538,2,121.417,3,-178.59,0\H,6,1.08102,1,110.653,2,153.893,0\H,6,1.08796,1,107.376,2,-89.6285,0\H,6,1.1,1,113.773,2,31.0559,0\\\@

 Total job time:  6302.52s(wall), 12393.41s(cpu) 
 Sun Sep 26 07:51:08 2021

        *************************************************************
        *                                                           *
        *  Thank you very much for using Q-Chem.  Have a nice day.  *
        *                                                           *
        *************************************************************


Done Job For Fragment 1
calling putenv with: QCSCRATCH=/global/cscratch1/sd/meili 
calling putenv with: QCLOCALSCR=/tmp 
calling putenv with: QCTHREADS=32 
Doing General SCFMI
 Exchange:     0.1670 Hartree-Fock + 1.0000 wB97X-V + LR-HF
 Correlation:  1.0000 wB97X-V
 Using Euler-Maclaurin-Lebedev (99,590) quadrature formula
 Nonlocal Correlation:  VV10 with C = 0.0100 and b = 6.00 and scale = 1.00000
 Grid used for NLC:  SG-1 standard quadrature
performing fock build before subrot guess so that all methods have access
Printing subrot_rss_gen Method Specification:
Occupied Subspace Method is 0
Virtual Subspace Method is 0
Energy of the unrelaxed supersystem initial determinant -437.788465968063
performing fock build before subrot guess so that all methods have access
Printing subrot_rss_gen Method Specification:
Occupied Subspace Method is 0
Virtual Subspace Method is 0
Energy of the unrelaxed supersystem initial determinant w/ solvent -437.919219845764
write pseudocanon occs and virts to disk
write pseudocanon orbital energies to disk
Tolerance of ortho_decomp_scf: 1.00e-06
GDM subspace size: 20
Beginning the Orthogonal Decomposition of the Initial Supersystem Wavefunction
    1    -437.7159321752      7.21e-02     ortho_decomp Preconditoned Steepest Descent
    2    -437.7228983431      1.93e-03     ortho_decomp BFGS Step
    3    -437.7229246868      1.56e-04     ortho_decomp BFGS Step
    4    -437.7229247355      6.73e-06     ortho_decomp BFGS Step
    5    -437.7229247357      2.59e-07     ortho_decomp 00000 Convergence criterion met
 Hartree-Fock
 Hartree-Fock
 Hartree-Fock
Doing General SCFMI
 Exchange:     0.1670 Hartree-Fock + 1.0000 wB97X-V + LR-HF
 Correlation:  1.0000 wB97X-V
 Using Euler-Maclaurin-Lebedev (99,590) quadrature formula
 Nonlocal Correlation:  VV10 with C = 0.0100 and b = 6.00 and scale = 1.00000
 Grid used for NLC:  SG-1 standard quadrature
performing fock build at end of subrot_r(subrot) constructor so that all methods have access
<S^2> of initial wavefunction before polarization iterations 0.0000000000
Beginning iterations for the determination of the polarized wavefunction
Energy prior to optimization (guess energy) = -437.919219845764
Begin Timing: Total SCF Calculation
begin iterations for algorithm: DIIS         
the SCF tolerance is set to 1.00e-08
    1    -437.9192198458      1.48e-04     00000 
    2    -437.9199205622      9.78e-05     00000 
    3    -437.9200645068      3.81e-05     00000 
    4    -437.9201034469      1.24e-05     00000 
    5    -437.9201082671      6.76e-06     00000 
    6    -437.9201099546      2.79e-06     00000 
    7    -437.9201103521      1.50e-06     00000 
    8    -437.9201104180      6.61e-07     00000 
    9    -437.9201104273      2.62e-07     00000 
   10    -437.9201104282      1.39e-07     00000 
   11    -437.9201104290      8.35e-08     00000 
   12    -437.9201104291      3.56e-08     00000 
   13    -437.9201104292      1.28e-08     00000 
   14    -437.9201104292      6.13e-09     00000 Convergence criterion met
write pseudocanon occs and virts to disk
write pseudocanon orbital energies to disk
Timing for Total SCF: 2079.00s (wall), 4132.62s (cpu)
<S^2> of polarized wavefunction after polarization iterations 0.0000000000
relaxing scfmi constraint to allow all rotations in the entire AO span
Doing General SCFMI
 Exchange:     0.1670 Hartree-Fock + 1.0000 wB97X-V + LR-HF
 Correlation:  1.0000 wB97X-V
 Using Euler-Maclaurin-Lebedev (99,590) quadrature formula
 Nonlocal Correlation:  VV10 with C = 0.0100 and b = 6.00 and scale = 1.00000
 Grid used for NLC:  SG-1 standard quadrature
performing fock build at end of subrot_r(subrot) constructor so that all methods have access
<S^2> of polarized wavefunction before ct-allowed iterations 0.0000000000
Beginning iterations for the determination of the CT-Allowed wavefunction
Energy prior to optimization (guess energy) = -437.920110429166
Begin Timing: Total SCF Calculation
begin iterations for algorithm: DIIS         
the SCF tolerance is set to 1.00e-08
    1    -437.9201104292      1.67e-04     00000 
    2    -437.9221417204      2.10e-05     00000 
    3    -437.9222071727      6.27e-06     00000 
    4    -437.9222091845      5.01e-06     00000 
    5    -437.9222104694      7.34e-07     00000 
    6    -437.9222105075      3.42e-07     00000 
    7    -437.9222105171      1.11e-07     00000 
    8    -437.9222105181      2.88e-08     00000 
    9    -437.9222105182      1.29e-08     00000 
   10    -437.9222105182      4.23e-09     00000 Convergence criterion met
write pseudocanon occs and virts to disk
write pseudocanon orbital energies to disk
Timing for Total SCF: 1452.00s (wall), 2888.16s (cpu)
<S^2> of ct_allowed wavefunction after ct-allowed iterations 0.0000000000

================================
        Results of EDA2         
================================
Basic EDA Quantities
--------------------
Fragment Energies (Ha):
1 -228.6595900155
2 -209.2525252050
--------------------
  E_prp (kJ/mol) = 0.0000
  E_sol (kJ/mol) = 74.2927
  E_frz (kJ/mol) = -65.9060
  E_pol (kJ/mol) = -2.3383
  E_vct (kJ/mol) = -5.5138
  E_int (kJ/mol) = 0.5346
--------------------


Initial Wavefunction Decomposition
--------------------
  --------------------
  Orthogonal Fragment Subspace Decomposition:
  --------------------
     E_elec   (ELEC)   (kJ/mol) = -135.1056
     E_pauli  (PAULI)  (kJ/mol) = 87.0764
     E_disp   (DISP)   (kJ/mol) = -17.8768
     --------------------
     Terms summing to E_pauli:
     --------------------
        E_kep_pauli       (kJ/mol) = 106.1746
        E_disp_free_pauli (kJ/mol) = -19.0982
  --------------------
  Classical Frozen Decomposition:
  --------------------
     E_cls_elec  (CLS ELEC)  (kJ/mol) = -98.9894
     E_cls_pauli (CLS PAULI) (kJ/mol) = 33.0834
    [E_mod_pauli (MOD PAULI) (kJ/mol) = 50.9602 (CLS PAULI - DISP from orthogonal decomposition) ]
  --------------------
--------------------

Simplified EDA Summary (kJ/mol)
--------------------
 PREPARATION     0.0000
 SOLVATION       74.2927
 FROZEN          -48.0292      (does not include dispersion)
[PAULI           87.0764]     (if this is negligible, then frozen describes electrostatics)
 DISPERSION      -17.8768
 POLARIZATION    -2.3383
 CHARGE TRANSFER -5.5138
 TOTAL           0.5346     (PRP + SOL + FRZ + DISP + POL + CT)
--------------------
 
 --------------------------------------------------------------
 
                    Orbital Energies (a.u.)
 --------------------------------------------------------------
 
 Alpha MOs
 -- Occupied --
-19.1786 -19.1572 -19.1544 -14.4170 -10.3732 -10.3549 -10.2600 -10.2456
 -1.1737  -1.1700  -1.0710  -1.0356  -0.8592  -0.8432  -0.7075  -0.6482
 -0.6208  -0.5888  -0.5609  -0.5509  -0.5499  -0.5447  -0.5149  -0.4973
 -0.4838  -0.4744  -0.4604  -0.3810  -0.3750  -0.3662  -0.3559  -0.3486
 -- Virtual --
  0.0606   0.0799   0.0887   0.0905   0.1059   0.1090   0.1135   0.1278
  0.1304   0.1318   0.1386   0.1506   0.1534   0.1555   0.1602   0.1791
  0.1898   0.2021   0.2056   0.2068   0.2185   0.2280   0.2305   0.2397
  0.2450   0.2556   0.2638   0.2717   0.2757   0.2775   0.2906   0.3009
  0.3096   0.3158   0.3236   0.3296   0.3378   0.3427   0.3456   0.3523
  0.3571   0.3614   0.3679   0.3692   0.3729   0.3805   0.3816   0.3854
  0.3938   0.3957   0.4043   0.4082   0.4207   0.4265   0.4355   0.4425
  0.4450   0.4480   0.4563   0.4662   0.4697   0.4777   0.4857   0.4896
  0.4920   0.5029   0.5052   0.5120   0.5215   0.5250   0.5277   0.5374
  0.5532   0.5590   0.5658   0.5747   0.5793   0.5945   0.5990   0.6028
  0.6095   0.6182   0.6303   0.6389   0.6453   0.6459   0.6642   0.6650
  0.6763   0.6768   0.6865   0.6918   0.6995   0.7014   0.7178   0.7221
  0.7273   0.7446   0.7538   0.7644   0.7687   0.7746   0.7877   0.7971
  0.8051   0.8121   0.8171   0.8269   0.8359   0.8397   0.8469   0.8488
  0.8661   0.8717   0.8797   0.8878   0.9078   0.9263   0.9411   0.9559
  0.9722   0.9787   0.9882   1.0029   1.0192   1.0342   1.0400   1.0605
  1.0655   1.0860   1.0968   1.1091   1.1249   1.1527   1.1576   1.1877
  1.1951   1.2014   1.2303   1.2679   1.2769   1.2941   1.3065   1.3121
  1.3327   1.3365   1.3579   1.3685   1.3822   1.3951   1.4132   1.4396
  1.4620   1.5096   1.5357   1.5562   1.5896   1.6239   1.6634   1.7276
  1.7542   1.7725   1.7852   1.8496   1.8741   1.8872   1.8913   1.9094
  1.9331   1.9421   1.9468   1.9503   1.9634   1.9784   1.9833   1.9937
  2.0012   2.0094   2.0189   2.0634   2.0759   2.0932   2.1133   2.1231
  2.1741   2.1829   2.1948   2.2106   2.2400   2.2526   2.2749   2.3210
  2.3277   2.3441   2.3823   2.4002   2.4102   2.4420   2.4625   2.4707
  2.4930   2.4990   2.5219   2.5455   2.5970   2.6000   2.6252   2.6320
  2.6448   2.6718   2.6902   2.6966   2.7337   2.7746   2.7890   2.7954
  2.8430   2.8627   2.8698   2.8757   2.9169   2.9236   2.9699   3.0082
  3.0286   3.0997   3.1178   3.1586   3.1603   3.1705   3.1889   3.2076
  3.2248   3.2341   3.2571   3.2698   3.2945   3.3021   3.3181   3.3319
  3.3513   3.3634   3.3702   3.3836   3.4037   3.4122   3.4266   3.4290
  3.4351   3.4829   3.5421   3.5483   3.5760   3.6055   3.6227   3.6375
  3.6469   3.6688   3.6734   3.6978   3.7108   3.7385   3.7717   3.8015
  3.8241   3.8548   3.9126   3.9598   4.0088   4.0343   4.0563   4.0737
  4.1125   4.1169   4.2157   4.2331   4.3076   4.3564   4.4510   4.5310
  4.6079   4.6132   4.6345   4.6515   4.6730   4.6913   4.7967   4.8063
  4.8350   4.9205   4.9397   4.9778   5.0231   5.2005   5.2093   5.2776
  5.2973   5.3371   5.3396   5.3631   5.3836   5.4151   5.4451   5.4646
  5.4996   5.5785   5.6052   5.6957   5.7387   5.7734   5.7914   5.9373
  5.9984   6.2230   6.2490   6.2576   6.3119   6.3323   6.5343   6.6161
  6.6439   6.6530   6.7246   6.7472   6.7596   6.7802   6.8293   6.9437
  6.9835   7.0204   7.0478   7.2305   7.2360   7.3305   7.3494   7.3805
  7.4053  22.6126  22.6400  23.6183  23.7684  32.5926  44.3610  44.3969
 44.4233
 --------------------------------------------------------------
 
          Ground-State Mulliken Net Atomic Charges

     Atom                 Charge (a.u.)
  ----------------------------------------
      1 C                    -0.811424
      2 C                     0.652487
      3 O                    -0.756059
      4 O                    -0.772333
      5 H                     0.245005
      6 H                     0.220179
      7 H                     0.250213
      8 C                    -0.672634
      9 C                     0.480713
     10 O                    -0.711870
     11 N                    -0.119766
     12 H                     0.213863
     13 H                     0.060896
     14 H                     0.206980
     15 H                     0.250676
     16 H                     0.263075
  ----------------------------------------
  Sum of atomic charges =    -1.000000

 -----------------------------------------------------------------
                    Cartesian Multipole Moments
 -----------------------------------------------------------------
    Charge (ESU x 10^10)
                -4.8032
    Dipole Moment (Debye)
         X       5.6811      Y      -1.1715      Z      -3.3359
       Tot       6.6915
    Quadrupole Moments (Debye-Ang)
        XX     -54.8736     XY      -6.3026     YY     -76.0743
        XZ      -4.3919     YZ      -9.4534     ZZ     -61.7581
    Octopole Moments (Debye-Ang^2)
       XXX      -5.4059    XXY       7.4024    XYY      49.5537
       YYY      42.6833    XXZ      -0.8092    XYZ       6.9463
       YYZ      18.8231    XZZ      -6.3820    YZZ      -8.3788
       ZZZ     -16.5377
    Hexadecapole Moments (Debye-Ang^3)
      XXXX    -348.5685   XXXY    -141.4600   XXYY    -349.1460
      XYYY    -205.2691   YYYY   -1619.0814   XXXZ     -52.2719
      XXYZ     -59.4937   XYYZ     -52.5821   YYYZ    -178.7807
      XXZZ    -102.9474   XYZZ     -55.6418   YYZZ    -305.3464
      XZZZ     -62.6678   YZZZ    -171.2385   ZZZZ    -276.8694
 -----------------------------------------------------------------
Archival summary:
1\1\nid00525\SP\ProcedureUnspecified\BasisUnspecified\3148(1-,1)\meili\SunSep2609:30:112021SunSep2609:30:112021\0\\#,ProcedureUnspecified,BasisUnspecified,\\-1,1\O\C,1,1.25118\O,2,1.2492,1,123.87\C,2,1.50542,1,117.017,3,-176.758,0\H,4,1.09107,2,110.22,1,-34.1189,0\H,4,1.09157,2,108.328,1,82.3904,0\H,4,1.1,2,113.813,1,-157.97,0\H,1,2.14986,2,76.2399,3,-71.8359,0\N,8,1.00473,1,118.473,2,153.734,0\H,9,1.00487,8,118.683,1,15.2877,0\C,9,1.32157,8,122.019,1,-162.513,0\O,11,1.22769,9,121.339,8,176.811,0\C,11,1.52538,9,117.23,8,-4.54276,0\H,13,1.08102,11,110.653,9,-24.7522,0\H,13,1.08796,11,107.376,9,91.7262,0\H,13,1.1,11,113.773,9,-147.589,0\\\@

 Total job time:  17039.89s(wall), 11787.67s(cpu) 
 Sun Sep 26 09:30:13 2021

        *************************************************************
        *                                                           *
        *  Thank you very much for using Q-Chem.  Have a nice day.  *
        *                                                           *
        *************************************************************


