
Running Job 1 of 1 SSI-008PHE-101HIE-1_PCM_TZVPD.in
qchem SSI-008PHE-101HIE-1_PCM_TZVPD.in_9945.0 /tmp/qchem9945/ 0
/global/common/cori/software/qchem/5.2/exe/qcprog.exe_s SSI-008PHE-101HIE-1_PCM_TZVPD.in_9945.0 /tmp/qchem9945/
                  Welcome to Q-Chem
     A Quantum Leap Into The Future Of Chemistry


 Q-Chem 5.2, Q-Chem, Inc., Pleasanton, CA (2019)

 License issued to: National Energy Research Scientific Computing Center

 Yihan Shao,  Zhengting Gan,  E. Epifanovsky,  A. T. B. Gilbert,  M. Wormit,  
 J. Kussmann,  A. W. Lange,  A. Behn,  Jia Deng,  Xintian Feng,  D. Ghosh,  
 M. Goldey,  P. R. Horn,  L. D. Jacobson,  I. Kaliman,  T. Kus,  A. Landau,  
 Jie Liu,  E. I. Proynov,  R. M. Richard,  R. P. Steele,  E. J. Sundstrom,  
 H. L. Woodcock III,  P. M. Zimmerman,  D. Zuev,  B. Albrecht,  E. Alguire,  
 S. A. Baeppler,  D. Barton,  Z. Benda,  Y. A. Bernard,  E. J. Berquist,  
 K. B. Bravaya,  H. Burton,  D. Casanova,  Chun-Min Chang,  Yunqing Chen,  
 A. Chien,  K. D. Closser,  M. P. Coons,  S. Coriani,  S. Dasgupta,  
 A. L. Dempwolff,  M. Diedenhofen,  Hainam Do,  R. G. Edgar,  Po-Tung Fang,  
 S. Faraji,  S. Fatehi,  Qingguo Feng,  K. D. Fenk,  J. Fosso-Tande,  
 J. Gayvert,  Qinghui Ge,  A. Ghysels,  G. Gidofalvi,  J. Gomes,  
 J. Gonthier,  A. Gunina,  D. Hait,  M. W. D. Hanson-Heine,  
 P. H. P. Harbach,  A. W. Hauser,  M. F. Herbst,  J. E. Herr,  
 E. G. Hohenstein,  Z. C. Holden,  Kerwin Hui,  B. C. Huynh,  T.-C. Jagau,  
 Hyunjun Ji,  B. Kaduk,  K. Khistyaev,  Jaehoon Kim,  P. Klunzinger,  K. Koh,  
 D. Kosenkov,  L. Koulias,  T. Kowalczyk,  C. M. Krauter,  A. Kunitsa,  
 Ka Un Lao,  A. Laurent,  K. V. Lawler,  Joonho Lee,  D. Lefrancois,  
 S. Lehtola,  D. S. Levine,  Yi-Pei Li,  You-Sheng Lin,  Fenglai Liu,  
 E. Livshits,  A. Luenser,  P. Manohar,  E. Mansoor,  S. F. Manzer,  
 Shan-Ping Mao,  Yuezhi Mao,  N. Mardirossian,  A. V. Marenich,  
 T. Markovich,  L. A. Martinez-Martinez,  S. A. Maurer,  N. J. Mayhall,  
 S. C. McKenzie,  J.-M. Mewes,  P. Morgante,  A. F. Morrison,  
 J. W. Mullinax,  K. Nanda,  T. S. Nguyen-Beck,  R. Olivares-Amaya,  
 J. A. Parkhill,  Zheng Pei,  T. M. Perrine,  F. Plasser,  P. Pokhilko,  
 S. Prager,  A. Prociuk,  E. Ramos,  D. R. Rehn,  F. Rob,  M. Scheurer,  
 M. Schneider,  N. Sergueev,  S. M. Sharada,  S. Sharma,  D. W. Small,  
 T. Stauch,  T. Stein,  Yu-Chuan Su,  A. J. W. Thom,  A. Tkatchenko,  
 T. Tsuchimochi,  N. M. Tubman,  L. Vogt,  M. L. Vidal,  O. Vydrov,  
 M. A. Watson,  J. Wenzel,  M. de Wergifosse,  T. A. Wesolowski,  A. White,  
 J. Witte,  A. Yamada,  Jun Yang,  K. Yao,  S. Yeganeh,  S. R. Yost,  
 Zhi-Qiang You,  A. Zech,  Igor Ying Zhang,  Xing Zhang,  Yan Zhao,  
 Ying Zhu,  B. R. Brooks,  G. K. L. Chan,  C. J. Cramer,  M. S. Gordon,  
 W. J. Hehre,  A. Klamt,  M. W. Schmidt,  C. D. Sherrill,  D. G. Truhlar,  
 A. Aspuru-Guzik,  R. Baer,  A. T. Bell,  N. A. Besley,  Jeng-Da Chai,  
 A. E. DePrince, III,  R. A. DiStasio Jr.,  A. Dreuw,  B. D. Dunietz,  
 T. R. Furlani,  Chao-Ping Hsu,  Yousung Jung,  Jing Kong,  D. S. Lambrecht,  
 WanZhen Liang,  C. Ochsenfeld,  V. A. Rassolov,  L. V. Slipchenko,  
 J. E. Subotnik,  T. Van Voorhis,  J. M. Herbert,  A. I. Krylov,  
 P. M. W. Gill,  M. Head-Gordon

 Contributors to earlier versions of Q-Chem not listed above: 
 R. D. Adamson,  B. Austin,  J. Baker,  G. J. O. Beran,  K. Brandhorst,  
 S. T. Brown,  E. F. C. Byrd,  A. K. Chakraborty,  C.-L. Cheng,  
 Siu Hung Chien,  D. M. Chipman,  D. L. Crittenden,  H. Dachsel,  
 R. J. Doerksen,  A. D. Dutoi,  L. Fusti-Molnar,  W. A. Goddard III,  
 A. Golubeva-Zadorozhnaya,  S. R. Gwaltney,  G. Hawkins,  A. Heyden,  
 S. Hirata,  G. Kedziora,  F. J. Keil,  C. Kelley,  Jihan Kim,  R. A. King,  
 R. Z. Khaliullin,  P. P. Korambath,  W. Kurlancheek,  A. M. Lee,  M. S. Lee,  
 S. V. Levchenko,  Ching Yeh Lin,  D. Liotard,  R. C. Lochan,  I. Lotan,  
 P. E. Maslen,  N. Nair,  D. P. O'Neill,  D. Neuhauser,  E. Neuscamman,  
 C. M. Oana,  R. Olson,  B. Peters,  R. Peverati,  P. A. Pieniazek,  
 Y. M. Rhee,  J. Ritchie,  M. A. Rohrdanz,  E. Rosta,  N. J. Russ,  
 H. F. Schaefer III,  N. E. Schultz,  N. Shenvi,  A. C. Simmonett,  A. Sodt,  
 D. Stuck,  K. S. Thanthiriwatte,  V. Vanovschi,  Tao Wang,  A. Warshel,  
 C. F. Williams,  Q. Wu,  X. Xu,  W. Zhang

 Please cite Q-Chem as follows:
 Y. Shao et al., Mol. Phys. 113, 184-215 (2015)
 DOI: 10.1080/00268976.2014.952696

 Q-Chem 5.2.0 for Intel X86 EM64T Linux

 Parts of Q-Chem use Armadillo 8.300.2 (Tropical Shenanigans).
 http://arma.sourceforge.net/

 Q-Chem begins on Sun Sep 26 02:04:19 2021  

Host: cori01
0

     Scratch files written to /tmp/qchem9945//
 May1019 |scratch|qcdevops|jenkins|workspace|build_RNUM -1
Processing $rem in /global/common/cori/software/qchem/5.2/config/preferences:
	 MEM_TOTAL  96000 
NAlpha2: 102
NElect   102
Mult     1
Symmetry turned off for PCM/SM12/SMD calculation

 Q-Chem warning in module libgen/rem_setup.C, line 2803:

 Neither GIA nor STOLL is specified by user. Use STOLL as the default


Checking the input file for inconsistencies... 	...done.

--------------------------------------------------------------
User input:
--------------------------------------------------------------
$comment
SSI-008PHE-101HIE-1.pdb
$end

$molecule
0 1
--
0 1
C   -1.743782851900   -2.084985825794   -3.948970853968
C   -0.174782851900   -0.169985825794   -1.097970853968
C    1.097217148100    0.086014174206   -1.511970853968
C   -1.063782851900   -0.899985825794   -1.857970853968
C   -0.725782851900   -1.308985825794   -3.117970853968
C    1.506217148100   -0.375985825794   -2.744970853968
C    0.592217148100   -1.047985825794   -3.545970853968
H   -0.499782851900    0.182014174206   -0.139970853968
H    1.777217148100    0.640014174206   -0.877970853968
H   -2.021782851900   -1.161985825794   -1.445970853968
H    2.513217148100   -0.190985825794   -3.093970853968
H   -2.735782851900   -1.661985825794   -3.785970853968
H   -1.756782851900   -3.110985825794   -3.590970853968
H    0.928217148100   -1.363985825794   -4.518970853968
H   -1.528332851900   -2.090745825794   -5.027650853968
--
0 1
C    0.152217148100   -0.968985825794    2.523029146032
C   -0.766782851900   -1.512985825794    3.640029146032
C    0.254217148100    0.517014174206    2.411029146032
C    1.340217148100    1.347014174206    2.480029146032
C   -0.384782851900    2.562014174206    1.883029146032
N   -0.800782851900    1.295014174206    2.015029146032
N    0.911217148100    2.631014174206    2.181029146032
H    1.151217148100   -1.388985825794    2.644029146032
H   -0.238782851900   -1.325985825794    1.573029146032
H   -0.927782851900   -2.571985825794    3.443029146032
H    2.354217148100    1.040014174206    2.702029146032
H   -1.001782851900    3.395014174206    1.578029146032
H    1.488217148100    3.463014174206    2.122029146032
H   -1.747242851900   -1.018615825794    3.705594146032
H   -0.272232851900   -1.448915825794    4.620495146032
$end

$rem
JOBTYPE			EDA
EDA2			1
method			wB97X-V
BASIS			def2-TZVPD
XC_GRID			000099000590
NL_GRID			1
UNRESTRICTED		FALSE
MAX_SCF_CYCLES		200
SYMMETRY		FALSE
SYM_IGNORE		TRUE
MEM_STATIC		2000
BASIS_LIN_DEP_THRESH 	6
THRESH 			14
SCF_CONVERGENCE 	8
SCF_PRINT_FRGM 		TRUE
SOLVENT_METHOD          PCM
$end

$PCM
THEORY                  CPCM
METHOD                  SWIG
SOLVER                  INVERSION
RADII                   UFF
HPOINTS                 302
HEAVYPOINTS             302
PRINTLEVEL              0
$END

$SOLVENT
DIELECTRIC              78.390000 ! water
$END
--------------------------------------------------------------
 ----------------------------------------------------------------
             Standard Nuclear Orientation (Angstroms)
    I     Atom           X                Y                Z
 ----------------------------------------------------------------
    1      C      -1.7437828519    -2.0849858258    -3.9489708540
    2      C      -0.1747828519    -0.1699858258    -1.0979708540
    3      C       1.0972171481     0.0860141742    -1.5119708540
    4      C      -1.0637828519    -0.8999858258    -1.8579708540
    5      C      -0.7257828519    -1.3089858258    -3.1179708540
    6      C       1.5062171481    -0.3759858258    -2.7449708540
    7      C       0.5922171481    -1.0479858258    -3.5459708540
    8      H      -0.4997828519     0.1820141742    -0.1399708540
    9      H       1.7772171481     0.6400141742    -0.8779708540
   10      H      -2.0217828519    -1.1619858258    -1.4459708540
   11      H       2.5132171481    -0.1909858258    -3.0939708540
   12      H      -2.7357828519    -1.6619858258    -3.7859708540
   13      H      -1.7567828519    -3.1109858258    -3.5909708540
   14      H       0.9282171481    -1.3639858258    -4.5189708540
   15      H      -1.5283328519    -2.0907458258    -5.0276508540
   16      C       0.1522171481    -0.9689858258     2.5230291460
   17      C      -0.7667828519    -1.5129858258     3.6400291460
   18      C       0.2542171481     0.5170141742     2.4110291460
   19      C       1.3402171481     1.3470141742     2.4800291460
   20      C      -0.3847828519     2.5620141742     1.8830291460
   21      N      -0.8007828519     1.2950141742     2.0150291460
   22      N       0.9112171481     2.6310141742     2.1810291460
   23      H       1.1512171481    -1.3889858258     2.6440291460
   24      H      -0.2387828519    -1.3259858258     1.5730291460
   25      H      -0.9277828519    -2.5719858258     3.4430291460
   26      H       2.3542171481     1.0400141742     2.7020291460
   27      H      -1.0017828519     3.3950141742     1.5780291460
   28      H       1.4882171481     3.4630141742     2.1220291460
   29      H      -1.7472428519    -1.0186158258     3.7055941460
   30      H      -0.2722328519    -1.4489158258     4.6204951460
 ----------------------------------------------------------------
 Nuclear Repulsion Energy =         811.43607093 hartrees
 There are       51 alpha and       51 beta electrons
 Requested basis set is def2-TZVPD
 There are 262 shells and 662 basis functions

 Total QAlloc Memory Limit  96000 MB
 Mega-Array Size      1956 MB
 MEM_STATIC part      2000 MB
 Discretize the solute cavity surface with Lebedev spheres
	Using 302 Lebedev grid points for each H atom
	Using 302 Lebedev grid points for other atoms
	Atomic van der Waals radii will be scaled by 1.20
 Remove points where switching function is < 1.0e-08
 Keep 3373 surface tesserae and discard 5687 interior tesserae
 Molecular Surface Area = 325.296 Angst**2
 A cutoff of  1.0D-14 yielded  29134 shell pairs
 There are    186750 function pairs (    235529 Cartesian)
 Smallest overlap matrix eigenvalue = 4.22E-07
 Linear dependence detected in AO basis
 Tighter screening thresholds may be required for diffuse basis sets
 Use S2THRESH > 14 and THRESH = 14 in case of SCF convergence issues
 Number of orthogonalized atomic orbitals = 660
 Maximum deviation from orthogonality = 1.732E-10

 Scale SEOQF with 1.000000e-01/1.000000e-01/1.000000e-01

 Standard Electronic Orientation quadrupole field applied
 Nucleus-field energy     =    -0.0000000583 hartrees

 -----------------------------------------------------------------------
  General SCF calculation program by
  Eric Jon Sundstrom, Paul Horn, Yuezhi Mao, Dmitri Zuev, Alec White,
  David Stuck, Shaama M.S., Shane Yost, Joonho Lee, David Small,
  Daniel Levine, Susi Lehtola, Hugh Burton, Evgeny Epifanovsky
 -----------------------------------------------------------------------
================================================================
                 ALMO-EDA with the EDA2 driver                  
================================================================
 The second-generation ALMO-EDA (for DFT):                      
 P. R. Horn, Y. Mao and M. Head-Gordon, PCCP, 18, 23067 (2016)  
 Decomposition of the frozen energy:                            
 P. R. Horn, Y. Mao and M. Head-Gordon, JCP, 144, 114107 (2016) 
 FERF model for polarization:                                   
 P. R. Horn and M. Head-Gordon, JCP, 143, 114111 (2015)         
Using eda2 option set 1
Option set summary: Frozen orbital wavefunction, initial wavefunction decomposition, and nDQ polarization.
--------------------------------
Printing EDA Options
--------------------------------
eda_child_super_basis      0
fragmo_guess_mode          0
child_mp                   1
child_mp_orders            232
cls_elec                   1
cls_disp                   0
scfmi_mode                 1
scfmi_occs                 0
scfmi_virts                0
frz_relax                  0
frz_relax_method           0
dc_pen_start               0
dc_pen_conv                0
dc_pen_increment           0
dc_pen_steps               0
dc_pen_thresh_factor       0
dc_pen_pre_newton_thresh   0
frz_ortho_decomp           1
frz_ortho_decomp_conv      6
frgm_method                2
scfmi_freeze_ss            0
separate_rehyb             0
plot_diff_den              0
eda_nocv                   0
eda_vct_relax              1
disp_free_x                0
disp_free_c                0
eda_bsse                   0
eda_pct_a                  0
eda_covp                   0
--------------------------------
Attempting to make child job directory: /tmp/qchem9945//Frg1/
Attempting to make child job directory: /tmp/qchem9945//Frg2/
Creating input file /tmp/qchem9945/Frg1.input
using default PutDataFrgm: nothing
calling putenv with: QCSCRATCH=/tmp/qchem9945/ 
calling putenv with: QCLOCALSCR=/tmp/qchem9945/ 
Spawning Job For Fragment 0
                  Welcome to Q-Chem
     A Quantum Leap Into The Future Of Chemistry


 Q-Chem 5.2, Q-Chem, Inc., Pleasanton, CA (2019)

 License issued to: National Energy Research Scientific Computing Center

 Yihan Shao,  Zhengting Gan,  E. Epifanovsky,  A. T. B. Gilbert,  M. Wormit,  
 J. Kussmann,  A. W. Lange,  A. Behn,  Jia Deng,  Xintian Feng,  D. Ghosh,  
 M. Goldey,  P. R. Horn,  L. D. Jacobson,  I. Kaliman,  T. Kus,  A. Landau,  
 Jie Liu,  E. I. Proynov,  R. M. Richard,  R. P. Steele,  E. J. Sundstrom,  
 H. L. Woodcock III,  P. M. Zimmerman,  D. Zuev,  B. Albrecht,  E. Alguire,  
 S. A. Baeppler,  D. Barton,  Z. Benda,  Y. A. Bernard,  E. J. Berquist,  
 K. B. Bravaya,  H. Burton,  D. Casanova,  Chun-Min Chang,  Yunqing Chen,  
 A. Chien,  K. D. Closser,  M. P. Coons,  S. Coriani,  S. Dasgupta,  
 A. L. Dempwolff,  M. Diedenhofen,  Hainam Do,  R. G. Edgar,  Po-Tung Fang,  
 S. Faraji,  S. Fatehi,  Qingguo Feng,  K. D. Fenk,  J. Fosso-Tande,  
 J. Gayvert,  Qinghui Ge,  A. Ghysels,  G. Gidofalvi,  J. Gomes,  
 J. Gonthier,  A. Gunina,  D. Hait,  M. W. D. Hanson-Heine,  
 P. H. P. Harbach,  A. W. Hauser,  M. F. Herbst,  J. E. Herr,  
 E. G. Hohenstein,  Z. C. Holden,  Kerwin Hui,  B. C. Huynh,  T.-C. Jagau,  
 Hyunjun Ji,  B. Kaduk,  K. Khistyaev,  Jaehoon Kim,  P. Klunzinger,  K. Koh,  
 D. Kosenkov,  L. Koulias,  T. Kowalczyk,  C. M. Krauter,  A. Kunitsa,  
 Ka Un Lao,  A. Laurent,  K. V. Lawler,  Joonho Lee,  D. Lefrancois,  
 S. Lehtola,  D. S. Levine,  Yi-Pei Li,  You-Sheng Lin,  Fenglai Liu,  
 E. Livshits,  A. Luenser,  P. Manohar,  E. Mansoor,  S. F. Manzer,  
 Shan-Ping Mao,  Yuezhi Mao,  N. Mardirossian,  A. V. Marenich,  
 T. Markovich,  L. A. Martinez-Martinez,  S. A. Maurer,  N. J. Mayhall,  
 S. C. McKenzie,  J.-M. Mewes,  P. Morgante,  A. F. Morrison,  
 J. W. Mullinax,  K. Nanda,  T. S. Nguyen-Beck,  R. Olivares-Amaya,  
 J. A. Parkhill,  Zheng Pei,  T. M. Perrine,  F. Plasser,  P. Pokhilko,  
 S. Prager,  A. Prociuk,  E. Ramos,  D. R. Rehn,  F. Rob,  M. Scheurer,  
 M. Schneider,  N. Sergueev,  S. M. Sharada,  S. Sharma,  D. W. Small,  
 T. Stauch,  T. Stein,  Yu-Chuan Su,  A. J. W. Thom,  A. Tkatchenko,  
 T. Tsuchimochi,  N. M. Tubman,  L. Vogt,  M. L. Vidal,  O. Vydrov,  
 M. A. Watson,  J. Wenzel,  M. de Wergifosse,  T. A. Wesolowski,  A. White,  
 J. Witte,  A. Yamada,  Jun Yang,  K. Yao,  S. Yeganeh,  S. R. Yost,  
 Zhi-Qiang You,  A. Zech,  Igor Ying Zhang,  Xing Zhang,  Yan Zhao,  
 Ying Zhu,  B. R. Brooks,  G. K. L. Chan,  C. J. Cramer,  M. S. Gordon,  
 W. J. Hehre,  A. Klamt,  M. W. Schmidt,  C. D. Sherrill,  D. G. Truhlar,  
 A. Aspuru-Guzik,  R. Baer,  A. T. Bell,  N. A. Besley,  Jeng-Da Chai,  
 A. E. DePrince, III,  R. A. DiStasio Jr.,  A. Dreuw,  B. D. Dunietz,  
 T. R. Furlani,  Chao-Ping Hsu,  Yousung Jung,  Jing Kong,  D. S. Lambrecht,  
 WanZhen Liang,  C. Ochsenfeld,  V. A. Rassolov,  L. V. Slipchenko,  
 J. E. Subotnik,  T. Van Voorhis,  J. M. Herbert,  A. I. Krylov,  
 P. M. W. Gill,  M. Head-Gordon

 Contributors to earlier versions of Q-Chem not listed above: 
 R. D. Adamson,  B. Austin,  J. Baker,  G. J. O. Beran,  K. Brandhorst,  
 S. T. Brown,  E. F. C. Byrd,  A. K. Chakraborty,  C.-L. Cheng,  
 Siu Hung Chien,  D. M. Chipman,  D. L. Crittenden,  H. Dachsel,  
 R. J. Doerksen,  A. D. Dutoi,  L. Fusti-Molnar,  W. A. Goddard III,  
 A. Golubeva-Zadorozhnaya,  S. R. Gwaltney,  G. Hawkins,  A. Heyden,  
 S. Hirata,  G. Kedziora,  F. J. Keil,  C. Kelley,  Jihan Kim,  R. A. King,  
 R. Z. Khaliullin,  P. P. Korambath,  W. Kurlancheek,  A. M. Lee,  M. S. Lee,  
 S. V. Levchenko,  Ching Yeh Lin,  D. Liotard,  R. C. Lochan,  I. Lotan,  
 P. E. Maslen,  N. Nair,  D. P. O'Neill,  D. Neuhauser,  E. Neuscamman,  
 C. M. Oana,  R. Olson,  B. Peters,  R. Peverati,  P. A. Pieniazek,  
 Y. M. Rhee,  J. Ritchie,  M. A. Rohrdanz,  E. Rosta,  N. J. Russ,  
 H. F. Schaefer III,  N. E. Schultz,  N. Shenvi,  A. C. Simmonett,  A. Sodt,  
 D. Stuck,  K. S. Thanthiriwatte,  V. Vanovschi,  Tao Wang,  A. Warshel,  
 C. F. Williams,  Q. Wu,  X. Xu,  W. Zhang

 Please cite Q-Chem as follows:
 Y. Shao et al., Mol. Phys. 113, 184-215 (2015)
 DOI: 10.1080/00268976.2014.952696

 Q-Chem 5.2.0 for Intel X86 EM64T Linux

 Parts of Q-Chem use Armadillo 8.300.2 (Tropical Shenanigans).
 http://arma.sourceforge.net/

 Q-Chem begins on Sun Sep 26 02:04:26 2021  

Host: cori01
0

     Scratch files written to /tmp/qchem9945//Frg1//
 May1019 |scratch|qcdevops|jenkins|workspace|build_RNUM -1
Processing $rem in /global/common/cori/software/qchem/5.2/config/preferences:
	 MEM_TOTAL  96000 
NAlpha2: 50
NElect   50
Mult     1
Symmetry turned off for PCM/SM12/SMD calculation

Checking the input file for inconsistencies... 	...done.

--------------------------------------------------------------
User input:
--------------------------------------------------------------
$molecule
0 1
 6	-1.7437828519	-2.0849858258	-3.9489708540
 6	-0.1747828519	-0.1699858258	-1.0979708540
 6	1.0972171481	0.0860141742	-1.5119708540
 6	-1.0637828519	-0.8999858258	-1.8579708540
 6	-0.7257828519	-1.3089858258	-3.1179708540
 6	1.5062171481	-0.3759858258	-2.7449708540
 6	0.5922171481	-1.0479858258	-3.5459708540
 1	-0.4997828519	0.1820141742	-0.1399708540
 1	1.7772171481	0.6400141742	-0.8779708540
 1	-2.0217828519	-1.1619858258	-1.4459708540
 1	2.5132171481	-0.1909858258	-3.0939708540
 1	-2.7357828519	-1.6619858258	-3.7859708540
 1	-1.7567828519	-3.1109858258	-3.5909708540
 1	0.9282171481	-1.3639858258	-4.5189708540
 1	-1.5283328519	-2.0907458258	-5.0276508540
$end
$rem
EDA2		1
METHOD		WB97X-V
BASIS		DEF2-TZVPD
XC_GRID		000099000590
NL_GRID		1
UNRESTRICTED		FALSE
MAX_SCF_CYCLES		200
SYMMETRY		FALSE
SYM_IGNORE		TRUE
BASIS_LIN_DEP_THRESH		6
THRESH		14
SCF_CONVERGENCE		8
SCF_PRINT_FRGM		TRUE
SOLVENT_METHOD		PCM
!required keywords
JOBTYPE		SP
SYM_IGNORE		TRUE
SUBSYSTEM		TRUE
GEN_SCFMAN		TRUE
CHILD_INSTRUCTION		2
SYM_IGNORE		TRUE
SCFMI		0
RI_K 0		
PARI_K 0		
MIN_PARI_K 0		
IARI_K 0		
OCC_RI_K 0		
PURECART		1111
MEM_STATIC		2000
MEM_TOTAL		96000
GUI		0
CHILD_MP		1
CHILD_MP_ORDERS		232
FRZ_RELAX		0
FRZ_RELAX_METHOD		0
EDA_CLS_ELEC		1
EDA_CLS_DISP		0
FRZ_ORTHO_DECOMP		1
EDA2		FALSE
FRGM_METHOD		FALSE
CIS_N_ROOTS  0
LOCAL_CIS    0
CIS_RLX_DNS  1
$end
$pcm
THEORY                  CPCM
METHOD                  SWIG
SOLVER                  INVERSION
RADII                   UFF
HPOINTS                 302
HEAVYPOINTS             302
PRINTLEVEL              0
$end
$solvent
DIELECTRIC              78.390000 ! water
$end
--------------------------------------------------------------
 ----------------------------------------------------------------
             Standard Nuclear Orientation (Angstroms)
    I     Atom           X                Y                Z
 ----------------------------------------------------------------
    1      C      -1.7437828519    -2.0849858258    -3.9489708540
    2      C      -0.1747828519    -0.1699858258    -1.0979708540
    3      C       1.0972171481     0.0860141742    -1.5119708540
    4      C      -1.0637828519    -0.8999858258    -1.8579708540
    5      C      -0.7257828519    -1.3089858258    -3.1179708540
    6      C       1.5062171481    -0.3759858258    -2.7449708540
    7      C       0.5922171481    -1.0479858258    -3.5459708540
    8      H      -0.4997828519     0.1820141742    -0.1399708540
    9      H       1.7772171481     0.6400141742    -0.8779708540
   10      H      -2.0217828519    -1.1619858258    -1.4459708540
   11      H       2.5132171481    -0.1909858258    -3.0939708540
   12      H      -2.7357828519    -1.6619858258    -3.7859708540
   13      H      -1.7567828519    -3.1109858258    -3.5909708540
   14      H       0.9282171481    -1.3639858258    -4.5189708540
   15      H      -1.5283328519    -2.0907458258    -5.0276508540
 ----------------------------------------------------------------
 Nuclear Repulsion Energy =         270.90013437 hartrees
 There are       25 alpha and       25 beta electrons
 Requested basis set is def2-TZVPD
 There are 131 shells and 331 basis functions

 Total QAlloc Memory Limit  96000 MB
 Mega-Array Size      1956 MB
 MEM_STATIC part      2000 MB
 Discretize the solute cavity surface with Lebedev spheres
	Using 302 Lebedev grid points for each H atom
	Using 302 Lebedev grid points for other atoms
	Atomic van der Waals radii will be scaled by 1.20
 Remove points where switching function is < 1.0e-08
 Keep 1807 surface tesserae and discard 2723 interior tesserae
 Molecular Surface Area = 178.113 Angst**2

                       Distance Matrix (Angstroms)
             C (  1)   C (  2)   C (  3)   C (  4)   C (  5)   C (  6)
   C (  2)  3.775869
   C (  3)  4.327065  1.361953
   C (  4)  2.497780  1.378703  2.400382
   C (  5)  1.526126  2.383552  2.801534  1.367159
   C (  6)  3.864298  2.362373  1.378773  2.768798  2.447742
   C (  7)  2.587407  2.711434  2.382884  2.369300  1.410117  1.388734
   H (  8)  4.603836  1.071118  2.107607  2.107212  3.338059  3.334880
   H (  9)  5.408707  2.124807  1.082253  3.376874  3.883453  2.142752
   H ( 10)  2.682205  2.125224  3.360063  1.075245  2.120568  3.840831
   H ( 11)  4.737120  3.348104  2.141147  3.850364  3.426605  1.081700
   H ( 12)  1.090670  4.001266  4.787324  2.663346  2.147308  4.553245
   H ( 13)  1.086742  4.167404  4.763231  2.893451  2.129294  4.340865
   H ( 14)  2.825655  3.787544  3.342620  3.356230  2.168304  2.111233
   H ( 15)  1.100001  4.578624  4.898143  3.417687  2.214072  4.166476
             C (  7)   H (  8)   H (  9)   H ( 10)   H ( 11)   H ( 12)
   H (  8)  3.782354
   H (  9)  3.372209  2.437034
   H ( 10)  3.354995  2.414220  4.242903
   H ( 11)  2.151510  4.235967  2.478490  4.921887
   H ( 12)  3.392666  4.657612  5.841476  2.497077  5.494971
   H ( 13)  3.126627  4.932879  5.824047  2.910301  5.196759  1.759564
   H ( 14)  1.076792  4.858492  4.241898  4.264579  2.432854  3.748465
   H ( 15)  2.789168  5.487510  5.966871  3.732897  4.866450  1.784248
             H ( 13)   H ( 14)
   H ( 14)  3.335029
   H ( 15)  1.776831  2.611814
 
 A cutoff of  1.0D-14 yielded   8361 shell pairs
 There are     54493 function pairs (     69447 Cartesian)
 Smallest overlap matrix eigenvalue = 5.25E-07
 Linear dependence detected in AO basis
 Tighter screening thresholds may be required for diffuse basis sets
 Use S2THRESH > 14 and THRESH = 14 in case of SCF convergence issues
 Number of orthogonalized atomic orbitals = 330
 Maximum deviation from orthogonality = 1.250E-10

 Scale SEOQF with 1.000000e-01/1.000000e-01/1.000000e-01

 Standard Electronic Orientation quadrupole field applied
 Nucleus-field energy     =    -0.0000000350 hartrees
 Guess from superposition of atomic densities
 Warning:  Energy on first SCF cycle will be non-variational
 SAD guess density has 49.913408 electrons

 -----------------------------------------------------------------------
  General SCF calculation program by
  Eric Jon Sundstrom, Paul Horn, Yuezhi Mao, Dmitri Zuev, Alec White,
  David Stuck, Shaama M.S., Shane Yost, Joonho Lee, David Small,
  Daniel Levine, Susi Lehtola, Hugh Burton, Evgeny Epifanovsky
 -----------------------------------------------------------------------
 Exchange:     0.1670 Hartree-Fock + 1.0000 wB97X-V + LR-HF
 Correlation:  1.0000 wB97X-V
 Using Euler-Maclaurin-Lebedev (99,590) quadrature formula
 Nonlocal Correlation:  VV10 with C = 0.0100 and b = 6.00 and scale = 1.00000
 Grid used for NLC:  SG-1 standard quadrature
Energy prior to optimization (guess energy) = -271.513808294698
Begin Timing: Total SCF Calculation
begin iterations for algorithm: DIIS         
the SCF tolerance is set to 1.00e-08
    1    -271.5138082947      2.03e-03     00000 
    2    -271.5538636609      1.32e-03     00000 
    3    -271.5776799320      1.44e-04     00000 
    4    -271.5780966721      5.57e-05     00000 
    5    -271.5781418463      1.81e-05     00000 
    6    -271.5781476161      5.09e-06     00000 
    7    -271.5781480906      2.04e-06     00000 
    8    -271.5781481647      3.42e-07     00000 
    9    -271.5781481684      1.01e-07     00000 
   10    -271.5781481687      5.66e-08     00000 
   11    -271.5781481688      1.59e-08     00000 
   12    -271.5781481688      7.28e-09     00000 Convergence criterion met
Timing for Total SCF: 1407.00s (wall), 2796.74s (cpu)

************** Final PCM Free Energy Summary **************
 G_electrostatic  =      -0.00237035 hartree =      -1.48741611 kcal/mol
 G_cavitation     =       0.00000000 hartree =       0.00000000 kcal/mol
 G_dispersion     =       0.00000000 hartree =       0.00000000 kcal/mol
 G_repulsion      =       0.00000000 hartree =       0.00000000 kcal/mol
 --------------------------------------------------
 Non-electrostatic Free Energy =       0.00000000 hartree =       0.00000000 kcal/mol
 Total                         =      -0.00237035 hartree =      -1.48741611 kcal/mol
 --------------------------------------------------
 SCF Energy (H0 + V/2)                       =    -271.57814817 
 Solute Internal Energy (H0)                 =    -271.57577782 
 Total Free Energy (H0 + V/2 + non-elec)     =    -271.57814817 hartree
                                             = -170417.86009257 kcal/mol
***********************************************************

E_pcm = -0.0023703485
Multipole orders to be included
        2
        3
computing dipole RHS
computing quadrupole RHS
total number of RHS in solve_reponses: 8
RHS batch sizes
        8
Beginning Block Conjugate Gradient Iterations. Batch Number: 0
computing hessian-vector products by finite difference
              1      5.72e-01     00000 Conjugate Gradient Iteration
computing hessian-vector products by finite difference
              2      1.86e-01     00000 Conjugate Gradient Iteration
computing hessian-vector products by finite difference
              3      4.38e-02     00000 Conjugate Gradient Iteration
computing hessian-vector products by finite difference
              4      9.96e-03     00000 Conjugate Gradient Iteration
computing hessian-vector products by finite difference
              5      1.97e-03     00000 Conjugate Gradient Iteration
computing hessian-vector products by finite difference
              6      5.61e-04     00000 Conjugate Gradient Iteration
computing hessian-vector products by finite difference
              7      1.54e-04     00000 Conjugate Gradient Iteration
computing hessian-vector products by finite difference
              8      2.33e-05     00000 Conjugate Gradient Iteration
computing hessian-vector products by finite difference
              9      3.32e-06     00000 Conjugate Gradient Iteration
computing hessian-vector products by finite difference
             10      5.07e-07     00000 Conjugate Gradient Iteration
computing hessian-vector products by finite difference
             11      9.23e-08     00000 Conjugate Gradient Iteration
computing hessian-vector products by finite difference
             12      1.66e-08     00000 Conjugate Gradient Iteration
computing hessian-vector products by finite difference
             13      2.78e-09     00000 CG Converged
batch 0 complete
Done Calculating Responses
TESTING ORTHOGONALIZATION OF MULTIPOLE BASIS
Multipole virts passed orthogonality test
Virts Per Order
           75
          125
 
 --------------------------------------------------------------
 
                    Orbital Energies (a.u.)
 --------------------------------------------------------------
 
 Alpha MOs
 -- Occupied --
-10.2827 -10.2707 -10.2699 -10.2653 -10.2651 -10.2646 -10.2631  -1.0023
 -0.9087  -0.8799  -0.8163  -0.7304  -0.7086  -0.6335  -0.5756  -0.5649
 -0.5357  -0.5284  -0.5156  -0.4923  -0.4774  -0.4427  -0.4382  -0.3494
 -0.3405
 -- Virtual --
  0.0624   0.0664   0.0713   0.0790   0.0846   0.1044   0.1102   0.1140
  0.1353   0.1515   0.1643   0.1668   0.1839   0.1903   0.1950   0.2017
  0.2216   0.2257   0.2351   0.2400   0.2436   0.2552   0.2598   0.2710
  0.2755   0.2797   0.2827   0.2923   0.2962   0.3026   0.3069   0.3122
  0.3235   0.3243   0.3295   0.3379   0.3462   0.3518   0.3644   0.3701
  0.3762   0.3830   0.3856   0.3865   0.3914   0.3990   0.4041   0.4071
  0.4125   0.4245   0.4280   0.4373   0.4451   0.4506   0.4522   0.4586
  0.4647   0.4661   0.4759   0.4780   0.4891   0.5012   0.5087   0.5128
  0.5200   0.5278   0.5308   0.5383   0.5427   0.5474   0.5566   0.5633
  0.5788   0.5852   0.5927   0.5956   0.6031   0.6219   0.6374   0.6438
  0.6624   0.6694   0.6754   0.6872   0.6912   0.7006   0.7178   0.7217
  0.7245   0.7339   0.7406   0.7613   0.7650   0.7678   0.7769   0.7855
  0.7894   0.7982   0.8002   0.8029   0.8094   0.8210   0.8227   0.8320
  0.8372   0.8404   0.8472   0.8575   0.8609   0.8680   0.8882   0.8906
  0.9176   0.9252   0.9334   0.9479   0.9583   1.0064   1.0207   1.0371
  1.0529   1.0574   1.0714   1.0781   1.0852   1.0931   1.1110   1.1444
  1.1602   1.1837   1.2425   1.2879   1.3019   1.3169   1.3433   1.3530
  1.3927   1.4380   1.4467   1.4680   1.4748   1.4876   1.5273   1.5497
  1.5977   1.6047   1.6193   1.6249   1.6691   1.6841   1.7330   1.7765
  1.7871   1.8076   1.8096   1.8192   1.8404   1.8649   1.8786   1.9035
  1.9205   1.9241   1.9506   1.9685   1.9841   1.9988   2.0204   2.0273
  2.0369   2.0472   2.0741   2.0972   2.1167   2.1261   2.1537   2.1773
  2.2057   2.2342   2.2442   2.2463   2.2878   2.3235   2.3829   2.3945
  2.4090   2.4334   2.4818   2.5090   2.5212   2.5555   2.5838   2.6025
  2.6269   2.6356   2.6589   2.6713   2.7069   2.7235   2.7694   2.7897
  2.7901   2.8233   2.8431   2.8564   2.8615   2.8973   2.9085   2.9184
  2.9328   2.9529   2.9700   2.9886   3.0057   3.0105   3.0195   3.0512
  3.0740   3.0890   3.1151   3.1455   3.1835   3.1867   3.1984   3.2093
  3.2242   3.2460   3.2788   3.3032   3.3366   3.3507   3.3647   3.3799
  3.4044   3.4342   3.4419   3.4502   3.4655   3.4730   3.4918   3.5101
  3.5196   3.5295   3.5421   3.5511   3.5689   3.5870   3.5947   3.5997
  3.6166   3.6484   3.6699   3.7041   3.7177   3.7679   3.7796   3.8103
  3.8397   3.8946   3.9153   3.9521   3.9579   3.9956   4.0525   4.0700
  4.1356   4.1979   4.2704   4.2907   4.3122   4.3268   4.3387   4.3542
  4.3728   4.4037   4.4108   4.4382   4.4510   4.4698   4.5059   4.5570
  4.6119   4.6612   4.7530   4.7697   4.8448   4.8830   4.9170   4.9520
  5.0378   5.0595   5.1749   5.2838   5.4143   5.4211   5.4806   5.5239
  5.7075   5.8441  22.5812  22.6422  22.9291  22.9418  23.0557  23.1497
 23.4781
 --------------------------------------------------------------
 
          Ground-State Mulliken Net Atomic Charges

     Atom                 Charge (a.u.)
  ----------------------------------------
      1 C                    -1.026538
      2 C                    -0.443917
      3 C                    -0.470392
      4 C                    -0.324268
      5 C                     0.775519
      6 C                    -0.482027
      7 C                    -0.381013
      8 H                     0.311243
      9 H                     0.326574
     10 H                     0.336170
     11 H                     0.305871
     12 H                     0.260702
     13 H                     0.218945
     14 H                     0.320549
     15 H                     0.272583
  ----------------------------------------
  Sum of atomic charges =     0.000000

 -----------------------------------------------------------------
                    Cartesian Multipole Moments
 -----------------------------------------------------------------
    Charge (ESU x 10^10)
                 0.0000
    Dipole Moment (Debye)
         X      -0.3471      Y      -0.3351      Z      -0.1899
       Tot       0.5185
    Quadrupole Moments (Debye-Ang)
        XX     -38.6750     XY       2.8281     YY     -43.3760
        XZ       0.0726     YZ       3.6949     ZZ     -38.7451
    Octopole Moments (Debye-Ang^2)
       XXX      16.5262    XXY      35.3278    XYY       0.3989
       YYY     109.9789    XXZ     100.0684    XYZ      -5.2778
       YYZ     108.6640    XZZ       6.4719    YZZ      19.4876
       ZZZ     304.3325
    Hexadecapole Moments (Debye-Ang^3)
      XXXX    -409.7387   XXXY     -92.8228   XXYY    -138.7357
      XYYY     -94.0516   YYYY    -393.0126   XXXZ     -92.7253
      XXYZ    -118.4887   XYYZ     -15.4498   YYYZ    -369.8211
      XXZZ    -386.9070   XYZZ     -23.2922   YYZZ    -397.9339
      XZZZ     -94.4233   YZZZ    -292.7940   ZZZZ   -1925.9536
 -----------------------------------------------------------------
Archival summary:
1\1\nid00531\SP\ProcedureUnspecified\BasisUnspecified\78\meili\SunSep2609:55:012021SunSep2609:55:012021\0\\#,ProcedureUnspecified,BasisUnspecified,\\0,1\C\C,1,1.36716\H,2,1.07525,1,120.034\C,2,1.3787,1,120.466,3,178.907,0\H,4,1.07112,2,118.124,1,176.342,0\C,4,1.36195,2,122.288,1,-5.19584,0\H,6,1.08225,4,120.329,2,-178.347,0\C,6,1.37877,4,119.072,2,1.33176,0\H,8,1.0817,6,120.489,4,-179.625,0\C,8,1.38873,6,118.863,4,2.23216,0\H,10,1.07679,8,117.247,6,177.694,0\C,1,1.52613,2,119.277,3,2.64453,0\H,12,1.08674,1,107.978,2,-77.8185,0\H,12,1.09067,1,109.155,2,39.139,0\H,12,1.1,1,113.952,2,161.332,0\\\@

 Total job time:  28236.31s(wall), 56098.60s(cpu) 
 Sun Sep 26 09:55:02 2021

        *************************************************************
        *                                                           *
        *  Thank you very much for using Q-Chem.  Have a nice day.  *
        *                                                           *
        *************************************************************


Done Job For Fragment 0
calling putenv with: QCSCRATCH=/global/cscratch1/sd/meili 
calling putenv with: QCLOCALSCR=/tmp 
calling putenv with: QCTHREADS=32 
Creating input file /tmp/qchem9945/Frg2.input
using default PutDataFrgm: nothing
calling putenv with: QCSCRATCH=/tmp/qchem9945/ 
calling putenv with: QCLOCALSCR=/tmp/qchem9945/ 
Spawning Job For Fragment 1
                  Welcome to Q-Chem
     A Quantum Leap Into The Future Of Chemistry


 Q-Chem 5.2, Q-Chem, Inc., Pleasanton, CA (2019)

 License issued to: National Energy Research Scientific Computing Center

 Yihan Shao,  Zhengting Gan,  E. Epifanovsky,  A. T. B. Gilbert,  M. Wormit,  
 J. Kussmann,  A. W. Lange,  A. Behn,  Jia Deng,  Xintian Feng,  D. Ghosh,  
 M. Goldey,  P. R. Horn,  L. D. Jacobson,  I. Kaliman,  T. Kus,  A. Landau,  
 Jie Liu,  E. I. Proynov,  R. M. Richard,  R. P. Steele,  E. J. Sundstrom,  
 H. L. Woodcock III,  P. M. Zimmerman,  D. Zuev,  B. Albrecht,  E. Alguire,  
 S. A. Baeppler,  D. Barton,  Z. Benda,  Y. A. Bernard,  E. J. Berquist,  
 K. B. Bravaya,  H. Burton,  D. Casanova,  Chun-Min Chang,  Yunqing Chen,  
 A. Chien,  K. D. Closser,  M. P. Coons,  S. Coriani,  S. Dasgupta,  
 A. L. Dempwolff,  M. Diedenhofen,  Hainam Do,  R. G. Edgar,  Po-Tung Fang,  
 S. Faraji,  S. Fatehi,  Qingguo Feng,  K. D. Fenk,  J. Fosso-Tande,  
 J. Gayvert,  Qinghui Ge,  A. Ghysels,  G. Gidofalvi,  J. Gomes,  
 J. Gonthier,  A. Gunina,  D. Hait,  M. W. D. Hanson-Heine,  
 P. H. P. Harbach,  A. W. Hauser,  M. F. Herbst,  J. E. Herr,  
 E. G. Hohenstein,  Z. C. Holden,  Kerwin Hui,  B. C. Huynh,  T.-C. Jagau,  
 Hyunjun Ji,  B. Kaduk,  K. Khistyaev,  Jaehoon Kim,  P. Klunzinger,  K. Koh,  
 D. Kosenkov,  L. Koulias,  T. Kowalczyk,  C. M. Krauter,  A. Kunitsa,  
 Ka Un Lao,  A. Laurent,  K. V. Lawler,  Joonho Lee,  D. Lefrancois,  
 S. Lehtola,  D. S. Levine,  Yi-Pei Li,  You-Sheng Lin,  Fenglai Liu,  
 E. Livshits,  A. Luenser,  P. Manohar,  E. Mansoor,  S. F. Manzer,  
 Shan-Ping Mao,  Yuezhi Mao,  N. Mardirossian,  A. V. Marenich,  
 T. Markovich,  L. A. Martinez-Martinez,  S. A. Maurer,  N. J. Mayhall,  
 S. C. McKenzie,  J.-M. Mewes,  P. Morgante,  A. F. Morrison,  
 J. W. Mullinax,  K. Nanda,  T. S. Nguyen-Beck,  R. Olivares-Amaya,  
 J. A. Parkhill,  Zheng Pei,  T. M. Perrine,  F. Plasser,  P. Pokhilko,  
 S. Prager,  A. Prociuk,  E. Ramos,  D. R. Rehn,  F. Rob,  M. Scheurer,  
 M. Schneider,  N. Sergueev,  S. M. Sharada,  S. Sharma,  D. W. Small,  
 T. Stauch,  T. Stein,  Yu-Chuan Su,  A. J. W. Thom,  A. Tkatchenko,  
 T. Tsuchimochi,  N. M. Tubman,  L. Vogt,  M. L. Vidal,  O. Vydrov,  
 M. A. Watson,  J. Wenzel,  M. de Wergifosse,  T. A. Wesolowski,  A. White,  
 J. Witte,  A. Yamada,  Jun Yang,  K. Yao,  S. Yeganeh,  S. R. Yost,  
 Zhi-Qiang You,  A. Zech,  Igor Ying Zhang,  Xing Zhang,  Yan Zhao,  
 Ying Zhu,  B. R. Brooks,  G. K. L. Chan,  C. J. Cramer,  M. S. Gordon,  
 W. J. Hehre,  A. Klamt,  M. W. Schmidt,  C. D. Sherrill,  D. G. Truhlar,  
 A. Aspuru-Guzik,  R. Baer,  A. T. Bell,  N. A. Besley,  Jeng-Da Chai,  
 A. E. DePrince, III,  R. A. DiStasio Jr.,  A. Dreuw,  B. D. Dunietz,  
 T. R. Furlani,  Chao-Ping Hsu,  Yousung Jung,  Jing Kong,  D. S. Lambrecht,  
 WanZhen Liang,  C. Ochsenfeld,  V. A. Rassolov,  L. V. Slipchenko,  
 J. E. Subotnik,  T. Van Voorhis,  J. M. Herbert,  A. I. Krylov,  
 P. M. W. Gill,  M. Head-Gordon

 Contributors to earlier versions of Q-Chem not listed above: 
 R. D. Adamson,  B. Austin,  J. Baker,  G. J. O. Beran,  K. Brandhorst,  
 S. T. Brown,  E. F. C. Byrd,  A. K. Chakraborty,  C.-L. Cheng,  
 Siu Hung Chien,  D. M. Chipman,  D. L. Crittenden,  H. Dachsel,  
 R. J. Doerksen,  A. D. Dutoi,  L. Fusti-Molnar,  W. A. Goddard III,  
 A. Golubeva-Zadorozhnaya,  S. R. Gwaltney,  G. Hawkins,  A. Heyden,  
 S. Hirata,  G. Kedziora,  F. J. Keil,  C. Kelley,  Jihan Kim,  R. A. King,  
 R. Z. Khaliullin,  P. P. Korambath,  W. Kurlancheek,  A. M. Lee,  M. S. Lee,  
 S. V. Levchenko,  Ching Yeh Lin,  D. Liotard,  R. C. Lochan,  I. Lotan,  
 P. E. Maslen,  N. Nair,  D. P. O'Neill,  D. Neuhauser,  E. Neuscamman,  
 C. M. Oana,  R. Olson,  B. Peters,  R. Peverati,  P. A. Pieniazek,  
 Y. M. Rhee,  J. Ritchie,  M. A. Rohrdanz,  E. Rosta,  N. J. Russ,  
 H. F. Schaefer III,  N. E. Schultz,  N. Shenvi,  A. C. Simmonett,  A. Sodt,  
 D. Stuck,  K. S. Thanthiriwatte,  V. Vanovschi,  Tao Wang,  A. Warshel,  
 C. F. Williams,  Q. Wu,  X. Xu,  W. Zhang

 Please cite Q-Chem as follows:
 Y. Shao et al., Mol. Phys. 113, 184-215 (2015)
 DOI: 10.1080/00268976.2014.952696

 Q-Chem 5.2.0 for Intel X86 EM64T Linux

 Parts of Q-Chem use Armadillo 8.300.2 (Tropical Shenanigans).
 http://arma.sourceforge.net/

 Q-Chem begins on Sun Sep 26 09:55:04 2021  

Host: cori01
0

     Scratch files written to /tmp/qchem9945//Frg2//
 May1019 |scratch|qcdevops|jenkins|workspace|build_RNUM -1
Processing $rem in /global/common/cori/software/qchem/5.2/config/preferences:
	 MEM_TOTAL  96000 
NAlpha2: 52
NElect   52
Mult     1
Symmetry turned off for PCM/SM12/SMD calculation

Checking the input file for inconsistencies... 	...done.

--------------------------------------------------------------
User input:
--------------------------------------------------------------
$molecule
0 1
 6	0.1522171481	-0.9689858258	2.5230291460
 6	-0.7667828519	-1.5129858258	3.6400291460
 6	0.2542171481	0.5170141742	2.4110291460
 6	1.3402171481	1.3470141742	2.4800291460
 6	-0.3847828519	2.5620141742	1.8830291460
 7	-0.8007828519	1.2950141742	2.0150291460
 7	0.9112171481	2.6310141742	2.1810291460
 1	1.1512171481	-1.3889858258	2.6440291460
 1	-0.2387828519	-1.3259858258	1.5730291460
 1	-0.9277828519	-2.5719858258	3.4430291460
 1	2.3542171481	1.0400141742	2.7020291460
 1	-1.0017828519	3.3950141742	1.5780291460
 1	1.4882171481	3.4630141742	2.1220291460
 1	-1.7472428519	-1.0186158258	3.7055941460
 1	-0.2722328519	-1.4489158258	4.6204951460
$end
$rem
EDA2		1
METHOD		WB97X-V
BASIS		DEF2-TZVPD
XC_GRID		000099000590
NL_GRID		1
UNRESTRICTED		FALSE
MAX_SCF_CYCLES		200
SYMMETRY		FALSE
SYM_IGNORE		TRUE
BASIS_LIN_DEP_THRESH		6
THRESH		14
SCF_CONVERGENCE		8
SCF_PRINT_FRGM		TRUE
SOLVENT_METHOD		PCM
!required keywords
JOBTYPE		SP
SYM_IGNORE		TRUE
SUBSYSTEM		TRUE
GEN_SCFMAN		TRUE
CHILD_INSTRUCTION		2
SYM_IGNORE		TRUE
SCFMI		0
RI_K 0		
PARI_K 0		
MIN_PARI_K 0		
IARI_K 0		
OCC_RI_K 0		
PURECART		1111
MEM_STATIC		2000
MEM_TOTAL		96000
GUI		0
CHILD_MP		1
CHILD_MP_ORDERS		232
FRZ_RELAX		0
FRZ_RELAX_METHOD		0
EDA_CLS_ELEC		1
EDA_CLS_DISP		0
FRZ_ORTHO_DECOMP		1
EDA2		FALSE
FRGM_METHOD		FALSE
CIS_N_ROOTS  0
LOCAL_CIS    0
CIS_RLX_DNS  1
$end
$pcm
THEORY                  CPCM
METHOD                  SWIG
SOLVER                  INVERSION
RADII                   UFF
HPOINTS                 302
HEAVYPOINTS             302
PRINTLEVEL              0
$end
$solvent
DIELECTRIC              78.390000 ! water
$end
--------------------------------------------------------------
 ----------------------------------------------------------------
             Standard Nuclear Orientation (Angstroms)
    I     Atom           X                Y                Z
 ----------------------------------------------------------------
    1      C       0.1522171481    -0.9689858258     2.5230291460
    2      C      -0.7667828519    -1.5129858258     3.6400291460
    3      C       0.2542171481     0.5170141742     2.4110291460
    4      C       1.3402171481     1.3470141742     2.4800291460
    5      C      -0.3847828519     2.5620141742     1.8830291460
    6      N      -0.8007828519     1.2950141742     2.0150291460
    7      N       0.9112171481     2.6310141742     2.1810291460
    8      H       1.1512171481    -1.3889858258     2.6440291460
    9      H      -0.2387828519    -1.3259858258     1.5730291460
   10      H      -0.9277828519    -2.5719858258     3.4430291460
   11      H       2.3542171481     1.0400141742     2.7020291460
   12      H      -1.0017828519     3.3950141742     1.5780291460
   13      H       1.4882171481     3.4630141742     2.1220291460
   14      H      -1.7472428519    -1.0186158258     3.7055941460
   15      H      -0.2722328519    -1.4489158258     4.6204951460
 ----------------------------------------------------------------
 Nuclear Repulsion Energy =         289.38231173 hartrees
 There are       26 alpha and       26 beta electrons
 Requested basis set is def2-TZVPD
 There are 131 shells and 331 basis functions

 Total QAlloc Memory Limit  96000 MB
 Mega-Array Size      1956 MB
 MEM_STATIC part      2000 MB
 Discretize the solute cavity surface with Lebedev spheres
	Using 302 Lebedev grid points for each H atom
	Using 302 Lebedev grid points for other atoms
	Atomic van der Waals radii will be scaled by 1.20
 Remove points where switching function is < 1.0e-08
 Keep 1842 surface tesserae and discard 2688 interior tesserae
 Molecular Surface Area = 182.193 Angst**2

                       Distance Matrix (Angstroms)
             C (  1)   C (  2)   C (  3)   C (  4)   C (  5)   N (  6)
   C (  2)  1.545376
   C (  3)  1.493701  2.583366
   C (  4)  2.603277  3.736930  1.368597
   C (  5)  3.628489  4.454054  2.206611  2.192774
   N (  6)  2.508380  3.244479  1.369352  2.191531  1.340063
   N (  7)  3.695003  4.702882  2.225656  1.386397  1.331608  2.177934
   H (  8)  1.090432  2.164744  2.119371  2.747419  4.306834  3.377840
   H (  9)  1.087580  2.141551  2.083733  3.234319  3.903071  2.716772
   H ( 10)  2.140656  1.089133  3.464689  4.629228  5.393181  4.124197
   H ( 11)  2.986122  4.139842  2.183623  1.082464  3.238729  3.238984
   H ( 12)  4.611858  5.328746  3.248740  3.239270  1.080557  2.154384
   H ( 13)  4.646323  5.670090  3.207054  2.151168  2.092140  3.154551
   H ( 14)  2.238051  1.100001  2.835472  4.078066  4.242517  3.017728
   H ( 15)  2.193138  1.099999  3.003959  3.872830  4.857360  3.820598
             N (  7)   H (  8)   H (  9)   H ( 10)   H ( 11)   H ( 12)
   H (  8)  4.053686
   H (  9)  4.165335  1.755879
   H ( 10)  5.660899  2.521930  2.350348
   H ( 11)  2.210197  2.711202  3.687309  4.936309
   H ( 12)  2.146363  5.353356  4.782263  6.252103  4.251134
   H ( 13)  1.014216  4.891621  5.120396  6.633500  2.637667  2.549639
   H ( 14)  4.765659  3.108885  2.630164  1.775785  4.697560  4.956044
   H ( 15)  4.898712  2.436436  3.050128  1.754269  4.095549  5.766498
             H ( 13)   H ( 14)
   H ( 14)  5.749860
   H ( 15)  5.785203  1.788255
 
 A cutoff of  1.0D-14 yielded   8263 shell pairs
 There are     53747 function pairs (     68440 Cartesian)
 Smallest overlap matrix eigenvalue = 1.49E-06

 Scale SEOQF with 1.000000e-01/1.000000e-01/1.000000e-01

 Standard Electronic Orientation quadrupole field applied
 Nucleus-field energy     =    -0.0000000232 hartrees
 Guess from superposition of atomic densities
 Warning:  Energy on first SCF cycle will be non-variational
 SAD guess density has 51.546797 electrons

 -----------------------------------------------------------------------
  General SCF calculation program by
  Eric Jon Sundstrom, Paul Horn, Yuezhi Mao, Dmitri Zuev, Alec White,
  David Stuck, Shaama M.S., Shane Yost, Joonho Lee, David Small,
  Daniel Levine, Susi Lehtola, Hugh Burton, Evgeny Epifanovsky
 -----------------------------------------------------------------------
 Exchange:     0.1670 Hartree-Fock + 1.0000 wB97X-V + LR-HF
 Correlation:  1.0000 wB97X-V
 Using Euler-Maclaurin-Lebedev (99,590) quadrature formula
 Nonlocal Correlation:  VV10 with C = 0.0100 and b = 6.00 and scale = 1.00000
 Grid used for NLC:  SG-1 standard quadrature
Energy prior to optimization (guess energy) = -304.448913123151
Begin Timing: Total SCF Calculation
begin iterations for algorithm: DIIS         
the SCF tolerance is set to 1.00e-08
    1    -304.4489131232      6.07e-03     00000 
    2    -304.3959142762      6.26e-03     00000 
    3    -304.8727859897      6.59e-04     00000 
    4    -304.8770102331      3.74e-04     00000 
    5    -304.8786804439      7.32e-05     00000 
    6    -304.8787722639      2.70e-05     00000 
    7    -304.8787872626      8.17e-06     00000 
    8    -304.8787888792      2.68e-06     00000 
    9    -304.8787890887      1.20e-06     00000 
   10    -304.8787891367      3.46e-07     00000 
   11    -304.8787891428      7.77e-08     00000 
   12    -304.8787891431      4.23e-08     00000 
   13    -304.8787891432      9.39e-09     00000 Convergence criterion met
Timing for Total SCF: 1477.00s (wall), 2935.42s (cpu)

************** Final PCM Free Energy Summary **************
 G_electrostatic  =      -0.01048136 hartree =      -6.57715390 kcal/mol
 G_cavitation     =       0.00000000 hartree =       0.00000000 kcal/mol
 G_dispersion     =       0.00000000 hartree =       0.00000000 kcal/mol
 G_repulsion      =       0.00000000 hartree =       0.00000000 kcal/mol
 --------------------------------------------------
 Non-electrostatic Free Energy =       0.00000000 hartree =       0.00000000 kcal/mol
 Total                         =      -0.01048136 hartree =      -6.57715390 kcal/mol
 --------------------------------------------------
 SCF Energy (H0 + V/2)                       =    -304.87878914 
 Solute Internal Energy (H0)                 =    -304.86830778 
 Total Free Energy (H0 + V/2 + non-elec)     =    -304.87878914 hartree
                                             = -191314.32769435 kcal/mol
***********************************************************

E_pcm = -0.0104813620
Multipole orders to be included
        2
        3
computing dipole RHS
computing quadrupole RHS
total number of RHS in solve_reponses: 8
RHS batch sizes
        8
Beginning Block Conjugate Gradient Iterations. Batch Number: 0
computing hessian-vector products by finite difference
              1      5.80e-01     00000 Conjugate Gradient Iteration
computing hessian-vector products by finite difference
              2      2.03e-01     00000 Conjugate Gradient Iteration
computing hessian-vector products by finite difference
              3      4.92e-02     00000 Conjugate Gradient Iteration
computing hessian-vector products by finite difference
              4      1.43e-02     00000 Conjugate Gradient Iteration
computing hessian-vector products by finite difference
              5      2.93e-03     00000 Conjugate Gradient Iteration
computing hessian-vector products by finite difference
              6      6.13e-04     00000 Conjugate Gradient Iteration
computing hessian-vector products by finite difference
              7      1.28e-04     00000 Conjugate Gradient Iteration
computing hessian-vector products by finite difference
              8      1.98e-05     00000 Conjugate Gradient Iteration
computing hessian-vector products by finite difference
              9      3.34e-06     00000 Conjugate Gradient Iteration
computing hessian-vector products by finite difference
             10      4.61e-07     00000 Conjugate Gradient Iteration
computing hessian-vector products by finite difference
             11      8.10e-08     00000 Conjugate Gradient Iteration
computing hessian-vector products by finite difference
             12      1.16e-08     00000 Conjugate Gradient Iteration
computing hessian-vector products by finite difference
             13      3.20e-09     00000 CG Converged
batch 0 complete
Done Calculating Responses
TESTING ORTHOGONALIZATION OF MULTIPOLE BASIS
Multipole virts passed orthogonality test
Virts Per Order
           78
          130
 
 --------------------------------------------------------------
 
                    Orbital Energies (a.u.)
 --------------------------------------------------------------
 
 Alpha MOs
 -- Occupied --
-14.4695 -14.3880 -10.3245 -10.2918 -10.2855 -10.2704 -10.2580  -1.1541
 -1.0005  -0.9129  -0.8607  -0.7654  -0.7324  -0.6849  -0.6630  -0.5734
 -0.5641  -0.5437  -0.5390  -0.5188  -0.4818  -0.4567  -0.4498  -0.3788
 -0.3731  -0.3231
 -- Virtual --
  0.0625   0.0797   0.0873   0.0930   0.1022   0.1128   0.1219   0.1344
  0.1417   0.1570   0.1637   0.1719   0.1748   0.1886   0.1966   0.2027
  0.2159   0.2222   0.2299   0.2424   0.2491   0.2603   0.2648   0.2704
  0.2782   0.2839   0.2895   0.2972   0.3024   0.3081   0.3105   0.3206
  0.3228   0.3337   0.3414   0.3445   0.3517   0.3533   0.3564   0.3635
  0.3718   0.3738   0.3889   0.3906   0.4024   0.4050   0.4098   0.4101
  0.4181   0.4245   0.4333   0.4401   0.4458   0.4534   0.4679   0.4709
  0.4738   0.4856   0.4923   0.5017   0.5071   0.5138   0.5198   0.5244
  0.5447   0.5457   0.5555   0.5616   0.5665   0.5789   0.5847   0.5973
  0.5989   0.6024   0.6119   0.6183   0.6289   0.6454   0.6480   0.6587
  0.6707   0.6898   0.6922   0.6982   0.7109   0.7265   0.7318   0.7422
  0.7547   0.7664   0.7746   0.7776   0.7810   0.7855   0.7961   0.8015
  0.8060   0.8134   0.8156   0.8256   0.8322   0.8446   0.8598   0.8664
  0.8749   0.8886   0.9035   0.9101   0.9434   0.9556   0.9792   1.0002
  1.0038   1.0152   1.0279   1.0538   1.0744   1.0863   1.0976   1.1145
  1.1221   1.1523   1.1683   1.1794   1.1840   1.2112   1.2247   1.2534
  1.2631   1.2732   1.3439   1.3463   1.3734   1.3777   1.4131   1.4279
  1.4512   1.4799   1.5031   1.5375   1.5577   1.5908   1.6156   1.6654
  1.6715   1.7015   1.7212   1.7530   1.8136   1.8373   1.8531   1.8631
  1.8791   1.8925   1.9128   1.9246   1.9335   1.9425   1.9706   1.9810
  1.9892   1.9937   1.9995   2.0123   2.0235   2.0356   2.0450   2.1052
  2.1074   2.1771   2.1908   2.2088   2.2603   2.2711   2.2974   2.3153
  2.3324   2.3641   2.3978   2.4349   2.4596   2.4750   2.4933   2.5188
  2.5399   2.5741   2.6030   2.6302   2.6366   2.6534   2.6821   2.6933
  2.7159   2.7278   2.7444   2.7534   2.7971   2.8086   2.8330   2.8532
  2.8849   2.9003   2.9202   2.9545   2.9857   3.0157   3.0360   3.0517
  3.0770   3.0848   3.1000   3.1258   3.1384   3.1526   3.1866   3.2152
  3.2402   3.2633   3.2693   3.2878   3.3048   3.3124   3.3145   3.3519
  3.3717   3.3888   3.4088   3.4171   3.4290   3.4463   3.4907   3.5137
  3.5210   3.5375   3.5720   3.5830   3.5926   3.6096   3.6352   3.6508
  3.6743   3.7070   3.7157   3.7442   3.7806   3.7967   3.8287   3.8697
  3.9078   3.9172   3.9731   4.0109   4.0418   4.0958   4.1031   4.1201
  4.1580   4.2375   4.3175   4.3289   4.4380   4.4715   4.5119   4.5352
  4.5831   4.6128   4.6607   4.6773   4.7359   4.7846   4.8391   4.8608
  4.8877   4.9400   4.9948   4.9980   5.0348   5.0642   5.0731   5.1307
  5.1504   5.2223   5.2391   5.3025   5.3722   5.4335   5.4915   5.5424
  5.5888   5.6080   5.6691   5.7102   5.7605   5.7977   5.8797   6.0503
  6.2293   6.2753  22.6226  22.7643  22.8911  23.1135  23.4053  32.6428
 32.8137
 --------------------------------------------------------------
 
          Ground-State Mulliken Net Atomic Charges

     Atom                 Charge (a.u.)
  ----------------------------------------
      1 C                    -0.091058
      2 C                    -0.824174
      3 C                     0.445814
      4 C                    -0.590083
      5 C                    -0.281731
      6 N                    -0.487546
      7 N                     0.104666
      8 H                     0.172601
      9 H                     0.167451
     10 H                     0.201940
     11 H                     0.261851
     12 H                     0.283735
     13 H                     0.171967
     14 H                     0.236625
     15 H                     0.227943
  ----------------------------------------
  Sum of atomic charges =     0.000000

 -----------------------------------------------------------------
                    Cartesian Multipole Moments
 -----------------------------------------------------------------
    Charge (ESU x 10^10)
                -0.0000
    Dipole Moment (Debye)
         X       3.6298      Y       2.4803      Z       0.0846
       Tot       4.3971
    Quadrupole Moments (Debye-Ang)
        XX     -41.5173     XY       5.9634     YY     -25.8450
        XZ       8.4664     YZ       3.7066     ZZ     -44.7515
    Octopole Moments (Debye-Ang^2)
       XXX       5.4780    XXY     -21.6532    XYY      12.7072
       YYY     -25.1927    XXZ    -101.8878    XYZ      13.3884
       YYZ     -77.2580    XZZ      16.0787    YZZ     -29.2727
       ZZZ    -335.6436
    Hexadecapole Moments (Debye-Ang^3)
      XXXX    -224.1647   XXXY     -41.9103   XXYY    -140.9783
      XYYY     -11.2217   YYYY    -583.2942   XXXZ      26.3697
      XXYZ     -24.4853   XYYZ      36.8068   YYYZ     -10.6178
      XXZZ    -320.2388   XYZZ       4.8778   YYZZ    -391.7392
      XZZZ      33.3427   YZZZ    -148.7111   ZZZZ   -1830.0252
 -----------------------------------------------------------------
Archival summary:
1\1\nid00531\SP\ProcedureUnspecified\BasisUnspecified\258\meili\SunSep2617:31:052021SunSep2617:31:052021\0\\#,ProcedureUnspecified,BasisUnspecified,\\0,1\N\C,1,1.34006\H,2,1.08056,1,125.409\N,2,1.33161,1,109.213,3,-179.702,0\H,4,1.01422,2,125.675,1,176.993,0\C,1,1.36935,2,109.056,3,179.739,0\C,6,1.3686,1,106.342,2,-1.67226,0\H,7,1.08246,6,125.568,1,-175.82,0\C,6,1.4937,1,122.296,2,-174.101,0\H,9,1.08758,6,106.595,1,52.2729,0\H,9,1.09043,6,109.205,1,168.068,0\C,9,1.54538,6,116.424,1,-67.7279,0\H,12,1.08913,9,107.424,6,166.434,0\H,12,1.1,9,110.879,6,-77.5484,0\H,12,1.1,9,114.515,6,45.9595,0\\\@

 Total job time:  27367.37s(wall), 54351.66s(cpu) 
 Sun Sep 26 17:31:11 2021

        *************************************************************
        *                                                           *
        *  Thank you very much for using Q-Chem.  Have a nice day.  *
        *                                                           *
        *************************************************************


Done Job For Fragment 1
calling putenv with: QCSCRATCH=/global/cscratch1/sd/meili 
calling putenv with: QCLOCALSCR=/tmp 
calling putenv with: QCTHREADS=32 
Doing General SCFMI
 Exchange:     0.1670 Hartree-Fock + 1.0000 wB97X-V + LR-HF
 Correlation:  1.0000 wB97X-V
 Using Euler-Maclaurin-Lebedev (99,590) quadrature formula
 Nonlocal Correlation:  VV10 with C = 0.0100 and b = 6.00 and scale = 1.00000
 Grid used for NLC:  SG-1 standard quadrature
performing fock build before subrot guess so that all methods have access
Printing subrot_rss_gen Method Specification:
Occupied Subspace Method is 0
Virtual Subspace Method is 0
Energy of the unrelaxed supersystem initial determinant -576.446845257003
performing fock build before subrot guess so that all methods have access
Printing subrot_rss_gen Method Specification:
Occupied Subspace Method is 0
Virtual Subspace Method is 0
Energy of the unrelaxed supersystem initial determinant w/ solvent -576.458598062402
write pseudocanon occs and virts to disk
write pseudocanon orbital energies to disk
Tolerance of ortho_decomp_scf: 1.00e-06
GDM subspace size: 20
Beginning the Orthogonal Decomposition of the Initial Supersystem Wavefunction
    1    -576.4214765283      2.61e-02     ortho_decomp Preconditoned Steepest Descent
    2    -576.4242723046      6.78e-04     ortho_decomp BFGS Step
    3    -576.4242824157      5.69e-05     ortho_decomp BFGS Step
    4    -576.4242824379      2.54e-06     ortho_decomp BFGS Step
    5    -576.4242824380      1.08e-07     ortho_decomp 00000 Convergence criterion met
 Hartree-Fock
 Hartree-Fock
 Hartree-Fock
Doing General SCFMI
 Exchange:     0.1670 Hartree-Fock + 1.0000 wB97X-V + LR-HF
 Correlation:  1.0000 wB97X-V
 Using Euler-Maclaurin-Lebedev (99,590) quadrature formula
 Nonlocal Correlation:  VV10 with C = 0.0100 and b = 6.00 and scale = 1.00000
 Grid used for NLC:  SG-1 standard quadrature
performing fock build at end of subrot_r(subrot) constructor so that all methods have access
<S^2> of initial wavefunction before polarization iterations 0.0000000000
Beginning iterations for the determination of the polarized wavefunction
Energy prior to optimization (guess energy) = -576.458598062403
Begin Timing: Total SCF Calculation
begin iterations for algorithm: DIIS         
the SCF tolerance is set to 1.00e-08
    1    -576.4585980624      5.91e-05     00000 
    2    -576.4589726233      2.30e-05     00000 
    3    -576.4590071097      1.45e-05     00000 
    4    -576.4590207917      3.50e-06     00000 
    5    -576.4590218554      1.94e-06     00000 
    6    -576.4590221200      8.77e-07     00000 
    7    -576.4590221749      4.52e-07     00000 
    8    -576.4590221869      2.11e-07     00000 
    9    -576.4590221891      7.99e-08     00000 
   10    -576.4590221894      4.08e-08     00000 
   11    -576.4590221895      1.91e-08     00000 
   12    -576.4590221895      9.87e-09     00000 Convergence criterion met
write pseudocanon occs and virts to disk
write pseudocanon orbital energies to disk
Timing for Total SCF: 10831.00s (wall), 21535.46s (cpu)
<S^2> of polarized wavefunction after polarization iterations 0.0000000000
relaxing scfmi constraint to allow all rotations in the entire AO span
Doing General SCFMI
 Exchange:     0.1670 Hartree-Fock + 1.0000 wB97X-V + LR-HF
 Correlation:  1.0000 wB97X-V
 Using Euler-Maclaurin-Lebedev (99,590) quadrature formula
 Nonlocal Correlation:  VV10 with C = 0.0100 and b = 6.00 and scale = 1.00000
 Grid used for NLC:  SG-1 standard quadrature
performing fock build at end of subrot_r(subrot) constructor so that all methods have access
<S^2> of polarized wavefunction before ct-allowed iterations 0.0000000000
Beginning iterations for the determination of the CT-Allowed wavefunction
Energy prior to optimization (guess energy) = -576.459022189532
Begin Timing: Total SCF Calculation
begin iterations for algorithm: DIIS         
the SCF tolerance is set to 1.00e-08
    1    -576.4590221895      7.25e-05     00000 
    2    -576.4602447128      8.30e-06     00000 
    3    -576.4602826398      1.70e-06     00000 
    4    -576.4602836383      1.47e-06     00000 
    5    -576.4602840467      2.04e-07     00000 
    6    -576.4602840591      1.15e-07     00000 
    7    -576.4602840626      2.23e-08     00000 
    8    -576.4602840628      1.11e-08     00000 
    9    -576.4602840628      2.44e-09     00000 Convergence criterion met
write pseudocanon occs and virts to disk
write pseudocanon orbital energies to disk
Timing for Total SCF: 7717.00s (wall), 15359.46s (cpu)
<S^2> of ct_allowed wavefunction after ct-allowed iterations 0.0000000000

================================
        Results of EDA2         
================================
Basic EDA Quantities
--------------------
Fragment Energies (Ha):
1 -271.5781481688
2 -304.8787891432
--------------------
  E_prp (kJ/mol) = 0.0000
  E_sol (kJ/mol) = 2.8852
  E_frz (kJ/mol) = -7.2456
  E_pol (kJ/mol) = -1.1136
  E_vct (kJ/mol) = -3.3131
  E_int (kJ/mol) = -8.7870
--------------------


Initial Wavefunction Decomposition
--------------------
  --------------------
  Orthogonal Fragment Subspace Decomposition:
  --------------------
     E_elec   (ELEC)   (kJ/mol) = -29.9440
     E_pauli  (PAULI)  (kJ/mol) = 40.5997
     E_disp   (DISP)   (kJ/mol) = -17.9013
     --------------------
     Terms summing to E_pauli:
     --------------------
        E_kep_pauli       (kJ/mol) = 51.9938
        E_disp_free_pauli (kJ/mol) = -11.3941
  --------------------
  Classical Frozen Decomposition:
  --------------------
     E_cls_elec  (CLS ELEC)  (kJ/mol) = -13.4679
     E_cls_pauli (CLS PAULI) (kJ/mol) = 6.2223
    [E_mod_pauli (MOD PAULI) (kJ/mol) = 24.1236 (CLS PAULI - DISP from orthogonal decomposition) ]
  --------------------
--------------------

Simplified EDA Summary (kJ/mol)
--------------------
 PREPARATION     0.0000
 SOLVATION       2.8852
 FROZEN          10.6557      (does not include dispersion)
[PAULI           40.5997]     (if this is negligible, then frozen describes electrostatics)
 DISPERSION      -17.9013
 POLARIZATION    -1.1136
 CHARGE TRANSFER -3.3131
 TOTAL           -8.7870     (PRP + SOL + FRZ + DISP + POL + CT)
--------------------
 
 --------------------------------------------------------------
 
                    Orbital Energies (a.u.)
 --------------------------------------------------------------
 
 Alpha MOs
 -- Occupied --
-14.4707 -14.3890 -10.3258 -10.2930 -10.2865 -10.2811 -10.2705 -10.2691
-10.2682 -10.2643 -10.2624 -10.2609 -10.2590 -10.2582  -1.1554  -1.0022
 -0.9999  -0.9136  -0.9069  -0.8774  -0.8614  -0.8148  -0.7661  -0.7338
 -0.7280  -0.7064  -0.6860  -0.6638  -0.6319  -0.5761  -0.5737  -0.5680
 -0.5588  -0.5447  -0.5399  -0.5347  -0.5255  -0.5196  -0.5133  -0.4912
 -0.4826  -0.4752  -0.4570  -0.4505  -0.4407  -0.4354  -0.3788  -0.3741
 -0.3472  -0.3386  -0.3240
 -- Virtual --
  0.0551   0.0676   0.0686   0.0714   0.0749   0.0800   0.0870   0.0907
  0.0978   0.1049   0.1118   0.1145   0.1159   0.1261   0.1284   0.1396
  0.1409   0.1471   0.1538   0.1547   0.1608   0.1655   0.1788   0.1802
  0.1831   0.1880   0.1942   0.1999   0.2091   0.2107   0.2139   0.2198
  0.2243   0.2304   0.2322   0.2356   0.2404   0.2452   0.2525   0.2563
  0.2594   0.2618   0.2652   0.2711   0.2728   0.2794   0.2808   0.2867
  0.2877   0.2890   0.2942   0.2980   0.3007   0.3015   0.3031   0.3114
  0.3134   0.3179   0.3192   0.3263   0.3283   0.3328   0.3361   0.3391
  0.3414   0.3429   0.3463   0.3476   0.3505   0.3553   0.3589   0.3607
  0.3639   0.3677   0.3733   0.3759   0.3766   0.3827   0.3847   0.3858
  0.3911   0.3935   0.3979   0.4023   0.4042   0.4079   0.4116   0.4131
  0.4162   0.4197   0.4259   0.4278   0.4294   0.4321   0.4390   0.4429
  0.4454   0.4497   0.4525   0.4554   0.4581   0.4649   0.4679   0.4729
  0.4752   0.4767   0.4788   0.4815   0.4831   0.4847   0.4911   0.4943
  0.5029   0.5044   0.5069   0.5115   0.5133   0.5213   0.5241   0.5248
  0.5272   0.5323   0.5358   0.5431   0.5508   0.5537   0.5559   0.5615
  0.5630   0.5697   0.5740   0.5778   0.5803   0.5826   0.5872   0.5887
  0.5913   0.5971   0.6029   0.6095   0.6136   0.6192   0.6220   0.6296
  0.6361   0.6406   0.6409   0.6455   0.6515   0.6559   0.6663   0.6712
  0.6752   0.6773   0.6822   0.6893   0.6933   0.6969   0.7033   0.7071
  0.7119   0.7163   0.7188   0.7238   0.7304   0.7386   0.7399   0.7425
  0.7464   0.7483   0.7535   0.7585   0.7643   0.7664   0.7750   0.7764
  0.7798   0.7855   0.7860   0.7901   0.7950   0.7981   0.7993   0.8011
  0.8096   0.8100   0.8151   0.8182   0.8229   0.8256   0.8300   0.8378
  0.8428   0.8437   0.8487   0.8529   0.8590   0.8605   0.8635   0.8688
  0.8703   0.8752   0.8798   0.8825   0.8871   0.8961   0.9017   0.9049
  0.9074   0.9151   0.9201   0.9265   0.9361   0.9515   0.9520   0.9558
  0.9624   0.9695   0.9740   0.9895   0.9912   1.0025   1.0064   1.0143
  1.0307   1.0384   1.0469   1.0520   1.0565   1.0642   1.0698   1.0744
  1.0878   1.0938   1.1007   1.1052   1.1120   1.1241   1.1304   1.1358
  1.1376   1.1478   1.1621   1.1632   1.1778   1.1867   1.1944   1.1999
  1.2040   1.2072   1.2180   1.2243   1.2419   1.2497   1.2753   1.2886
  1.2908   1.3045   1.3098   1.3265   1.3363   1.3521   1.3545   1.3624
  1.3834   1.3883   1.3975   1.4099   1.4153   1.4252   1.4320   1.4745
  1.4785   1.4927   1.4965   1.5017   1.5045   1.5134   1.5327   1.5445
  1.5643   1.5704   1.5844   1.6081   1.6185   1.6323   1.6365   1.6396
  1.6538   1.6675   1.6772   1.7014   1.7119   1.7164   1.7345   1.7615
  1.7668   1.7831   1.7967   1.8066   1.8164   1.8212   1.8430   1.8569
  1.8696   1.8801   1.8957   1.8992   1.9078   1.9197   1.9213   1.9339
  1.9380   1.9505   1.9536   1.9633   1.9697   1.9762   1.9828   1.9915
  1.9919   2.0042   2.0070   2.0175   2.0231   2.0307   2.0388   2.0420
  2.0448   2.0642   2.0681   2.0689   2.0839   2.1022   2.1112   2.1202
  2.1291   2.1387   2.1504   2.1677   2.1721   2.1784   2.1975   2.2049
  2.2320   2.2355   2.2598   2.2681   2.2766   2.2843   2.2983   2.3146
  2.3230   2.3356   2.3486   2.3499   2.3626   2.3802   2.3981   2.4148
  2.4204   2.4395   2.4432   2.4578   2.4661   2.4847   2.5108   2.5254
  2.5308   2.5408   2.5553   2.5597   2.5831   2.6019   2.6105   2.6146
  2.6229   2.6393   2.6519   2.6543   2.6639   2.6681   2.6883   2.7009
  2.7094   2.7190   2.7291   2.7338   2.7401   2.7596   2.7650   2.7684
  2.7816   2.8042   2.8111   2.8223   2.8291   2.8361   2.8511   2.8550
  2.8667   2.8715   2.8812   2.8868   2.9026   2.9233   2.9312   2.9335
  2.9496   2.9581   2.9637   2.9820   2.9920   2.9960   3.0075   3.0219
  3.0246   3.0375   3.0434   3.0479   3.0594   3.0789   3.0851   3.1020
  3.1110   3.1159   3.1239   3.1311   3.1487   3.1496   3.1698   3.1746
  3.1910   3.2073   3.2219   3.2255   3.2326   3.2345   3.2425   3.2517
  3.2627   3.2801   3.2876   3.2987   3.3082   3.3098   3.3217   3.3460
  3.3529   3.3626   3.3640   3.3731   3.3791   3.3896   3.3949   3.4078
  3.4197   3.4228   3.4285   3.4485   3.4525   3.4603   3.4651   3.4770
  3.4791   3.4892   3.5014   3.5069   3.5148   3.5249   3.5397   3.5407
  3.5445   3.5540   3.5633   3.5750   3.5766   3.5876   3.5967   3.6074
  3.6112   3.6140   3.6202   3.6279   3.6356   3.6532   3.6691   3.6796
  3.6867   3.7012   3.7082   3.7143   3.7241   3.7370   3.7401   3.7496
  3.7675   3.7924   3.8031   3.8236   3.8283   3.8479   3.8521   3.8943
  3.9126   3.9216   3.9326   3.9387   3.9657   3.9873   3.9971   4.0164
  4.0268   4.0657   4.0705   4.0955   4.1193   4.1309   4.1479   4.1633
  4.1844   4.2319   4.2541   4.2855   4.2996   4.3276   4.3366   4.3463
  4.3518   4.3574   4.3709   4.3928   4.4117   4.4281   4.4511   4.4618
  4.4692   4.4846   4.5084   4.5296   4.5340   4.5487   4.5850   4.5977
  4.6282   4.6370   4.6670   4.6810   4.6978   4.7452   4.7627   4.7923
  4.7990   4.8514   4.8640   4.8795   4.8898   4.9041   4.9382   4.9573
  4.9850   5.0140   5.0205   5.0499   5.0663   5.0803   5.0990   5.1061
  5.1532   5.1658   5.1934   5.2491   5.2749   5.3116   5.3427   5.3864
  5.4306   5.4372   5.4482   5.4949   5.5074   5.5368   5.5517   5.5976
  5.6233   5.6797   5.7268   5.7390   5.7900   5.8219   5.8344   5.8979
  6.0722   6.2344   6.2804  22.6518  22.6595  22.6854  22.8157  22.9430
 22.9607  22.9886  23.0933  23.1344  23.1835  23.4382  23.4958  32.6823
 32.8771
 --------------------------------------------------------------
 
          Ground-State Mulliken Net Atomic Charges

     Atom                 Charge (a.u.)
  ----------------------------------------
      1 C                    -1.049753
      2 C                    -0.251706
      3 C                    -0.329752
      4 C                    -0.733849
      5 C                     0.559805
      6 C                    -0.520655
      7 C                    -0.475571
      8 H                     0.529476
      9 H                     0.401198
     10 H                     0.345281
     11 H                     0.332703
     12 H                     0.277658
     13 H                     0.221924
     14 H                     0.350315
     15 H                     0.278675
     16 C                     0.116877
     17 C                    -0.950522
     18 C                     0.557721
     19 C                    -0.716091
     20 C                    -0.256404
     21 N                    -0.477782
     22 N                     0.089296
     23 H                     0.228626
     24 H                     0.031548
     25 H                     0.230600
     26 H                     0.277729
     27 H                     0.273973
     28 H                     0.172550
     29 H                     0.240331
     30 H                     0.245797
  ----------------------------------------
  Sum of atomic charges =     0.000000

 -----------------------------------------------------------------
                    Cartesian Multipole Moments
 -----------------------------------------------------------------
    Charge (ESU x 10^10)
                 0.0000
    Dipole Moment (Debye)
         X       3.2490      Y       2.2919      Z       0.1880
       Tot       3.9805
    Quadrupole Moments (Debye-Ang)
        XX     -80.3576     XY       8.7297     YY     -69.2071
        XZ       8.6207     YZ       7.3065     ZZ     -84.0720
    Octopole Moments (Debye-Ang^2)
       XXX      21.9431    XXY      14.0465    XYY      13.2086
       YYY      85.7609    XXZ      -0.9166    XYZ       8.3518
       YYZ      32.4692    XZZ      22.6476    YZZ      -8.6122
       ZZZ     -27.7401
    Hexadecapole Moments (Debye-Ang^3)
      XXXX    -635.5117   XXXY    -135.0517   XXYY    -280.0131
      XYYY    -105.6078   YYYY    -975.5551   XXXZ     -66.1003
      XXYZ    -143.3626   XYYZ      21.2022   YYYZ    -380.5841
      XXZZ    -709.0060   XYZZ     -18.6688   YYZZ    -790.9436
      XZZZ     -60.5018   YZZZ    -444.5184   ZZZZ   -3767.6695
 -----------------------------------------------------------------
Archival summary:
1\1\nid00531\SP\ProcedureUnspecified\BasisUnspecified\21216\meili\MonSep2702:34:332021MonSep2702:34:332021\0\\#,ProcedureUnspecified,BasisUnspecified,\\0,1\N\C,1,1.34006\H,2,1.08056,1,125.409\N,2,1.33161,1,109.213,3,-179.702,0\H,4,1.01422,2,125.675,1,176.993,0\C,1,1.36935,2,109.056,3,179.739,0\C,6,1.3686,1,106.342,2,-1.67226,0\H,7,1.08246,6,125.568,1,-175.82,0\C,6,1.4937,1,122.296,2,-174.101,0\H,9,1.08758,6,106.595,1,52.2729,0\H,9,1.09043,6,109.205,1,168.068,0\C,9,1.54538,6,116.424,1,-67.7279,0\H,12,1.08913,9,107.424,6,166.434,0\H,12,1.1,9,110.879,6,-77.5484,0\H,12,1.1,9,114.515,6,45.9595,0\H,10,2.29708,9,118.473,6,6.24324,0\C,16,1.07112,10,114.63,9,136.681,0\C,17,1.36195,16,119.57,10,-92.7765,0\H,18,1.08225,17,120.329,16,0.093384,0\C,17,1.3787,16,118.124,10,85.7287,0\H,20,1.07525,17,119.492,16,-4.74534,0\C,20,1.36716,17,120.466,16,176.342,0\C,18,1.37877,17,119.072,16,179.772,0\H,23,1.0817,18,120.489,17,-179.625,0\C,23,1.38873,18,118.863,17,2.23216,0\H,25,1.07679,23,117.247,18,177.694,0\C,22,1.52613,20,119.277,17,-178.449,0\H,27,1.08674,22,107.978,20,-77.8185,0\H,27,1.09067,22,109.155,20,39.139,0\H,27,1.1,22,113.952,20,161.332,0\\\@

 Total job time:  88219.20s(wall), 64920.42s(cpu) 
 Mon Sep 27 02:34:38 2021

        *************************************************************
        *                                                           *
        *  Thank you very much for using Q-Chem.  Have a nice day.  *
        *                                                           *
        *************************************************************


