
Running Job 1 of 1 SSI-080GLU-155ARG-1_SMD_TZVPD.in
qchem SSI-080GLU-155ARG-1_SMD_TZVPD.in_11368.0 /tmp/qchem11368/ 0
/global/common/cori/software/qchem/5.2/exe/qcprog.exe_s SSI-080GLU-155ARG-1_SMD_TZVPD.in_11368.0 /tmp/qchem11368/
                  Welcome to Q-Chem
     A Quantum Leap Into The Future Of Chemistry


 Q-Chem 5.2, Q-Chem, Inc., Pleasanton, CA (2019)

 License issued to: National Energy Research Scientific Computing Center

 Yihan Shao,  Zhengting Gan,  E. Epifanovsky,  A. T. B. Gilbert,  M. Wormit,  
 J. Kussmann,  A. W. Lange,  A. Behn,  Jia Deng,  Xintian Feng,  D. Ghosh,  
 M. Goldey,  P. R. Horn,  L. D. Jacobson,  I. Kaliman,  T. Kus,  A. Landau,  
 Jie Liu,  E. I. Proynov,  R. M. Richard,  R. P. Steele,  E. J. Sundstrom,  
 H. L. Woodcock III,  P. M. Zimmerman,  D. Zuev,  B. Albrecht,  E. Alguire,  
 S. A. Baeppler,  D. Barton,  Z. Benda,  Y. A. Bernard,  E. J. Berquist,  
 K. B. Bravaya,  H. Burton,  D. Casanova,  Chun-Min Chang,  Yunqing Chen,  
 A. Chien,  K. D. Closser,  M. P. Coons,  S. Coriani,  S. Dasgupta,  
 A. L. Dempwolff,  M. Diedenhofen,  Hainam Do,  R. G. Edgar,  Po-Tung Fang,  
 S. Faraji,  S. Fatehi,  Qingguo Feng,  K. D. Fenk,  J. Fosso-Tande,  
 J. Gayvert,  Qinghui Ge,  A. Ghysels,  G. Gidofalvi,  J. Gomes,  
 J. Gonthier,  A. Gunina,  D. Hait,  M. W. D. Hanson-Heine,  
 P. H. P. Harbach,  A. W. Hauser,  M. F. Herbst,  J. E. Herr,  
 E. G. Hohenstein,  Z. C. Holden,  Kerwin Hui,  B. C. Huynh,  T.-C. Jagau,  
 Hyunjun Ji,  B. Kaduk,  K. Khistyaev,  Jaehoon Kim,  P. Klunzinger,  K. Koh,  
 D. Kosenkov,  L. Koulias,  T. Kowalczyk,  C. M. Krauter,  A. Kunitsa,  
 Ka Un Lao,  A. Laurent,  K. V. Lawler,  Joonho Lee,  D. Lefrancois,  
 S. Lehtola,  D. S. Levine,  Yi-Pei Li,  You-Sheng Lin,  Fenglai Liu,  
 E. Livshits,  A. Luenser,  P. Manohar,  E. Mansoor,  S. F. Manzer,  
 Shan-Ping Mao,  Yuezhi Mao,  N. Mardirossian,  A. V. Marenich,  
 T. Markovich,  L. A. Martinez-Martinez,  S. A. Maurer,  N. J. Mayhall,  
 S. C. McKenzie,  J.-M. Mewes,  P. Morgante,  A. F. Morrison,  
 J. W. Mullinax,  K. Nanda,  T. S. Nguyen-Beck,  R. Olivares-Amaya,  
 J. A. Parkhill,  Zheng Pei,  T. M. Perrine,  F. Plasser,  P. Pokhilko,  
 S. Prager,  A. Prociuk,  E. Ramos,  D. R. Rehn,  F. Rob,  M. Scheurer,  
 M. Schneider,  N. Sergueev,  S. M. Sharada,  S. Sharma,  D. W. Small,  
 T. Stauch,  T. Stein,  Yu-Chuan Su,  A. J. W. Thom,  A. Tkatchenko,  
 T. Tsuchimochi,  N. M. Tubman,  L. Vogt,  M. L. Vidal,  O. Vydrov,  
 M. A. Watson,  J. Wenzel,  M. de Wergifosse,  T. A. Wesolowski,  A. White,  
 J. Witte,  A. Yamada,  Jun Yang,  K. Yao,  S. Yeganeh,  S. R. Yost,  
 Zhi-Qiang You,  A. Zech,  Igor Ying Zhang,  Xing Zhang,  Yan Zhao,  
 Ying Zhu,  B. R. Brooks,  G. K. L. Chan,  C. J. Cramer,  M. S. Gordon,  
 W. J. Hehre,  A. Klamt,  M. W. Schmidt,  C. D. Sherrill,  D. G. Truhlar,  
 A. Aspuru-Guzik,  R. Baer,  A. T. Bell,  N. A. Besley,  Jeng-Da Chai,  
 A. E. DePrince, III,  R. A. DiStasio Jr.,  A. Dreuw,  B. D. Dunietz,  
 T. R. Furlani,  Chao-Ping Hsu,  Yousung Jung,  Jing Kong,  D. S. Lambrecht,  
 WanZhen Liang,  C. Ochsenfeld,  V. A. Rassolov,  L. V. Slipchenko,  
 J. E. Subotnik,  T. Van Voorhis,  J. M. Herbert,  A. I. Krylov,  
 P. M. W. Gill,  M. Head-Gordon

 Contributors to earlier versions of Q-Chem not listed above: 
 R. D. Adamson,  B. Austin,  J. Baker,  G. J. O. Beran,  K. Brandhorst,  
 S. T. Brown,  E. F. C. Byrd,  A. K. Chakraborty,  C.-L. Cheng,  
 Siu Hung Chien,  D. M. Chipman,  D. L. Crittenden,  H. Dachsel,  
 R. J. Doerksen,  A. D. Dutoi,  L. Fusti-Molnar,  W. A. Goddard III,  
 A. Golubeva-Zadorozhnaya,  S. R. Gwaltney,  G. Hawkins,  A. Heyden,  
 S. Hirata,  G. Kedziora,  F. J. Keil,  C. Kelley,  Jihan Kim,  R. A. King,  
 R. Z. Khaliullin,  P. P. Korambath,  W. Kurlancheek,  A. M. Lee,  M. S. Lee,  
 S. V. Levchenko,  Ching Yeh Lin,  D. Liotard,  R. C. Lochan,  I. Lotan,  
 P. E. Maslen,  N. Nair,  D. P. O'Neill,  D. Neuhauser,  E. Neuscamman,  
 C. M. Oana,  R. Olson,  B. Peters,  R. Peverati,  P. A. Pieniazek,  
 Y. M. Rhee,  J. Ritchie,  M. A. Rohrdanz,  E. Rosta,  N. J. Russ,  
 H. F. Schaefer III,  N. E. Schultz,  N. Shenvi,  A. C. Simmonett,  A. Sodt,  
 D. Stuck,  K. S. Thanthiriwatte,  V. Vanovschi,  Tao Wang,  A. Warshel,  
 C. F. Williams,  Q. Wu,  X. Xu,  W. Zhang

 Please cite Q-Chem as follows:
 Y. Shao et al., Mol. Phys. 113, 184-215 (2015)
 DOI: 10.1080/00268976.2014.952696

 Q-Chem 5.2.0 for Intel X86 EM64T Linux

 Parts of Q-Chem use Armadillo 8.300.2 (Tropical Shenanigans).
 http://arma.sourceforge.net/

 Q-Chem begins on Sun Sep 26 11:30:05 2021  

Host: cori01
0

     Scratch files written to /tmp/qchem11368//
 May1019 |scratch|qcdevops|jenkins|workspace|build_RNUM -1
Processing $rem in /global/common/cori/software/qchem/5.2/config/preferences:
	 MEM_TOTAL  96000 
NAlpha2: 72
NElect   72
Mult     1
Symmetry turned off for PCM/SM12/SMD calculation

 Q-Chem warning in module libgen/rem_setup.C, line 2803:

 Neither GIA nor STOLL is specified by user. Use STOLL as the default


Checking the input file for inconsistencies... 	...done.

--------------------------------------------------------------
User input:
--------------------------------------------------------------
$comment
SSI-080GLU-155ARG-1.pdb
$end

$molecule
0 1
--
-1 1
C   -2.127565282945   -0.555355239337   -3.026758494229
C   -1.383565282945   -0.423355239337   -1.708758494229
O   -1.107565282945    0.740644760663   -1.341758494229
O   -1.103565282945   -1.465355239337   -1.039758494229
H   -1.833565282945    0.270644760663   -3.669758494229
H   -3.198565282945   -0.452355239337   -2.833758494229
H   -1.968809282945   -1.510765239337   -3.548278494229
--
1 1
C    1.241434717055    2.286644760663    1.029241505771
C    1.113434717055   -0.125355239337    1.505241505771
N    0.770434717055    0.929644760663    0.794241505771
N    1.994434717055   -0.060355239337    2.493241505771
N    0.581434717055   -1.309355239337    1.224241505771
H    0.084434717055    0.790644760663    0.048241505771
H    1.375434717055    2.467644760663    2.098241505771
H    0.450434717055    2.962644760663    0.698241505771
H    2.383434717055    0.832644760663    2.779241505771
H    2.193434717055   -0.877355239337    3.047241505771
H   -0.071565282945   -1.379355239337    0.435241505771
H    0.789434717055   -2.126355239337    1.772241505771
H    2.160824717055    2.557304760663    0.489361505771
$end

$rem
JOBTYPE			EDA
EDA2			1
method			wB97X-V
BASIS			def2-TZVPD
XC_GRID			000099000590
NL_GRID			1
UNRESTRICTED		FALSE
MAX_SCF_CYCLES		200
SYMMETRY		FALSE
SYM_IGNORE		TRUE
MEM_STATIC		2000
BASIS_LIN_DEP_THRESH 	6
THRESH 			14
SCF_CONVERGENCE 	8
SCF_PRINT_FRGM 		TRUE
SOLVENT_METHOD          SMD
$end

$SMX
SOLVENT			WATER
$END
--------------------------------------------------------------
 ----------------------------------------------------------------
             Standard Nuclear Orientation (Angstroms)
    I     Atom           X                Y                Z
 ----------------------------------------------------------------
    1      C      -2.1275652829    -0.5553552393    -3.0267584942
    2      C      -1.3835652829    -0.4233552393    -1.7087584942
    3      O      -1.1075652829     0.7406447607    -1.3417584942
    4      O      -1.1035652829    -1.4653552393    -1.0397584942
    5      H      -1.8335652829     0.2706447607    -3.6697584942
    6      H      -3.1985652829    -0.4523552393    -2.8337584942
    7      H      -1.9688092829    -1.5107652393    -3.5482784942
    8      C       1.2414347171     2.2866447607     1.0292415058
    9      C       1.1134347171    -0.1253552393     1.5052415058
   10      N       0.7704347171     0.9296447607     0.7942415058
   11      N       1.9944347171    -0.0603552393     2.4932415058
   12      N       0.5814347171    -1.3093552393     1.2242415058
   13      H       0.0844347171     0.7906447607     0.0482415058
   14      H       1.3754347171     2.4676447607     2.0982415058
   15      H       0.4504347171     2.9626447607     0.6982415058
   16      H       2.3834347171     0.8326447607     2.7792415058
   17      H       2.1934347171    -0.8773552393     3.0472415058
   18      H      -0.0715652829    -1.3793552393     0.4352415058
   19      H       0.7894347171    -2.1263552393     1.7722415058
   20      H       2.1608247171     2.5573047607     0.4893615058
 ----------------------------------------------------------------
 Nuclear Repulsion Energy =         464.68834021 hartrees
 There are       36 alpha and       36 beta electrons
 Requested basis set is def2-TZVPD
 There are 174 shells and 438 basis functions

 Total QAlloc Memory Limit  96000 MB
 Mega-Array Size      1956 MB
 MEM_STATIC part      2000 MB
 
 Citation of the SMD model:
 Marenich, A.V.; Cramer, C.J.; Truhlar, D.G.
 J. Phys. Chem. B 2009, 113, 6378-6396.
 iSolventCode=           1
 Solvent: water                                                           
 
 vradii
            1           2           3           4           5           6
    1   1.8500000   1.8500000   1.5200000   1.5200000   1.2000000   1.2000000
            7           8           9          10          11          12
    1   1.2000000   1.8500000   1.8500000   1.8900000   1.8900000   1.8900000
           13          14          15          16          17          18
    1   1.2000000   1.2000000   1.2000000   1.2000000   1.2000000   1.2000000
           19          20
    1   1.2000000   1.2000000
 Changing PCM_VDW_RADII to SMD_RADIUS
 Discretize the solute cavity surface with Lebedev spheres
	Using 110 Lebedev grid points for each H atom
	Using 194 Lebedev grid points for other atoms
	Atomic van der Waals radii will be scaled by 1.20
 Remove points where switching function is < 1.0e-08
 Keep 1498 surface tesserae and discard 1458 interior tesserae
 Molecular Surface Area = 178.034 Angst**2
 A cutoff of  1.0D-14 yielded  13623 shell pairs
 There are     87537 function pairs (    110206 Cartesian)
 Smallest overlap matrix eigenvalue = 7.23E-06

 Scale SEOQF with 1.000000e-01/1.000000e-01/1.000000e-01

 Standard Electronic Orientation quadrupole field applied
 Nucleus-field energy     =    -0.0000000122 hartrees

 -----------------------------------------------------------------------
  General SCF calculation program by
  Eric Jon Sundstrom, Paul Horn, Yuezhi Mao, Dmitri Zuev, Alec White,
  David Stuck, Shaama M.S., Shane Yost, Joonho Lee, David Small,
  Daniel Levine, Susi Lehtola, Hugh Burton, Evgeny Epifanovsky
 -----------------------------------------------------------------------
================================================================
                 ALMO-EDA with the EDA2 driver                  
================================================================
 The second-generation ALMO-EDA (for DFT):                      
 P. R. Horn, Y. Mao and M. Head-Gordon, PCCP, 18, 23067 (2016)  
 Decomposition of the frozen energy:                            
 P. R. Horn, Y. Mao and M. Head-Gordon, JCP, 144, 114107 (2016) 
 FERF model for polarization:                                   
 P. R. Horn and M. Head-Gordon, JCP, 143, 114111 (2015)         
Using eda2 option set 1
Option set summary: Frozen orbital wavefunction, initial wavefunction decomposition, and nDQ polarization.
--------------------------------
Printing EDA Options
--------------------------------
eda_child_super_basis      0
fragmo_guess_mode          0
child_mp                   1
child_mp_orders            232
cls_elec                   1
cls_disp                   0
scfmi_mode                 1
scfmi_occs                 0
scfmi_virts                0
frz_relax                  0
frz_relax_method           0
dc_pen_start               0
dc_pen_conv                0
dc_pen_increment           0
dc_pen_steps               0
dc_pen_thresh_factor       0
dc_pen_pre_newton_thresh   0
frz_ortho_decomp           1
frz_ortho_decomp_conv      6
frgm_method                2
scfmi_freeze_ss            0
separate_rehyb             0
plot_diff_den              0
eda_nocv                   0
eda_vct_relax              1
disp_free_x                0
disp_free_c                0
eda_bsse                   0
eda_pct_a                  0
eda_covp                   0
--------------------------------
Attempting to make child job directory: /tmp/qchem11368//Frg1/
Attempting to make child job directory: /tmp/qchem11368//Frg2/
Creating input file /tmp/qchem11368/Frg1.input
using default PutDataFrgm: nothing
calling putenv with: QCSCRATCH=/tmp/qchem11368/ 
calling putenv with: QCLOCALSCR=/tmp/qchem11368/ 
Spawning Job For Fragment 0
                  Welcome to Q-Chem
     A Quantum Leap Into The Future Of Chemistry


 Q-Chem 5.2, Q-Chem, Inc., Pleasanton, CA (2019)

 License issued to: National Energy Research Scientific Computing Center

 Yihan Shao,  Zhengting Gan,  E. Epifanovsky,  A. T. B. Gilbert,  M. Wormit,  
 J. Kussmann,  A. W. Lange,  A. Behn,  Jia Deng,  Xintian Feng,  D. Ghosh,  
 M. Goldey,  P. R. Horn,  L. D. Jacobson,  I. Kaliman,  T. Kus,  A. Landau,  
 Jie Liu,  E. I. Proynov,  R. M. Richard,  R. P. Steele,  E. J. Sundstrom,  
 H. L. Woodcock III,  P. M. Zimmerman,  D. Zuev,  B. Albrecht,  E. Alguire,  
 S. A. Baeppler,  D. Barton,  Z. Benda,  Y. A. Bernard,  E. J. Berquist,  
 K. B. Bravaya,  H. Burton,  D. Casanova,  Chun-Min Chang,  Yunqing Chen,  
 A. Chien,  K. D. Closser,  M. P. Coons,  S. Coriani,  S. Dasgupta,  
 A. L. Dempwolff,  M. Diedenhofen,  Hainam Do,  R. G. Edgar,  Po-Tung Fang,  
 S. Faraji,  S. Fatehi,  Qingguo Feng,  K. D. Fenk,  J. Fosso-Tande,  
 J. Gayvert,  Qinghui Ge,  A. Ghysels,  G. Gidofalvi,  J. Gomes,  
 J. Gonthier,  A. Gunina,  D. Hait,  M. W. D. Hanson-Heine,  
 P. H. P. Harbach,  A. W. Hauser,  M. F. Herbst,  J. E. Herr,  
 E. G. Hohenstein,  Z. C. Holden,  Kerwin Hui,  B. C. Huynh,  T.-C. Jagau,  
 Hyunjun Ji,  B. Kaduk,  K. Khistyaev,  Jaehoon Kim,  P. Klunzinger,  K. Koh,  
 D. Kosenkov,  L. Koulias,  T. Kowalczyk,  C. M. Krauter,  A. Kunitsa,  
 Ka Un Lao,  A. Laurent,  K. V. Lawler,  Joonho Lee,  D. Lefrancois,  
 S. Lehtola,  D. S. Levine,  Yi-Pei Li,  You-Sheng Lin,  Fenglai Liu,  
 E. Livshits,  A. Luenser,  P. Manohar,  E. Mansoor,  S. F. Manzer,  
 Shan-Ping Mao,  Yuezhi Mao,  N. Mardirossian,  A. V. Marenich,  
 T. Markovich,  L. A. Martinez-Martinez,  S. A. Maurer,  N. J. Mayhall,  
 S. C. McKenzie,  J.-M. Mewes,  P. Morgante,  A. F. Morrison,  
 J. W. Mullinax,  K. Nanda,  T. S. Nguyen-Beck,  R. Olivares-Amaya,  
 J. A. Parkhill,  Zheng Pei,  T. M. Perrine,  F. Plasser,  P. Pokhilko,  
 S. Prager,  A. Prociuk,  E. Ramos,  D. R. Rehn,  F. Rob,  M. Scheurer,  
 M. Schneider,  N. Sergueev,  S. M. Sharada,  S. Sharma,  D. W. Small,  
 T. Stauch,  T. Stein,  Yu-Chuan Su,  A. J. W. Thom,  A. Tkatchenko,  
 T. Tsuchimochi,  N. M. Tubman,  L. Vogt,  M. L. Vidal,  O. Vydrov,  
 M. A. Watson,  J. Wenzel,  M. de Wergifosse,  T. A. Wesolowski,  A. White,  
 J. Witte,  A. Yamada,  Jun Yang,  K. Yao,  S. Yeganeh,  S. R. Yost,  
 Zhi-Qiang You,  A. Zech,  Igor Ying Zhang,  Xing Zhang,  Yan Zhao,  
 Ying Zhu,  B. R. Brooks,  G. K. L. Chan,  C. J. Cramer,  M. S. Gordon,  
 W. J. Hehre,  A. Klamt,  M. W. Schmidt,  C. D. Sherrill,  D. G. Truhlar,  
 A. Aspuru-Guzik,  R. Baer,  A. T. Bell,  N. A. Besley,  Jeng-Da Chai,  
 A. E. DePrince, III,  R. A. DiStasio Jr.,  A. Dreuw,  B. D. Dunietz,  
 T. R. Furlani,  Chao-Ping Hsu,  Yousung Jung,  Jing Kong,  D. S. Lambrecht,  
 WanZhen Liang,  C. Ochsenfeld,  V. A. Rassolov,  L. V. Slipchenko,  
 J. E. Subotnik,  T. Van Voorhis,  J. M. Herbert,  A. I. Krylov,  
 P. M. W. Gill,  M. Head-Gordon

 Contributors to earlier versions of Q-Chem not listed above: 
 R. D. Adamson,  B. Austin,  J. Baker,  G. J. O. Beran,  K. Brandhorst,  
 S. T. Brown,  E. F. C. Byrd,  A. K. Chakraborty,  C.-L. Cheng,  
 Siu Hung Chien,  D. M. Chipman,  D. L. Crittenden,  H. Dachsel,  
 R. J. Doerksen,  A. D. Dutoi,  L. Fusti-Molnar,  W. A. Goddard III,  
 A. Golubeva-Zadorozhnaya,  S. R. Gwaltney,  G. Hawkins,  A. Heyden,  
 S. Hirata,  G. Kedziora,  F. J. Keil,  C. Kelley,  Jihan Kim,  R. A. King,  
 R. Z. Khaliullin,  P. P. Korambath,  W. Kurlancheek,  A. M. Lee,  M. S. Lee,  
 S. V. Levchenko,  Ching Yeh Lin,  D. Liotard,  R. C. Lochan,  I. Lotan,  
 P. E. Maslen,  N. Nair,  D. P. O'Neill,  D. Neuhauser,  E. Neuscamman,  
 C. M. Oana,  R. Olson,  B. Peters,  R. Peverati,  P. A. Pieniazek,  
 Y. M. Rhee,  J. Ritchie,  M. A. Rohrdanz,  E. Rosta,  N. J. Russ,  
 H. F. Schaefer III,  N. E. Schultz,  N. Shenvi,  A. C. Simmonett,  A. Sodt,  
 D. Stuck,  K. S. Thanthiriwatte,  V. Vanovschi,  Tao Wang,  A. Warshel,  
 C. F. Williams,  Q. Wu,  X. Xu,  W. Zhang

 Please cite Q-Chem as follows:
 Y. Shao et al., Mol. Phys. 113, 184-215 (2015)
 DOI: 10.1080/00268976.2014.952696

 Q-Chem 5.2.0 for Intel X86 EM64T Linux

 Parts of Q-Chem use Armadillo 8.300.2 (Tropical Shenanigans).
 http://arma.sourceforge.net/

 Q-Chem begins on Sun Sep 26 11:30:09 2021  

Host: cori01
0

     Scratch files written to /tmp/qchem11368//Frg1//
 May1019 |scratch|qcdevops|jenkins|workspace|build_RNUM -1
Processing $rem in /global/common/cori/software/qchem/5.2/config/preferences:
	 MEM_TOTAL  96000 
NAlpha2: 32
NElect   32
Mult     1
Symmetry turned off for PCM/SM12/SMD calculation

Checking the input file for inconsistencies... 	...done.

--------------------------------------------------------------
User input:
--------------------------------------------------------------
$molecule
-1 1
 6	-2.1275652829	-0.5553552393	-3.0267584942
 6	-1.3835652829	-0.4233552393	-1.7087584942
 8	-1.1075652829	0.7406447607	-1.3417584942
 8	-1.1035652829	-1.4653552393	-1.0397584942
 1	-1.8335652829	0.2706447607	-3.6697584942
 1	-3.1985652829	-0.4523552393	-2.8337584942
 1	-1.9688092829	-1.5107652393	-3.5482784942
$end
$rem
EDA2		1
METHOD		WB97X-V
BASIS		DEF2-TZVPD
XC_GRID		000099000590
NL_GRID		1
UNRESTRICTED		FALSE
MAX_SCF_CYCLES		200
SYMMETRY		FALSE
SYM_IGNORE		TRUE
BASIS_LIN_DEP_THRESH		6
THRESH		14
SCF_CONVERGENCE		8
SCF_PRINT_FRGM		TRUE
SOLVENT_METHOD		SMD
!required keywords
JOBTYPE		SP
SYM_IGNORE		TRUE
SUBSYSTEM		TRUE
GEN_SCFMAN		TRUE
CHILD_INSTRUCTION		2
SYM_IGNORE		TRUE
SCFMI		0
RI_K 0		
PARI_K 0		
MIN_PARI_K 0		
IARI_K 0		
OCC_RI_K 0		
PURECART		1111
MEM_STATIC		2000
MEM_TOTAL		96000
GUI		0
CHILD_MP		1
CHILD_MP_ORDERS		232
FRZ_RELAX		0
FRZ_RELAX_METHOD		0
EDA_CLS_ELEC		1
EDA_CLS_DISP		0
FRZ_ORTHO_DECOMP		1
EDA2		FALSE
FRGM_METHOD		FALSE
CIS_N_ROOTS  0
LOCAL_CIS    0
CIS_RLX_DNS  1
$end
$smx
SOLVENT			WATER
$end
--------------------------------------------------------------
 ----------------------------------------------------------------
             Standard Nuclear Orientation (Angstroms)
    I     Atom           X                Y                Z
 ----------------------------------------------------------------
    1      C      -2.1275652829    -0.5553552393    -3.0267584942
    2      C      -1.3835652829    -0.4233552393    -1.7087584942
    3      O      -1.1075652829     0.7406447607    -1.3417584942
    4      O      -1.1035652829    -1.4653552393    -1.0397584942
    5      H      -1.8335652829     0.2706447607    -3.6697584942
    6      H      -3.1985652829    -0.4523552393    -2.8337584942
    7      H      -1.9688092829    -1.5107652393    -3.5482784942
 ----------------------------------------------------------------
 Nuclear Repulsion Energy =         112.21189443 hartrees
 There are       16 alpha and       16 beta electrons
 Requested basis set is def2-TZVPD
 There are 69 shells and 181 basis functions

 Total QAlloc Memory Limit  96000 MB
 Mega-Array Size      1956 MB
 MEM_STATIC part      2000 MB
 
 Citation of the SMD model:
 Marenich, A.V.; Cramer, C.J.; Truhlar, D.G.
 J. Phys. Chem. B 2009, 113, 6378-6396.
 iSolventCode=           1
 Solvent: water                                                           
 
 vradii
            1           2           3           4           5           6
    1   1.8500000   1.8500000   1.5200000   1.5200000   1.2000000   1.2000000
            7
    1   1.2000000
 Changing PCM_VDW_RADII to SMD_RADIUS
 Discretize the solute cavity surface with Lebedev spheres
	Using 110 Lebedev grid points for each H atom
	Using 194 Lebedev grid points for other atoms
	Atomic van der Waals radii will be scaled by 1.20
 Remove points where switching function is < 1.0e-08
 Keep 648 surface tesserae and discard 458 interior tesserae
 Molecular Surface Area = 80.000 Angst**2

                       Distance Matrix (Angstroms)
             C (  1)   C (  2)   O (  3)   O (  4)   H (  5)   H (  6)
   C (  2)  1.519238
   O (  3)  2.357804  1.251304
   O (  4)  2.413472  1.269537  2.226579
   H (  5)  1.087272  2.128299  2.483457  3.234733
   H (  6)  1.093114  2.135577  2.832242  2.938304  1.756374
   H (  7)  1.099998  2.215582  3.267923  2.653937  1.790662  1.772871

 
 A cutoff of  1.0D-14 yielded   2391 shell pairs
 There are     16695 function pairs (     21491 Cartesian)
 Smallest overlap matrix eigenvalue = 1.70E-05

 Scale SEOQF with 1.000000e-01/1.000000e-01/1.000000e-01

 Standard Electronic Orientation quadrupole field applied
 Nucleus-field energy     =    -0.0000000093 hartrees
 Guess from superposition of atomic densities
 Warning:  Energy on first SCF cycle will be non-variational
 SAD guess density has 30.625312 electrons

 -----------------------------------------------------------------------
  General SCF calculation program by
  Eric Jon Sundstrom, Paul Horn, Yuezhi Mao, Dmitri Zuev, Alec White,
  David Stuck, Shaama M.S., Shane Yost, Joonho Lee, David Small,
  Daniel Levine, Susi Lehtola, Hugh Burton, Evgeny Epifanovsky
 -----------------------------------------------------------------------
 Exchange:     0.1670 Hartree-Fock + 1.0000 wB97X-V + LR-HF
 Correlation:  1.0000 wB97X-V
 Using Euler-Maclaurin-Lebedev (99,590) quadrature formula
 Nonlocal Correlation:  VV10 with C = 0.0100 and b = 6.00 and scale = 1.00000
 Grid used for NLC:  SG-1 standard quadrature
Energy prior to optimization (guess energy) = -227.759672005283
Begin Timing: Total SCF Calculation
begin iterations for algorithm: DIIS         
the SCF tolerance is set to 1.00e-08
    1    -227.7596720053      1.66e-02     00000 
    2    -225.6245375339      2.49e-02     00000 
    3    -228.6063788292      4.10e-03     00000 
    4    -228.6587564500      1.50e-03     00000 
    5    -228.6651839793      4.63e-04     00000 
    6    -228.6657408789      2.36e-04     00000 
    7    -228.6659035724      4.36e-05     00000 
    8    -228.6659120959      1.30e-05     00000 
    9    -228.6659131693      3.70e-06     00000 
   10    -228.6659132727      1.09e-06     00000 
   11    -228.6659132824      2.11e-07     00000 
   12    -228.6659132828      4.58e-08     00000 
   13    -228.6659132828      1.09e-08     00000 
   14    -228.6659132828      2.73e-09     00000 Convergence criterion met
Timing for Total SCF: 277.00s (wall), 521.38s (cpu)
(3)  G-ENP(liq) elect-nuc-pol free energy of system     -228.665913283 a.u.
(4)  G-CDS(liq) cavity-dispersion-solvent structure 
     free energy                                                3.8513 kcal/mol
(6)  G-S(liq) free energy of system                     -228.659775790 a.u.
E_pcm = -0.1305384775
E_cds = 0.0061374930
Multipole orders to be included
        2
        3
computing dipole RHS
computing quadrupole RHS
total number of RHS in solve_reponses: 8
RHS batch sizes
        8
Beginning Block Conjugate Gradient Iterations. Batch Number: 0
computing hessian-vector products by finite difference
              1      7.84e-01     00000 Conjugate Gradient Iteration
computing hessian-vector products by finite difference
              2      2.45e-01     00000 Conjugate Gradient Iteration
computing hessian-vector products by finite difference
              3      6.78e-02     00000 Conjugate Gradient Iteration
computing hessian-vector products by finite difference
              4      1.84e-02     00000 Conjugate Gradient Iteration
computing hessian-vector products by finite difference
              5      2.76e-03     00000 Conjugate Gradient Iteration
computing hessian-vector products by finite difference
              6      7.43e-04     00000 Conjugate Gradient Iteration
computing hessian-vector products by finite difference
              7      1.06e-04     00000 Conjugate Gradient Iteration
computing hessian-vector products by finite difference
              8      1.30e-05     00000 Conjugate Gradient Iteration
computing hessian-vector products by finite difference
              9      2.00e-06     00000 Conjugate Gradient Iteration
computing hessian-vector products by finite difference
             10      1.95e-07     00000 Conjugate Gradient Iteration
computing hessian-vector products by finite difference
             11      3.19e-08     00000 Conjugate Gradient Iteration
computing hessian-vector products by finite difference
             12      5.51e-09     00000 CG Converged
batch 0 complete
Done Calculating Responses
TESTING ORTHOGONALIZATION OF MULTIPOLE BASIS
Multipole virts passed orthogonality test
Virts Per Order
        48
        80
 
 --------------------------------------------------------------
 
                    Orbital Energies (a.u.)
 --------------------------------------------------------------
 
 Alpha MOs
 -- Occupied --
-19.1557 -19.1548 -10.3575 -10.2464  -1.1613  -1.0644  -0.8405  -0.6192
 -0.5470  -0.5449  -0.5412  -0.4827  -0.4602  -0.3663  -0.3573  -0.3471
 -- Virtual --
  0.0669   0.1001   0.1006   0.1069   0.1355   0.1424   0.1456   0.1509
  0.1546   0.1901   0.2059   0.2196   0.2366   0.2397   0.2577   0.2660
  0.2987   0.3117   0.3332   0.3471   0.3557   0.3648   0.3732   0.3772
  0.3827   0.4043   0.4168   0.4215   0.4315   0.4534   0.4659   0.4739
  0.4832   0.4875   0.5026   0.5109   0.5423   0.5658   0.5662   0.5983
  0.6221   0.6261   0.6281   0.6435   0.6476   0.6694   0.6799   0.6925
  0.7065   0.7213   0.7796   0.7910   0.8057   0.8105   0.8291   0.8424
  0.8621   0.9577   0.9797   0.9836   0.9944   1.0175   1.0553   1.0765
  1.1251   1.2170   1.2371   1.2521   1.2607   1.3006   1.3415   1.3731
  1.4162   1.5309   1.5763   1.7412   1.8009   1.8499   1.8599   1.8874
  1.9139   1.9338   1.9490   1.9549   2.0080   2.0833   2.1111   2.1718
  2.1880   2.2067   2.2853   2.3264   2.4046   2.4316   2.4426   2.4701
  2.5476   2.5656   2.6270   2.6511   2.7571   2.8090   2.8447   2.8873
  2.9373   3.0033   3.0616   3.1211   3.2047   3.2238   3.2600   3.2815
  3.3328   3.3383   3.3600   3.3934   3.4020   3.5071   3.5596   3.5738
  3.5829   3.6285   3.6927   3.7042   3.7280   3.8135   3.9485   4.0360
  4.0807   4.1941   4.3187   4.5777   4.5973   4.6599   4.7857   4.8017
  4.9681   5.2949   5.3234   5.3292   5.3420   5.4683   5.6712   5.7061
  5.7634   5.9663   6.2078   6.2806   6.3031   6.5779   6.5961   6.6686
  6.7116   6.7202   6.8968   6.9388   7.0097   7.1951   7.3221   7.3287
  7.3756  22.5883  23.6434  44.1870  44.3255
 --------------------------------------------------------------
 
          Ground-State Mulliken Net Atomic Charges

     Atom                 Charge (a.u.)
  ----------------------------------------
      1 C                    -0.597988
      2 C                     0.501438
      3 O                    -0.758292
      4 O                    -0.785356
      5 H                     0.211076
      6 H                     0.192928
      7 H                     0.236194
  ----------------------------------------
  Sum of atomic charges =    -1.000000

 -----------------------------------------------------------------
                    Cartesian Multipole Moments
 -----------------------------------------------------------------
    Charge (ESU x 10^10)
                -4.8032
    Dipole Moment (Debye)
         X       4.1419      Y       1.6854      Z       3.6942
       Tot       5.8003
    Quadrupole Moments (Debye-Ang)
        XX     -27.9531     XY      -1.4112     YY     -36.6291
        XZ      -2.2208     YZ       0.2237     ZZ     -26.6158
    Octopole Moments (Debye-Ang^2)
       XXX     109.7264    XXY      11.9171    XYY      50.1936
       YYY      44.9770    XXZ      45.7151    XYZ      -1.2190
       YYZ      58.5773    XZZ      35.3941    YZZ       7.4691
       ZZZ     135.5112
    Hexadecapole Moments (Debye-Ang^3)
      XXXX    -376.7912   XXXY     -51.2541   XXYY    -109.7266
      XYYY     -65.2313   YYYY    -187.8014   XXXZ    -225.8657
      XXYZ     -16.9666   XYYZ     -92.1337   YYYZ     -69.9890
      XXZZ    -168.8010   XYZZ     -10.9333   YYZZ    -146.8589
      XZZZ    -226.4583   YZZZ     -49.8510   ZZZZ    -642.1105
 -----------------------------------------------------------------
Archival summary:
1\1\nid00569\SP\ProcedureUnspecified\BasisUnspecified\223(1-,1)\meili\SunSep2612:46:152021SunSep2612:46:152021\0\\#,ProcedureUnspecified,BasisUnspecified,\\-1,1\C\O,1,1.2513\O,1,1.26954,2,124.077\C,1,1.51924,2,116.314,3,178.578,0\H,4,1.08727,1,108.338,2,30.6019,0\H,4,1.09311,1,108.569,2,-85.647,0\H,4,1.1,1,114.588,2,153.701,0\\\@

 Total job time:  4567.08s(wall), 8533.02s(cpu) 
 Sun Sep 26 12:46:16 2021

        *************************************************************
        *                                                           *
        *  Thank you very much for using Q-Chem.  Have a nice day.  *
        *                                                           *
        *************************************************************


Done Job For Fragment 0
calling putenv with: QCSCRATCH=/global/cscratch1/sd/meili 
calling putenv with: QCLOCALSCR=/tmp 
calling putenv with: QCTHREADS=32 
Creating input file /tmp/qchem11368/Frg2.input
using default PutDataFrgm: nothing
calling putenv with: QCSCRATCH=/tmp/qchem11368/ 
calling putenv with: QCLOCALSCR=/tmp/qchem11368/ 
Spawning Job For Fragment 1
                  Welcome to Q-Chem
     A Quantum Leap Into The Future Of Chemistry


 Q-Chem 5.2, Q-Chem, Inc., Pleasanton, CA (2019)

 License issued to: National Energy Research Scientific Computing Center

 Yihan Shao,  Zhengting Gan,  E. Epifanovsky,  A. T. B. Gilbert,  M. Wormit,  
 J. Kussmann,  A. W. Lange,  A. Behn,  Jia Deng,  Xintian Feng,  D. Ghosh,  
 M. Goldey,  P. R. Horn,  L. D. Jacobson,  I. Kaliman,  T. Kus,  A. Landau,  
 Jie Liu,  E. I. Proynov,  R. M. Richard,  R. P. Steele,  E. J. Sundstrom,  
 H. L. Woodcock III,  P. M. Zimmerman,  D. Zuev,  B. Albrecht,  E. Alguire,  
 S. A. Baeppler,  D. Barton,  Z. Benda,  Y. A. Bernard,  E. J. Berquist,  
 K. B. Bravaya,  H. Burton,  D. Casanova,  Chun-Min Chang,  Yunqing Chen,  
 A. Chien,  K. D. Closser,  M. P. Coons,  S. Coriani,  S. Dasgupta,  
 A. L. Dempwolff,  M. Diedenhofen,  Hainam Do,  R. G. Edgar,  Po-Tung Fang,  
 S. Faraji,  S. Fatehi,  Qingguo Feng,  K. D. Fenk,  J. Fosso-Tande,  
 J. Gayvert,  Qinghui Ge,  A. Ghysels,  G. Gidofalvi,  J. Gomes,  
 J. Gonthier,  A. Gunina,  D. Hait,  M. W. D. Hanson-Heine,  
 P. H. P. Harbach,  A. W. Hauser,  M. F. Herbst,  J. E. Herr,  
 E. G. Hohenstein,  Z. C. Holden,  Kerwin Hui,  B. C. Huynh,  T.-C. Jagau,  
 Hyunjun Ji,  B. Kaduk,  K. Khistyaev,  Jaehoon Kim,  P. Klunzinger,  K. Koh,  
 D. Kosenkov,  L. Koulias,  T. Kowalczyk,  C. M. Krauter,  A. Kunitsa,  
 Ka Un Lao,  A. Laurent,  K. V. Lawler,  Joonho Lee,  D. Lefrancois,  
 S. Lehtola,  D. S. Levine,  Yi-Pei Li,  You-Sheng Lin,  Fenglai Liu,  
 E. Livshits,  A. Luenser,  P. Manohar,  E. Mansoor,  S. F. Manzer,  
 Shan-Ping Mao,  Yuezhi Mao,  N. Mardirossian,  A. V. Marenich,  
 T. Markovich,  L. A. Martinez-Martinez,  S. A. Maurer,  N. J. Mayhall,  
 S. C. McKenzie,  J.-M. Mewes,  P. Morgante,  A. F. Morrison,  
 J. W. Mullinax,  K. Nanda,  T. S. Nguyen-Beck,  R. Olivares-Amaya,  
 J. A. Parkhill,  Zheng Pei,  T. M. Perrine,  F. Plasser,  P. Pokhilko,  
 S. Prager,  A. Prociuk,  E. Ramos,  D. R. Rehn,  F. Rob,  M. Scheurer,  
 M. Schneider,  N. Sergueev,  S. M. Sharada,  S. Sharma,  D. W. Small,  
 T. Stauch,  T. Stein,  Yu-Chuan Su,  A. J. W. Thom,  A. Tkatchenko,  
 T. Tsuchimochi,  N. M. Tubman,  L. Vogt,  M. L. Vidal,  O. Vydrov,  
 M. A. Watson,  J. Wenzel,  M. de Wergifosse,  T. A. Wesolowski,  A. White,  
 J. Witte,  A. Yamada,  Jun Yang,  K. Yao,  S. Yeganeh,  S. R. Yost,  
 Zhi-Qiang You,  A. Zech,  Igor Ying Zhang,  Xing Zhang,  Yan Zhao,  
 Ying Zhu,  B. R. Brooks,  G. K. L. Chan,  C. J. Cramer,  M. S. Gordon,  
 W. J. Hehre,  A. Klamt,  M. W. Schmidt,  C. D. Sherrill,  D. G. Truhlar,  
 A. Aspuru-Guzik,  R. Baer,  A. T. Bell,  N. A. Besley,  Jeng-Da Chai,  
 A. E. DePrince, III,  R. A. DiStasio Jr.,  A. Dreuw,  B. D. Dunietz,  
 T. R. Furlani,  Chao-Ping Hsu,  Yousung Jung,  Jing Kong,  D. S. Lambrecht,  
 WanZhen Liang,  C. Ochsenfeld,  V. A. Rassolov,  L. V. Slipchenko,  
 J. E. Subotnik,  T. Van Voorhis,  J. M. Herbert,  A. I. Krylov,  
 P. M. W. Gill,  M. Head-Gordon

 Contributors to earlier versions of Q-Chem not listed above: 
 R. D. Adamson,  B. Austin,  J. Baker,  G. J. O. Beran,  K. Brandhorst,  
 S. T. Brown,  E. F. C. Byrd,  A. K. Chakraborty,  C.-L. Cheng,  
 Siu Hung Chien,  D. M. Chipman,  D. L. Crittenden,  H. Dachsel,  
 R. J. Doerksen,  A. D. Dutoi,  L. Fusti-Molnar,  W. A. Goddard III,  
 A. Golubeva-Zadorozhnaya,  S. R. Gwaltney,  G. Hawkins,  A. Heyden,  
 S. Hirata,  G. Kedziora,  F. J. Keil,  C. Kelley,  Jihan Kim,  R. A. King,  
 R. Z. Khaliullin,  P. P. Korambath,  W. Kurlancheek,  A. M. Lee,  M. S. Lee,  
 S. V. Levchenko,  Ching Yeh Lin,  D. Liotard,  R. C. Lochan,  I. Lotan,  
 P. E. Maslen,  N. Nair,  D. P. O'Neill,  D. Neuhauser,  E. Neuscamman,  
 C. M. Oana,  R. Olson,  B. Peters,  R. Peverati,  P. A. Pieniazek,  
 Y. M. Rhee,  J. Ritchie,  M. A. Rohrdanz,  E. Rosta,  N. J. Russ,  
 H. F. Schaefer III,  N. E. Schultz,  N. Shenvi,  A. C. Simmonett,  A. Sodt,  
 D. Stuck,  K. S. Thanthiriwatte,  V. Vanovschi,  Tao Wang,  A. Warshel,  
 C. F. Williams,  Q. Wu,  X. Xu,  W. Zhang

 Please cite Q-Chem as follows:
 Y. Shao et al., Mol. Phys. 113, 184-215 (2015)
 DOI: 10.1080/00268976.2014.952696

 Q-Chem 5.2.0 for Intel X86 EM64T Linux

 Parts of Q-Chem use Armadillo 8.300.2 (Tropical Shenanigans).
 http://arma.sourceforge.net/

 Q-Chem begins on Sun Sep 26 12:46:17 2021  

Host: cori01
0

     Scratch files written to /tmp/qchem11368//Frg2//
 May1019 |scratch|qcdevops|jenkins|workspace|build_RNUM -1
Processing $rem in /global/common/cori/software/qchem/5.2/config/preferences:
	 MEM_TOTAL  96000 
NAlpha2: 40
NElect   40
Mult     1
Symmetry turned off for PCM/SM12/SMD calculation

Checking the input file for inconsistencies... 	...done.

--------------------------------------------------------------
User input:
--------------------------------------------------------------
$molecule
1 1
 6	1.2414347171	2.2866447607	1.0292415058
 6	1.1134347171	-0.1253552393	1.5052415058
 7	0.7704347171	0.9296447607	0.7942415058
 7	1.9944347171	-0.0603552393	2.4932415058
 7	0.5814347171	-1.3093552393	1.2242415058
 1	0.0844347171	0.7906447607	0.0482415058
 1	1.3754347171	2.4676447607	2.0982415058
 1	0.4504347171	2.9626447607	0.6982415058
 1	2.3834347171	0.8326447607	2.7792415058
 1	2.1934347171	-0.8773552393	3.0472415058
 1	-0.0715652829	-1.3793552393	0.4352415058
 1	0.7894347171	-2.1263552393	1.7722415058
 1	2.1608247171	2.5573047607	0.4893615058
$end
$rem
EDA2		1
METHOD		WB97X-V
BASIS		DEF2-TZVPD
XC_GRID		000099000590
NL_GRID		1
UNRESTRICTED		FALSE
MAX_SCF_CYCLES		200
SYMMETRY		FALSE
SYM_IGNORE		TRUE
BASIS_LIN_DEP_THRESH		6
THRESH		14
SCF_CONVERGENCE		8
SCF_PRINT_FRGM		TRUE
SOLVENT_METHOD		SMD
!required keywords
JOBTYPE		SP
SYM_IGNORE		TRUE
SUBSYSTEM		TRUE
GEN_SCFMAN		TRUE
CHILD_INSTRUCTION		2
SYM_IGNORE		TRUE
SCFMI		0
RI_K 0		
PARI_K 0		
MIN_PARI_K 0		
IARI_K 0		
OCC_RI_K 0		
PURECART		1111
MEM_STATIC		2000
MEM_TOTAL		96000
GUI		0
CHILD_MP		1
CHILD_MP_ORDERS		232
FRZ_RELAX		0
FRZ_RELAX_METHOD		0
EDA_CLS_ELEC		1
EDA_CLS_DISP		0
FRZ_ORTHO_DECOMP		1
EDA2		FALSE
FRGM_METHOD		FALSE
CIS_N_ROOTS  0
LOCAL_CIS    0
CIS_RLX_DNS  1
$end
$smx
SOLVENT			WATER
$end
--------------------------------------------------------------
 ----------------------------------------------------------------
             Standard Nuclear Orientation (Angstroms)
    I     Atom           X                Y                Z
 ----------------------------------------------------------------
    1      C       1.2414347171     2.2866447607     1.0292415058
    2      C       1.1134347171    -0.1253552393     1.5052415058
    3      N       0.7704347171     0.9296447607     0.7942415058
    4      N       1.9944347171    -0.0603552393     2.4932415058
    5      N       0.5814347171    -1.3093552393     1.2242415058
    6      H       0.0844347171     0.7906447607     0.0482415058
    7      H       1.3754347171     2.4676447607     2.0982415058
    8      H       0.4504347171     2.9626447607     0.6982415058
    9      H       2.3834347171     0.8326447607     2.7792415058
   10      H       2.1934347171    -0.8773552393     3.0472415058
   11      H      -0.0715652829    -1.3793552393     0.4352415058
   12      H       0.7894347171    -2.1263552393     1.7722415058
   13      H       2.1608247171     2.5573047607     0.4893615058
 ----------------------------------------------------------------
 Nuclear Repulsion Energy =         193.90147276 hartrees
 There are       20 alpha and       20 beta electrons
 Requested basis set is def2-TZVPD
 There are 105 shells and 257 basis functions

 Total QAlloc Memory Limit  96000 MB
 Mega-Array Size      1956 MB
 MEM_STATIC part      2000 MB
 
 Citation of the SMD model:
 Marenich, A.V.; Cramer, C.J.; Truhlar, D.G.
 J. Phys. Chem. B 2009, 113, 6378-6396.
 iSolventCode=           1
 Solvent: water                                                           
 
 vradii
            1           2           3           4           5           6
    1   1.8500000   1.8500000   1.8900000   1.8900000   1.8900000   1.2000000
            7           8           9          10          11          12
    1   1.2000000   1.2000000   1.2000000   1.2000000   1.2000000   1.2000000
           13
    1   1.2000000
 Changing PCM_VDW_RADII to SMD_RADIUS
 Discretize the solute cavity surface with Lebedev spheres
	Using 110 Lebedev grid points for each H atom
	Using 194 Lebedev grid points for other atoms
	Atomic van der Waals radii will be scaled by 1.20
 Remove points where switching function is < 1.0e-08
 Keep 920 surface tesserae and discard 930 interior tesserae
 Molecular Surface Area = 113.767 Angst**2

                       Distance Matrix (Angstroms)
             C (  1)   C (  2)   N (  3)   N (  4)   N (  5)   H (  6)
   C (  2)  2.461850
   N (  3)  1.455512  1.317648
   N (  4)  2.866830  1.325341  2.316220
   N (  5)  3.661262  1.328097  2.287737  2.273088
   H (  6)  2.130499  2.005180  1.022953  3.217192  2.457638
   H (  7)  1.092464  2.672815  2.105204  2.632484  3.957277  2.946440
   H (  8)  1.091887  3.259841  2.060268  3.839855  4.306254  2.296528
   H (  9)  2.545738  2.038073  2.559571  1.015168  3.202092  3.570088
   H ( 10)  3.871631  2.027232  3.219656  1.006979  2.471537  4.027916
   H ( 11)  3.939081  2.030183  2.483813  3.200544  1.026562  2.209752
   H ( 12)  4.497880  2.044570  3.208735  2.498044  1.005513  3.460938
   H ( 13)  1.100002  3.053801  2.162270  3.300813  4.240941  2.761715
             H (  7)   H (  8)   H (  9)   H ( 10)   H ( 11)   H ( 12)
   H (  8)  1.749471
   H (  9)  2.037903  3.550204
   H ( 10)  3.571939  4.827158  1.741271
   H ( 11)  4.433823  4.381166  4.051457  3.493533
   H ( 12)  4.642683  5.212132  3.508642  2.270868  1.756957
   H ( 13)  1.792588  1.770131  2.875336  4.282605  4.525902  5.046104

 
 A cutoff of  1.0D-14 yielded   5439 shell pairs
 There are     33161 function pairs (     41494 Cartesian)
 Smallest overlap matrix eigenvalue = 1.67E-05

 Scale SEOQF with 1.000000e-01/1.000000e-01/1.000000e-01

 Standard Electronic Orientation quadrupole field applied
 Nucleus-field energy     =    -0.0000000030 hartrees
 Guess from superposition of atomic densities
 Warning:  Energy on first SCF cycle will be non-variational
 SAD guess density has 40.388232 electrons

 -----------------------------------------------------------------------
  General SCF calculation program by
  Eric Jon Sundstrom, Paul Horn, Yuezhi Mao, Dmitri Zuev, Alec White,
  David Stuck, Shaama M.S., Shane Yost, Joonho Lee, David Small,
  Daniel Levine, Susi Lehtola, Hugh Burton, Evgeny Epifanovsky
 -----------------------------------------------------------------------
 Exchange:     0.1670 Hartree-Fock + 1.0000 wB97X-V + LR-HF
 Correlation:  1.0000 wB97X-V
 Using Euler-Maclaurin-Lebedev (99,590) quadrature formula
 Nonlocal Correlation:  VV10 with C = 0.0100 and b = 6.00 and scale = 1.00000
 Grid used for NLC:  SG-1 standard quadrature
Energy prior to optimization (guess energy) = -244.726302199628
Begin Timing: Total SCF Calculation
begin iterations for algorithm: DIIS         
the SCF tolerance is set to 1.00e-08
    1    -244.7263021996      7.91e-03     00000 
    2    -244.9644136255      6.24e-03     00000 
    3    -245.2049912790      3.13e-04     00000 
    4    -245.2059096448      1.54e-04     00000 
    5    -245.2061049024      4.16e-05     00000 
    6    -245.2061205042      1.81e-05     00000 
    7    -245.2061231000      3.53e-06     00000 
    8    -245.2061232804      8.81e-07     00000 
    9    -245.2061232916      3.55e-07     00000 
   10    -245.2061232936      8.39e-08     00000 
   11    -245.2061232938      3.40e-08     00000 
   12    -245.2061232938      1.59e-08     00000 
   13    -245.2061232938      2.12e-09     00000 Convergence criterion met
Timing for Total SCF: 746.00s (wall), 1408.42s (cpu)
(3)  G-ENP(liq) elect-nuc-pol free energy of system     -245.206123294 a.u.
(4)  G-CDS(liq) cavity-dispersion-solvent structure 
     free energy                                                2.7847 kcal/mol
(6)  G-S(liq) free energy of system                     -245.201685564 a.u.
E_pcm = -0.1083759963
E_cds = 0.0044377300
Multipole orders to be included
        2
        3
computing dipole RHS
computing quadrupole RHS
total number of RHS in solve_reponses: 8
RHS batch sizes
        8
Beginning Block Conjugate Gradient Iterations. Batch Number: 0
computing hessian-vector products by finite difference
              1      4.74e-01     00000 Conjugate Gradient Iteration
computing hessian-vector products by finite difference
              2      1.77e-01     00000 Conjugate Gradient Iteration
computing hessian-vector products by finite difference
              3      5.27e-02     00000 Conjugate Gradient Iteration
computing hessian-vector products by finite difference
              4      1.46e-02     00000 Conjugate Gradient Iteration
computing hessian-vector products by finite difference
              5      1.98e-03     00000 Conjugate Gradient Iteration
computing hessian-vector products by finite difference
              6      3.36e-04     00000 Conjugate Gradient Iteration
computing hessian-vector products by finite difference
              7      4.44e-05     00000 Conjugate Gradient Iteration
computing hessian-vector products by finite difference
              8      5.82e-06     00000 Conjugate Gradient Iteration
computing hessian-vector products by finite difference
              9      8.47e-07     00000 Conjugate Gradient Iteration
computing hessian-vector products by finite difference
             10      1.75e-07     00000 Conjugate Gradient Iteration
computing hessian-vector products by finite difference
             11      2.92e-08     00000 Conjugate Gradient Iteration
computing hessian-vector products by finite difference
             12      5.25e-09     00000 CG Converged
batch 0 complete
Done Calculating Responses
TESTING ORTHOGONALIZATION OF MULTIPOLE BASIS
Multipole virts passed orthogonality test
Virts Per Order
           60
          100
 
 --------------------------------------------------------------
 
                    Orbital Energies (a.u.)
 --------------------------------------------------------------
 
 Alpha MOs
 -- Occupied --
-14.4585 -14.4483 -14.4452 -10.4234 -10.3050  -1.1722  -1.0576  -1.0376
 -0.8547  -0.7640  -0.7195  -0.6870  -0.6193  -0.6054  -0.5946  -0.5727
 -0.5251  -0.5045  -0.3980  -0.3776
 -- Virtual --
  0.0587   0.0850   0.0979   0.1029   0.1235   0.1255   0.1379   0.1509
  0.1715   0.1767   0.1947   0.1981   0.2058   0.2133   0.2222   0.2409
  0.2424   0.2447   0.2468   0.2722   0.2806   0.2843   0.2943   0.3050
  0.3105   0.3211   0.3231   0.3260   0.3376   0.3442   0.3512   0.3619
  0.3725   0.3734   0.3789   0.3931   0.4063   0.4124   0.4169   0.4293
  0.4396   0.4471   0.4613   0.4642   0.4748   0.4795   0.4851   0.4986
  0.5009   0.5137   0.5171   0.5210   0.5310   0.5376   0.5519   0.5548
  0.5656   0.5747   0.5824   0.5844   0.6067   0.6216   0.6406   0.6503
  0.6618   0.6788   0.6837   0.7032   0.7237   0.7345   0.7462   0.7686
  0.7983   0.8033   0.8177   0.8274   0.8411   0.8466   0.8622   0.8683
  0.8816   0.8907   0.9016   0.9201   0.9356   0.9797   0.9842   0.9957
  1.0389   1.0645   1.0774   1.0983   1.1005   1.1212   1.1336   1.1426
  1.1539   1.1746   1.2117   1.2629   1.2802   1.3461   1.3658   1.4141
  1.4325   1.4550   1.4782   1.4853   1.5578   1.5744   1.6374   1.6760
  1.6778   1.7112   1.7577   1.7941   1.8410   1.8583   1.8807   1.8931
  1.9164   1.9278   1.9373   1.9597   2.0043   2.0102   2.0429   2.0672
  2.1185   2.1252   2.1751   2.1988   2.2181   2.2357   2.2759   2.3079
  2.3318   2.3496   2.3803   2.4022   2.4458   2.4695   2.4987   2.5166
  2.5537   2.5918   2.6249   2.6389   2.6541   2.6802   2.7033   2.7145
  2.7844   2.8142   2.8633   2.8822   2.8959   2.9143   2.9488   2.9691
  3.0481   3.1293   3.1365   3.1590   3.1804   3.1947   3.2270   3.2427
  3.2748   3.2890   3.3120   3.3275   3.3590   3.3880   3.4178   3.4460
  3.4675   3.5083   3.5394   3.5964   3.5987   3.6497   3.6736   3.7529
  3.8247   3.8779   3.9310   3.9778   4.0649   4.1272   4.1773   4.2068
  4.2845   4.3244   4.3609   4.3721   4.4148   4.4794   4.5684   4.6196
  4.6552   4.8406   4.8643   4.8763   4.9283   4.9950   5.0184   5.0511
  5.1104   5.1277   5.1376   5.1552   5.1926   5.2242   5.2801   5.3699
  5.3854   5.4055   5.4449   5.4550   5.4887   5.4973   5.5732   5.6448
  5.7084   5.7772   5.8058   5.8974   6.1352   6.1963   6.3768   6.4707
 22.6688  23.6336  32.3374  32.4529  32.8275
 --------------------------------------------------------------
 
          Ground-State Mulliken Net Atomic Charges

     Atom                 Charge (a.u.)
  ----------------------------------------
      1 C                    -0.820056
      2 C                     0.458887
      3 N                    -0.095945
      4 N                    -0.295601
      5 N                    -0.324118
      6 H                     0.298677
      7 H                     0.295806
      8 H                     0.284113
      9 H                     0.210725
     10 H                     0.244849
     11 H                     0.255488
     12 H                     0.235484
     13 H                     0.251690
  ----------------------------------------
  Sum of atomic charges =     1.000000

 -----------------------------------------------------------------
                    Cartesian Multipole Moments
 -----------------------------------------------------------------
    Charge (ESU x 10^10)
                 4.8032
    Dipole Moment (Debye)
         X       4.9620      Y       0.0518      Z       7.2397
       Tot       8.7771
    Quadrupole Moments (Debye-Ang)
        XX     -20.6803     XY       1.9852     YY     -14.9811
        XZ      15.3190     YZ      -2.4008     ZZ     -11.2423
    Octopole Moments (Debye-Ang^2)
       XXX     -85.1631    XXY      -6.9950    XYY     -19.1749
       YYY     -35.0618    XXZ     -12.3914    XYZ      -0.9165
       YYZ     -19.4146    XZZ       9.1724    YZZ     -19.8993
       ZZZ     -74.5983
    Hexadecapole Moments (Debye-Ang^3)
      XXXX    -291.6227   XXXY     -42.6531   XXYY     -91.8515
      XYYY     -48.5724   YYYY    -304.7901   XXXZ    -110.1548
      XXYZ      -6.2880   XYYZ     -24.0325   YYYZ     -38.0050
      XXZZ     -38.2117   XYZZ     -26.1806   YYZZ     -92.6986
      XZZZ     -43.8950   YZZZ     -47.6748   ZZZZ    -320.4800
 -----------------------------------------------------------------
Archival summary:
1\1\nid00569\SP\ProcedureUnspecified\BasisUnspecified\328(1+,1)\meili\SunSep2616:22:442021SunSep2616:22:442021\0\\#,ProcedureUnspecified,BasisUnspecified,\\1,1\C\N,1,1.31765\H,2,1.02295,1,117.341\N,1,1.32534,2,122.413,3,179.862,0\H,4,1.00698,1,120.113,2,176.618,0\H,4,1.01517,1,120.523,2,4.69369,0\N,1,1.3281,2,119.693,3,0.830421,0\H,7,1.00551,1,121.748,2,-177.219,0\H,7,1.02656,1,118.569,2,1.65952,0\C,2,1.45551,1,125.108,3,176.836,0\H,10,1.09189,2,107.088,1,-150.246,0\H,10,1.09246,2,110.619,1,-34.6578,0\H,10,1.1,2,114.874,1,90.1823,0\\\@

 Total job time:  12988.36s(wall), 25212.10s(cpu) 
 Sun Sep 26 16:22:45 2021

        *************************************************************
        *                                                           *
        *  Thank you very much for using Q-Chem.  Have a nice day.  *
        *                                                           *
        *************************************************************


Done Job For Fragment 1
calling putenv with: QCSCRATCH=/global/cscratch1/sd/meili 
calling putenv with: QCLOCALSCR=/tmp 
calling putenv with: QCTHREADS=32 
Doing General SCFMI
 Exchange:     0.1670 Hartree-Fock + 1.0000 wB97X-V + LR-HF
 Correlation:  1.0000 wB97X-V
 Using Euler-Maclaurin-Lebedev (99,590) quadrature formula
 Nonlocal Correlation:  VV10 with C = 0.0100 and b = 6.00 and scale = 1.00000
 Grid used for NLC:  SG-1 standard quadrature
performing fock build before subrot guess so that all methods have access
Printing subrot_rss_gen Method Specification:
Occupied Subspace Method is 0
Virtual Subspace Method is 0
Energy of the unrelaxed supersystem initial determinant -473.797533755811
performing fock build before subrot guess so that all methods have access
Printing subrot_rss_gen Method Specification:
Occupied Subspace Method is 0
Virtual Subspace Method is 0
Energy of the unrelaxed supersystem initial determinant w/ solvent -473.869717133584
write pseudocanon occs and virts to disk
write pseudocanon orbital energies to disk
Tolerance of ortho_decomp_scf: 1.00e-06
GDM subspace size: 20
Beginning the Orthogonal Decomposition of the Initial Supersystem Wavefunction
    1    -473.5128224250      1.15e-01     ortho_decomp Preconditoned Steepest Descent
    2    -473.5348436633      3.39e-03     ortho_decomp BFGS Step
    3    -473.5349438930      2.96e-04     ortho_decomp BFGS Step
    4    -473.5349440954      1.35e-05     ortho_decomp BFGS Step
    5    -473.5349440960      5.07e-07     ortho_decomp 00000 Convergence criterion met
 Hartree-Fock
 Hartree-Fock
 Hartree-Fock
Doing General SCFMI
 Exchange:     0.1670 Hartree-Fock + 1.0000 wB97X-V + LR-HF
 Correlation:  1.0000 wB97X-V
 Using Euler-Maclaurin-Lebedev (99,590) quadrature formula
 Nonlocal Correlation:  VV10 with C = 0.0100 and b = 6.00 and scale = 1.00000
 Grid used for NLC:  SG-1 standard quadrature
performing fock build at end of subrot_r(subrot) constructor so that all methods have access
<S^2> of initial wavefunction before polarization iterations 0.0000000000
Beginning iterations for the determination of the polarized wavefunction
Energy prior to optimization (guess energy) = -473.869717133584
Begin Timing: Total SCF Calculation
begin iterations for algorithm: DIIS         
the SCF tolerance is set to 1.00e-08
    1    -473.8697171336      2.67e-04     00000 
    2    -473.8731853420      1.19e-04     00000 
    3    -473.8735931141      7.04e-05     00000 
    4    -473.8737396431      1.96e-05     00000 
    5    -473.8737570723      8.38e-06     00000 
    6    -473.8737616131      3.38e-06     00000 
    7    -473.8737622544      1.69e-06     00000 
    8    -473.8737623872      6.53e-07     00000 
    9    -473.8737624039      3.07e-07     00000 
   10    -473.8737624062      8.35e-08     00000 
   11    -473.8737624066      3.72e-08     00000 
   12    -473.8737624066      1.58e-08     00000 
   13    -473.8737624066      5.55e-09     00000 Convergence criterion met
write pseudocanon occs and virts to disk
write pseudocanon orbital energies to disk
Timing for Total SCF: 2749.00s (wall), 5469.24s (cpu)
<S^2> of polarized wavefunction after polarization iterations 0.0000000000
relaxing scfmi constraint to allow all rotations in the entire AO span
Doing General SCFMI
 Exchange:     0.1670 Hartree-Fock + 1.0000 wB97X-V + LR-HF
 Correlation:  1.0000 wB97X-V
 Using Euler-Maclaurin-Lebedev (99,590) quadrature formula
 Nonlocal Correlation:  VV10 with C = 0.0100 and b = 6.00 and scale = 1.00000
 Grid used for NLC:  SG-1 standard quadrature
performing fock build at end of subrot_r(subrot) constructor so that all methods have access
<S^2> of polarized wavefunction before ct-allowed iterations 0.0000000000
Beginning iterations for the determination of the CT-Allowed wavefunction
Energy prior to optimization (guess energy) = -473.873762406594
Begin Timing: Total SCF Calculation
begin iterations for algorithm: DIIS         
the SCF tolerance is set to 1.00e-08
    1    -473.8737624066      3.09e-04     00000 
    2    -473.8850696203      5.37e-05     00000 
    3    -473.8855775848      2.52e-05     00000 
    4    -473.8856231101      1.05e-05     00000 
    5    -473.8856338973      2.29e-06     00000 
    6    -473.8856345430      6.93e-07     00000 
    7    -473.8856346369      2.78e-07     00000 
    8    -473.8856346443      1.03e-07     00000 
    9    -473.8856346455      3.85e-08     00000 
   10    -473.8856346457      1.24e-08     00000 
   11    -473.8856346458      3.75e-09     00000 Convergence criterion met
write pseudocanon occs and virts to disk
write pseudocanon orbital energies to disk
Timing for Total SCF: 2313.00s (wall), 4600.49s (cpu)
<S^2> of ct_allowed wavefunction after ct-allowed iterations 0.0000000000

================================
        Results of EDA2         
================================
Basic EDA Quantities
--------------------
Fragment Energies (Ha):
1 -228.6597757897
2 -245.2016855638
--------------------
  E_prp (kJ/mol) = 0.0000
  E_sol (kJ/mol) = 431.5488
  E_frz (kJ/mol) = -431.6679
  E_pol (kJ/mol) = -10.6210
  E_vct (kJ/mol) = -31.1709
  E_int (kJ/mol) = -41.9110
--------------------


Initial Wavefunction Decomposition
--------------------
  --------------------
  Orthogonal Fragment Subspace Decomposition:
  --------------------
     E_elec   (ELEC)   (kJ/mol) = -618.9037
     E_pauli  (PAULI)  (kJ/mol) = 213.6745
     E_disp   (DISP)   (kJ/mol) = -26.4387
     --------------------
     Terms summing to E_pauli:
     --------------------
        E_kep_pauli       (kJ/mol) = 257.7694
        E_disp_free_pauli (kJ/mol) = -44.0949
  --------------------
  Classical Frozen Decomposition:
  --------------------
     E_cls_elec  (CLS ELEC)  (kJ/mol) = -542.8979
     E_cls_pauli (CLS PAULI) (kJ/mol) = 111.2299
    [E_mod_pauli (MOD PAULI) (kJ/mol) = 137.6686 (CLS PAULI - DISP from orthogonal decomposition) ]
  --------------------
--------------------

Simplified EDA Summary (kJ/mol)
--------------------
 PREPARATION     0.0000
 SOLVATION       431.5488
 FROZEN          -405.2292      (does not include dispersion)
[PAULI           213.6745]     (if this is negligible, then frozen describes electrostatics)
 DISPERSION      -26.4387
 POLARIZATION    -10.6210
 CHARGE TRANSFER -31.1709
 TOTAL           -41.9110     (PRP + SOL + FRZ + DISP + POL + CT)
--------------------
 
 --------------------------------------------------------------
 
                    Orbital Energies (a.u.)
 --------------------------------------------------------------
 
 Alpha MOs
 -- Occupied --
-19.1673 -19.1660 -14.4394 -14.4368 -14.4225 -10.4094 -10.3678 -10.2987
-10.2504  -1.1747  -1.1581  -1.0778  -1.0439  -1.0241  -0.8464  -0.8449
 -0.7533  -0.7083  -0.6749  -0.6388  -0.6069  -0.5939  -0.5840  -0.5634
 -0.5545  -0.5518  -0.5426  -0.5175  -0.4981  -0.4876  -0.4665  -0.3878
 -0.3789  -0.3644  -0.3623  -0.3593
 -- Virtual --
  0.0577   0.0779   0.0842   0.0949   0.1040   0.1076   0.1179   0.1213
  0.1307   0.1369   0.1395   0.1474   0.1524   0.1592   0.1680   0.1755
  0.1859   0.1906   0.1924   0.2089   0.2104   0.2217   0.2266   0.2289
  0.2408   0.2465   0.2497   0.2574   0.2626   0.2662   0.2742   0.2824
  0.2857   0.2884   0.2966   0.3040   0.3101   0.3148   0.3161   0.3221
  0.3264   0.3364   0.3412   0.3419   0.3477   0.3522   0.3551   0.3617
  0.3626   0.3692   0.3734   0.3813   0.3829   0.3859   0.3934   0.3992
  0.4034   0.4081   0.4141   0.4189   0.4246   0.4263   0.4380   0.4432
  0.4529   0.4600   0.4619   0.4655   0.4687   0.4805   0.4839   0.4853
  0.4905   0.4958   0.5034   0.5069   0.5097   0.5127   0.5205   0.5298
  0.5354   0.5378   0.5419   0.5499   0.5590   0.5645   0.5681   0.5760
  0.5791   0.5952   0.5988   0.6034   0.6087   0.6259   0.6317   0.6330
  0.6391   0.6437   0.6517   0.6622   0.6658   0.6727   0.6883   0.6924
  0.6957   0.7014   0.7089   0.7189   0.7235   0.7305   0.7368   0.7486
  0.7597   0.7656   0.7729   0.7850   0.7881   0.7919   0.8047   0.8112
  0.8160   0.8251   0.8360   0.8398   0.8441   0.8496   0.8507   0.8618
  0.8658   0.8843   0.8881   0.8905   0.8990   0.9151   0.9266   0.9329
  0.9423   0.9637   0.9660   0.9861   0.9990   1.0028   1.0073   1.0262
  1.0383   1.0575   1.0766   1.0777   1.0907   1.1099   1.1135   1.1320
  1.1352   1.1521   1.1619   1.1675   1.1750   1.1890   1.2112   1.2224
  1.2335   1.2394   1.2620   1.2716   1.2888   1.3043   1.3140   1.3297
  1.3349   1.3465   1.3647   1.3866   1.3958   1.4007   1.4438   1.4551
  1.4768   1.5048   1.5295   1.5495   1.5604   1.6168   1.6415   1.6424
  1.6851   1.6999   1.7079   1.7398   1.7568   1.7698   1.7803   1.8483
  1.8556   1.8748   1.8964   1.9017   1.9183   1.9210   1.9298   1.9345
  1.9413   1.9604   1.9642   1.9658   1.9820   1.9910   2.0081   2.0321
  2.0396   2.0547   2.0783   2.0951   2.1120   2.1378   2.1488   2.1563
  2.1668   2.2070   2.2284   2.2428   2.2447   2.2581   2.2844   2.2937
  2.3140   2.3496   2.3588   2.3874   2.3925   2.4087   2.4437   2.4526
  2.4682   2.4761   2.4816   2.5152   2.5448   2.5513   2.5668   2.5880
  2.5930   2.6106   2.6408   2.6596   2.6656   2.6801   2.6883   2.7076
  2.7169   2.7263   2.7445   2.7687   2.7932   2.8145   2.8637   2.8717
  2.8808   2.8861   2.9188   2.9332   2.9579   2.9769   2.9988   3.0071
  3.0223   3.0258   3.1106   3.1192   3.1470   3.1698   3.1851   3.2037
  3.2220   3.2329   3.2535   3.2621   3.2742   3.2901   3.2967   3.3076
  3.3284   3.3380   3.3527   3.3645   3.3759   3.3788   3.3897   3.4035
  3.4110   3.4313   3.4575   3.4639   3.4801   3.5146   3.5264   3.5418
  3.5681   3.5852   3.6043   3.6210   3.6399   3.6577   3.6737   3.6971
  3.7161   3.7233   3.7491   3.7570   3.7850   3.8421   3.8540   3.9093
  3.9615   3.9771   4.0112   4.0688   4.0954   4.1049   4.1656   4.2099
  4.2281   4.2421   4.3199   4.3487   4.3736   4.3867   4.3948   4.4414
  4.5047   4.5913   4.5938   4.6132   4.6482   4.6804   4.6842   4.8239
  4.8626   4.8784   4.8982   4.9143   4.9749   5.0030   5.0433   5.0721
  5.0931   5.1353   5.1578   5.1722   5.2029   5.2115   5.2541   5.2985
  5.3198   5.3323   5.3644   5.3824   5.3997   5.4349   5.4420   5.4707
  5.4733   5.5095   5.5325   5.5473   5.5977   5.6918   5.6996   5.7337
  5.7588   5.7625   5.8237   5.8428   5.9395   5.9887   6.1791   6.2178
  6.2322   6.2776   6.3466   6.4243   6.5081   6.6165   6.6486   6.7009
  6.7300   6.8419   6.9537   6.9636   7.0144   7.2525   7.3600   7.3866
  7.4497  22.6082  22.7047  23.6771  23.6916  32.4033  32.5657  33.0067
 44.2778  44.3897
 --------------------------------------------------------------
 
          Ground-State Mulliken Net Atomic Charges

     Atom                 Charge (a.u.)
  ----------------------------------------
      1 C                    -0.889072
      2 C                     0.681377
      3 O                    -0.833805
      4 O                    -0.848377
      5 H                     0.246393
      6 H                     0.220268
      7 H                     0.269358
      8 C                    -0.874870
      9 C                     0.411242
     10 N                     0.122153
     11 N                    -0.285226
     12 N                    -0.147887
     13 H                     0.208612
     14 H                     0.324543
     15 H                     0.274816
     16 H                     0.208152
     17 H                     0.251071
     18 H                     0.167310
     19 H                     0.240088
     20 H                     0.253856
  ----------------------------------------
  Sum of atomic charges =     0.000000

 -----------------------------------------------------------------
                    Cartesian Multipole Moments
 -----------------------------------------------------------------
    Charge (ESU x 10^10)
                 0.0000
    Dipole Moment (Debye)
         X       8.1185      Y       1.5426      Z       9.7395
       Tot      12.7729
    Quadrupole Moments (Debye-Ang)
        XX     -48.8224     XY       0.6117     YY     -52.1060
        XZ      12.8115     YZ      -1.9074     ZZ     -38.2474
    Octopole Moments (Debye-Ang^2)
       XXX      19.3046    XXY       4.0293    XYY      28.2726
       YYY       7.5686    XXZ      28.9843    XYZ      -2.5222
       YYZ      36.0037    XZZ      39.3456    YZZ     -12.7108
       ZZZ      51.9665
    Hexadecapole Moments (Debye-Ang^3)
      XXXX    -669.0614   XXXY     -94.0251   XXYY    -202.8963
      XYYY    -114.7065   YYYY    -499.2095   XXXZ    -336.2907
      XXYZ     -22.6447   XYYZ    -117.0427   YYYZ    -107.5814
      XXZZ    -207.0365   XYZZ     -36.1032   YYZZ    -241.2049
      XZZZ    -269.9842   YZZZ     -95.1196   ZZZZ    -961.8157
 -----------------------------------------------------------------
Archival summary:
1\1\nid00569\SP\ProcedureUnspecified\BasisUnspecified\23411\meili\SunSep2618:45:532021SunSep2618:45:532021\0\\#,ProcedureUnspecified,BasisUnspecified,\\0,1\N\H,1,1.02295\C,1,1.31765,2,117.341\N,3,1.32534,1,122.413,2,179.862,0\H,4,1.00698,3,120.113,1,176.618,0\H,4,1.01517,3,120.523,1,4.69369,0\N,3,1.3281,1,119.693,2,0.830421,0\H,7,1.00551,3,121.748,1,-177.219,0\H,7,1.02656,3,118.569,1,1.65952,0\C,1,1.45551,2,117.48,3,-177.083,0\H,10,1.09189,1,107.088,2,26.586,0\H,10,1.09246,1,110.619,2,142.174,0\H,10,1.1,1,114.874,2,-92.9856,0\O,9,1.80223,7,175.228,3,64.4837,0\C,14,1.26954,9,121.226,7,-67.4611,0\O,15,1.2513,14,124.077,9,-8.11681,0\C,15,1.51924,14,119.594,9,173.349,0\H,17,1.08727,15,108.338,14,-150.752,0\H,17,1.09311,15,108.569,14,92.9986,0\H,17,1.1,15,114.588,14,-27.6537,0\\\@

 Total job time:  26150.40s(wall), 17068.11s(cpu) 
 Sun Sep 26 18:45:55 2021

        *************************************************************
        *                                                           *
        *  Thank you very much for using Q-Chem.  Have a nice day.  *
        *                                                           *
        *************************************************************


