
Running Job 1 of 1 SSI-109PHE-228TYR-1_PCM_TZVPD.in
qchem SSI-109PHE-228TYR-1_PCM_TZVPD.in_19532.0 /tmp/qchem19532/ 0
/global/common/cori/software/qchem/5.2/exe/qcprog.exe_s SSI-109PHE-228TYR-1_PCM_TZVPD.in_19532.0 /tmp/qchem19532/
                  Welcome to Q-Chem
     A Quantum Leap Into The Future Of Chemistry


 Q-Chem 5.2, Q-Chem, Inc., Pleasanton, CA (2019)

 License issued to: National Energy Research Scientific Computing Center

 Yihan Shao,  Zhengting Gan,  E. Epifanovsky,  A. T. B. Gilbert,  M. Wormit,  
 J. Kussmann,  A. W. Lange,  A. Behn,  Jia Deng,  Xintian Feng,  D. Ghosh,  
 M. Goldey,  P. R. Horn,  L. D. Jacobson,  I. Kaliman,  T. Kus,  A. Landau,  
 Jie Liu,  E. I. Proynov,  R. M. Richard,  R. P. Steele,  E. J. Sundstrom,  
 H. L. Woodcock III,  P. M. Zimmerman,  D. Zuev,  B. Albrecht,  E. Alguire,  
 S. A. Baeppler,  D. Barton,  Z. Benda,  Y. A. Bernard,  E. J. Berquist,  
 K. B. Bravaya,  H. Burton,  D. Casanova,  Chun-Min Chang,  Yunqing Chen,  
 A. Chien,  K. D. Closser,  M. P. Coons,  S. Coriani,  S. Dasgupta,  
 A. L. Dempwolff,  M. Diedenhofen,  Hainam Do,  R. G. Edgar,  Po-Tung Fang,  
 S. Faraji,  S. Fatehi,  Qingguo Feng,  K. D. Fenk,  J. Fosso-Tande,  
 J. Gayvert,  Qinghui Ge,  A. Ghysels,  G. Gidofalvi,  J. Gomes,  
 J. Gonthier,  A. Gunina,  D. Hait,  M. W. D. Hanson-Heine,  
 P. H. P. Harbach,  A. W. Hauser,  M. F. Herbst,  J. E. Herr,  
 E. G. Hohenstein,  Z. C. Holden,  Kerwin Hui,  B. C. Huynh,  T.-C. Jagau,  
 Hyunjun Ji,  B. Kaduk,  K. Khistyaev,  Jaehoon Kim,  P. Klunzinger,  K. Koh,  
 D. Kosenkov,  L. Koulias,  T. Kowalczyk,  C. M. Krauter,  A. Kunitsa,  
 Ka Un Lao,  A. Laurent,  K. V. Lawler,  Joonho Lee,  D. Lefrancois,  
 S. Lehtola,  D. S. Levine,  Yi-Pei Li,  You-Sheng Lin,  Fenglai Liu,  
 E. Livshits,  A. Luenser,  P. Manohar,  E. Mansoor,  S. F. Manzer,  
 Shan-Ping Mao,  Yuezhi Mao,  N. Mardirossian,  A. V. Marenich,  
 T. Markovich,  L. A. Martinez-Martinez,  S. A. Maurer,  N. J. Mayhall,  
 S. C. McKenzie,  J.-M. Mewes,  P. Morgante,  A. F. Morrison,  
 J. W. Mullinax,  K. Nanda,  T. S. Nguyen-Beck,  R. Olivares-Amaya,  
 J. A. Parkhill,  Zheng Pei,  T. M. Perrine,  F. Plasser,  P. Pokhilko,  
 S. Prager,  A. Prociuk,  E. Ramos,  D. R. Rehn,  F. Rob,  M. Scheurer,  
 M. Schneider,  N. Sergueev,  S. M. Sharada,  S. Sharma,  D. W. Small,  
 T. Stauch,  T. Stein,  Yu-Chuan Su,  A. J. W. Thom,  A. Tkatchenko,  
 T. Tsuchimochi,  N. M. Tubman,  L. Vogt,  M. L. Vidal,  O. Vydrov,  
 M. A. Watson,  J. Wenzel,  M. de Wergifosse,  T. A. Wesolowski,  A. White,  
 J. Witte,  A. Yamada,  Jun Yang,  K. Yao,  S. Yeganeh,  S. R. Yost,  
 Zhi-Qiang You,  A. Zech,  Igor Ying Zhang,  Xing Zhang,  Yan Zhao,  
 Ying Zhu,  B. R. Brooks,  G. K. L. Chan,  C. J. Cramer,  M. S. Gordon,  
 W. J. Hehre,  A. Klamt,  M. W. Schmidt,  C. D. Sherrill,  D. G. Truhlar,  
 A. Aspuru-Guzik,  R. Baer,  A. T. Bell,  N. A. Besley,  Jeng-Da Chai,  
 A. E. DePrince, III,  R. A. DiStasio Jr.,  A. Dreuw,  B. D. Dunietz,  
 T. R. Furlani,  Chao-Ping Hsu,  Yousung Jung,  Jing Kong,  D. S. Lambrecht,  
 WanZhen Liang,  C. Ochsenfeld,  V. A. Rassolov,  L. V. Slipchenko,  
 J. E. Subotnik,  T. Van Voorhis,  J. M. Herbert,  A. I. Krylov,  
 P. M. W. Gill,  M. Head-Gordon

 Contributors to earlier versions of Q-Chem not listed above: 
 R. D. Adamson,  B. Austin,  J. Baker,  G. J. O. Beran,  K. Brandhorst,  
 S. T. Brown,  E. F. C. Byrd,  A. K. Chakraborty,  C.-L. Cheng,  
 Siu Hung Chien,  D. M. Chipman,  D. L. Crittenden,  H. Dachsel,  
 R. J. Doerksen,  A. D. Dutoi,  L. Fusti-Molnar,  W. A. Goddard III,  
 A. Golubeva-Zadorozhnaya,  S. R. Gwaltney,  G. Hawkins,  A. Heyden,  
 S. Hirata,  G. Kedziora,  F. J. Keil,  C. Kelley,  Jihan Kim,  R. A. King,  
 R. Z. Khaliullin,  P. P. Korambath,  W. Kurlancheek,  A. M. Lee,  M. S. Lee,  
 S. V. Levchenko,  Ching Yeh Lin,  D. Liotard,  R. C. Lochan,  I. Lotan,  
 P. E. Maslen,  N. Nair,  D. P. O'Neill,  D. Neuhauser,  E. Neuscamman,  
 C. M. Oana,  R. Olson,  B. Peters,  R. Peverati,  P. A. Pieniazek,  
 Y. M. Rhee,  J. Ritchie,  M. A. Rohrdanz,  E. Rosta,  N. J. Russ,  
 H. F. Schaefer III,  N. E. Schultz,  N. Shenvi,  A. C. Simmonett,  A. Sodt,  
 D. Stuck,  K. S. Thanthiriwatte,  V. Vanovschi,  Tao Wang,  A. Warshel,  
 C. F. Williams,  Q. Wu,  X. Xu,  W. Zhang

 Please cite Q-Chem as follows:
 Y. Shao et al., Mol. Phys. 113, 184-215 (2015)
 DOI: 10.1080/00268976.2014.952696

 Q-Chem 5.2.0 for Intel X86 EM64T Linux

 Parts of Q-Chem use Armadillo 8.300.2 (Tropical Shenanigans).
 http://arma.sourceforge.net/

 Q-Chem begins on Sun Sep 26 13:31:36 2021  

Host: cori01
0

     Scratch files written to /tmp/qchem19532//
 May1019 |scratch|qcdevops|jenkins|workspace|build_RNUM -1
Processing $rem in /global/common/cori/software/qchem/5.2/config/preferences:
	 MEM_TOTAL  96000 
NAlpha2: 108
NElect   108
Mult     1
Symmetry turned off for PCM/SM12/SMD calculation

 Q-Chem warning in module libgen/rem_setup.C, line 2803:

 Neither GIA nor STOLL is specified by user. Use STOLL as the default


Checking the input file for inconsistencies... 	...done.

--------------------------------------------------------------
User input:
--------------------------------------------------------------
$comment
SSI-109PHE-228TYR-1.pdb
$end

$molecule
0 1
--
0 1
C   -2.600839027349   -1.395563074842    4.587287496188
C   -0.599839027349    0.622436925158    1.351287496188
C   -1.561839027349    1.306436925158    2.102287496188
C   -0.287839027349   -0.707563074842    1.643287496188
C   -2.206839027349    0.631436925158    3.153287496188
C   -0.914839027349   -1.366563074842    2.689287496188
C   -1.896839027349   -0.703563074842    3.443287496188
H   -0.083839027349    1.110436925158    0.539287496188
H   -1.810839027349    2.335436925158    1.882287496188
H    0.466160972651   -1.222563074842    1.068287496188
H   -2.956839027349    1.146436925158    3.735287496188
H   -0.657839027349   -2.394563074842    2.907287496188
H   -2.528839027349   -0.780563074842    5.486287496188
H   -2.084839027349   -2.331563074842    4.793287496188
H   -3.664263027349   -1.592679074842    4.386597496188
--
0 1
C    0.634160972651    2.711436925158   -3.796712503812
C    0.223160972651   -0.669563074842   -2.039712503812
C   -0.070839027349    0.533436925158   -2.674712503812
C    1.541160972651   -0.961563074842   -1.687712503812
C    0.961160972651    1.444436925158   -3.016712503812
C    2.601160972651   -0.056563074842   -1.982712503812
C    2.300160972651    1.151436925158   -2.630712503812
O    1.768160972651   -2.137563074842   -1.026712503812
H   -0.572839027349   -1.359563074842   -1.797712503812
H   -1.093839027349    0.756436925158   -2.948712503812
H    0.961160972651   -2.644563074842   -0.895712503812
H    3.613160972651   -0.292563074842   -1.690712503812
H    1.222160972651    3.543436925158   -3.405712503812
H   -0.413839027349    2.947436925158   -3.612712503812
H    3.092160972651    1.849436925158   -2.862712503812
H    0.820922972651    2.609501925158   -4.875938503812
$end

$rem
JOBTYPE			EDA
EDA2			1
method			wB97X-V
BASIS			def2-TZVPD
XC_GRID			000099000590
NL_GRID			1
UNRESTRICTED		FALSE
MAX_SCF_CYCLES		200
SYMMETRY		FALSE
SYM_IGNORE		TRUE
MEM_STATIC		2000
BASIS_LIN_DEP_THRESH 	6
THRESH 			14
SCF_CONVERGENCE 	8
SCF_PRINT_FRGM 		TRUE
SOLVENT_METHOD          PCM
$end

$PCM
THEORY                  CPCM
METHOD                  SWIG
SOLVER                  INVERSION
RADII                   UFF
HPOINTS                 302
HEAVYPOINTS             302
PRINTLEVEL              0
$END

$SOLVENT
DIELECTRIC              78.390000 ! water
$END
--------------------------------------------------------------
 ----------------------------------------------------------------
             Standard Nuclear Orientation (Angstroms)
    I     Atom           X                Y                Z
 ----------------------------------------------------------------
    1      C      -2.6008390273    -1.3955630748     4.5872874962
    2      C      -0.5998390273     0.6224369252     1.3512874962
    3      C      -1.5618390273     1.3064369252     2.1022874962
    4      C      -0.2878390273    -0.7075630748     1.6432874962
    5      C      -2.2068390273     0.6314369252     3.1532874962
    6      C      -0.9148390273    -1.3665630748     2.6892874962
    7      C      -1.8968390273    -0.7035630748     3.4432874962
    8      H      -0.0838390273     1.1104369252     0.5392874962
    9      H      -1.8108390273     2.3354369252     1.8822874962
   10      H       0.4661609727    -1.2225630748     1.0682874962
   11      H      -2.9568390273     1.1464369252     3.7352874962
   12      H      -0.6578390273    -2.3945630748     2.9072874962
   13      H      -2.5288390273    -0.7805630748     5.4862874962
   14      H      -2.0848390273    -2.3315630748     4.7932874962
   15      H      -3.6642630273    -1.5926790748     4.3865974962
   16      C       0.6341609727     2.7114369252    -3.7967125038
   17      C       0.2231609727    -0.6695630748    -2.0397125038
   18      C      -0.0708390273     0.5334369252    -2.6747125038
   19      C       1.5411609727    -0.9615630748    -1.6877125038
   20      C       0.9611609727     1.4444369252    -3.0167125038
   21      C       2.6011609727    -0.0565630748    -1.9827125038
   22      C       2.3001609727     1.1514369252    -2.6307125038
   23      O       1.7681609727    -2.1375630748    -1.0267125038
   24      H      -0.5728390273    -1.3595630748    -1.7977125038
   25      H      -1.0938390273     0.7564369252    -2.9487125038
   26      H       0.9611609727    -2.6445630748    -0.8957125038
   27      H       3.6131609727    -0.2925630748    -1.6907125038
   28      H       1.2221609727     3.5434369252    -3.4057125038
   29      H      -0.4138390273     2.9474369252    -3.6127125038
   30      H       3.0921609727     1.8494369252    -2.8627125038
   31      H       0.8209229727     2.6095019252    -4.8759385038
 ----------------------------------------------------------------
 Nuclear Repulsion Energy =         872.61413363 hartrees
 There are       54 alpha and       54 beta electrons
 Requested basis set is def2-TZVPD
 There are 276 shells and 702 basis functions

 Total QAlloc Memory Limit  96000 MB
 Mega-Array Size      1956 MB
 MEM_STATIC part      2000 MB
 Discretize the solute cavity surface with Lebedev spheres
	Using 302 Lebedev grid points for each H atom
	Using 302 Lebedev grid points for other atoms
	Atomic van der Waals radii will be scaled by 1.20
 Remove points where switching function is < 1.0e-08
 Keep 3393 surface tesserae and discard 5969 interior tesserae
 Molecular Surface Area = 336.461 Angst**2
 A cutoff of  1.0D-14 yielded  31493 shell pairs
 There are    204229 function pairs (    257753 Cartesian)
 Smallest overlap matrix eigenvalue = 4.92E-07
 Linear dependence detected in AO basis
 Tighter screening thresholds may be required for diffuse basis sets
 Use S2THRESH > 14 and THRESH = 14 in case of SCF convergence issues
 Number of orthogonalized atomic orbitals = 699
 Maximum deviation from orthogonality = 1.348E-10

 Scale SEOQF with 1.000000e-01/1.000000e-01/1.000000e-02

 Standard Electronic Orientation quadrupole field applied
 Nucleus-field energy     =     0.0000000175 hartrees

 -----------------------------------------------------------------------
  General SCF calculation program by
  Eric Jon Sundstrom, Paul Horn, Yuezhi Mao, Dmitri Zuev, Alec White,
  David Stuck, Shaama M.S., Shane Yost, Joonho Lee, David Small,
  Daniel Levine, Susi Lehtola, Hugh Burton, Evgeny Epifanovsky
 -----------------------------------------------------------------------
================================================================
                 ALMO-EDA with the EDA2 driver                  
================================================================
 The second-generation ALMO-EDA (for DFT):                      
 P. R. Horn, Y. Mao and M. Head-Gordon, PCCP, 18, 23067 (2016)  
 Decomposition of the frozen energy:                            
 P. R. Horn, Y. Mao and M. Head-Gordon, JCP, 144, 114107 (2016) 
 FERF model for polarization:                                   
 P. R. Horn and M. Head-Gordon, JCP, 143, 114111 (2015)         
Using eda2 option set 1
Option set summary: Frozen orbital wavefunction, initial wavefunction decomposition, and nDQ polarization.
--------------------------------
Printing EDA Options
--------------------------------
eda_child_super_basis      0
fragmo_guess_mode          0
child_mp                   1
child_mp_orders            232
cls_elec                   1
cls_disp                   0
scfmi_mode                 1
scfmi_occs                 0
scfmi_virts                0
frz_relax                  0
frz_relax_method           0
dc_pen_start               0
dc_pen_conv                0
dc_pen_increment           0
dc_pen_steps               0
dc_pen_thresh_factor       0
dc_pen_pre_newton_thresh   0
frz_ortho_decomp           1
frz_ortho_decomp_conv      6
frgm_method                2
scfmi_freeze_ss            0
separate_rehyb             0
plot_diff_den              0
eda_nocv                   0
eda_vct_relax              1
disp_free_x                0
disp_free_c                0
eda_bsse                   0
eda_pct_a                  0
eda_covp                   0
--------------------------------
Attempting to make child job directory: /tmp/qchem19532//Frg1/
Attempting to make child job directory: /tmp/qchem19532//Frg2/
Creating input file /tmp/qchem19532/Frg1.input
using default PutDataFrgm: nothing
calling putenv with: QCSCRATCH=/tmp/qchem19532/ 
calling putenv with: QCLOCALSCR=/tmp/qchem19532/ 
Spawning Job For Fragment 0
                  Welcome to Q-Chem
     A Quantum Leap Into The Future Of Chemistry


 Q-Chem 5.2, Q-Chem, Inc., Pleasanton, CA (2019)

 License issued to: National Energy Research Scientific Computing Center

 Yihan Shao,  Zhengting Gan,  E. Epifanovsky,  A. T. B. Gilbert,  M. Wormit,  
 J. Kussmann,  A. W. Lange,  A. Behn,  Jia Deng,  Xintian Feng,  D. Ghosh,  
 M. Goldey,  P. R. Horn,  L. D. Jacobson,  I. Kaliman,  T. Kus,  A. Landau,  
 Jie Liu,  E. I. Proynov,  R. M. Richard,  R. P. Steele,  E. J. Sundstrom,  
 H. L. Woodcock III,  P. M. Zimmerman,  D. Zuev,  B. Albrecht,  E. Alguire,  
 S. A. Baeppler,  D. Barton,  Z. Benda,  Y. A. Bernard,  E. J. Berquist,  
 K. B. Bravaya,  H. Burton,  D. Casanova,  Chun-Min Chang,  Yunqing Chen,  
 A. Chien,  K. D. Closser,  M. P. Coons,  S. Coriani,  S. Dasgupta,  
 A. L. Dempwolff,  M. Diedenhofen,  Hainam Do,  R. G. Edgar,  Po-Tung Fang,  
 S. Faraji,  S. Fatehi,  Qingguo Feng,  K. D. Fenk,  J. Fosso-Tande,  
 J. Gayvert,  Qinghui Ge,  A. Ghysels,  G. Gidofalvi,  J. Gomes,  
 J. Gonthier,  A. Gunina,  D. Hait,  M. W. D. Hanson-Heine,  
 P. H. P. Harbach,  A. W. Hauser,  M. F. Herbst,  J. E. Herr,  
 E. G. Hohenstein,  Z. C. Holden,  Kerwin Hui,  B. C. Huynh,  T.-C. Jagau,  
 Hyunjun Ji,  B. Kaduk,  K. Khistyaev,  Jaehoon Kim,  P. Klunzinger,  K. Koh,  
 D. Kosenkov,  L. Koulias,  T. Kowalczyk,  C. M. Krauter,  A. Kunitsa,  
 Ka Un Lao,  A. Laurent,  K. V. Lawler,  Joonho Lee,  D. Lefrancois,  
 S. Lehtola,  D. S. Levine,  Yi-Pei Li,  You-Sheng Lin,  Fenglai Liu,  
 E. Livshits,  A. Luenser,  P. Manohar,  E. Mansoor,  S. F. Manzer,  
 Shan-Ping Mao,  Yuezhi Mao,  N. Mardirossian,  A. V. Marenich,  
 T. Markovich,  L. A. Martinez-Martinez,  S. A. Maurer,  N. J. Mayhall,  
 S. C. McKenzie,  J.-M. Mewes,  P. Morgante,  A. F. Morrison,  
 J. W. Mullinax,  K. Nanda,  T. S. Nguyen-Beck,  R. Olivares-Amaya,  
 J. A. Parkhill,  Zheng Pei,  T. M. Perrine,  F. Plasser,  P. Pokhilko,  
 S. Prager,  A. Prociuk,  E. Ramos,  D. R. Rehn,  F. Rob,  M. Scheurer,  
 M. Schneider,  N. Sergueev,  S. M. Sharada,  S. Sharma,  D. W. Small,  
 T. Stauch,  T. Stein,  Yu-Chuan Su,  A. J. W. Thom,  A. Tkatchenko,  
 T. Tsuchimochi,  N. M. Tubman,  L. Vogt,  M. L. Vidal,  O. Vydrov,  
 M. A. Watson,  J. Wenzel,  M. de Wergifosse,  T. A. Wesolowski,  A. White,  
 J. Witte,  A. Yamada,  Jun Yang,  K. Yao,  S. Yeganeh,  S. R. Yost,  
 Zhi-Qiang You,  A. Zech,  Igor Ying Zhang,  Xing Zhang,  Yan Zhao,  
 Ying Zhu,  B. R. Brooks,  G. K. L. Chan,  C. J. Cramer,  M. S. Gordon,  
 W. J. Hehre,  A. Klamt,  M. W. Schmidt,  C. D. Sherrill,  D. G. Truhlar,  
 A. Aspuru-Guzik,  R. Baer,  A. T. Bell,  N. A. Besley,  Jeng-Da Chai,  
 A. E. DePrince, III,  R. A. DiStasio Jr.,  A. Dreuw,  B. D. Dunietz,  
 T. R. Furlani,  Chao-Ping Hsu,  Yousung Jung,  Jing Kong,  D. S. Lambrecht,  
 WanZhen Liang,  C. Ochsenfeld,  V. A. Rassolov,  L. V. Slipchenko,  
 J. E. Subotnik,  T. Van Voorhis,  J. M. Herbert,  A. I. Krylov,  
 P. M. W. Gill,  M. Head-Gordon

 Contributors to earlier versions of Q-Chem not listed above: 
 R. D. Adamson,  B. Austin,  J. Baker,  G. J. O. Beran,  K. Brandhorst,  
 S. T. Brown,  E. F. C. Byrd,  A. K. Chakraborty,  C.-L. Cheng,  
 Siu Hung Chien,  D. M. Chipman,  D. L. Crittenden,  H. Dachsel,  
 R. J. Doerksen,  A. D. Dutoi,  L. Fusti-Molnar,  W. A. Goddard III,  
 A. Golubeva-Zadorozhnaya,  S. R. Gwaltney,  G. Hawkins,  A. Heyden,  
 S. Hirata,  G. Kedziora,  F. J. Keil,  C. Kelley,  Jihan Kim,  R. A. King,  
 R. Z. Khaliullin,  P. P. Korambath,  W. Kurlancheek,  A. M. Lee,  M. S. Lee,  
 S. V. Levchenko,  Ching Yeh Lin,  D. Liotard,  R. C. Lochan,  I. Lotan,  
 P. E. Maslen,  N. Nair,  D. P. O'Neill,  D. Neuhauser,  E. Neuscamman,  
 C. M. Oana,  R. Olson,  B. Peters,  R. Peverati,  P. A. Pieniazek,  
 Y. M. Rhee,  J. Ritchie,  M. A. Rohrdanz,  E. Rosta,  N. J. Russ,  
 H. F. Schaefer III,  N. E. Schultz,  N. Shenvi,  A. C. Simmonett,  A. Sodt,  
 D. Stuck,  K. S. Thanthiriwatte,  V. Vanovschi,  Tao Wang,  A. Warshel,  
 C. F. Williams,  Q. Wu,  X. Xu,  W. Zhang

 Please cite Q-Chem as follows:
 Y. Shao et al., Mol. Phys. 113, 184-215 (2015)
 DOI: 10.1080/00268976.2014.952696

 Q-Chem 5.2.0 for Intel X86 EM64T Linux

 Parts of Q-Chem use Armadillo 8.300.2 (Tropical Shenanigans).
 http://arma.sourceforge.net/

 Q-Chem begins on Sun Sep 26 13:31:44 2021  

Host: cori01
0

     Scratch files written to /tmp/qchem19532//Frg1//
 May1019 |scratch|qcdevops|jenkins|workspace|build_RNUM -1
Processing $rem in /global/common/cori/software/qchem/5.2/config/preferences:
	 MEM_TOTAL  96000 
NAlpha2: 50
NElect   50
Mult     1
Symmetry turned off for PCM/SM12/SMD calculation

Checking the input file for inconsistencies... 	...done.

--------------------------------------------------------------
User input:
--------------------------------------------------------------
$molecule
0 1
 6	-2.6008390273	-1.3955630748	4.5872874962
 6	-0.5998390273	0.6224369252	1.3512874962
 6	-1.5618390273	1.3064369252	2.1022874962
 6	-0.2878390273	-0.7075630748	1.6432874962
 6	-2.2068390273	0.6314369252	3.1532874962
 6	-0.9148390273	-1.3665630748	2.6892874962
 6	-1.8968390273	-0.7035630748	3.4432874962
 1	-0.0838390273	1.1104369252	0.5392874962
 1	-1.8108390273	2.3354369252	1.8822874962
 1	0.4661609727	-1.2225630748	1.0682874962
 1	-2.9568390273	1.1464369252	3.7352874962
 1	-0.6578390273	-2.3945630748	2.9072874962
 1	-2.5288390273	-0.7805630748	5.4862874962
 1	-2.0848390273	-2.3315630748	4.7932874962
 1	-3.6642630273	-1.5926790748	4.3865974962
$end
$rem
EDA2		1
METHOD		WB97X-V
BASIS		DEF2-TZVPD
XC_GRID		000099000590
NL_GRID		1
UNRESTRICTED		FALSE
MAX_SCF_CYCLES		200
SYMMETRY		FALSE
SYM_IGNORE		TRUE
BASIS_LIN_DEP_THRESH		6
THRESH		14
SCF_CONVERGENCE		8
SCF_PRINT_FRGM		TRUE
SOLVENT_METHOD		PCM
!required keywords
JOBTYPE		SP
SYM_IGNORE		TRUE
SUBSYSTEM		TRUE
GEN_SCFMAN		TRUE
CHILD_INSTRUCTION		2
SYM_IGNORE		TRUE
SCFMI		0
RI_K 0		
PARI_K 0		
MIN_PARI_K 0		
IARI_K 0		
OCC_RI_K 0		
PURECART		1111
MEM_STATIC		2000
MEM_TOTAL		96000
GUI		0
CHILD_MP		1
CHILD_MP_ORDERS		232
FRZ_RELAX		0
FRZ_RELAX_METHOD		0
EDA_CLS_ELEC		1
EDA_CLS_DISP		0
FRZ_ORTHO_DECOMP		1
EDA2		FALSE
FRGM_METHOD		FALSE
CIS_N_ROOTS  0
LOCAL_CIS    0
CIS_RLX_DNS  1
$end
$pcm
THEORY                  CPCM
METHOD                  SWIG
SOLVER                  INVERSION
RADII                   UFF
HPOINTS                 302
HEAVYPOINTS             302
PRINTLEVEL              0
$end
$solvent
DIELECTRIC              78.390000 ! water
$end
--------------------------------------------------------------
 ----------------------------------------------------------------
             Standard Nuclear Orientation (Angstroms)
    I     Atom           X                Y                Z
 ----------------------------------------------------------------
    1      C      -2.6008390273    -1.3955630748     4.5872874962
    2      C      -0.5998390273     0.6224369252     1.3512874962
    3      C      -1.5618390273     1.3064369252     2.1022874962
    4      C      -0.2878390273    -0.7075630748     1.6432874962
    5      C      -2.2068390273     0.6314369252     3.1532874962
    6      C      -0.9148390273    -1.3665630748     2.6892874962
    7      C      -1.8968390273    -0.7035630748     3.4432874962
    8      H      -0.0838390273     1.1104369252     0.5392874962
    9      H      -1.8108390273     2.3354369252     1.8822874962
   10      H       0.4661609727    -1.2225630748     1.0682874962
   11      H      -2.9568390273     1.1464369252     3.7352874962
   12      H      -0.6578390273    -2.3945630748     2.9072874962
   13      H      -2.5288390273    -0.7805630748     5.4862874962
   14      H      -2.0848390273    -2.3315630748     4.7932874962
   15      H      -3.6642630273    -1.5926790748     4.3865974962
 ----------------------------------------------------------------
 Nuclear Repulsion Energy =         268.90882440 hartrees
 There are       25 alpha and       25 beta electrons
 Requested basis set is def2-TZVPD
 There are 131 shells and 331 basis functions

 Total QAlloc Memory Limit  96000 MB
 Mega-Array Size      1956 MB
 MEM_STATIC part      2000 MB
 Discretize the solute cavity surface with Lebedev spheres
	Using 302 Lebedev grid points for each H atom
	Using 302 Lebedev grid points for other atoms
	Atomic van der Waals radii will be scaled by 1.20
 Remove points where switching function is < 1.0e-08
 Keep 1793 surface tesserae and discard 2737 interior tesserae
 Molecular Surface Area = 178.505 Angst**2

                       Distance Matrix (Angstroms)
             C (  1)   C (  2)   C (  3)   C (  4)   C (  5)   C (  6)
   C (  2)  4.306741
   C (  3)  3.815174  1.399036
   C (  4)  3.806632  1.396964  2.426923
   C (  5)  2.514025  2.414484  1.405792  2.784885
   C (  6)  2.538866  2.417765  2.812136  1.386191  2.424163
   C (  7)  1.511031  2.795881  2.439386  2.414311  1.400866  1.404425
   H (  8)  5.385316  1.078770  2.160062  2.136716  3.401406  3.383577
   H (  9)  4.675627  2.163990  1.081315  3.411231  2.162377  3.893439
   H ( 10)  4.671165  2.149528  3.402614  1.079058  3.863867  2.134371
   H ( 11)  2.704515  3.393152  2.153675  3.864886  1.080023  3.402800
   H ( 12)  2.756021  3.395113  3.893924  2.140225  3.408312  1.081830
   H ( 13)  1.091609  4.773644  4.091713  4.449276  2.745964  3.282012
   H ( 14)  1.088480  4.772704  4.555223  3.973548  3.388783  2.593635
   H ( 15)  1.100001  4.848767  4.247721  4.439529  2.931182  3.239031
             C (  7)   H (  8)   H (  9)   H ( 10)   H ( 11)   H ( 12)
   H (  8)  3.874375
   H (  9)  3.417549  2.507350
   H ( 10)  3.390244  2.454634  4.301940
   H ( 11)  2.152060  4.297655  2.482065  4.943883
   H ( 12)  2.163769  4.268715  4.975232  2.453341  4.302286
   H ( 13)  2.139907  5.833242  4.818070  5.355755  2.638658  3.571677
   H ( 14)  2.123259  5.826481  5.507258  4.648990  3.738480  2.365860
   H ( 15)  2.191837  5.909997  5.013666  5.311174  2.903000  3.445281
             H ( 13)   H ( 14)
   H ( 14)  1.755843
   H ( 15)  1.777087  1.790510
 
 A cutoff of  1.0D-14 yielded   8360 shell pairs
 There are     54504 function pairs (     69458 Cartesian)
 Smallest overlap matrix eigenvalue = 6.06E-07
 Linear dependence detected in AO basis
 Tighter screening thresholds may be required for diffuse basis sets
 Use S2THRESH > 14 and THRESH = 14 in case of SCF convergence issues
 Number of orthogonalized atomic orbitals = 330
 Maximum deviation from orthogonality = 1.618E-10

 Scale SEOQF with 1.000000e-01/1.000000e-01/1.000000e-02

 Standard Electronic Orientation quadrupole field applied
 Nucleus-field energy     =     0.0000000053 hartrees
 Guess from superposition of atomic densities
 Warning:  Energy on first SCF cycle will be non-variational
 SAD guess density has 49.913408 electrons

 -----------------------------------------------------------------------
  General SCF calculation program by
  Eric Jon Sundstrom, Paul Horn, Yuezhi Mao, Dmitri Zuev, Alec White,
  David Stuck, Shaama M.S., Shane Yost, Joonho Lee, David Small,
  Daniel Levine, Susi Lehtola, Hugh Burton, Evgeny Epifanovsky
 -----------------------------------------------------------------------
 Exchange:     0.1670 Hartree-Fock + 1.0000 wB97X-V + LR-HF
 Correlation:  1.0000 wB97X-V
 Using Euler-Maclaurin-Lebedev (99,590) quadrature formula
 Nonlocal Correlation:  VV10 with C = 0.0100 and b = 6.00 and scale = 1.00000
 Grid used for NLC:  SG-1 standard quadrature
Energy prior to optimization (guess energy) = -271.521178116505
Begin Timing: Total SCF Calculation
begin iterations for algorithm: DIIS         
the SCF tolerance is set to 1.00e-08
    1    -271.5211781165      1.93e-03     00000 
    2    -271.5597746450      1.23e-03     00000 
    3    -271.5808418918      1.38e-04     00000 
    4    -271.5812599990      4.77e-05     00000 
    5    -271.5812937592      1.67e-05     00000 
    6    -271.5812985484      4.06e-06     00000 
    7    -271.5812988790      1.82e-06     00000 
    8    -271.5812989357      3.37e-07     00000 
    9    -271.5812989386      7.59e-08     00000 
   10    -271.5812989387      4.29e-08     00000 
   11    -271.5812989388      5.81e-09     00000 Convergence criterion met
Timing for Total SCF: 1393.00s (wall), 2768.17s (cpu)

************** Final PCM Free Energy Summary **************
 G_electrostatic  =      -0.00256994 hartree =      -1.61266458 kcal/mol
 G_cavitation     =       0.00000000 hartree =       0.00000000 kcal/mol
 G_dispersion     =       0.00000000 hartree =       0.00000000 kcal/mol
 G_repulsion      =       0.00000000 hartree =       0.00000000 kcal/mol
 --------------------------------------------------
 Non-electrostatic Free Energy =       0.00000000 hartree =       0.00000000 kcal/mol
 Total                         =      -0.00256994 hartree =      -1.61266458 kcal/mol
 --------------------------------------------------
 SCF Energy (H0 + V/2)                       =    -271.58129894 
 Solute Internal Energy (H0)                 =    -271.57872899 
 Total Free Energy (H0 + V/2 + non-elec)     =    -271.58129894 hartree
                                             = -170419.83723055 kcal/mol
***********************************************************

E_pcm = -0.0025699446
Multipole orders to be included
        2
        3
computing dipole RHS
computing quadrupole RHS
total number of RHS in solve_reponses: 8
RHS batch sizes
        8
Beginning Block Conjugate Gradient Iterations. Batch Number: 0
computing hessian-vector products by finite difference
              1      5.76e-01     00000 Conjugate Gradient Iteration
computing hessian-vector products by finite difference
              2      1.89e-01     00000 Conjugate Gradient Iteration
computing hessian-vector products by finite difference
              3      4.38e-02     00000 Conjugate Gradient Iteration
computing hessian-vector products by finite difference
              4      1.01e-02     00000 Conjugate Gradient Iteration
computing hessian-vector products by finite difference
              5      2.19e-03     00000 Conjugate Gradient Iteration
computing hessian-vector products by finite difference
              6      6.34e-04     00000 Conjugate Gradient Iteration
computing hessian-vector products by finite difference
              7      1.69e-04     00000 Conjugate Gradient Iteration
computing hessian-vector products by finite difference
              8      2.46e-05     00000 Conjugate Gradient Iteration
computing hessian-vector products by finite difference
              9      3.33e-06     00000 Conjugate Gradient Iteration
computing hessian-vector products by finite difference
             10      4.75e-07     00000 Conjugate Gradient Iteration
computing hessian-vector products by finite difference
             11      7.67e-08     00000 Conjugate Gradient Iteration
computing hessian-vector products by finite difference
             12      1.14e-08     00000 Conjugate Gradient Iteration
computing hessian-vector products by finite difference
             13      2.16e-09     00000 CG Converged
batch 0 complete
Done Calculating Responses
TESTING ORTHOGONALIZATION OF MULTIPOLE BASIS
Multipole virts passed orthogonality test
Virts Per Order
           75
          125
 
 --------------------------------------------------------------
 
                    Orbital Energies (a.u.)
 --------------------------------------------------------------
 
 Alpha MOs
 -- Occupied --
-10.2850 -10.2771 -10.2733 -10.2722 -10.2722 -10.2716 -10.2631  -0.9947
 -0.9053  -0.8794  -0.8126  -0.7301  -0.7062  -0.6294  -0.5729  -0.5691
 -0.5342  -0.5320  -0.5127  -0.4891  -0.4721  -0.4433  -0.4407  -0.3497
 -0.3368
 -- Virtual --
  0.0616   0.0632   0.0664   0.0789   0.0844   0.1042   0.1100   0.1132
  0.1352   0.1538   0.1653   0.1720   0.1810   0.1898   0.1935   0.1991
  0.2221   0.2269   0.2317   0.2390   0.2462   0.2566   0.2590   0.2692
  0.2788   0.2816   0.2872   0.2896   0.2931   0.2994   0.3022   0.3108
  0.3198   0.3243   0.3294   0.3399   0.3501   0.3510   0.3662   0.3713
  0.3729   0.3802   0.3851   0.3880   0.3915   0.3979   0.4017   0.4026
  0.4138   0.4262   0.4306   0.4353   0.4406   0.4456   0.4490   0.4575
  0.4636   0.4707   0.4757   0.4833   0.4915   0.4959   0.5097   0.5124
  0.5147   0.5199   0.5305   0.5411   0.5438   0.5504   0.5550   0.5647
  0.5715   0.5757   0.5868   0.5935   0.5962   0.6217   0.6332   0.6397
  0.6680   0.6714   0.6792   0.6835   0.6889   0.7014   0.7178   0.7235
  0.7290   0.7347   0.7448   0.7577   0.7624   0.7644   0.7726   0.7823
  0.7864   0.7887   0.7951   0.8016   0.8082   0.8215   0.8233   0.8268
  0.8320   0.8351   0.8479   0.8543   0.8622   0.8655   0.8789   0.8939
  0.9099   0.9222   0.9362   0.9443   0.9533   1.0011   1.0294   1.0364
  1.0430   1.0619   1.0638   1.0735   1.0871   1.0964   1.1000   1.1386
  1.1585   1.1692   1.2556   1.2708   1.2955   1.3258   1.3517   1.3536
  1.3702   1.4362   1.4486   1.4562   1.4587   1.4712   1.5253   1.5301
  1.6007   1.6121   1.6175   1.6224   1.6508   1.6727   1.7335   1.7687
  1.7779   1.7832   1.8007   1.8148   1.8313   1.8513   1.8815   1.9082
  1.9139   1.9179   1.9268   1.9693   1.9885   1.9888   2.0090   2.0244
  2.0335   2.0403   2.0657   2.0826   2.1092   2.1217   2.1726   2.1850
  2.1969   2.2288   2.2440   2.2685   2.2893   2.3092   2.3802   2.3930
  2.3992   2.4152   2.4549   2.5103   2.5382   2.5525   2.5602   2.6018
  2.6119   2.6389   2.6650   2.6749   2.6911   2.7078   2.7572   2.7636
  2.7762   2.8018   2.8093   2.8385   2.8579   2.8891   2.9049   2.9165
  2.9276   2.9347   2.9690   2.9719   2.9871   3.0141   3.0169   3.0483
  3.0563   3.0854   3.0887   3.1238   3.1580   3.1912   3.1932   3.2123
  3.2285   3.2535   3.2706   3.2837   3.3442   3.3550   3.3609   3.3737
  3.4078   3.4270   3.4418   3.4482   3.4563   3.4683   3.4815   3.4872
  3.5011   3.5326   3.5369   3.5381   3.5436   3.5572   3.5685   3.6006
  3.6241   3.6311   3.6460   3.6849   3.7091   3.7424   3.7589   3.7998
  3.8418   3.8944   3.9229   3.9380   3.9435   3.9911   4.0243   4.0446
  4.1178   4.1983   4.2561   4.2678   4.2755   4.2960   4.3210   4.3281
  4.3441   4.3534   4.3709   4.3907   4.3977   4.4406   4.4873   4.5180
  4.5863   4.6069   4.7532   4.7771   4.8031   4.8372   4.9042   4.9416
  5.0093   5.0424   5.1523   5.2638   5.3423   5.3655   5.4863   5.5194
  5.6563   5.8400  22.5904  22.6723  22.8637  22.8872  22.9828  23.0529
 23.3795
 --------------------------------------------------------------
 
          Ground-State Mulliken Net Atomic Charges

     Atom                 Charge (a.u.)
  ----------------------------------------
      1 C                    -1.024374
      2 C                    -0.467841
      3 C                    -0.513357
      4 C                    -0.497399
      5 C                    -0.299092
      6 C                    -0.424604
      7 C                     0.891763
      8 H                     0.336048
      9 H                     0.319426
     10 H                     0.312674
     11 H                     0.345871
     12 H                     0.285694
     13 H                     0.241377
     14 H                     0.270632
     15 H                     0.223182
  ----------------------------------------
  Sum of atomic charges =     0.000000

 -----------------------------------------------------------------
                    Cartesian Multipole Moments
 -----------------------------------------------------------------
    Charge (ESU x 10^10)
                -0.0000
    Dipole Moment (Debye)
         X      -0.2252      Y      -0.1978      Z       0.3911
       Tot       0.4928
    Quadrupole Moments (Debye-Ang)
        XX     -41.5134     XY      -1.5223     YY     -38.9067
        XZ      -4.9762     YZ      -2.2479     ZZ     -39.3085
    Octopole Moments (Debye-Ang^2)
       XXX     182.3454    XXY      14.0756    XYY      58.1484
       YYY      32.6335    XXZ    -104.3285    XYZ      -1.4919
       YYZ    -108.4138    XZZ      38.5193    YZZ       1.7890
       ZZZ    -333.7573
    Hexadecapole Moments (Debye-Ang^3)
      XXXX    -784.2392   XXXY     -57.9650   XXYY    -188.7379
      XYYY     -65.9687   YYYY    -356.3942   XXXZ     589.0533
      XXYZ      65.3108   XYYZ     196.3641   YYYZ     161.4758
      XXZZ    -459.0815   XYZZ     -17.1825   YYZZ    -427.7188
      XZZZ     529.5477   YZZZ     141.4074   ZZZZ   -2245.3357
 -----------------------------------------------------------------
Archival summary:
1\1\nid00524\SP\ProcedureUnspecified\BasisUnspecified\78\meili\SunSep2621:54:382021SunSep2621:54:382021\0\\#,ProcedureUnspecified,BasisUnspecified,\\0,1\C\C,1,1.40087\H,2,1.08002,1,119.771\C,1,1.40442,2,119.569,3,-179.598,0\H,4,1.08183,1,120.432,2,179.424,0\C,4,1.38619,1,119.799,2,-1.75113,0\H,6,1.07906,4,119.424,1,179.968,0\C,6,1.39696,4,120.619,1,1.56935,0\H,8,1.07877,6,118.763,4,179.161,0\C,8,1.39904,6,120.454,4,-0.686127,0\H,10,1.08131,8,120.956,6,-179.897,0\C,1,1.51103,2,119.345,3,-1.16934,0\H,12,1.08848,1,108.435,2,-167.904,0\H,12,1.09161,1,109.559,2,-51.0937,0\H,12,1.1,1,113.226,2,69.9837,0\\\@

 Total job time:  30176.91s(wall), 59726.68s(cpu) 
 Sun Sep 26 21:54:41 2021

        *************************************************************
        *                                                           *
        *  Thank you very much for using Q-Chem.  Have a nice day.  *
        *                                                           *
        *************************************************************


Done Job For Fragment 0
calling putenv with: QCSCRATCH=/global/cscratch1/sd/meili 
calling putenv with: QCLOCALSCR=/tmp 
calling putenv with: QCTHREADS=32 
Creating input file /tmp/qchem19532/Frg2.input
using default PutDataFrgm: nothing
calling putenv with: QCSCRATCH=/tmp/qchem19532/ 
calling putenv with: QCLOCALSCR=/tmp/qchem19532/ 
Spawning Job For Fragment 1
                  Welcome to Q-Chem
     A Quantum Leap Into The Future Of Chemistry


 Q-Chem 5.2, Q-Chem, Inc., Pleasanton, CA (2019)

 License issued to: National Energy Research Scientific Computing Center

 Yihan Shao,  Zhengting Gan,  E. Epifanovsky,  A. T. B. Gilbert,  M. Wormit,  
 J. Kussmann,  A. W. Lange,  A. Behn,  Jia Deng,  Xintian Feng,  D. Ghosh,  
 M. Goldey,  P. R. Horn,  L. D. Jacobson,  I. Kaliman,  T. Kus,  A. Landau,  
 Jie Liu,  E. I. Proynov,  R. M. Richard,  R. P. Steele,  E. J. Sundstrom,  
 H. L. Woodcock III,  P. M. Zimmerman,  D. Zuev,  B. Albrecht,  E. Alguire,  
 S. A. Baeppler,  D. Barton,  Z. Benda,  Y. A. Bernard,  E. J. Berquist,  
 K. B. Bravaya,  H. Burton,  D. Casanova,  Chun-Min Chang,  Yunqing Chen,  
 A. Chien,  K. D. Closser,  M. P. Coons,  S. Coriani,  S. Dasgupta,  
 A. L. Dempwolff,  M. Diedenhofen,  Hainam Do,  R. G. Edgar,  Po-Tung Fang,  
 S. Faraji,  S. Fatehi,  Qingguo Feng,  K. D. Fenk,  J. Fosso-Tande,  
 J. Gayvert,  Qinghui Ge,  A. Ghysels,  G. Gidofalvi,  J. Gomes,  
 J. Gonthier,  A. Gunina,  D. Hait,  M. W. D. Hanson-Heine,  
 P. H. P. Harbach,  A. W. Hauser,  M. F. Herbst,  J. E. Herr,  
 E. G. Hohenstein,  Z. C. Holden,  Kerwin Hui,  B. C. Huynh,  T.-C. Jagau,  
 Hyunjun Ji,  B. Kaduk,  K. Khistyaev,  Jaehoon Kim,  P. Klunzinger,  K. Koh,  
 D. Kosenkov,  L. Koulias,  T. Kowalczyk,  C. M. Krauter,  A. Kunitsa,  
 Ka Un Lao,  A. Laurent,  K. V. Lawler,  Joonho Lee,  D. Lefrancois,  
 S. Lehtola,  D. S. Levine,  Yi-Pei Li,  You-Sheng Lin,  Fenglai Liu,  
 E. Livshits,  A. Luenser,  P. Manohar,  E. Mansoor,  S. F. Manzer,  
 Shan-Ping Mao,  Yuezhi Mao,  N. Mardirossian,  A. V. Marenich,  
 T. Markovich,  L. A. Martinez-Martinez,  S. A. Maurer,  N. J. Mayhall,  
 S. C. McKenzie,  J.-M. Mewes,  P. Morgante,  A. F. Morrison,  
 J. W. Mullinax,  K. Nanda,  T. S. Nguyen-Beck,  R. Olivares-Amaya,  
 J. A. Parkhill,  Zheng Pei,  T. M. Perrine,  F. Plasser,  P. Pokhilko,  
 S. Prager,  A. Prociuk,  E. Ramos,  D. R. Rehn,  F. Rob,  M. Scheurer,  
 M. Schneider,  N. Sergueev,  S. M. Sharada,  S. Sharma,  D. W. Small,  
 T. Stauch,  T. Stein,  Yu-Chuan Su,  A. J. W. Thom,  A. Tkatchenko,  
 T. Tsuchimochi,  N. M. Tubman,  L. Vogt,  M. L. Vidal,  O. Vydrov,  
 M. A. Watson,  J. Wenzel,  M. de Wergifosse,  T. A. Wesolowski,  A. White,  
 J. Witte,  A. Yamada,  Jun Yang,  K. Yao,  S. Yeganeh,  S. R. Yost,  
 Zhi-Qiang You,  A. Zech,  Igor Ying Zhang,  Xing Zhang,  Yan Zhao,  
 Ying Zhu,  B. R. Brooks,  G. K. L. Chan,  C. J. Cramer,  M. S. Gordon,  
 W. J. Hehre,  A. Klamt,  M. W. Schmidt,  C. D. Sherrill,  D. G. Truhlar,  
 A. Aspuru-Guzik,  R. Baer,  A. T. Bell,  N. A. Besley,  Jeng-Da Chai,  
 A. E. DePrince, III,  R. A. DiStasio Jr.,  A. Dreuw,  B. D. Dunietz,  
 T. R. Furlani,  Chao-Ping Hsu,  Yousung Jung,  Jing Kong,  D. S. Lambrecht,  
 WanZhen Liang,  C. Ochsenfeld,  V. A. Rassolov,  L. V. Slipchenko,  
 J. E. Subotnik,  T. Van Voorhis,  J. M. Herbert,  A. I. Krylov,  
 P. M. W. Gill,  M. Head-Gordon

 Contributors to earlier versions of Q-Chem not listed above: 
 R. D. Adamson,  B. Austin,  J. Baker,  G. J. O. Beran,  K. Brandhorst,  
 S. T. Brown,  E. F. C. Byrd,  A. K. Chakraborty,  C.-L. Cheng,  
 Siu Hung Chien,  D. M. Chipman,  D. L. Crittenden,  H. Dachsel,  
 R. J. Doerksen,  A. D. Dutoi,  L. Fusti-Molnar,  W. A. Goddard III,  
 A. Golubeva-Zadorozhnaya,  S. R. Gwaltney,  G. Hawkins,  A. Heyden,  
 S. Hirata,  G. Kedziora,  F. J. Keil,  C. Kelley,  Jihan Kim,  R. A. King,  
 R. Z. Khaliullin,  P. P. Korambath,  W. Kurlancheek,  A. M. Lee,  M. S. Lee,  
 S. V. Levchenko,  Ching Yeh Lin,  D. Liotard,  R. C. Lochan,  I. Lotan,  
 P. E. Maslen,  N. Nair,  D. P. O'Neill,  D. Neuhauser,  E. Neuscamman,  
 C. M. Oana,  R. Olson,  B. Peters,  R. Peverati,  P. A. Pieniazek,  
 Y. M. Rhee,  J. Ritchie,  M. A. Rohrdanz,  E. Rosta,  N. J. Russ,  
 H. F. Schaefer III,  N. E. Schultz,  N. Shenvi,  A. C. Simmonett,  A. Sodt,  
 D. Stuck,  K. S. Thanthiriwatte,  V. Vanovschi,  Tao Wang,  A. Warshel,  
 C. F. Williams,  Q. Wu,  X. Xu,  W. Zhang

 Please cite Q-Chem as follows:
 Y. Shao et al., Mol. Phys. 113, 184-215 (2015)
 DOI: 10.1080/00268976.2014.952696

 Q-Chem 5.2.0 for Intel X86 EM64T Linux

 Parts of Q-Chem use Armadillo 8.300.2 (Tropical Shenanigans).
 http://arma.sourceforge.net/

 Q-Chem begins on Sun Sep 26 21:54:46 2021  

Host: cori01
0

     Scratch files written to /tmp/qchem19532//Frg2//
 May1019 |scratch|qcdevops|jenkins|workspace|build_RNUM -1
Processing $rem in /global/common/cori/software/qchem/5.2/config/preferences:
	 MEM_TOTAL  96000 
NAlpha2: 58
NElect   58
Mult     1
Symmetry turned off for PCM/SM12/SMD calculation

Checking the input file for inconsistencies... 	...done.

--------------------------------------------------------------
User input:
--------------------------------------------------------------
$molecule
0 1
 6	0.6341609727	2.7114369252	-3.7967125038
 6	0.2231609727	-0.6695630748	-2.0397125038
 6	-0.0708390273	0.5334369252	-2.6747125038
 6	1.5411609727	-0.9615630748	-1.6877125038
 6	0.9611609727	1.4444369252	-3.0167125038
 6	2.6011609727	-0.0565630748	-1.9827125038
 6	2.3001609727	1.1514369252	-2.6307125038
 8	1.7681609727	-2.1375630748	-1.0267125038
 1	-0.5728390273	-1.3595630748	-1.7977125038
 1	-1.0938390273	0.7564369252	-2.9487125038
 1	0.9611609727	-2.6445630748	-0.8957125038
 1	3.6131609727	-0.2925630748	-1.6907125038
 1	1.2221609727	3.5434369252	-3.4057125038
 1	-0.4138390273	2.9474369252	-3.6127125038
 1	3.0921609727	1.8494369252	-2.8627125038
 1	0.8209229727	2.6095019252	-4.8759385038
$end
$rem
EDA2		1
METHOD		WB97X-V
BASIS		DEF2-TZVPD
XC_GRID		000099000590
NL_GRID		1
UNRESTRICTED		FALSE
MAX_SCF_CYCLES		200
SYMMETRY		FALSE
SYM_IGNORE		TRUE
BASIS_LIN_DEP_THRESH		6
THRESH		14
SCF_CONVERGENCE		8
SCF_PRINT_FRGM		TRUE
SOLVENT_METHOD		PCM
!required keywords
JOBTYPE		SP
SYM_IGNORE		TRUE
SUBSYSTEM		TRUE
GEN_SCFMAN		TRUE
CHILD_INSTRUCTION		2
SYM_IGNORE		TRUE
SCFMI		0
RI_K 0		
PARI_K 0		
MIN_PARI_K 0		
IARI_K 0		
OCC_RI_K 0		
PURECART		1111
MEM_STATIC		2000
MEM_TOTAL		96000
GUI		0
CHILD_MP		1
CHILD_MP_ORDERS		232
FRZ_RELAX		0
FRZ_RELAX_METHOD		0
EDA_CLS_ELEC		1
EDA_CLS_DISP		0
FRZ_ORTHO_DECOMP		1
EDA2		FALSE
FRGM_METHOD		FALSE
CIS_N_ROOTS  0
LOCAL_CIS    0
CIS_RLX_DNS  1
$end
$pcm
THEORY                  CPCM
METHOD                  SWIG
SOLVER                  INVERSION
RADII                   UFF
HPOINTS                 302
HEAVYPOINTS             302
PRINTLEVEL              0
$end
$solvent
DIELECTRIC              78.390000 ! water
$end
--------------------------------------------------------------
 ----------------------------------------------------------------
             Standard Nuclear Orientation (Angstroms)
    I     Atom           X                Y                Z
 ----------------------------------------------------------------
    1      C       0.6341609727     2.7114369252    -3.7967125038
    2      C       0.2231609727    -0.6695630748    -2.0397125038
    3      C      -0.0708390273     0.5334369252    -2.6747125038
    4      C       1.5411609727    -0.9615630748    -1.6877125038
    5      C       0.9611609727     1.4444369252    -3.0167125038
    6      C       2.6011609727    -0.0565630748    -1.9827125038
    7      C       2.3001609727     1.1514369252    -2.6307125038
    8      O       1.7681609727    -2.1375630748    -1.0267125038
    9      H      -0.5728390273    -1.3595630748    -1.7977125038
   10      H      -1.0938390273     0.7564369252    -2.9487125038
   11      H       0.9611609727    -2.6445630748    -0.8957125038
   12      H       3.6131609727    -0.2925630748    -1.6907125038
   13      H       1.2221609727     3.5434369252    -3.4057125038
   14      H      -0.4138390273     2.9474369252    -3.6127125038
   15      H       3.0921609727     1.8494369252    -2.8627125038
   16      H       0.8209229727     2.6095019252    -4.8759385038
 ----------------------------------------------------------------
 Nuclear Repulsion Energy =         340.25617974 hartrees
 There are       29 alpha and       29 beta electrons
 Requested basis set is def2-TZVPD
 There are 145 shells and 371 basis functions

 Total QAlloc Memory Limit  96000 MB
 Mega-Array Size      1956 MB
 MEM_STATIC part      2000 MB
 Discretize the solute cavity surface with Lebedev spheres
	Using 302 Lebedev grid points for each H atom
	Using 302 Lebedev grid points for other atoms
	Atomic van der Waals radii will be scaled by 1.20
 Remove points where switching function is < 1.0e-08
 Keep 1857 surface tesserae and discard 2975 interior tesserae
 Molecular Surface Area = 191.487 Angst**2
 A cutoff of  1.0D-14 yielded  10039 shell pairs
 There are     67047 function pairs (     85737 Cartesian)
 Smallest overlap matrix eigenvalue = 6.93E-07
 Linear dependence detected in AO basis
 Tighter screening thresholds may be required for diffuse basis sets
 Use S2THRESH > 14 and THRESH = 14 in case of SCF convergence issues
 Number of orthogonalized atomic orbitals = 370
 Maximum deviation from orthogonality = 1.958E-10

 Scale SEOQF with 1.000000e-01/1.000000e-01/1.000000e-01

 Standard Electronic Orientation quadrupole field applied
 Nucleus-field energy     =    -0.0000000237 hartrees
 Guess from superposition of atomic densities
 Warning:  Energy on first SCF cycle will be non-variational
 SAD guess density has 57.738434 electrons

 -----------------------------------------------------------------------
  General SCF calculation program by
  Eric Jon Sundstrom, Paul Horn, Yuezhi Mao, Dmitri Zuev, Alec White,
  David Stuck, Shaama M.S., Shane Yost, Joonho Lee, David Small,
  Daniel Levine, Susi Lehtola, Hugh Burton, Evgeny Epifanovsky
 -----------------------------------------------------------------------
 Exchange:     0.1670 Hartree-Fock + 1.0000 wB97X-V + LR-HF
 Correlation:  1.0000 wB97X-V
 Using Euler-Maclaurin-Lebedev (99,590) quadrature formula
 Nonlocal Correlation:  VV10 with C = 0.0100 and b = 6.00 and scale = 1.00000
 Grid used for NLC:  SG-1 standard quadrature
Energy prior to optimization (guess energy) = -346.492221292449
Begin Timing: Total SCF Calculation
begin iterations for algorithm: DIIS         
the SCF tolerance is set to 1.00e-08
    1    -346.4922212924      5.18e-03     00000 
    2    -346.4163212555      5.68e-03     00000 
    3    -346.8080087364      5.37e-04     00000 
    4    -346.8122219854      1.81e-04     00000 
    5    -346.8128412186      2.59e-05     00000 
    6    -346.8128620839      1.37e-05     00000 
    7    -346.8128659608      4.02e-06     00000 
    8    -346.8128664358      1.29e-06     00000 
    9    -346.8128664988      5.98e-07     00000 
   10    -346.8128665100      1.49e-07     00000 
   11    -346.8128665118      7.35e-08     00000 
   12    -346.8128665121      3.52e-08     00000 
   13    -346.8128665122      7.31e-09     00000 Convergence criterion met
Timing for Total SCF: 2179.00s (wall), 4330.63s (cpu)

************** Final PCM Free Energy Summary **************
 G_electrostatic  =      -0.00583318 hartree =      -3.66037487 kcal/mol
 G_cavitation     =       0.00000000 hartree =       0.00000000 kcal/mol
 G_dispersion     =       0.00000000 hartree =       0.00000000 kcal/mol
 G_repulsion      =       0.00000000 hartree =       0.00000000 kcal/mol
 --------------------------------------------------
 Non-electrostatic Free Energy =       0.00000000 hartree =       0.00000000 kcal/mol
 Total                         =      -0.00583318 hartree =      -3.66037487 kcal/mol
 --------------------------------------------------
 SCF Energy (H0 + V/2)                       =    -346.81286651 
 Solute Internal Energy (H0)                 =    -346.80703333 
 Total Free Energy (H0 + V/2 + non-elec)     =    -346.81286651 hartree
                                             = -217628.35840104 kcal/mol
***********************************************************

E_pcm = -0.0058331787
Multipole orders to be included
        2
        3
computing dipole RHS
computing quadrupole RHS
total number of RHS in solve_reponses: 8
RHS batch sizes
        8
Beginning Block Conjugate Gradient Iterations. Batch Number: 0
computing hessian-vector products by finite difference
              1      5.99e-01     00000 Conjugate Gradient Iteration
computing hessian-vector products by finite difference
              2      1.99e-01     00000 Conjugate Gradient Iteration
computing hessian-vector products by finite difference
              3      5.08e-02     00000 Conjugate Gradient Iteration
computing hessian-vector products by finite difference
              4      1.55e-02     00000 Conjugate Gradient Iteration
computing hessian-vector products by finite difference
              5      4.94e-03     00000 Conjugate Gradient Iteration
computing hessian-vector products by finite difference
              6      1.84e-03     00000 Conjugate Gradient Iteration
computing hessian-vector products by finite difference
              7      4.38e-04     00000 Conjugate Gradient Iteration
computing hessian-vector products by finite difference
              8      8.28e-05     00000 Conjugate Gradient Iteration
computing hessian-vector products by finite difference
              9      1.56e-05     00000 Conjugate Gradient Iteration
computing hessian-vector products by finite difference
             10      2.09e-06     00000 Conjugate Gradient Iteration
computing hessian-vector products by finite difference
             11      2.60e-07     00000 Conjugate Gradient Iteration
computing hessian-vector products by finite difference
             12      3.86e-08     00000 Conjugate Gradient Iteration
computing hessian-vector products by finite difference
             13      1.64e-08     00000 Conjugate Gradient Iteration
computing hessian-vector products by finite difference
             14      5.77e-09     00000 CG Converged
batch 0 complete
Done Calculating Responses
TESTING ORTHOGONALIZATION OF MULTIPOLE BASIS
Multipole virts passed orthogonality test
Virts Per Order
           87
          145
 
 --------------------------------------------------------------
 
                    Orbital Energies (a.u.)
 --------------------------------------------------------------
 
 Alpha MOs
 -- Occupied --
-19.2450 -10.3418 -10.2839 -10.2815 -10.2798 -10.2784 -10.2735 -10.2635
 -1.1941  -0.9882  -0.8964  -0.8844  -0.8082  -0.7456  -0.7156  -0.6651
 -0.6020  -0.5814  -0.5475  -0.5389  -0.5377  -0.5213  -0.5110  -0.4755
 -0.4556  -0.4414  -0.4407  -0.3542  -0.3098
 -- Virtual --
  0.0564   0.0580   0.0686   0.0727   0.0829   0.0942   0.1085   0.1099
  0.1130   0.1309   0.1444   0.1501   0.1556   0.1707   0.1752   0.1913
  0.1950   0.2032   0.2133   0.2221   0.2318   0.2384   0.2461   0.2519
  0.2600   0.2639   0.2692   0.2764   0.2792   0.2928   0.2933   0.3019
  0.3047   0.3064   0.3113   0.3239   0.3320   0.3368   0.3424   0.3441
  0.3531   0.3562   0.3574   0.3703   0.3729   0.3754   0.3830   0.3898
  0.3922   0.3942   0.3972   0.4071   0.4107   0.4182   0.4208   0.4299
  0.4332   0.4477   0.4507   0.4573   0.4644   0.4671   0.4743   0.4804
  0.4829   0.4898   0.4958   0.5003   0.5099   0.5120   0.5210   0.5325
  0.5378   0.5448   0.5460   0.5568   0.5586   0.5666   0.5798   0.5911
  0.5952   0.6010   0.6192   0.6232   0.6412   0.6501   0.6579   0.6667
  0.6701   0.6771   0.6845   0.6886   0.6962   0.6980   0.7171   0.7224
  0.7255   0.7401   0.7452   0.7478   0.7568   0.7653   0.7726   0.7834
  0.7854   0.7886   0.7936   0.7967   0.8051   0.8070   0.8217   0.8277
  0.8367   0.8410   0.8464   0.8528   0.8663   0.8728   0.8801   0.8946
  0.8982   0.9041   0.9284   0.9448   0.9651   0.9711   0.9838   1.0090
  1.0203   1.0258   1.0307   1.0386   1.0484   1.0665   1.0726   1.0871
  1.0932   1.1109   1.1327   1.1679   1.1861   1.2327   1.2377   1.2831
  1.3036   1.3088   1.3266   1.3477   1.3517   1.3754   1.3929   1.4243
  1.4497   1.4591   1.4690   1.4795   1.5088   1.5502   1.5984   1.6092
  1.6208   1.6295   1.6782   1.6866   1.6884   1.7171   1.7846   1.7860
  1.8154   1.8168   1.8317   1.8555   1.8649   1.8744   1.9114   1.9179
  1.9357   1.9431   1.9610   1.9798   1.9972   2.0184   2.0324   2.0465
  2.0502   2.0710   2.0817   2.0918   2.1127   2.1419   2.1860   2.2016
  2.2037   2.2291   2.2625   2.2744   2.2936   2.3063   2.3438   2.3596
  2.3778   2.3943   2.4180   2.4464   2.4852   2.4909   2.5093   2.5435
  2.5708   2.5903   2.5966   2.6341   2.6423   2.6554   2.6874   2.7250
  2.7330   2.7410   2.7659   2.7933   2.8063   2.8171   2.8598   2.8687
  2.8945   2.9191   2.9217   2.9377   2.9514   2.9571   2.9684   2.9946
  3.0079   3.0373   3.0590   3.0734   3.0899   3.1053   3.1381   3.1444
  3.1570   3.1989   3.2151   3.2194   3.2414   3.2532   3.2703   3.2859
  3.3044   3.3363   3.3801   3.3824   3.3904   3.4141   3.4375   3.4502
  3.4603   3.4667   3.4860   3.4894   3.5058   3.5142   3.5177   3.5360
  3.5386   3.5594   3.5755   3.5781   3.5957   3.6061   3.6347   3.6400
  3.6683   3.6846   3.7249   3.7512   3.7642   3.7980   3.8073   3.8707
  3.9194   3.9378   3.9477   3.9618   4.0134   4.0664   4.1097   4.1661
  4.2241   4.2471   4.2594   4.2740   4.2889   4.3035   4.3097   4.3267
  4.3372   4.3475   4.3872   4.4288   4.4589   4.5149   4.5718   4.5952
  4.7018   4.7129   4.7598   4.7696   4.8562   4.9070   5.0100   5.0296
  5.0731   5.1016   5.1428   5.2705   5.2769   5.3872   5.4073   5.4901
  5.6043   5.6092   5.6913   5.7344   5.9284   6.1879   6.4460   6.5859
  6.6245   6.8668   7.0112   7.2973   7.4414  22.6359  22.6820  22.8657
 22.9491  22.9885  23.0908  23.4059  44.4086
 --------------------------------------------------------------
 
          Ground-State Mulliken Net Atomic Charges

     Atom                 Charge (a.u.)
  ----------------------------------------
      1 C                    -1.004469
      2 C                    -0.405329
      3 C                    -0.658146
      4 C                     0.854228
      5 C                     0.583839
      6 C                    -0.786980
      7 C                    -0.383562
      8 O                    -0.480787
      9 H                     0.269548
     10 H                     0.296027
     11 H                     0.291119
     12 H                     0.339742
     13 H                     0.269411
     14 H                     0.273043
     15 H                     0.331127
     16 H                     0.211191
  ----------------------------------------
  Sum of atomic charges =     0.000000

 -----------------------------------------------------------------
                    Cartesian Multipole Moments
 -----------------------------------------------------------------
    Charge (ESU x 10^10)
                 0.0000
    Dipole Moment (Debye)
         X      -1.6952      Y       0.1243      Z      -0.3718
       Tot       1.7399
    Quadrupole Moments (Debye-Ang)
        XX     -47.8334     XY       5.4961     YY     -43.5639
        XZ       1.8079     YZ      -3.7844     ZZ     -48.5500
    Octopole Moments (Debye-Ang^2)
       XXX    -167.5224    XXY       0.6803    XYY     -63.9758
       YYY     -53.0858    XXZ     109.8852    XYZ     -10.3165
       YYZ     106.7994    XZZ     -64.1739    YZZ       0.9238
       ZZZ     352.8190
    Hexadecapole Moments (Debye-Ang^3)
      XXXX    -714.1032   XXXY      24.2222   XXYY    -271.9653
      XYYY      16.1013   YYYY    -720.7591   XXXZ     354.2664
      XXYZ      68.8511   XYYZ     121.6469   YYYZ     288.1608
      XXZZ    -445.1013   XYZZ      22.1959   YYZZ    -428.2136
      XZZZ     397.1564   YZZZ     238.4228   ZZZZ   -1962.5411
 -----------------------------------------------------------------
Archival summary:
1\1\nid00524\SP\ProcedureUnspecified\BasisUnspecified\178\meili\MonSep2708:35:532021MonSep2708:35:532021\0\\#,ProcedureUnspecified,BasisUnspecified,\\0,1\C\O,1,1.368\H,2,0.962008,1,112.312\C,1,1.3951,2,117.297,3,1.08287,0\H,4,1.08087,1,120.374,2,-0.401166,0\C,4,1.39171,1,119.711,2,177.911,0\H,6,1.08228,4,119.558,1,179.861,0\C,6,1.41842,4,120.763,1,2.52047,0\C,8,1.424,6,119.12,4,-3.73443,0\H,9,1.08088,8,119.864,6,-178.427,0\C,9,1.40348,8,120.26,6,3.31501,0\H,11,1.0794,9,120.942,8,179.622,0\C,8,1.52336,6,120.097,4,175.768,0\H,13,1.08989,8,107.461,6,24.3815,0\H,13,1.09126,8,109.572,6,140.314,0\H,13,1.1,8,112.882,6,-97.6119,0\\\@

 Total job time:  38470.77s(wall), 76241.33s(cpu) 
 Mon Sep 27 08:35:56 2021

        *************************************************************
        *                                                           *
        *  Thank you very much for using Q-Chem.  Have a nice day.  *
        *                                                           *
        *************************************************************


Done Job For Fragment 1
calling putenv with: QCSCRATCH=/global/cscratch1/sd/meili 
calling putenv with: QCLOCALSCR=/tmp 
calling putenv with: QCTHREADS=32 
Doing General SCFMI
 Exchange:     0.1670 Hartree-Fock + 1.0000 wB97X-V + LR-HF
 Correlation:  1.0000 wB97X-V
 Using Euler-Maclaurin-Lebedev (99,590) quadrature formula
 Nonlocal Correlation:  VV10 with C = 0.0100 and b = 6.00 and scale = 1.00000
 Grid used for NLC:  SG-1 standard quadrature
performing fock build before subrot guess so that all methods have access
Printing subrot_rss_gen Method Specification:
Occupied Subspace Method is 0
Virtual Subspace Method is 0
Energy of the unrelaxed supersystem initial determinant -618.389263416910
performing fock build before subrot guess so that all methods have access
Printing subrot_rss_gen Method Specification:
Occupied Subspace Method is 0
Virtual Subspace Method is 0
Energy of the unrelaxed supersystem initial determinant w/ solvent -618.396723525961
write pseudocanon occs and virts to disk
write pseudocanon orbital energies to disk
Tolerance of ortho_decomp_scf: 1.00e-06
GDM subspace size: 20
Beginning the Orthogonal Decomposition of the Initial Supersystem Wavefunction
    1    -618.3725781518      1.71e-02     ortho_decomp Preconditoned Steepest Descent
    2    -618.3740375430      4.65e-04     ortho_decomp BFGS Step
    3    -618.3740426212      3.11e-05     ortho_decomp BFGS Step
    4    -618.3740426274      1.17e-06     ortho_decomp BFGS Step
    5    -618.3740426274      4.27e-08     ortho_decomp 00000 Convergence criterion met
 Hartree-Fock
 Hartree-Fock
 Hartree-Fock
Doing General SCFMI
 Exchange:     0.1670 Hartree-Fock + 1.0000 wB97X-V + LR-HF
 Correlation:  1.0000 wB97X-V
 Using Euler-Maclaurin-Lebedev (99,590) quadrature formula
 Nonlocal Correlation:  VV10 with C = 0.0100 and b = 6.00 and scale = 1.00000
 Grid used for NLC:  SG-1 standard quadrature
performing fock build at end of subrot_r(subrot) constructor so that all methods have access
<S^2> of initial wavefunction before polarization iterations 0.0000000000
Beginning iterations for the determination of the polarized wavefunction
Energy prior to optimization (guess energy) = -618.396723525961
Begin Timing: Total SCF Calculation
begin iterations for algorithm: DIIS         
the SCF tolerance is set to 1.00e-08
    1    -618.3967235260      3.88e-05     00000 
    2    -618.3969185675      1.59e-05     00000 
    3    -618.3969383093      9.19e-06     00000 
    4    -618.3969453498      2.80e-06     00000 
    5    -618.3969462624      1.25e-06     00000 
    6    -618.3969464801      5.22e-07     00000 
    7    -618.3969465101      1.92e-07     00000 
    8    -618.3969465131      8.86e-08     00000 
    9    -618.3969465135      2.61e-08     00000 
   10    -618.3969465136      1.27e-08     00000 
   11    -618.3969465136      4.67e-09     00000 Convergence criterion met
write pseudocanon occs and virts to disk
write pseudocanon orbital energies to disk
Timing for Total SCF: 10446.00s (wall), 20794.12s (cpu)
<S^2> of polarized wavefunction after polarization iterations 0.0000000000
relaxing scfmi constraint to allow all rotations in the entire AO span
Doing General SCFMI
 Exchange:     0.1670 Hartree-Fock + 1.0000 wB97X-V + LR-HF
 Correlation:  1.0000 wB97X-V
 Using Euler-Maclaurin-Lebedev (99,590) quadrature formula
 Nonlocal Correlation:  VV10 with C = 0.0100 and b = 6.00 and scale = 1.00000
 Grid used for NLC:  SG-1 standard quadrature
performing fock build at end of subrot_r(subrot) constructor so that all methods have access
<S^2> of polarized wavefunction before ct-allowed iterations 0.0000000000
Beginning iterations for the determination of the CT-Allowed wavefunction
Energy prior to optimization (guess energy) = -618.396946513581
Begin Timing: Total SCF Calculation
begin iterations for algorithm: DIIS         
the SCF tolerance is set to 1.00e-08
    1    -618.3969465136      5.08e-05     00000 
    2    -618.3975201488      4.80e-06     00000 
    3    -618.3975356910      8.67e-07     00000 
    4    -618.3975361683      6.41e-07     00000 
    5    -618.3975362435      9.42e-08     00000 
    6    -618.3975362478      3.96e-08     00000 
    7    -618.3975362483      8.88e-09     00000 Convergence criterion met
write pseudocanon occs and virts to disk
write pseudocanon orbital energies to disk
Timing for Total SCF: 6838.00s (wall), 13616.73s (cpu)
<S^2> of ct_allowed wavefunction after ct-allowed iterations 0.0000000000

================================
        Results of EDA2         
================================
Basic EDA Quantities
--------------------
Fragment Energies (Ha):
1 -271.5812989388
2 -346.8128665122
--------------------
  E_prp (kJ/mol) = 0.0000
  E_sol (kJ/mol) = 2.4759
  E_frz (kJ/mol) = -9.1922
  E_pol (kJ/mol) = -0.5855
  E_vct (kJ/mol) = -1.5484
  E_int (kJ/mol) = -8.8501
--------------------


Initial Wavefunction Decomposition
--------------------
  --------------------
  Orthogonal Fragment Subspace Decomposition:
  --------------------
     E_elec   (ELEC)   (kJ/mol) = -17.8985
     E_pauli  (PAULI)  (kJ/mol) = 23.4365
     E_disp   (DISP)   (kJ/mol) = -14.7303
     --------------------
     Terms summing to E_pauli:
     --------------------
        E_kep_pauli       (kJ/mol) = 30.7704
        E_disp_free_pauli (kJ/mol) = -7.3339
  --------------------
  Classical Frozen Decomposition:
  --------------------
     E_cls_elec  (CLS ELEC)  (kJ/mol) = -7.1724
     E_cls_pauli (CLS PAULI) (kJ/mol) = -2.0198
    [E_mod_pauli (MOD PAULI) (kJ/mol) = 12.7104 (CLS PAULI - DISP from orthogonal decomposition) ]
  --------------------
--------------------

Simplified EDA Summary (kJ/mol)
--------------------
 PREPARATION     0.0000
 SOLVATION       2.4759
 FROZEN          5.5381      (does not include dispersion)
[PAULI           23.4365]     (if this is negligible, then frozen describes electrostatics)
 DISPERSION      -14.7303
 POLARIZATION    -0.5855
 CHARGE TRANSFER -1.5484
 TOTAL           -8.8501     (PRP + SOL + FRZ + DISP + POL + CT)
--------------------
 
 --------------------------------------------------------------
 
                    Orbital Energies (a.u.)
 --------------------------------------------------------------
 
 Alpha MOs
 -- Occupied --
-19.2471 -10.3425 -10.2847 -10.2845 -10.2822 -10.2808 -10.2788 -10.2765
-10.2741 -10.2725 -10.2718 -10.2713 -10.2712 -10.2638 -10.2629  -1.1963
 -0.9942  -0.9889  -0.9048  -0.8970  -0.8851  -0.8789  -0.8121  -0.8089
 -0.7465  -0.7296  -0.7166  -0.7057  -0.6662  -0.6291  -0.6030  -0.5820
 -0.5724  -0.5695  -0.5482  -0.5416  -0.5383  -0.5340  -0.5319  -0.5210
 -0.5120  -0.5107  -0.4888  -0.4763  -0.4717  -0.4561  -0.4463  -0.4422
 -0.4419  -0.4356  -0.3555  -0.3491  -0.3354  -0.3110
 -- Virtual --
  0.0514   0.0545   0.0625   0.0646   0.0650   0.0693   0.0722   0.0804
  0.0857   0.0914   0.0963   0.1042   0.1074   0.1133   0.1185   0.1234
  0.1315   0.1394   0.1418   0.1477   0.1530   0.1602   0.1658   0.1730
  0.1736   0.1785   0.1831   0.1860   0.1925   0.1996   0.2048   0.2078
  0.2124   0.2164   0.2203   0.2234   0.2282   0.2293   0.2366   0.2409
  0.2445   0.2463   0.2515   0.2551   0.2596   0.2644   0.2683   0.2708
  0.2727   0.2752   0.2825   0.2869   0.2908   0.2924   0.2935   0.2938
  0.2972   0.3032   0.3064   0.3081   0.3117   0.3140   0.3154   0.3222
  0.3252   0.3304   0.3339   0.3365   0.3377   0.3414   0.3447   0.3494
  0.3513   0.3560   0.3570   0.3612   0.3664   0.3705   0.3720   0.3723
  0.3744   0.3770   0.3783   0.3796   0.3865   0.3882   0.3899   0.3940
  0.3973   0.4012   0.4028   0.4084   0.4123   0.4143   0.4155   0.4201
  0.4234   0.4301   0.4322   0.4324   0.4364   0.4388   0.4426   0.4444
  0.4501   0.4527   0.4547   0.4591   0.4617   0.4629   0.4650   0.4724
  0.4765   0.4795   0.4803   0.4815   0.4854   0.4900   0.4929   0.4946
  0.4968   0.5001   0.5041   0.5079   0.5158   0.5191   0.5211   0.5228
  0.5268   0.5313   0.5367   0.5403   0.5430   0.5446   0.5463   0.5502
  0.5577   0.5589   0.5630   0.5640   0.5662   0.5784   0.5810   0.5845
  0.5872   0.5884   0.5935   0.6004   0.6024   0.6159   0.6192   0.6224
  0.6286   0.6300   0.6354   0.6441   0.6466   0.6492   0.6581   0.6605
  0.6636   0.6680   0.6744   0.6787   0.6806   0.6902   0.6962   0.7014
  0.7053   0.7088   0.7123   0.7172   0.7232   0.7263   0.7280   0.7342
  0.7344   0.7379   0.7432   0.7462   0.7485   0.7547   0.7575   0.7610
  0.7628   0.7638   0.7668   0.7723   0.7789   0.7819   0.7860   0.7894
  0.7905   0.7925   0.7974   0.8028   0.8039   0.8058   0.8086   0.8099
  0.8183   0.8209   0.8267   0.8284   0.8307   0.8352   0.8379   0.8393
  0.8478   0.8499   0.8546   0.8604   0.8606   0.8685   0.8701   0.8726
  0.8785   0.8856   0.8868   0.8922   0.8954   0.8989   0.9029   0.9093
  0.9124   0.9191   0.9234   0.9298   0.9354   0.9370   0.9509   0.9615
  0.9645   0.9681   0.9779   0.9870   0.9971   1.0026   1.0120   1.0149
  1.0242   1.0252   1.0294   1.0429   1.0521   1.0579   1.0616   1.0633
  1.0764   1.0805   1.0824   1.0891   1.0951   1.0979   1.1021   1.1153
  1.1199   1.1229   1.1306   1.1324   1.1486   1.1562   1.1752   1.1815
  1.1915   1.2064   1.2154   1.2218   1.2230   1.2562   1.2729   1.2811
  1.2978   1.3136   1.3179   1.3248   1.3393   1.3595   1.3668   1.3699
  1.3777   1.3798   1.3847   1.4042   1.4134   1.4215   1.4396   1.4495
  1.4636   1.4696   1.4747   1.4778   1.4869   1.5010   1.5099   1.5151
  1.5208   1.5319   1.5465   1.5602   1.5711   1.6100   1.6141   1.6218
  1.6323   1.6385   1.6484   1.6571   1.6654   1.6745   1.6848   1.7002
  1.7104   1.7283   1.7402   1.7513   1.7900   1.7942   1.7971   1.8056
  1.8204   1.8287   1.8296   1.8436   1.8575   1.8725   1.8737   1.8832
  1.8996   1.9144   1.9206   1.9308   1.9351   1.9411   1.9461   1.9500
  1.9554   1.9711   1.9778   1.9865   1.9938   1.9980   2.0068   2.0145
  2.0221   2.0404   2.0454   2.0461   2.0554   2.0671   2.0706   2.0779
  2.0835   2.0927   2.0986   2.1093   2.1237   2.1382   2.1395   2.1560
  2.1573   2.1808   2.1935   2.2061   2.2164   2.2238   2.2339   2.2345
  2.2396   2.2543   2.2570   2.2647   2.2823   2.2967   2.3147   2.3255
  2.3308   2.3408   2.3563   2.3652   2.3783   2.3900   2.4025   2.4045
  2.4139   2.4340   2.4486   2.4518   2.4600   2.4779   2.5035   2.5160
  2.5241   2.5381   2.5555   2.5688   2.5786   2.5918   2.5992   2.6003
  2.6077   2.6210   2.6287   2.6444   2.6523   2.6552   2.6737   2.6843
  2.6927   2.7098   2.7227   2.7293   2.7346   2.7410   2.7691   2.7733
  2.7857   2.7879   2.7987   2.8061   2.8098   2.8194   2.8280   2.8359
  2.8548   2.8712   2.8749   2.8982   2.9061   2.9098   2.9275   2.9325
  2.9349   2.9437   2.9544   2.9558   2.9611   2.9723   2.9753   2.9822
  2.9943   3.0071   3.0136   3.0207   3.0233   3.0360   3.0469   3.0627
  3.0670   3.0791   3.0863   3.0925   3.1031   3.1076   3.1162   3.1340
  3.1471   3.1533   3.1668   3.1725   3.1962   3.2054   3.2093   3.2302
  3.2353   3.2469   3.2598   3.2658   3.2710   3.2809   3.2842   3.2994
  3.3111   3.3121   3.3233   3.3470   3.3520   3.3632   3.3661   3.3837
  3.3947   3.3989   3.4022   3.4189   3.4293   3.4404   3.4416   3.4498
  3.4549   3.4579   3.4698   3.4716   3.4806   3.4848   3.4902   3.5011
  3.5104   3.5116   3.5177   3.5265   3.5319   3.5352   3.5465   3.5497
  3.5513   3.5569   3.5624   3.5689   3.5743   3.5765   3.5824   3.5964
  3.6006   3.6082   3.6083   3.6222   3.6372   3.6461   3.6472   3.6514
  3.6632   3.6691   3.6828   3.6858   3.7062   3.7105   3.7291   3.7422
  3.7605   3.7660   3.7842   3.8081   3.8171   3.8185   3.8474   3.8770
  3.9109   3.9283   3.9298   3.9399   3.9511   3.9603   3.9629   3.9717
  4.0046   4.0264   4.0389   4.0655   4.0760   4.1189   4.1411   4.1771
  4.2261   4.2317   4.2568   4.2629   4.2735   4.2784   4.2887   4.3015
  4.3044   4.3088   4.3144   4.3162   4.3326   4.3346   4.3391   4.3516
  4.3576   4.3590   4.3607   4.3840   4.4022   4.4045   4.4212   4.4384
  4.4588   4.4687   4.5000   4.5228   4.5354   4.5819   4.5933   4.6074
  4.6201   4.7050   4.7189   4.7565   4.7682   4.7818   4.7884   4.8070
  4.8430   4.8672   4.9198   4.9232   4.9632   5.0138   5.0368   5.0452
  5.0554   5.0913   5.1185   5.1518   5.1749   5.2720   5.2804   5.2837
  5.3555   5.3703   5.3971   5.4116   5.4909   5.4955   5.5222   5.6150
  5.6201   5.6820   5.7010   5.7432   5.8289   5.9468   6.2038   6.4463
  6.6015   6.6659   6.8979   7.0364   7.3183   7.4570  22.6447  22.6525
 22.6770  22.7223  22.8944  22.9000  22.9241  22.9633  23.0109  23.0237
 23.0765  23.1116  23.3965  23.4156  44.4902
 --------------------------------------------------------------
 
          Ground-State Mulliken Net Atomic Charges

     Atom                 Charge (a.u.)
  ----------------------------------------
      1 C                    -1.096161
      2 C                    -0.349514
      3 C                    -0.586774
      4 C                    -0.244741
      5 C                    -0.309136
      6 C                    -0.596261
      7 C                     0.637861
      8 H                     0.384440
      9 H                     0.328493
     10 H                     0.412273
     11 H                     0.371172
     12 H                     0.309658
     13 H                     0.253156
     14 H                     0.275719
     15 H                     0.226473
     16 C                    -1.115773
     17 C                    -0.199799
     18 C                    -0.703895
     19 C                     0.737111
     20 C                     0.692508
     21 C                    -0.858332
     22 C                    -0.451110
     23 O                    -0.543372
     24 H                     0.294965
     25 H                     0.300892
     26 H                     0.344356
     27 H                     0.345637
     28 H                     0.276630
     29 H                     0.275308
     30 H                     0.355583
     31 H                     0.232635
  ----------------------------------------
  Sum of atomic charges =     0.000000

 -----------------------------------------------------------------
                    Cartesian Multipole Moments
 -----------------------------------------------------------------
    Charge (ESU x 10^10)
                 0.0000
    Dipole Moment (Debye)
         X      -1.8752      Y      -0.0137      Z      -0.1162
       Tot       1.8789
    Quadrupole Moments (Debye-Ang)
        XX     -89.3305     XY       3.9649     YY     -82.5416
        XZ      -3.1702     YZ      -6.0617     ZZ     -87.8409
    Octopole Moments (Debye-Ang^2)
       XXX      15.5162    XXY      14.7393    XYY      -5.5943
       YYY     -20.2125    XXZ       4.8768    XYZ     -11.8918
       YYZ      -2.1868    XZZ     -24.9626    YZZ       3.1645
       ZZZ      17.3995
    Hexadecapole Moments (Debye-Ang^3)
      XXXX   -1497.8256   XXXY     -33.9302   XXYY    -460.6556
      XYYY     -49.9885   YYYY   -1077.1474   XXXZ     943.2187
      XXYZ     134.2373   XYYZ     317.9128   YYYZ     449.2917
      XXZZ    -904.6004   XYZZ       4.9918   YYZZ    -855.5366
      XZZZ     927.5557   YZZZ     378.8817   ZZZZ   -4209.0264
 -----------------------------------------------------------------
Archival summary:
1\1\nid00524\SP\ProcedureUnspecified\BasisUnspecified\11416\meili\MonSep2717:43:352021MonSep2717:43:352021\0\\#,ProcedureUnspecified,BasisUnspecified,\\0,1\O\H,1,0.962008\C,1,1.368,2,112.312\C,3,1.3951,1,117.297,2,1.08287,0\H,4,1.08087,3,120.374,1,-0.401166,0\C,4,1.39171,3,119.711,1,177.911,0\H,6,1.08228,4,119.558,3,179.861,0\C,6,1.41842,4,120.763,3,2.52047,0\C,8,1.424,6,119.12,4,-3.73443,0\H,9,1.08088,8,119.864,6,-178.427,0\C,9,1.40348,8,120.26,6,3.31501,0\H,11,1.0794,9,120.942,8,179.622,0\C,8,1.52336,6,120.097,4,175.768,0\H,13,1.08989,8,107.461,6,24.3815,0\H,13,1.09126,8,109.572,6,140.314,0\H,13,1.1,8,112.882,6,-97.6119,0\H,2,2.47475,1,88.4546,3,-81.7035,0\C,17,1.07906,2,146.814,1,141.763,0\C,18,1.38619,17,119.424,2,90.6028,0\H,19,1.08183,18,119.759,17,-1.19912,0\C,18,1.39696,17,119.938,2,-90.9877,0\H,21,1.07877,18,118.763,17,0.770966,0\C,21,1.39904,18,120.454,17,-179.076,0\H,23,1.08131,21,120.956,18,-179.897,0\C,19,1.40442,18,119.799,17,179.968,0\C,25,1.40087,19,119.569,18,-1.75113,0\H,26,1.08002,25,119.771,19,-179.598,0\C,25,1.51103,19,121.067,18,179.848,0\H,28,1.08848,25,108.435,19,10.5004,0\H,28,1.09161,25,109.559,19,127.311,0\H,28,1.1,25,113.226,19,-111.612,0\\\@

 Total job time:  101520.51s(wall), 65477.01s(cpu) 
 Mon Sep 27 17:43:37 2021

        *************************************************************
        *                                                           *
        *  Thank you very much for using Q-Chem.  Have a nice day.  *
        *                                                           *
        *************************************************************


