
Running Job 1 of 1 SSI-034TYR-277TYR-1_SMD_TZVPD.in
qchem SSI-034TYR-277TYR-1_SMD_TZVPD.in_4788.0 /tmp/qchem4788/ 0
/global/common/cori/software/qchem/5.2/exe/qcprog.exe_s SSI-034TYR-277TYR-1_SMD_TZVPD.in_4788.0 /tmp/qchem4788/
                  Welcome to Q-Chem
     A Quantum Leap Into The Future Of Chemistry


 Q-Chem 5.2, Q-Chem, Inc., Pleasanton, CA (2019)

 License issued to: National Energy Research Scientific Computing Center

 Yihan Shao,  Zhengting Gan,  E. Epifanovsky,  A. T. B. Gilbert,  M. Wormit,  
 J. Kussmann,  A. W. Lange,  A. Behn,  Jia Deng,  Xintian Feng,  D. Ghosh,  
 M. Goldey,  P. R. Horn,  L. D. Jacobson,  I. Kaliman,  T. Kus,  A. Landau,  
 Jie Liu,  E. I. Proynov,  R. M. Richard,  R. P. Steele,  E. J. Sundstrom,  
 H. L. Woodcock III,  P. M. Zimmerman,  D. Zuev,  B. Albrecht,  E. Alguire,  
 S. A. Baeppler,  D. Barton,  Z. Benda,  Y. A. Bernard,  E. J. Berquist,  
 K. B. Bravaya,  H. Burton,  D. Casanova,  Chun-Min Chang,  Yunqing Chen,  
 A. Chien,  K. D. Closser,  M. P. Coons,  S. Coriani,  S. Dasgupta,  
 A. L. Dempwolff,  M. Diedenhofen,  Hainam Do,  R. G. Edgar,  Po-Tung Fang,  
 S. Faraji,  S. Fatehi,  Qingguo Feng,  K. D. Fenk,  J. Fosso-Tande,  
 J. Gayvert,  Qinghui Ge,  A. Ghysels,  G. Gidofalvi,  J. Gomes,  
 J. Gonthier,  A. Gunina,  D. Hait,  M. W. D. Hanson-Heine,  
 P. H. P. Harbach,  A. W. Hauser,  M. F. Herbst,  J. E. Herr,  
 E. G. Hohenstein,  Z. C. Holden,  Kerwin Hui,  B. C. Huynh,  T.-C. Jagau,  
 Hyunjun Ji,  B. Kaduk,  K. Khistyaev,  Jaehoon Kim,  P. Klunzinger,  K. Koh,  
 D. Kosenkov,  L. Koulias,  T. Kowalczyk,  C. M. Krauter,  A. Kunitsa,  
 Ka Un Lao,  A. Laurent,  K. V. Lawler,  Joonho Lee,  D. Lefrancois,  
 S. Lehtola,  D. S. Levine,  Yi-Pei Li,  You-Sheng Lin,  Fenglai Liu,  
 E. Livshits,  A. Luenser,  P. Manohar,  E. Mansoor,  S. F. Manzer,  
 Shan-Ping Mao,  Yuezhi Mao,  N. Mardirossian,  A. V. Marenich,  
 T. Markovich,  L. A. Martinez-Martinez,  S. A. Maurer,  N. J. Mayhall,  
 S. C. McKenzie,  J.-M. Mewes,  P. Morgante,  A. F. Morrison,  
 J. W. Mullinax,  K. Nanda,  T. S. Nguyen-Beck,  R. Olivares-Amaya,  
 J. A. Parkhill,  Zheng Pei,  T. M. Perrine,  F. Plasser,  P. Pokhilko,  
 S. Prager,  A. Prociuk,  E. Ramos,  D. R. Rehn,  F. Rob,  M. Scheurer,  
 M. Schneider,  N. Sergueev,  S. M. Sharada,  S. Sharma,  D. W. Small,  
 T. Stauch,  T. Stein,  Yu-Chuan Su,  A. J. W. Thom,  A. Tkatchenko,  
 T. Tsuchimochi,  N. M. Tubman,  L. Vogt,  M. L. Vidal,  O. Vydrov,  
 M. A. Watson,  J. Wenzel,  M. de Wergifosse,  T. A. Wesolowski,  A. White,  
 J. Witte,  A. Yamada,  Jun Yang,  K. Yao,  S. Yeganeh,  S. R. Yost,  
 Zhi-Qiang You,  A. Zech,  Igor Ying Zhang,  Xing Zhang,  Yan Zhao,  
 Ying Zhu,  B. R. Brooks,  G. K. L. Chan,  C. J. Cramer,  M. S. Gordon,  
 W. J. Hehre,  A. Klamt,  M. W. Schmidt,  C. D. Sherrill,  D. G. Truhlar,  
 A. Aspuru-Guzik,  R. Baer,  A. T. Bell,  N. A. Besley,  Jeng-Da Chai,  
 A. E. DePrince, III,  R. A. DiStasio Jr.,  A. Dreuw,  B. D. Dunietz,  
 T. R. Furlani,  Chao-Ping Hsu,  Yousung Jung,  Jing Kong,  D. S. Lambrecht,  
 WanZhen Liang,  C. Ochsenfeld,  V. A. Rassolov,  L. V. Slipchenko,  
 J. E. Subotnik,  T. Van Voorhis,  J. M. Herbert,  A. I. Krylov,  
 P. M. W. Gill,  M. Head-Gordon

 Contributors to earlier versions of Q-Chem not listed above: 
 R. D. Adamson,  B. Austin,  J. Baker,  G. J. O. Beran,  K. Brandhorst,  
 S. T. Brown,  E. F. C. Byrd,  A. K. Chakraborty,  C.-L. Cheng,  
 Siu Hung Chien,  D. M. Chipman,  D. L. Crittenden,  H. Dachsel,  
 R. J. Doerksen,  A. D. Dutoi,  L. Fusti-Molnar,  W. A. Goddard III,  
 A. Golubeva-Zadorozhnaya,  S. R. Gwaltney,  G. Hawkins,  A. Heyden,  
 S. Hirata,  G. Kedziora,  F. J. Keil,  C. Kelley,  Jihan Kim,  R. A. King,  
 R. Z. Khaliullin,  P. P. Korambath,  W. Kurlancheek,  A. M. Lee,  M. S. Lee,  
 S. V. Levchenko,  Ching Yeh Lin,  D. Liotard,  R. C. Lochan,  I. Lotan,  
 P. E. Maslen,  N. Nair,  D. P. O'Neill,  D. Neuhauser,  E. Neuscamman,  
 C. M. Oana,  R. Olson,  B. Peters,  R. Peverati,  P. A. Pieniazek,  
 Y. M. Rhee,  J. Ritchie,  M. A. Rohrdanz,  E. Rosta,  N. J. Russ,  
 H. F. Schaefer III,  N. E. Schultz,  N. Shenvi,  A. C. Simmonett,  A. Sodt,  
 D. Stuck,  K. S. Thanthiriwatte,  V. Vanovschi,  Tao Wang,  A. Warshel,  
 C. F. Williams,  Q. Wu,  X. Xu,  W. Zhang

 Please cite Q-Chem as follows:
 Y. Shao et al., Mol. Phys. 113, 184-215 (2015)
 DOI: 10.1080/00268976.2014.952696

 Q-Chem 5.2.0 for Intel X86 EM64T Linux

 Parts of Q-Chem use Armadillo 8.300.2 (Tropical Shenanigans).
 http://arma.sourceforge.net/

 Q-Chem begins on Sun Sep 26 05:37:18 2021  

Host: cori01
0

     Scratch files written to /tmp/qchem4788//
 May1019 |scratch|qcdevops|jenkins|workspace|build_RNUM -1
Processing $rem in /global/common/cori/software/qchem/5.2/config/preferences:
	 MEM_TOTAL  96000 
NAlpha2: 116
NElect   116
Mult     1
Symmetry turned off for PCM/SM12/SMD calculation

 Q-Chem warning in module libgen/rem_setup.C, line 2803:

 Neither GIA nor STOLL is specified by user. Use STOLL as the default


Checking the input file for inconsistencies... 	...done.

--------------------------------------------------------------
User input:
--------------------------------------------------------------
$comment
SSI-034TYR-277TYR-1.pdb
$end

$molecule
0 1
--
0 1
C   -3.631576801189    3.340923107743    4.068616157843
C   -0.757576801189    1.295923107743    1.503616157843
C   -1.979576801189    1.715923107743    1.016616157843
C   -0.432576801189    1.561923107743    2.849616157843
C   -2.896576801189    2.366923107743    1.857616157843
C   -1.349576801189    2.239923107743    3.704616157843
C   -2.609576801189    2.634923107743    3.207616157843
O    0.174423198811    0.693923107743    0.693616157843
H   -0.241576801189    0.415923107743   -0.124383842157
H   -2.236576801189    1.541923107743   -0.017383842157
H    0.532423198811    1.255923107743    3.227616157843
H   -3.858576801189    2.643923107743    1.469616157843
H   -1.079576801189    2.448923107743    4.730616157843
H   -3.212576801189    3.545923107743    5.055616157843
H   -4.474576801189    2.662923107743    4.187616157843
H   -3.969117801189    4.276603107743    3.598966157843
--
0 1
C    1.594423198811    0.819923107743   -3.318383842157
C    0.638423198811   -1.072076892257   -1.925383842157
C    1.606423198811   -0.623076892257   -2.844383842157
C    0.695423198811   -2.382076892257   -1.439383842157
C    2.639423198811   -1.507076892257   -3.223383842157
C    1.667423198811   -3.258076892257   -1.877383842157
C    2.686423198811   -2.831076892257   -2.730383842157
O    1.708423198811   -4.514076892257   -1.381383842157
H   -0.174576801189   -0.423076892257   -1.646383842157
H    0.066423198811   -2.800076892257   -0.694383842157
H    0.615423198811    1.266923107743   -3.140383842157
H    1.778423198811    0.830923107743   -4.391383842157
H    3.420423198811   -1.161076892257   -3.882383842157
H    3.483423198811   -3.497076892257   -3.030383842157
H    2.446423198811   -5.021076892257   -1.735383842157
H    2.372588198811    1.406913107743   -2.808573842157
$end

$rem
JOBTYPE			EDA
EDA2			1
method			wB97X-V
BASIS			def2-TZVPD
XC_GRID			000099000590
NL_GRID			1
UNRESTRICTED		FALSE
MAX_SCF_CYCLES		200
SYMMETRY		FALSE
SYM_IGNORE		TRUE
MEM_STATIC		2000
BASIS_LIN_DEP_THRESH 	6
THRESH 			14
SCF_CONVERGENCE 	8
SCF_PRINT_FRGM 		TRUE
SOLVENT_METHOD          SMD
$end

$SMX
SOLVENT			WATER
$END
--------------------------------------------------------------
 ----------------------------------------------------------------
             Standard Nuclear Orientation (Angstroms)
    I     Atom           X                Y                Z
 ----------------------------------------------------------------
    1      C      -3.6315768012     3.3409231077     4.0686161578
    2      C      -0.7575768012     1.2959231077     1.5036161578
    3      C      -1.9795768012     1.7159231077     1.0166161578
    4      C      -0.4325768012     1.5619231077     2.8496161578
    5      C      -2.8965768012     2.3669231077     1.8576161578
    6      C      -1.3495768012     2.2399231077     3.7046161578
    7      C      -2.6095768012     2.6349231077     3.2076161578
    8      O       0.1744231988     0.6939231077     0.6936161578
    9      H      -0.2415768012     0.4159231077    -0.1243838422
   10      H      -2.2365768012     1.5419231077    -0.0173838422
   11      H       0.5324231988     1.2559231077     3.2276161578
   12      H      -3.8585768012     2.6439231077     1.4696161578
   13      H      -1.0795768012     2.4489231077     4.7306161578
   14      H      -3.2125768012     3.5459231077     5.0556161578
   15      H      -4.4745768012     2.6629231077     4.1876161578
   16      H      -3.9691178012     4.2766031077     3.5989661578
   17      C       1.5944231988     0.8199231077    -3.3183838422
   18      C       0.6384231988    -1.0720768923    -1.9253838422
   19      C       1.6064231988    -0.6230768923    -2.8443838422
   20      C       0.6954231988    -2.3820768923    -1.4393838422
   21      C       2.6394231988    -1.5070768923    -3.2233838422
   22      C       1.6674231988    -3.2580768923    -1.8773838422
   23      C       2.6864231988    -2.8310768923    -2.7303838422
   24      O       1.7084231988    -4.5140768923    -1.3813838422
   25      H      -0.1745768012    -0.4230768923    -1.6463838422
   26      H       0.0664231988    -2.8000768923    -0.6943838422
   27      H       0.6154231988     1.2669231077    -3.1403838422
   28      H       1.7784231988     0.8309231077    -4.3913838422
   29      H       3.4204231988    -1.1610768923    -3.8823838422
   30      H       3.4834231988    -3.4970768923    -3.0303838422
   31      H       2.4464231988    -5.0210768923    -1.7353838422
   32      H       2.3725881988     1.4069131077    -2.8085738422
 ----------------------------------------------------------------
 Nuclear Repulsion Energy =         948.97581587 hartrees
 There are       58 alpha and       58 beta electrons
 Requested basis set is def2-TZVPD
 There are 290 shells and 742 basis functions

 Total QAlloc Memory Limit  96000 MB
 Mega-Array Size      1956 MB
 MEM_STATIC part      2000 MB
 
 Citation of the SMD model:
 Marenich, A.V.; Cramer, C.J.; Truhlar, D.G.
 J. Phys. Chem. B 2009, 113, 6378-6396.
 iSolventCode=           1
 Solvent: water                                                           
 
 vradii
            1           2           3           4           5           6
    1   1.8500000   1.8500000   1.8500000   1.8500000   1.8500000   1.8500000
            7           8           9          10          11          12
    1   1.8500000   1.5200000   1.2000000   1.2000000   1.2000000   1.2000000
           13          14          15          16          17          18
    1   1.2000000   1.2000000   1.2000000   1.2000000   1.8500000   1.8500000
           19          20          21          22          23          24
    1   1.8500000   1.8500000   1.8500000   1.8500000   1.8500000   1.5200000
           25          26          27          28          29          30
    1   1.2000000   1.2000000   1.2000000   1.2000000   1.2000000   1.2000000
           31          32
    1   1.2000000   1.2000000
 Changing PCM_VDW_RADII to SMD_RADIUS
 Discretize the solute cavity surface with Lebedev spheres
	Using 110 Lebedev grid points for each H atom
	Using 194 Lebedev grid points for other atoms
	Atomic van der Waals radii will be scaled by 1.20
 Remove points where switching function is < 1.0e-08
 Keep 2322 surface tesserae and discard 2542 interior tesserae
 Molecular Surface Area = 277.471 Angst**2
 A cutoff of  1.0D-14 yielded  32409 shell pairs
 There are    211187 function pairs (    266620 Cartesian)
 Smallest overlap matrix eigenvalue = 5.36E-07
 Linear dependence detected in AO basis
 Tighter screening thresholds may be required for diffuse basis sets
 Use S2THRESH > 14 and THRESH = 14 in case of SCF convergence issues
 Number of orthogonalized atomic orbitals = 740
 Maximum deviation from orthogonality = 3.643E-10

 Scale SEOQF with 1.000000e-01/1.000000e-01/1.000000e-01

 Standard Electronic Orientation quadrupole field applied
 Nucleus-field energy     =    -0.0000000202 hartrees

 -----------------------------------------------------------------------
  General SCF calculation program by
  Eric Jon Sundstrom, Paul Horn, Yuezhi Mao, Dmitri Zuev, Alec White,
  David Stuck, Shaama M.S., Shane Yost, Joonho Lee, David Small,
  Daniel Levine, Susi Lehtola, Hugh Burton, Evgeny Epifanovsky
 -----------------------------------------------------------------------
================================================================
                 ALMO-EDA with the EDA2 driver                  
================================================================
 The second-generation ALMO-EDA (for DFT):                      
 P. R. Horn, Y. Mao and M. Head-Gordon, PCCP, 18, 23067 (2016)  
 Decomposition of the frozen energy:                            
 P. R. Horn, Y. Mao and M. Head-Gordon, JCP, 144, 114107 (2016) 
 FERF model for polarization:                                   
 P. R. Horn and M. Head-Gordon, JCP, 143, 114111 (2015)         
Using eda2 option set 1
Option set summary: Frozen orbital wavefunction, initial wavefunction decomposition, and nDQ polarization.
--------------------------------
Printing EDA Options
--------------------------------
eda_child_super_basis      0
fragmo_guess_mode          0
child_mp                   1
child_mp_orders            232
cls_elec                   1
cls_disp                   0
scfmi_mode                 1
scfmi_occs                 0
scfmi_virts                0
frz_relax                  0
frz_relax_method           0
dc_pen_start               0
dc_pen_conv                0
dc_pen_increment           0
dc_pen_steps               0
dc_pen_thresh_factor       0
dc_pen_pre_newton_thresh   0
frz_ortho_decomp           1
frz_ortho_decomp_conv      6
frgm_method                2
scfmi_freeze_ss            0
separate_rehyb             0
plot_diff_den              0
eda_nocv                   0
eda_vct_relax              1
disp_free_x                0
disp_free_c                0
eda_bsse                   0
eda_pct_a                  0
eda_covp                   0
--------------------------------
Attempting to make child job directory: /tmp/qchem4788//Frg1/
Attempting to make child job directory: /tmp/qchem4788//Frg2/
Creating input file /tmp/qchem4788/Frg1.input
using default PutDataFrgm: nothing
calling putenv with: QCSCRATCH=/tmp/qchem4788/ 
calling putenv with: QCLOCALSCR=/tmp/qchem4788/ 
Spawning Job For Fragment 0
                  Welcome to Q-Chem
     A Quantum Leap Into The Future Of Chemistry


 Q-Chem 5.2, Q-Chem, Inc., Pleasanton, CA (2019)

 License issued to: National Energy Research Scientific Computing Center

 Yihan Shao,  Zhengting Gan,  E. Epifanovsky,  A. T. B. Gilbert,  M. Wormit,  
 J. Kussmann,  A. W. Lange,  A. Behn,  Jia Deng,  Xintian Feng,  D. Ghosh,  
 M. Goldey,  P. R. Horn,  L. D. Jacobson,  I. Kaliman,  T. Kus,  A. Landau,  
 Jie Liu,  E. I. Proynov,  R. M. Richard,  R. P. Steele,  E. J. Sundstrom,  
 H. L. Woodcock III,  P. M. Zimmerman,  D. Zuev,  B. Albrecht,  E. Alguire,  
 S. A. Baeppler,  D. Barton,  Z. Benda,  Y. A. Bernard,  E. J. Berquist,  
 K. B. Bravaya,  H. Burton,  D. Casanova,  Chun-Min Chang,  Yunqing Chen,  
 A. Chien,  K. D. Closser,  M. P. Coons,  S. Coriani,  S. Dasgupta,  
 A. L. Dempwolff,  M. Diedenhofen,  Hainam Do,  R. G. Edgar,  Po-Tung Fang,  
 S. Faraji,  S. Fatehi,  Qingguo Feng,  K. D. Fenk,  J. Fosso-Tande,  
 J. Gayvert,  Qinghui Ge,  A. Ghysels,  G. Gidofalvi,  J. Gomes,  
 J. Gonthier,  A. Gunina,  D. Hait,  M. W. D. Hanson-Heine,  
 P. H. P. Harbach,  A. W. Hauser,  M. F. Herbst,  J. E. Herr,  
 E. G. Hohenstein,  Z. C. Holden,  Kerwin Hui,  B. C. Huynh,  T.-C. Jagau,  
 Hyunjun Ji,  B. Kaduk,  K. Khistyaev,  Jaehoon Kim,  P. Klunzinger,  K. Koh,  
 D. Kosenkov,  L. Koulias,  T. Kowalczyk,  C. M. Krauter,  A. Kunitsa,  
 Ka Un Lao,  A. Laurent,  K. V. Lawler,  Joonho Lee,  D. Lefrancois,  
 S. Lehtola,  D. S. Levine,  Yi-Pei Li,  You-Sheng Lin,  Fenglai Liu,  
 E. Livshits,  A. Luenser,  P. Manohar,  E. Mansoor,  S. F. Manzer,  
 Shan-Ping Mao,  Yuezhi Mao,  N. Mardirossian,  A. V. Marenich,  
 T. Markovich,  L. A. Martinez-Martinez,  S. A. Maurer,  N. J. Mayhall,  
 S. C. McKenzie,  J.-M. Mewes,  P. Morgante,  A. F. Morrison,  
 J. W. Mullinax,  K. Nanda,  T. S. Nguyen-Beck,  R. Olivares-Amaya,  
 J. A. Parkhill,  Zheng Pei,  T. M. Perrine,  F. Plasser,  P. Pokhilko,  
 S. Prager,  A. Prociuk,  E. Ramos,  D. R. Rehn,  F. Rob,  M. Scheurer,  
 M. Schneider,  N. Sergueev,  S. M. Sharada,  S. Sharma,  D. W. Small,  
 T. Stauch,  T. Stein,  Yu-Chuan Su,  A. J. W. Thom,  A. Tkatchenko,  
 T. Tsuchimochi,  N. M. Tubman,  L. Vogt,  M. L. Vidal,  O. Vydrov,  
 M. A. Watson,  J. Wenzel,  M. de Wergifosse,  T. A. Wesolowski,  A. White,  
 J. Witte,  A. Yamada,  Jun Yang,  K. Yao,  S. Yeganeh,  S. R. Yost,  
 Zhi-Qiang You,  A. Zech,  Igor Ying Zhang,  Xing Zhang,  Yan Zhao,  
 Ying Zhu,  B. R. Brooks,  G. K. L. Chan,  C. J. Cramer,  M. S. Gordon,  
 W. J. Hehre,  A. Klamt,  M. W. Schmidt,  C. D. Sherrill,  D. G. Truhlar,  
 A. Aspuru-Guzik,  R. Baer,  A. T. Bell,  N. A. Besley,  Jeng-Da Chai,  
 A. E. DePrince, III,  R. A. DiStasio Jr.,  A. Dreuw,  B. D. Dunietz,  
 T. R. Furlani,  Chao-Ping Hsu,  Yousung Jung,  Jing Kong,  D. S. Lambrecht,  
 WanZhen Liang,  C. Ochsenfeld,  V. A. Rassolov,  L. V. Slipchenko,  
 J. E. Subotnik,  T. Van Voorhis,  J. M. Herbert,  A. I. Krylov,  
 P. M. W. Gill,  M. Head-Gordon

 Contributors to earlier versions of Q-Chem not listed above: 
 R. D. Adamson,  B. Austin,  J. Baker,  G. J. O. Beran,  K. Brandhorst,  
 S. T. Brown,  E. F. C. Byrd,  A. K. Chakraborty,  C.-L. Cheng,  
 Siu Hung Chien,  D. M. Chipman,  D. L. Crittenden,  H. Dachsel,  
 R. J. Doerksen,  A. D. Dutoi,  L. Fusti-Molnar,  W. A. Goddard III,  
 A. Golubeva-Zadorozhnaya,  S. R. Gwaltney,  G. Hawkins,  A. Heyden,  
 S. Hirata,  G. Kedziora,  F. J. Keil,  C. Kelley,  Jihan Kim,  R. A. King,  
 R. Z. Khaliullin,  P. P. Korambath,  W. Kurlancheek,  A. M. Lee,  M. S. Lee,  
 S. V. Levchenko,  Ching Yeh Lin,  D. Liotard,  R. C. Lochan,  I. Lotan,  
 P. E. Maslen,  N. Nair,  D. P. O'Neill,  D. Neuhauser,  E. Neuscamman,  
 C. M. Oana,  R. Olson,  B. Peters,  R. Peverati,  P. A. Pieniazek,  
 Y. M. Rhee,  J. Ritchie,  M. A. Rohrdanz,  E. Rosta,  N. J. Russ,  
 H. F. Schaefer III,  N. E. Schultz,  N. Shenvi,  A. C. Simmonett,  A. Sodt,  
 D. Stuck,  K. S. Thanthiriwatte,  V. Vanovschi,  Tao Wang,  A. Warshel,  
 C. F. Williams,  Q. Wu,  X. Xu,  W. Zhang

 Please cite Q-Chem as follows:
 Y. Shao et al., Mol. Phys. 113, 184-215 (2015)
 DOI: 10.1080/00268976.2014.952696

 Q-Chem 5.2.0 for Intel X86 EM64T Linux

 Parts of Q-Chem use Armadillo 8.300.2 (Tropical Shenanigans).
 http://arma.sourceforge.net/

 Q-Chem begins on Sun Sep 26 05:37:26 2021  

Host: cori01
0

     Scratch files written to /tmp/qchem4788//Frg1//
 May1019 |scratch|qcdevops|jenkins|workspace|build_RNUM -1
Processing $rem in /global/common/cori/software/qchem/5.2/config/preferences:
	 MEM_TOTAL  96000 
NAlpha2: 58
NElect   58
Mult     1
Symmetry turned off for PCM/SM12/SMD calculation

Checking the input file for inconsistencies... 	...done.

--------------------------------------------------------------
User input:
--------------------------------------------------------------
$molecule
0 1
 6	-3.6315768012	3.3409231077	4.0686161578
 6	-0.7575768012	1.2959231077	1.5036161578
 6	-1.9795768012	1.7159231077	1.0166161578
 6	-0.4325768012	1.5619231077	2.8496161578
 6	-2.8965768012	2.3669231077	1.8576161578
 6	-1.3495768012	2.2399231077	3.7046161578
 6	-2.6095768012	2.6349231077	3.2076161578
 8	0.1744231988	0.6939231077	0.6936161578
 1	-0.2415768012	0.4159231077	-0.1243838422
 1	-2.2365768012	1.5419231077	-0.0173838422
 1	0.5324231988	1.2559231077	3.2276161578
 1	-3.8585768012	2.6439231077	1.4696161578
 1	-1.0795768012	2.4489231077	4.7306161578
 1	-3.2125768012	3.5459231077	5.0556161578
 1	-4.4745768012	2.6629231077	4.1876161578
 1	-3.9691178012	4.2766031077	3.5989661578
$end
$rem
EDA2		1
METHOD		WB97X-V
BASIS		DEF2-TZVPD
XC_GRID		000099000590
NL_GRID		1
UNRESTRICTED		FALSE
MAX_SCF_CYCLES		200
SYMMETRY		FALSE
SYM_IGNORE		TRUE
BASIS_LIN_DEP_THRESH		6
THRESH		14
SCF_CONVERGENCE		8
SCF_PRINT_FRGM		TRUE
SOLVENT_METHOD		SMD
!required keywords
JOBTYPE		SP
SYM_IGNORE		TRUE
SUBSYSTEM		TRUE
GEN_SCFMAN		TRUE
CHILD_INSTRUCTION		2
SYM_IGNORE		TRUE
SCFMI		0
RI_K 0		
PARI_K 0		
MIN_PARI_K 0		
IARI_K 0		
OCC_RI_K 0		
PURECART		1111
MEM_STATIC		2000
MEM_TOTAL		96000
GUI		0
CHILD_MP		1
CHILD_MP_ORDERS		232
FRZ_RELAX		0
FRZ_RELAX_METHOD		0
EDA_CLS_ELEC		1
EDA_CLS_DISP		0
FRZ_ORTHO_DECOMP		1
EDA2		FALSE
FRGM_METHOD		FALSE
CIS_N_ROOTS  0
LOCAL_CIS    0
CIS_RLX_DNS  1
$end
$smx
SOLVENT			WATER
$end
--------------------------------------------------------------
 ----------------------------------------------------------------
             Standard Nuclear Orientation (Angstroms)
    I     Atom           X                Y                Z
 ----------------------------------------------------------------
    1      C      -3.6315768012     3.3409231077     4.0686161578
    2      C      -0.7575768012     1.2959231077     1.5036161578
    3      C      -1.9795768012     1.7159231077     1.0166161578
    4      C      -0.4325768012     1.5619231077     2.8496161578
    5      C      -2.8965768012     2.3669231077     1.8576161578
    6      C      -1.3495768012     2.2399231077     3.7046161578
    7      C      -2.6095768012     2.6349231077     3.2076161578
    8      O       0.1744231988     0.6939231077     0.6936161578
    9      H      -0.2415768012     0.4159231077    -0.1243838422
   10      H      -2.2365768012     1.5419231077    -0.0173838422
   11      H       0.5324231988     1.2559231077     3.2276161578
   12      H      -3.8585768012     2.6439231077     1.4696161578
   13      H      -1.0795768012     2.4489231077     4.7306161578
   14      H      -3.2125768012     3.5459231077     5.0556161578
   15      H      -4.4745768012     2.6629231077     4.1876161578
   16      H      -3.9691178012     4.2766031077     3.5989661578
 ----------------------------------------------------------------
 Nuclear Repulsion Energy =         340.59273941 hartrees
 There are       29 alpha and       29 beta electrons
 Requested basis set is def2-TZVPD
 There are 145 shells and 371 basis functions

 Total QAlloc Memory Limit  96000 MB
 Mega-Array Size      1956 MB
 MEM_STATIC part      2000 MB
 
 Citation of the SMD model:
 Marenich, A.V.; Cramer, C.J.; Truhlar, D.G.
 J. Phys. Chem. B 2009, 113, 6378-6396.
 iSolventCode=           1
 Solvent: water                                                           
 
 vradii
            1           2           3           4           5           6
    1   1.8500000   1.8500000   1.8500000   1.8500000   1.8500000   1.8500000
            7           8           9          10          11          12
    1   1.8500000   1.5200000   1.2000000   1.2000000   1.2000000   1.2000000
           13          14          15          16
    1   1.2000000   1.2000000   1.2000000   1.2000000
 Changing PCM_VDW_RADII to SMD_RADIUS
 Discretize the solute cavity surface with Lebedev spheres
	Using 110 Lebedev grid points for each H atom
	Using 194 Lebedev grid points for other atoms
	Atomic van der Waals radii will be scaled by 1.20
 Remove points where switching function is < 1.0e-08
 Keep 1171 surface tesserae and discard 1261 interior tesserae
 Molecular Surface Area = 142.263 Angst**2
 A cutoff of  1.0D-14 yielded  10036 shell pairs
 There are     67004 function pairs (     85676 Cartesian)
 Smallest overlap matrix eigenvalue = 6.34E-07
 Linear dependence detected in AO basis
 Tighter screening thresholds may be required for diffuse basis sets
 Use S2THRESH > 14 and THRESH = 14 in case of SCF convergence issues
 Number of orthogonalized atomic orbitals = 370
 Maximum deviation from orthogonality = 2.807E-10

 Scale SEOQF with 1.000000e-01/1.000000e-01/1.000000e-01

 Standard Electronic Orientation quadrupole field applied
 Nucleus-field energy     =    -0.0000000164 hartrees
 Guess from superposition of atomic densities
 Warning:  Energy on first SCF cycle will be non-variational
 SAD guess density has 57.738434 electrons

 -----------------------------------------------------------------------
  General SCF calculation program by
  Eric Jon Sundstrom, Paul Horn, Yuezhi Mao, Dmitri Zuev, Alec White,
  David Stuck, Shaama M.S., Shane Yost, Joonho Lee, David Small,
  Daniel Levine, Susi Lehtola, Hugh Burton, Evgeny Epifanovsky
 -----------------------------------------------------------------------
 Exchange:     0.1670 Hartree-Fock + 1.0000 wB97X-V + LR-HF
 Correlation:  1.0000 wB97X-V
 Using Euler-Maclaurin-Lebedev (99,590) quadrature formula
 Nonlocal Correlation:  VV10 with C = 0.0100 and b = 6.00 and scale = 1.00000
 Grid used for NLC:  SG-1 standard quadrature
Energy prior to optimization (guess energy) = -346.496788571578
Begin Timing: Total SCF Calculation
begin iterations for algorithm: DIIS         
the SCF tolerance is set to 1.00e-08
    1    -346.4967885716      5.15e-03     00000 
    2    -346.4344810971      5.59e-03     00000 
    3    -346.8187971635      5.23e-04     00000 
    4    -346.8236006319      1.73e-04     00000 
    5    -346.8242902112      3.89e-05     00000 
    6    -346.8243420603      1.53e-05     00000 
    7    -346.8243478301      5.73e-06     00000 
    8    -346.8243487727      1.67e-06     00000 
    9    -346.8243488801      5.94e-07     00000 
   10    -346.8243488954      2.43e-07     00000 
   11    -346.8243488994      7.28e-08     00000 
   12    -346.8243489000      3.85e-08     00000 
   13    -346.8243489002      1.37e-08     00000 
   14    -346.8243489002      4.25e-09     00000 Convergence criterion met
Timing for Total SCF: 2154.00s (wall), 4282.89s (cpu)
(3)  G-ENP(liq) elect-nuc-pol free energy of system     -346.824348900 a.u.
(4)  G-CDS(liq) cavity-dispersion-solvent structure 
     free energy                                                3.7858 kcal/mol
(6)  G-S(liq) free energy of system                     -346.818315887 a.u.
E_pcm = -0.0177494116
E_cds = 0.0060330134
Multipole orders to be included
        2
        3
computing dipole RHS
computing quadrupole RHS
total number of RHS in solve_reponses: 8
RHS batch sizes
        8
Beginning Block Conjugate Gradient Iterations. Batch Number: 0
computing hessian-vector products by finite difference
              1      6.50e-01     00000 Conjugate Gradient Iteration
computing hessian-vector products by finite difference
              2      1.96e-01     00000 Conjugate Gradient Iteration
computing hessian-vector products by finite difference
              3      5.35e-02     00000 Conjugate Gradient Iteration
computing hessian-vector products by finite difference
              4      1.69e-02     00000 Conjugate Gradient Iteration
computing hessian-vector products by finite difference
              5      4.36e-03     00000 Conjugate Gradient Iteration
computing hessian-vector products by finite difference
              6      1.68e-03     00000 Conjugate Gradient Iteration
computing hessian-vector products by finite difference
              7      3.94e-04     00000 Conjugate Gradient Iteration
computing hessian-vector products by finite difference
              8      7.64e-05     00000 Conjugate Gradient Iteration
computing hessian-vector products by finite difference
              9      1.42e-05     00000 Conjugate Gradient Iteration
computing hessian-vector products by finite difference
             10      2.07e-06     00000 Conjugate Gradient Iteration
computing hessian-vector products by finite difference
             11      2.80e-07     00000 Conjugate Gradient Iteration
computing hessian-vector products by finite difference
             12      4.99e-08     00000 Conjugate Gradient Iteration
computing hessian-vector products by finite difference
             13      1.06e-08     00000 Conjugate Gradient Iteration
computing hessian-vector products by finite difference
             14      3.30e-09     00000 CG Converged
batch 0 complete
Done Calculating Responses
TESTING ORTHOGONALIZATION OF MULTIPOLE BASIS
Multipole virts passed orthogonality test
Virts Per Order
           87
          145
 
 --------------------------------------------------------------
 
                    Orbital Energies (a.u.)
 --------------------------------------------------------------
 
 Alpha MOs
 -- Occupied --
-19.2410 -10.3326 -10.2768 -10.2754 -10.2722 -10.2700 -10.2679 -10.2546
 -1.1886  -0.9855  -0.8962  -0.8738  -0.8045  -0.7417  -0.7053  -0.6572
 -0.5965  -0.5718  -0.5462  -0.5344  -0.5224  -0.5185  -0.5070  -0.4731
 -0.4497  -0.4408  -0.4317  -0.3455  -0.3117
 -- Virtual --
  0.0593   0.0636   0.0742   0.0806   0.0891   0.0996   0.1146   0.1154
  0.1180   0.1366   0.1506   0.1564   0.1610   0.1770   0.1860   0.1974
  0.2024   0.2086   0.2214   0.2331   0.2368   0.2433   0.2517   0.2596
  0.2682   0.2730   0.2776   0.2814   0.2861   0.2984   0.3009   0.3066
  0.3093   0.3144   0.3170   0.3297   0.3363   0.3426   0.3493   0.3548
  0.3557   0.3642   0.3666   0.3747   0.3785   0.3838   0.3871   0.3947
  0.3995   0.4023   0.4050   0.4094   0.4146   0.4255   0.4293   0.4341
  0.4357   0.4569   0.4639   0.4658   0.4757   0.4780   0.4831   0.4876
  0.4941   0.4995   0.5025   0.5060   0.5126   0.5172   0.5296   0.5357
  0.5432   0.5534   0.5552   0.5570   0.5625   0.5706   0.5800   0.5959
  0.6002   0.6085   0.6117   0.6238   0.6411   0.6581   0.6692   0.6709
  0.6797   0.6845   0.6980   0.7007   0.7040   0.7104   0.7183   0.7342
  0.7361   0.7422   0.7454   0.7521   0.7622   0.7735   0.7862   0.7890
  0.7907   0.7951   0.7987   0.8001   0.8080   0.8193   0.8276   0.8409
  0.8476   0.8503   0.8583   0.8591   0.8714   0.8747   0.8850   0.8950
  0.9036   0.9129   0.9425   0.9491   0.9588   0.9803   1.0020   1.0128
  1.0201   1.0399   1.0445   1.0508   1.0546   1.0658   1.0823   1.0872
  1.0984   1.1167   1.1341   1.1550   1.2027   1.2294   1.2574   1.2956
  1.3046   1.3150   1.3240   1.3550   1.3765   1.3813   1.4000   1.4378
  1.4545   1.4608   1.4703   1.4812   1.5278   1.5590   1.6078   1.6313
  1.6339   1.6456   1.6550   1.6814   1.6998   1.7288   1.7568   1.7980
  1.8219   1.8296   1.8364   1.8441   1.8686   1.8831   1.9189   1.9265
  1.9429   1.9588   1.9820   1.9911   1.9992   2.0272   2.0420   2.0572
  2.0646   2.0767   2.0915   2.1176   2.1211   2.1597   2.1990   2.2067
  2.2343   2.2475   2.2632   2.2891   2.2961   2.3067   2.3399   2.3701
  2.3973   2.4035   2.4440   2.4649   2.4831   2.5069   2.5358   2.5494
  2.5767   2.6046   2.6178   2.6460   2.6520   2.6623   2.6933   2.7308
  2.7511   2.7653   2.7727   2.7913   2.8199   2.8343   2.8601   2.8771
  2.8876   2.9185   2.9331   2.9467   2.9644   2.9727   2.9801   3.0025
  3.0235   3.0336   3.0606   3.0806   3.1033   3.1404   3.1457   3.1640
  3.1878   3.1944   3.2039   3.2208   3.2430   3.2543   3.2934   3.2949
  3.3039   3.3623   3.3807   3.3900   3.4073   3.4164   3.4278   3.4560
  3.4635   3.4721   3.4838   3.4963   3.5152   3.5209   3.5374   3.5464
  3.5508   3.5559   3.5719   3.5885   3.6009   3.6235   3.6325   3.6694
  3.6897   3.6995   3.7172   3.7408   3.7801   3.8178   3.8485   3.9009
  3.9287   3.9556   3.9625   3.9973   4.0301   4.0721   4.1280   4.1576
  4.2296   4.2538   4.2731   4.2943   4.3037   4.3117   4.3231   4.3509
  4.3594   4.3823   4.4096   4.4470   4.4601   4.5426   4.5965   4.6097
  4.7068   4.7428   4.7695   4.7878   4.8249   4.9288   5.0036   5.0362
  5.0660   5.1265   5.1395   5.2758   5.2940   5.4081   5.4349   5.5205
  5.5934   5.6495   5.7181   5.7559   5.9380   6.2003   6.4469   6.5586
  6.6795   6.8710   6.9981   7.2928   7.4457  22.6725  22.6842  22.9181
 22.9293  22.9890  23.1384  23.4527  44.4042
 --------------------------------------------------------------
 
          Ground-State Mulliken Net Atomic Charges

     Atom                 Charge (a.u.)
  ----------------------------------------
      1 C                    -1.065022
      2 C                     0.597849
      3 C                    -0.419388
      4 C                    -0.688211
      5 C                    -0.535988
      6 C                    -0.529180
      7 C                     0.446555
      8 O                    -0.539040
      9 H                     0.334378
     10 H                     0.369660
     11 H                     0.406136
     12 H                     0.422235
     13 H                     0.379267
     14 H                     0.298291
     15 H                     0.247968
     16 H                     0.274489
  ----------------------------------------
  Sum of atomic charges =     0.000000

 -----------------------------------------------------------------
                    Cartesian Multipole Moments
 -----------------------------------------------------------------
    Charge (ESU x 10^10)
                -0.0000
    Dipole Moment (Debye)
         X      -1.9973      Y       0.1045      Z      -0.9239
       Tot       2.2031
    Quadrupole Moments (Debye-Ang)
        XX     -42.7401     XY      -5.1965     YY     -48.9401
        XZ      -1.0179     YZ       3.0611     ZZ     -41.7425
    Octopole Moments (Debye-Ang^2)
       XXX     226.5974    XXY     -75.9417    XYY      70.1520
       YYY    -297.6737    XXZ    -105.5998    XYZ     -12.3469
       YYZ    -108.2599    XZZ      75.9901    YZZ     -72.5126
       ZZZ    -306.5651
    Hexadecapole Moments (Debye-Ang^3)
      XXXX   -1336.5630   XXXY     566.6118   XXYY    -415.7780
      XYYY     614.8049   YYYY   -1464.0761   XXXZ     673.9288
      XXYZ    -226.6064   XYYZ     197.0556   YYYZ    -811.2186
      XXZZ    -570.6472   XYZZ     166.2707   YYZZ    -548.1447
      XZZZ     675.2432   YZZZ    -685.5056   ZZZZ   -1984.0326
 -----------------------------------------------------------------
Archival summary:
1\1\nid00511\SP\ProcedureUnspecified\BasisUnspecified\178\meili\SunSep2616:02:402021SunSep2616:02:402021\0\\#,ProcedureUnspecified,BasisUnspecified,\\0,1\C\O,1,1.37373\H,2,0.958887,1,109.616\C,1,1.38089,2,121.717,3,-15.246,0\H,4,1.07957,1,119.962,2,2.20523,0\C,4,1.40427,1,120.508,2,-177.958,0\H,6,1.07365,4,119.228,1,-177.174,0\C,6,1.40595,4,122.014,1,0.96248,0\C,1,1.41,2,119.286,3,168.411,0\H,9,1.08062,1,119.1,2,-2.08649,0\C,8,1.4109,6,117.851,4,0.659385,0\H,11,1.08132,8,120.206,6,178.501,0\C,8,1.51137,6,119.869,4,179.893,0\H,13,1.08834,8,107.161,6,67.3695,0\H,13,1.09168,8,110.074,6,-174.964,0\H,13,1.1,8,111.199,6,-52.6448,0\\\@

 Total job time:  37517.20s(wall), 74527.89s(cpu) 
 Sun Sep 26 16:02:43 2021

        *************************************************************
        *                                                           *
        *  Thank you very much for using Q-Chem.  Have a nice day.  *
        *                                                           *
        *************************************************************


Done Job For Fragment 0
calling putenv with: QCSCRATCH=/global/cscratch1/sd/meili 
calling putenv with: QCLOCALSCR=/tmp 
calling putenv with: QCTHREADS=32 
Creating input file /tmp/qchem4788/Frg2.input
using default PutDataFrgm: nothing
calling putenv with: QCSCRATCH=/tmp/qchem4788/ 
calling putenv with: QCLOCALSCR=/tmp/qchem4788/ 
Spawning Job For Fragment 1
                  Welcome to Q-Chem
     A Quantum Leap Into The Future Of Chemistry


 Q-Chem 5.2, Q-Chem, Inc., Pleasanton, CA (2019)

 License issued to: National Energy Research Scientific Computing Center

 Yihan Shao,  Zhengting Gan,  E. Epifanovsky,  A. T. B. Gilbert,  M. Wormit,  
 J. Kussmann,  A. W. Lange,  A. Behn,  Jia Deng,  Xintian Feng,  D. Ghosh,  
 M. Goldey,  P. R. Horn,  L. D. Jacobson,  I. Kaliman,  T. Kus,  A. Landau,  
 Jie Liu,  E. I. Proynov,  R. M. Richard,  R. P. Steele,  E. J. Sundstrom,  
 H. L. Woodcock III,  P. M. Zimmerman,  D. Zuev,  B. Albrecht,  E. Alguire,  
 S. A. Baeppler,  D. Barton,  Z. Benda,  Y. A. Bernard,  E. J. Berquist,  
 K. B. Bravaya,  H. Burton,  D. Casanova,  Chun-Min Chang,  Yunqing Chen,  
 A. Chien,  K. D. Closser,  M. P. Coons,  S. Coriani,  S. Dasgupta,  
 A. L. Dempwolff,  M. Diedenhofen,  Hainam Do,  R. G. Edgar,  Po-Tung Fang,  
 S. Faraji,  S. Fatehi,  Qingguo Feng,  K. D. Fenk,  J. Fosso-Tande,  
 J. Gayvert,  Qinghui Ge,  A. Ghysels,  G. Gidofalvi,  J. Gomes,  
 J. Gonthier,  A. Gunina,  D. Hait,  M. W. D. Hanson-Heine,  
 P. H. P. Harbach,  A. W. Hauser,  M. F. Herbst,  J. E. Herr,  
 E. G. Hohenstein,  Z. C. Holden,  Kerwin Hui,  B. C. Huynh,  T.-C. Jagau,  
 Hyunjun Ji,  B. Kaduk,  K. Khistyaev,  Jaehoon Kim,  P. Klunzinger,  K. Koh,  
 D. Kosenkov,  L. Koulias,  T. Kowalczyk,  C. M. Krauter,  A. Kunitsa,  
 Ka Un Lao,  A. Laurent,  K. V. Lawler,  Joonho Lee,  D. Lefrancois,  
 S. Lehtola,  D. S. Levine,  Yi-Pei Li,  You-Sheng Lin,  Fenglai Liu,  
 E. Livshits,  A. Luenser,  P. Manohar,  E. Mansoor,  S. F. Manzer,  
 Shan-Ping Mao,  Yuezhi Mao,  N. Mardirossian,  A. V. Marenich,  
 T. Markovich,  L. A. Martinez-Martinez,  S. A. Maurer,  N. J. Mayhall,  
 S. C. McKenzie,  J.-M. Mewes,  P. Morgante,  A. F. Morrison,  
 J. W. Mullinax,  K. Nanda,  T. S. Nguyen-Beck,  R. Olivares-Amaya,  
 J. A. Parkhill,  Zheng Pei,  T. M. Perrine,  F. Plasser,  P. Pokhilko,  
 S. Prager,  A. Prociuk,  E. Ramos,  D. R. Rehn,  F. Rob,  M. Scheurer,  
 M. Schneider,  N. Sergueev,  S. M. Sharada,  S. Sharma,  D. W. Small,  
 T. Stauch,  T. Stein,  Yu-Chuan Su,  A. J. W. Thom,  A. Tkatchenko,  
 T. Tsuchimochi,  N. M. Tubman,  L. Vogt,  M. L. Vidal,  O. Vydrov,  
 M. A. Watson,  J. Wenzel,  M. de Wergifosse,  T. A. Wesolowski,  A. White,  
 J. Witte,  A. Yamada,  Jun Yang,  K. Yao,  S. Yeganeh,  S. R. Yost,  
 Zhi-Qiang You,  A. Zech,  Igor Ying Zhang,  Xing Zhang,  Yan Zhao,  
 Ying Zhu,  B. R. Brooks,  G. K. L. Chan,  C. J. Cramer,  M. S. Gordon,  
 W. J. Hehre,  A. Klamt,  M. W. Schmidt,  C. D. Sherrill,  D. G. Truhlar,  
 A. Aspuru-Guzik,  R. Baer,  A. T. Bell,  N. A. Besley,  Jeng-Da Chai,  
 A. E. DePrince, III,  R. A. DiStasio Jr.,  A. Dreuw,  B. D. Dunietz,  
 T. R. Furlani,  Chao-Ping Hsu,  Yousung Jung,  Jing Kong,  D. S. Lambrecht,  
 WanZhen Liang,  C. Ochsenfeld,  V. A. Rassolov,  L. V. Slipchenko,  
 J. E. Subotnik,  T. Van Voorhis,  J. M. Herbert,  A. I. Krylov,  
 P. M. W. Gill,  M. Head-Gordon

 Contributors to earlier versions of Q-Chem not listed above: 
 R. D. Adamson,  B. Austin,  J. Baker,  G. J. O. Beran,  K. Brandhorst,  
 S. T. Brown,  E. F. C. Byrd,  A. K. Chakraborty,  C.-L. Cheng,  
 Siu Hung Chien,  D. M. Chipman,  D. L. Crittenden,  H. Dachsel,  
 R. J. Doerksen,  A. D. Dutoi,  L. Fusti-Molnar,  W. A. Goddard III,  
 A. Golubeva-Zadorozhnaya,  S. R. Gwaltney,  G. Hawkins,  A. Heyden,  
 S. Hirata,  G. Kedziora,  F. J. Keil,  C. Kelley,  Jihan Kim,  R. A. King,  
 R. Z. Khaliullin,  P. P. Korambath,  W. Kurlancheek,  A. M. Lee,  M. S. Lee,  
 S. V. Levchenko,  Ching Yeh Lin,  D. Liotard,  R. C. Lochan,  I. Lotan,  
 P. E. Maslen,  N. Nair,  D. P. O'Neill,  D. Neuhauser,  E. Neuscamman,  
 C. M. Oana,  R. Olson,  B. Peters,  R. Peverati,  P. A. Pieniazek,  
 Y. M. Rhee,  J. Ritchie,  M. A. Rohrdanz,  E. Rosta,  N. J. Russ,  
 H. F. Schaefer III,  N. E. Schultz,  N. Shenvi,  A. C. Simmonett,  A. Sodt,  
 D. Stuck,  K. S. Thanthiriwatte,  V. Vanovschi,  Tao Wang,  A. Warshel,  
 C. F. Williams,  Q. Wu,  X. Xu,  W. Zhang

 Please cite Q-Chem as follows:
 Y. Shao et al., Mol. Phys. 113, 184-215 (2015)
 DOI: 10.1080/00268976.2014.952696

 Q-Chem 5.2.0 for Intel X86 EM64T Linux

 Parts of Q-Chem use Armadillo 8.300.2 (Tropical Shenanigans).
 http://arma.sourceforge.net/

 Q-Chem begins on Sun Sep 26 16:02:47 2021  

Host: cori01
0

     Scratch files written to /tmp/qchem4788//Frg2//
 May1019 |scratch|qcdevops|jenkins|workspace|build_RNUM -1
Processing $rem in /global/common/cori/software/qchem/5.2/config/preferences:
	 MEM_TOTAL  96000 
NAlpha2: 58
NElect   58
Mult     1
Symmetry turned off for PCM/SM12/SMD calculation

Checking the input file for inconsistencies... 	...done.

--------------------------------------------------------------
User input:
--------------------------------------------------------------
$molecule
0 1
 6	1.5944231988	0.8199231077	-3.3183838422
 6	0.6384231988	-1.0720768923	-1.9253838422
 6	1.6064231988	-0.6230768923	-2.8443838422
 6	0.6954231988	-2.3820768923	-1.4393838422
 6	2.6394231988	-1.5070768923	-3.2233838422
 6	1.6674231988	-3.2580768923	-1.8773838422
 6	2.6864231988	-2.8310768923	-2.7303838422
 8	1.7084231988	-4.5140768923	-1.3813838422
 1	-0.1745768012	-0.4230768923	-1.6463838422
 1	0.0664231988	-2.8000768923	-0.6943838422
 1	0.6154231988	1.2669231077	-3.1403838422
 1	1.7784231988	0.8309231077	-4.3913838422
 1	3.4204231988	-1.1610768923	-3.8823838422
 1	3.4834231988	-3.4970768923	-3.0303838422
 1	2.4464231988	-5.0210768923	-1.7353838422
 1	2.3725881988	1.4069131077	-2.8085738422
$end
$rem
EDA2		1
METHOD		WB97X-V
BASIS		DEF2-TZVPD
XC_GRID		000099000590
NL_GRID		1
UNRESTRICTED		FALSE
MAX_SCF_CYCLES		200
SYMMETRY		FALSE
SYM_IGNORE		TRUE
BASIS_LIN_DEP_THRESH		6
THRESH		14
SCF_CONVERGENCE		8
SCF_PRINT_FRGM		TRUE
SOLVENT_METHOD		SMD
!required keywords
JOBTYPE		SP
SYM_IGNORE		TRUE
SUBSYSTEM		TRUE
GEN_SCFMAN		TRUE
CHILD_INSTRUCTION		2
SYM_IGNORE		TRUE
SCFMI		0
RI_K 0		
PARI_K 0		
MIN_PARI_K 0		
IARI_K 0		
OCC_RI_K 0		
PURECART		1111
MEM_STATIC		2000
MEM_TOTAL		96000
GUI		0
CHILD_MP		1
CHILD_MP_ORDERS		232
FRZ_RELAX		0
FRZ_RELAX_METHOD		0
EDA_CLS_ELEC		1
EDA_CLS_DISP		0
FRZ_ORTHO_DECOMP		1
EDA2		FALSE
FRGM_METHOD		FALSE
CIS_N_ROOTS  0
LOCAL_CIS    0
CIS_RLX_DNS  1
$end
$smx
SOLVENT			WATER
$end
--------------------------------------------------------------
 ----------------------------------------------------------------
             Standard Nuclear Orientation (Angstroms)
    I     Atom           X                Y                Z
 ----------------------------------------------------------------
    1      C       1.5944231988     0.8199231077    -3.3183838422
    2      C       0.6384231988    -1.0720768923    -1.9253838422
    3      C       1.6064231988    -0.6230768923    -2.8443838422
    4      C       0.6954231988    -2.3820768923    -1.4393838422
    5      C       2.6394231988    -1.5070768923    -3.2233838422
    6      C       1.6674231988    -3.2580768923    -1.8773838422
    7      C       2.6864231988    -2.8310768923    -2.7303838422
    8      O       1.7084231988    -4.5140768923    -1.3813838422
    9      H      -0.1745768012    -0.4230768923    -1.6463838422
   10      H       0.0664231988    -2.8000768923    -0.6943838422
   11      H       0.6154231988     1.2669231077    -3.1403838422
   12      H       1.7784231988     0.8309231077    -4.3913838422
   13      H       3.4204231988    -1.1610768923    -3.8823838422
   14      H       3.4834231988    -3.4970768923    -3.0303838422
   15      H       2.4464231988    -5.0210768923    -1.7353838422
   16      H       2.3725881988     1.4069131077    -2.8085738422
 ----------------------------------------------------------------
 Nuclear Repulsion Energy =         342.34844352 hartrees
 There are       29 alpha and       29 beta electrons
 Requested basis set is def2-TZVPD
 There are 145 shells and 371 basis functions

 Total QAlloc Memory Limit  96000 MB
 Mega-Array Size      1956 MB
 MEM_STATIC part      2000 MB
 
 Citation of the SMD model:
 Marenich, A.V.; Cramer, C.J.; Truhlar, D.G.
 J. Phys. Chem. B 2009, 113, 6378-6396.
 iSolventCode=           1
 Solvent: water                                                           
 
 vradii
            1           2           3           4           5           6
    1   1.8500000   1.8500000   1.8500000   1.8500000   1.8500000   1.8500000
            7           8           9          10          11          12
    1   1.8500000   1.5200000   1.2000000   1.2000000   1.2000000   1.2000000
           13          14          15          16
    1   1.2000000   1.2000000   1.2000000   1.2000000
 Changing PCM_VDW_RADII to SMD_RADIUS
 Discretize the solute cavity surface with Lebedev spheres
	Using 110 Lebedev grid points for each H atom
	Using 194 Lebedev grid points for other atoms
	Atomic van der Waals radii will be scaled by 1.20
 Remove points where switching function is < 1.0e-08
 Keep 1175 surface tesserae and discard 1257 interior tesserae
 Molecular Surface Area = 141.739 Angst**2
 A cutoff of  1.0D-14 yielded  10036 shell pairs
 There are     67010 function pairs (     85693 Cartesian)
 Smallest overlap matrix eigenvalue = 6.62E-07
 Linear dependence detected in AO basis
 Tighter screening thresholds may be required for diffuse basis sets
 Use S2THRESH > 14 and THRESH = 14 in case of SCF convergence issues
 Number of orthogonalized atomic orbitals = 370
 Maximum deviation from orthogonality = 1.160E-10

 Scale SEOQF with 1.000000e-01/1.000000e-01/1.000000e-01

 Standard Electronic Orientation quadrupole field applied
 Nucleus-field energy     =    -0.0000000038 hartrees
 Guess from superposition of atomic densities
 Warning:  Energy on first SCF cycle will be non-variational
 SAD guess density has 57.738434 electrons

 -----------------------------------------------------------------------
  General SCF calculation program by
  Eric Jon Sundstrom, Paul Horn, Yuezhi Mao, Dmitri Zuev, Alec White,
  David Stuck, Shaama M.S., Shane Yost, Joonho Lee, David Small,
  Daniel Levine, Susi Lehtola, Hugh Burton, Evgeny Epifanovsky
 -----------------------------------------------------------------------
 Exchange:     0.1670 Hartree-Fock + 1.0000 wB97X-V + LR-HF
 Correlation:  1.0000 wB97X-V
 Using Euler-Maclaurin-Lebedev (99,590) quadrature formula
 Nonlocal Correlation:  VV10 with C = 0.0100 and b = 6.00 and scale = 1.00000
 Grid used for NLC:  SG-1 standard quadrature
Energy prior to optimization (guess energy) = -346.494717646020
Begin Timing: Total SCF Calculation
begin iterations for algorithm: DIIS         
the SCF tolerance is set to 1.00e-08
    1    -346.4947176460      5.16e-03     00000 
    2    -346.4380159900      5.56e-03     00000 
    3    -346.8167866401      5.20e-04     00000 
    4    -346.8215068331      1.73e-04     00000 
    5    -346.8221841290      3.70e-05     00000 
    6    -346.8222330632      1.33e-05     00000 
    7    -346.8222377621      4.97e-06     00000 
    8    -346.8222385041      1.61e-06     00000 
    9    -346.8222385993      5.48e-07     00000 
   10    -346.8222386137      2.54e-07     00000 
   11    -346.8222386181      7.81e-08     00000 
   12    -346.8222386189      3.35e-08     00000 
   13    -346.8222386190      1.41e-08     00000 
   14    -346.8222386190      3.85e-09     00000 Convergence criterion met
Timing for Total SCF: 2108.00s (wall), 4191.76s (cpu)
(3)  G-ENP(liq) elect-nuc-pol free energy of system     -346.822238619 a.u.
(4)  G-CDS(liq) cavity-dispersion-solvent structure 
     free energy                                                3.9027 kcal/mol
(6)  G-S(liq) free energy of system                     -346.816019265 a.u.
E_pcm = -0.0174132663
E_cds = 0.0062193540
Multipole orders to be included
        2
        3
computing dipole RHS
computing quadrupole RHS
total number of RHS in solve_reponses: 8
RHS batch sizes
        8
Beginning Block Conjugate Gradient Iterations. Batch Number: 0
computing hessian-vector products by finite difference
              1      6.49e-01     00000 Conjugate Gradient Iteration
computing hessian-vector products by finite difference
              2      1.91e-01     00000 Conjugate Gradient Iteration
computing hessian-vector products by finite difference
              3      5.02e-02     00000 Conjugate Gradient Iteration
computing hessian-vector products by finite difference
              4      1.60e-02     00000 Conjugate Gradient Iteration
computing hessian-vector products by finite difference
              5      4.59e-03     00000 Conjugate Gradient Iteration
computing hessian-vector products by finite difference
              6      1.75e-03     00000 Conjugate Gradient Iteration
computing hessian-vector products by finite difference
              7      3.92e-04     00000 Conjugate Gradient Iteration
computing hessian-vector products by finite difference
              8      7.93e-05     00000 Conjugate Gradient Iteration
computing hessian-vector products by finite difference
              9      1.47e-05     00000 Conjugate Gradient Iteration
computing hessian-vector products by finite difference
             10      2.33e-06     00000 Conjugate Gradient Iteration
computing hessian-vector products by finite difference
             11      3.12e-07     00000 Conjugate Gradient Iteration
computing hessian-vector products by finite difference
             12      4.37e-08     00000 Conjugate Gradient Iteration
computing hessian-vector products by finite difference
             13      8.20e-09     00000 CG Converged
batch 0 complete
Done Calculating Responses
TESTING ORTHOGONALIZATION OF MULTIPOLE BASIS
Multipole virts passed orthogonality test
Virts Per Order
           87
          145
 
 --------------------------------------------------------------
 
                    Orbital Energies (a.u.)
 --------------------------------------------------------------
 
 Alpha MOs
 -- Occupied --
-19.2391 -10.3276 -10.2758 -10.2724 -10.2722 -10.2684 -10.2627 -10.2543
 -1.1942  -0.9862  -0.8946  -0.8764  -0.8041  -0.7450  -0.7059  -0.6600
 -0.5931  -0.5790  -0.5445  -0.5372  -0.5258  -0.5171  -0.5061  -0.4709
 -0.4504  -0.4378  -0.4328  -0.3468  -0.3083
 -- Virtual --
  0.0602   0.0633   0.0742   0.0824   0.0890   0.0998   0.1131   0.1156
  0.1201   0.1370   0.1507   0.1567   0.1591   0.1779   0.1828   0.1981
  0.2049   0.2117   0.2203   0.2306   0.2413   0.2426   0.2523   0.2592
  0.2661   0.2724   0.2786   0.2812   0.2873   0.3001   0.3004   0.3077
  0.3104   0.3128   0.3191   0.3257   0.3384   0.3474   0.3487   0.3537
  0.3570   0.3622   0.3696   0.3759   0.3792   0.3850   0.3875   0.3967
  0.3982   0.4008   0.4038   0.4124   0.4197   0.4233   0.4287   0.4368
  0.4393   0.4544   0.4600   0.4630   0.4758   0.4807   0.4880   0.4922
  0.4945   0.4986   0.4993   0.5071   0.5142   0.5177   0.5261   0.5420
  0.5428   0.5485   0.5505   0.5611   0.5663   0.5742   0.5823   0.5883
  0.6040   0.6122   0.6127   0.6336   0.6410   0.6525   0.6649   0.6754
  0.6815   0.6845   0.6953   0.6993   0.7017   0.7052   0.7194   0.7316
  0.7344   0.7456   0.7492   0.7531   0.7632   0.7723   0.7860   0.7886
  0.7946   0.7965   0.7998   0.8019   0.8086   0.8189   0.8316   0.8371
  0.8470   0.8525   0.8582   0.8625   0.8741   0.8761   0.8851   0.8965
  0.9090   0.9155   0.9341   0.9521   0.9616   0.9884   0.9992   1.0080
  1.0104   1.0380   1.0391   1.0450   1.0608   1.0682   1.0749   1.0971
  1.1063   1.1238   1.1362   1.1722   1.1943   1.2186   1.2667   1.2991
  1.3103   1.3259   1.3332   1.3564   1.3603   1.3886   1.4020   1.4367
  1.4609   1.4650   1.4773   1.4861   1.5245   1.5706   1.6032   1.6149
  1.6336   1.6417   1.6882   1.7001   1.7024   1.7291   1.7752   1.7952
  1.8192   1.8266   1.8339   1.8602   1.8703   1.8925   1.9218   1.9323
  1.9484   1.9641   1.9803   1.9893   1.9970   2.0271   2.0486   2.0632
  2.0662   2.0820   2.1049   2.1072   2.1220   2.1551   2.2024   2.2120
  2.2338   2.2390   2.2694   2.2830   2.3104   2.3300   2.3387   2.3790
  2.3965   2.4059   2.4325   2.4641   2.4919   2.4984   2.5236   2.5520
  2.5868   2.6066   2.6158   2.6461   2.6652   2.6677   2.6930   2.7360
  2.7533   2.7681   2.7704   2.8078   2.8228   2.8509   2.8622   2.8818
  2.8994   2.9190   2.9365   2.9475   2.9671   2.9843   2.9980   3.0192
  3.0296   3.0487   3.0639   3.0882   3.1103   3.1436   3.1545   3.1615
  3.1827   3.2054   3.2227   3.2283   3.2518   3.2590   3.2910   3.3016
  3.3163   3.3539   3.3815   3.3949   3.4013   3.4078   3.4381   3.4548
  3.4630   3.4838   3.4929   3.5150   3.5237   3.5281   3.5418   3.5456
  3.5596   3.5722   3.5758   3.5809   3.6010   3.6131   3.6402   3.6685
  3.6820   3.7032   3.7388   3.7593   3.7926   3.8382   3.8492   3.8865
  3.9302   3.9494   3.9575   3.9886   4.0372   4.0814   4.1399   4.1494
  4.2354   4.2558   4.2792   4.2963   4.3110   4.3201   4.3421   4.3460
  4.3701   4.3873   4.4201   4.4718   4.4969   4.5485   4.6006   4.6168
  4.7148   4.7337   4.7724   4.8033   4.8562   4.9278   5.0226   5.0526
  5.0868   5.1187   5.1660   5.2701   5.3476   5.4009   5.4316   5.5133
  5.6202   5.6288   5.6901   5.7582   5.9745   6.2284   6.5032   6.6165
  6.6380   6.8851   7.0145   7.3011   7.4648  22.6621  22.7050  22.9231
 22.9591  23.0232  23.1670  23.5143  44.4305
 --------------------------------------------------------------
 
          Ground-State Mulliken Net Atomic Charges

     Atom                 Charge (a.u.)
  ----------------------------------------
      1 C                    -1.050778
      2 C                    -0.459472
      3 C                     0.443750
      4 C                    -0.717036
      5 C                    -0.591306
      6 C                     0.605277
      7 C                    -0.420585
      8 O                    -0.534054
      9 H                     0.381500
     10 H                     0.411637
     11 H                     0.298319
     12 H                     0.283318
     13 H                     0.407796
     14 H                     0.370575
     15 H                     0.328159
     16 H                     0.242900
  ----------------------------------------
  Sum of atomic charges =     0.000000

 -----------------------------------------------------------------
                    Cartesian Multipole Moments
 -----------------------------------------------------------------
    Charge (ESU x 10^10)
                 0.0000
    Dipole Moment (Debye)
         X       1.7042      Y       0.1128      Z      -1.1423
       Tot       2.0547
    Quadrupole Moments (Debye-Ang)
        XX     -38.4307     XY      -9.9552     YY     -42.0866
        XZ      -8.8497     YZ       2.9513     ZZ     -44.6904
    Octopole Moments (Debye-Ang^2)
       XXX    -203.4729    XXY      44.2631    XYY     -20.0065
       YYY     217.9954    XXZ      79.0428    XYZ      31.9393
       YYZ      84.7760    XZZ     -50.5455    YZZ      83.1798
       ZZZ     334.6389
    Hexadecapole Moments (Debye-Ang^3)
      XXXX    -914.2740   XXXY     316.9989   XXYY    -243.5821
      XYYY     143.2165   YYYY   -1539.6752   XXXZ     496.9109
      XXYZ     -45.2402   XYYZ      45.7594   YYYZ    -313.5852
      XXZZ    -367.8292   XYZZ      79.5961   YYZZ    -554.1387
      XZZZ     528.3466   YZZZ    -506.6684   ZZZZ   -1848.6681
 -----------------------------------------------------------------
Archival summary:
1\1\nid00511\SP\ProcedureUnspecified\BasisUnspecified\178\meili\MonSep2702:10:232021MonSep2702:10:232021\0\\#,ProcedureUnspecified,BasisUnspecified,\\0,1\C\O,1,1.35101\H,2,0.962813,1,112.199\C,1,1.37986,2,119.673,3,-177.87,0\H,4,1.06084,1,112.982,2,1.97088,0\C,1,1.39581,2,119.118,3,-3.86073,0\H,6,1.08109,1,121.287,2,2.4112,0\C,4,1.39841,1,120.871,2,179.319,0\H,8,1.07704,4,120.346,1,174.464,0\C,8,1.40826,4,119.832,1,-1.88493,0\C,10,1.41145,8,118.595,4,-1.77881,0\H,11,1.07887,10,119.536,8,-176.523,0\C,10,1.5189,8,120.074,4,-176.696,0\H,13,1.08872,10,108.411,8,-137.388,0\H,13,1.09084,10,110.21,8,-19.4284,0\H,13,1.1,10,110.9,8,102.515,0\\\@

 Total job time:  36459.77s(wall), 72324.02s(cpu) 
 Mon Sep 27 02:10:27 2021

        *************************************************************
        *                                                           *
        *  Thank you very much for using Q-Chem.  Have a nice day.  *
        *                                                           *
        *************************************************************


Done Job For Fragment 1
calling putenv with: QCSCRATCH=/global/cscratch1/sd/meili 
calling putenv with: QCLOCALSCR=/tmp 
calling putenv with: QCTHREADS=32 
Doing General SCFMI
 Exchange:     0.1670 Hartree-Fock + 1.0000 wB97X-V + LR-HF
 Correlation:  1.0000 wB97X-V
 Using Euler-Maclaurin-Lebedev (99,590) quadrature formula
 Nonlocal Correlation:  VV10 with C = 0.0100 and b = 6.00 and scale = 1.00000
 Grid used for NLC:  SG-1 standard quadrature
performing fock build before subrot guess so that all methods have access
Printing subrot_rss_gen Method Specification:
Occupied Subspace Method is 0
Virtual Subspace Method is 0
Energy of the unrelaxed supersystem initial determinant -693.605996565128
performing fock build before subrot guess so that all methods have access
Printing subrot_rss_gen Method Specification:
Occupied Subspace Method is 0
Virtual Subspace Method is 0
Energy of the unrelaxed supersystem initial determinant w/ solvent -693.643342570501
write pseudocanon occs and virts to disk
write pseudocanon orbital energies to disk
Tolerance of ortho_decomp_scf: 1.00e-06
GDM subspace size: 20
Beginning the Orthogonal Decomposition of the Initial Supersystem Wavefunction
    1    -693.5951241255      2.24e-02     ortho_decomp Preconditoned Steepest Descent
    2    -693.5971564336      5.09e-04     ortho_decomp BFGS Step
    3    -693.5971627374      4.24e-05     ortho_decomp BFGS Step
    4    -693.5971627506      1.75e-06     ortho_decomp BFGS Step
    5    -693.5971627507      6.51e-08     ortho_decomp 00000 Convergence criterion met
 Hartree-Fock
 Hartree-Fock
 Hartree-Fock
Doing General SCFMI
 Exchange:     0.1670 Hartree-Fock + 1.0000 wB97X-V + LR-HF
 Correlation:  1.0000 wB97X-V
 Using Euler-Maclaurin-Lebedev (99,590) quadrature formula
 Nonlocal Correlation:  VV10 with C = 0.0100 and b = 6.00 and scale = 1.00000
 Grid used for NLC:  SG-1 standard quadrature
performing fock build at end of subrot_r(subrot) constructor so that all methods have access
<S^2> of initial wavefunction before polarization iterations 0.0000000000
Beginning iterations for the determination of the polarized wavefunction
Energy prior to optimization (guess energy) = -693.643342570500
Begin Timing: Total SCF Calculation
begin iterations for algorithm: DIIS         
the SCF tolerance is set to 1.00e-08
    1    -693.6433425705      5.61e-05     00000 
    2    -693.6437809339      2.48e-05     00000 
    3    -693.6438256731      1.69e-05     00000 
    4    -693.6438458372      3.69e-06     00000 
    5    -693.6438483492      1.83e-06     00000 
    6    -693.6438489259      6.87e-07     00000 
    7    -693.6438489901      3.42e-07     00000 
    8    -693.6438489980      1.73e-07     00000 
    9    -693.6438490000      8.35e-08     00000 
   10    -693.6438490005      3.45e-08     00000 
   11    -693.6438490006      1.20e-08     00000 
   12    -693.6438490006      5.82e-09     00000 Convergence criterion met
write pseudocanon occs and virts to disk
write pseudocanon orbital energies to disk
Timing for Total SCF: 10596.00s (wall), 21068.56s (cpu)
<S^2> of polarized wavefunction after polarization iterations 0.0000000000
relaxing scfmi constraint to allow all rotations in the entire AO span
Doing General SCFMI
 Exchange:     0.1670 Hartree-Fock + 1.0000 wB97X-V + LR-HF
 Correlation:  1.0000 wB97X-V
 Using Euler-Maclaurin-Lebedev (99,590) quadrature formula
 Nonlocal Correlation:  VV10 with C = 0.0100 and b = 6.00 and scale = 1.00000
 Grid used for NLC:  SG-1 standard quadrature
performing fock build at end of subrot_r(subrot) constructor so that all methods have access
<S^2> of polarized wavefunction before ct-allowed iterations 0.0000000000
Beginning iterations for the determination of the CT-Allowed wavefunction
Energy prior to optimization (guess energy) = -693.643849000593
Begin Timing: Total SCF Calculation
begin iterations for algorithm: DIIS         
the SCF tolerance is set to 1.00e-08
    1    -693.6438490006      7.18e-05     00000 
    2    -693.6454439525      9.47e-06     00000 
    3    -693.6454988877      1.68e-06     00000 
    4    -693.6455004100      1.18e-06     00000 
    5    -693.6455007521      2.20e-07     00000 
    6    -693.6455007799      1.06e-07     00000 
    7    -693.6455007840      2.40e-08     00000 
    8    -693.6455007846      1.28e-08     00000 
    9    -693.6455007847      4.12e-09     00000 Convergence criterion met
write pseudocanon occs and virts to disk
write pseudocanon orbital energies to disk
Timing for Total SCF: 8280.00s (wall), 16490.07s (cpu)
<S^2> of ct_allowed wavefunction after ct-allowed iterations 0.0000000000

================================
        Results of EDA2         
================================
Basic EDA Quantities
--------------------
Fragment Energies (Ha):
1 -346.8183158867
2 -346.8160192650
--------------------
  E_prp (kJ/mol) = 0.0000
  E_sol (kJ/mol) = -7.9786
  E_frz (kJ/mol) = 14.2521
  E_pol (kJ/mol) = -1.3296
  E_vct (kJ/mol) = -4.3368
  E_int (kJ/mol) = 0.6071
--------------------


Initial Wavefunction Decomposition
--------------------
  --------------------
  Orthogonal Fragment Subspace Decomposition:
  --------------------
     E_elec   (ELEC)   (kJ/mol) = -5.2870
     E_pauli  (PAULI)  (kJ/mol) = 29.5940
     E_disp   (DISP)   (kJ/mol) = -10.0549
     --------------------
     Terms summing to E_pauli:
     --------------------
        E_kep_pauli       (kJ/mol) = 37.4456
        E_disp_free_pauli (kJ/mol) = -7.8516
  --------------------
  Classical Frozen Decomposition:
  --------------------
     E_cls_elec  (CLS ELEC)  (kJ/mol) = 4.8239
     E_cls_pauli (CLS PAULI) (kJ/mol) = 9.4282
    [E_mod_pauli (MOD PAULI) (kJ/mol) = 19.4831 (CLS PAULI - DISP from orthogonal decomposition) ]
  --------------------
--------------------

Simplified EDA Summary (kJ/mol)
--------------------
 PREPARATION     0.0000
 SOLVATION       -7.9786
 FROZEN          24.3070      (does not include dispersion)
[PAULI           29.5940]     (if this is negligible, then frozen describes electrostatics)
 DISPERSION      -10.0549
 POLARIZATION    -1.3296
 CHARGE TRANSFER -4.3368
 TOTAL           0.6071     (PRP + SOL + FRZ + DISP + POL + CT)
--------------------
 
 --------------------------------------------------------------
 
                    Orbital Energies (a.u.)
 --------------------------------------------------------------
 
 Alpha MOs
 -- Occupied --
-19.2412 -19.2396 -10.3326 -10.3288 -10.2778 -10.2768 -10.2762 -10.2755
-10.2734 -10.2723 -10.2701 -10.2696 -10.2680 -10.2646 -10.2551 -10.2546
 -1.1947  -1.1894  -0.9881  -0.9855  -0.8965  -0.8958  -0.8784  -0.8738
 -0.8063  -0.8040  -0.7476  -0.7416  -0.7077  -0.7059  -0.6664  -0.6542
 -0.5969  -0.5942  -0.5805  -0.5721  -0.5498  -0.5443  -0.5380  -0.5343
 -0.5274  -0.5223  -0.5188  -0.5175  -0.5081  -0.5066  -0.4734  -0.4718
 -0.4522  -0.4497  -0.4410  -0.4388  -0.4345  -0.4312  -0.3484  -0.3456
 -0.3119  -0.3094
 -- Virtual --
  0.0581   0.0586   0.0591   0.0674   0.0737   0.0765   0.0801   0.0834
  0.0888   0.0994   0.1005   0.1051   0.1098   0.1130   0.1153   0.1232
  0.1311   0.1371   0.1454   0.1492   0.1546   0.1575   0.1603   0.1626
  0.1660   0.1734   0.1837   0.1899   0.1922   0.1968   0.2034   0.2059
  0.2090   0.2159   0.2170   0.2266   0.2295   0.2329   0.2373   0.2409
  0.2422   0.2477   0.2515   0.2537   0.2577   0.2607   0.2652   0.2692
  0.2700   0.2757   0.2793   0.2826   0.2859   0.2900   0.2931   0.2962
  0.2973   0.3025   0.3039   0.3089   0.3098   0.3119   0.3120   0.3177
  0.3233   0.3275   0.3313   0.3354   0.3367   0.3396   0.3428   0.3449
  0.3478   0.3510   0.3556   0.3604   0.3614   0.3640   0.3673   0.3679
  0.3715   0.3736   0.3759   0.3798   0.3814   0.3825   0.3845   0.3887
  0.3925   0.3971   0.3978   0.4001   0.4030   0.4047   0.4076   0.4089
  0.4153   0.4184   0.4209   0.4224   0.4239   0.4278   0.4313   0.4343
  0.4346   0.4384   0.4403   0.4523   0.4562   0.4584   0.4610   0.4659
  0.4701   0.4705   0.4733   0.4758   0.4766   0.4844   0.4863   0.4878
  0.4905   0.4919   0.4948   0.4968   0.5004   0.5036   0.5041   0.5098
  0.5135   0.5168   0.5176   0.5213   0.5236   0.5245   0.5325   0.5340
  0.5387   0.5435   0.5466   0.5502   0.5534   0.5566   0.5599   0.5623
  0.5667   0.5695   0.5714   0.5742   0.5788   0.5887   0.5930   0.5970
  0.5984   0.6045   0.6059   0.6094   0.6122   0.6184   0.6218   0.6357
  0.6411   0.6459   0.6496   0.6527   0.6571   0.6606   0.6669   0.6738
  0.6757   0.6837   0.6856   0.6902   0.6936   0.6956   0.7001   0.7020
  0.7043   0.7091   0.7152   0.7182   0.7233   0.7266   0.7298   0.7323
  0.7346   0.7390   0.7435   0.7472   0.7505   0.7546   0.7563   0.7598
  0.7629   0.7661   0.7675   0.7685   0.7772   0.7795   0.7855   0.7876
  0.7909   0.7921   0.7972   0.8001   0.8067   0.8085   0.8103   0.8150
  0.8164   0.8211   0.8231   0.8253   0.8308   0.8312   0.8342   0.8363
  0.8420   0.8491   0.8509   0.8536   0.8568   0.8585   0.8630   0.8690
  0.8733   0.8764   0.8809   0.8867   0.8908   0.8929   0.9005   0.9055
  0.9108   0.9123   0.9218   0.9300   0.9331   0.9397   0.9441   0.9539
  0.9608   0.9654   0.9697   0.9750   0.9821   0.9840   0.9934   1.0006
  1.0060   1.0111   1.0171   1.0226   1.0300   1.0351   1.0416   1.0467
  1.0519   1.0574   1.0609   1.0687   1.0701   1.0756   1.0786   1.0860
  1.0925   1.0983   1.1046   1.1068   1.1086   1.1158   1.1278   1.1329
  1.1434   1.1522   1.1558   1.1671   1.1859   1.1953   1.2111   1.2160
  1.2360   1.2444   1.2745   1.2879   1.3032   1.3042   1.3259   1.3286
  1.3366   1.3402   1.3489   1.3645   1.3649   1.3726   1.3810   1.3870
  1.3922   1.4001   1.4076   1.4097   1.4158   1.4386   1.4581   1.4638
  1.4697   1.4796   1.4884   1.4911   1.4980   1.5032   1.5300   1.5375
  1.5513   1.5609   1.5684   1.5847   1.6184   1.6250   1.6383   1.6424
  1.6500   1.6535   1.6686   1.6797   1.6933   1.7007   1.7081   1.7181
  1.7377   1.7424   1.7510   1.7628   1.7826   1.8022   1.8093   1.8148
  1.8361   1.8370   1.8404   1.8552   1.8599   1.8691   1.8782   1.8839
  1.8873   1.9035   1.9089   1.9190   1.9313   1.9406   1.9482   1.9593
  1.9707   1.9732   1.9796   1.9897   1.9938   1.9997   2.0077   2.0115
  2.0276   2.0367   2.0465   2.0554   2.0609   2.0701   2.0797   2.0860
  2.0930   2.0974   2.0999   2.1112   2.1173   2.1309   2.1379   2.1403
  2.1462   2.1720   2.1849   2.1985   2.2107   2.2138   2.2210   2.2393
  2.2446   2.2512   2.2581   2.2659   2.2742   2.2941   2.3041   2.3249
  2.3290   2.3395   2.3419   2.3487   2.3626   2.3717   2.3985   2.4047
  2.4071   2.4139   2.4260   2.4371   2.4597   2.4614   2.4751   2.4897
  2.4949   2.5088   2.5205   2.5426   2.5514   2.5629   2.5751   2.5807
  2.5940   2.6080   2.6118   2.6300   2.6394   2.6446   2.6550   2.6592
  2.6692   2.6800   2.6860   2.7033   2.7073   2.7249   2.7375   2.7466
  2.7602   2.7663   2.7788   2.7829   2.7892   2.7913   2.8029   2.8165
  2.8290   2.8379   2.8501   2.8631   2.8743   2.8871   2.8951   2.8979
  2.9058   2.9100   2.9300   2.9365   2.9467   2.9532   2.9535   2.9661
  2.9773   2.9802   2.9826   2.9969   3.0010   3.0131   3.0294   3.0304
  3.0389   3.0537   3.0631   3.0690   3.0734   3.0828   3.0901   3.1093
  3.1302   3.1426   3.1529   3.1588   3.1637   3.1669   3.1761   3.1842
  3.1954   3.1984   3.2032   3.2169   3.2189   3.2332   3.2414   3.2559
  3.2622   3.2696   3.2752   3.2868   3.3001   3.3029   3.3064   3.3148
  3.3272   3.3410   3.3692   3.3739   3.3921   3.3959   3.4029   3.4055
  3.4175   3.4190   3.4244   3.4411   3.4456   3.4583   3.4630   3.4644
  3.4703   3.4798   3.4943   3.4973   3.5088   3.5122   3.5135   3.5243
  3.5257   3.5363   3.5378   3.5448   3.5496   3.5507   3.5546   3.5597
  3.5672   3.5759   3.5775   3.5904   3.5951   3.5967   3.6064   3.6112
  3.6196   3.6246   3.6336   3.6458   3.6489   3.6541   3.6784   3.6861
  3.6899   3.6989   3.7071   3.7284   3.7324   3.7539   3.7648   3.7719
  3.7897   3.8070   3.8347   3.8499   3.8524   3.8598   3.8946   3.9059
  3.9365   3.9385   3.9589   3.9653   3.9730   3.9895   3.9976   4.0112
  4.0365   4.0461   4.0914   4.1012   4.1468   4.1537   4.1643   4.1875
  4.2357   4.2408   4.2576   4.2653   4.2768   4.2929   4.3001   4.3064
  4.3082   4.3170   4.3227   4.3256   4.3350   4.3454   4.3520   4.3574
  4.3632   4.3824   4.3929   4.4090   4.4201   4.4446   4.4596   4.4805
  4.4818   4.5094   4.5577   4.5658   4.5991   4.6130   4.6175   4.6370
  4.7221   4.7315   4.7384   4.7489   4.7749   4.7863   4.7911   4.8097
  4.8357   4.8647   4.9330   4.9484   5.0200   5.0380   5.0480   5.0564
  5.0788   5.0955   5.1308   5.1389   5.1649   5.1765   5.2753   5.2799
  5.3004   5.3519   5.4024   5.4125   5.4342   5.4402   5.5156   5.5233
  5.6007   5.6260   5.6346   5.6601   5.6968   5.7351   5.7657   5.7783
  5.9676   5.9766   6.2290   6.2586   6.4644   6.5049   6.6009   6.6201
  6.6424   6.7050   6.8888   6.9034   7.0149   7.0215   7.3035   7.4060
  7.4689   7.4986  22.6774  22.6870  22.7196  22.7453  22.9296  22.9443
 22.9570  22.9726  23.0064  23.0407  23.1524  23.1941  23.4750  23.5323
 44.4536  44.5010
 --------------------------------------------------------------
 
          Ground-State Mulliken Net Atomic Charges

     Atom                 Charge (a.u.)
  ----------------------------------------
      1 C                    -1.086063
      2 C                     0.533894
      3 C                    -0.244842
      4 C                    -0.737991
      5 C                    -0.632336
      6 C                    -0.546717
      7 C                     0.361289
      8 O                    -0.427545
      9 H                     0.129052
     10 H                     0.472563
     11 H                     0.409800
     12 H                     0.435702
     13 H                     0.386964
     14 H                     0.299847
     15 H                     0.254571
     16 H                     0.278756
     17 C                    -1.006010
     18 C                    -0.457474
     19 C                     0.353698
     20 C                    -0.822701
     21 C                    -0.614864
     22 C                     0.621273
     23 C                    -0.496064
     24 O                    -0.534748
     25 H                     0.658544
     26 H                     0.415267
     27 H                     0.311309
     28 H                     0.317998
     29 H                     0.421606
     30 H                     0.380105
     31 H                     0.329823
     32 H                     0.235294
  ----------------------------------------
  Sum of atomic charges =     0.000000

 -----------------------------------------------------------------
                    Cartesian Multipole Moments
 -----------------------------------------------------------------
    Charge (ESU x 10^10)
                 0.0000
    Dipole Moment (Debye)
         X      -0.1330      Y       0.0697      Z      -2.1824
       Tot       2.1876
    Quadrupole Moments (Debye-Ang)
        XX     -80.7147     XY     -15.4674     YY     -90.4128
        XZ     -10.3373     YZ       6.3660     ZZ     -85.7645
    Octopole Moments (Debye-Ang^2)
       XXX      24.4494    XXY     -32.5055    XYY      51.2111
       YYY     -81.6783    XXZ     -27.7500    XYZ      20.2752
       YYZ     -24.6616    XZZ      26.8850    YZZ       9.8670
       ZZZ      25.7691
    Hexadecapole Moments (Debye-Ang^3)
      XXXX   -2245.4657   XXXY     880.3798   XXYY    -655.9035
      XYYY     753.8194   YYYY   -2994.6478   XXXZ    1166.3319
      XXYZ    -269.3108   XYYZ     239.8190   YYYZ   -1120.5952
      XXZZ    -933.8324   XYZZ     243.3601   YYZZ   -1098.3418
      XZZZ    1197.6131   YZZZ   -1188.9080   ZZZZ   -3822.0302
 -----------------------------------------------------------------
Archival summary:
1\1\nid00511\SP\ProcedureUnspecified\BasisUnspecified\21416\meili\MonSep2711:45:092021MonSep2711:45:092021\0\\#,ProcedureUnspecified,BasisUnspecified,\\0,1\O\H,1,0.958887\C,1,1.37373,2,109.616\C,3,1.38089,1,121.717,2,-15.246,0\H,4,1.07957,3,119.962,1,2.20523,0\C,4,1.40427,3,120.508,1,-177.958,0\H,6,1.07365,4,119.228,3,-177.174,0\C,6,1.40595,4,122.014,3,0.96248,0\C,3,1.41,1,119.286,2,168.411,0\H,9,1.08062,3,119.1,1,-2.08649,0\C,8,1.4109,6,117.851,4,0.659385,0\H,11,1.08132,8,120.206,6,178.501,0\C,8,1.51137,6,119.869,4,179.893,0\H,13,1.08834,8,107.161,6,67.3695,0\H,13,1.09168,8,110.074,6,-174.964,0\H,13,1.1,8,111.199,6,-52.6448,0\H,2,1.73922,1,150.42,3,-173.048,0\C,17,1.07704,2,123.124,1,10.0779,0\C,18,1.39841,17,120.346,2,79.9004,0\H,19,1.06084,18,126.087,17,-8.55664,0\C,19,1.37986,18,120.871,17,174.464,0\O,21,1.35101,19,119.673,18,179.319,0\H,22,0.962813,21,112.199,19,-177.87,0\C,21,1.39581,19,120.932,18,5.4207,0\H,24,1.08109,21,121.287,19,176.343,0\C,18,1.40826,17,119.722,2,-103.746,0\C,26,1.41145,18,118.595,17,-178.151,0\H,27,1.07887,26,119.536,18,-176.523,0\C,26,1.5189,18,120.074,17,6.93159,0\H,29,1.08872,26,108.411,18,-137.388,0\H,29,1.09084,26,110.21,18,-19.4284,0\H,29,1.1,26,110.9,18,102.515,0\\\@

 Total job time:  108472.28s(wall), 68616.18s(cpu) 
 Mon Sep 27 11:45:10 2021

        *************************************************************
        *                                                           *
        *  Thank you very much for using Q-Chem.  Have a nice day.  *
        *                                                           *
        *************************************************************


