
Running Job 1 of 1 SSI-052ASN-061ASN-1_PCM_TZVPD.in
qchem SSI-052ASN-061ASN-1_PCM_TZVPD.in_46078.0 /tmp/qchem46078/ 0
/global/common/cori/software/qchem/5.2/exe/qcprog.exe_s SSI-052ASN-061ASN-1_PCM_TZVPD.in_46078.0 /tmp/qchem46078/
                  Welcome to Q-Chem
     A Quantum Leap Into The Future Of Chemistry


 Q-Chem 5.2, Q-Chem, Inc., Pleasanton, CA (2019)

 License issued to: National Energy Research Scientific Computing Center

 Yihan Shao,  Zhengting Gan,  E. Epifanovsky,  A. T. B. Gilbert,  M. Wormit,  
 J. Kussmann,  A. W. Lange,  A. Behn,  Jia Deng,  Xintian Feng,  D. Ghosh,  
 M. Goldey,  P. R. Horn,  L. D. Jacobson,  I. Kaliman,  T. Kus,  A. Landau,  
 Jie Liu,  E. I. Proynov,  R. M. Richard,  R. P. Steele,  E. J. Sundstrom,  
 H. L. Woodcock III,  P. M. Zimmerman,  D. Zuev,  B. Albrecht,  E. Alguire,  
 S. A. Baeppler,  D. Barton,  Z. Benda,  Y. A. Bernard,  E. J. Berquist,  
 K. B. Bravaya,  H. Burton,  D. Casanova,  Chun-Min Chang,  Yunqing Chen,  
 A. Chien,  K. D. Closser,  M. P. Coons,  S. Coriani,  S. Dasgupta,  
 A. L. Dempwolff,  M. Diedenhofen,  Hainam Do,  R. G. Edgar,  Po-Tung Fang,  
 S. Faraji,  S. Fatehi,  Qingguo Feng,  K. D. Fenk,  J. Fosso-Tande,  
 J. Gayvert,  Qinghui Ge,  A. Ghysels,  G. Gidofalvi,  J. Gomes,  
 J. Gonthier,  A. Gunina,  D. Hait,  M. W. D. Hanson-Heine,  
 P. H. P. Harbach,  A. W. Hauser,  M. F. Herbst,  J. E. Herr,  
 E. G. Hohenstein,  Z. C. Holden,  Kerwin Hui,  B. C. Huynh,  T.-C. Jagau,  
 Hyunjun Ji,  B. Kaduk,  K. Khistyaev,  Jaehoon Kim,  P. Klunzinger,  K. Koh,  
 D. Kosenkov,  L. Koulias,  T. Kowalczyk,  C. M. Krauter,  A. Kunitsa,  
 Ka Un Lao,  A. Laurent,  K. V. Lawler,  Joonho Lee,  D. Lefrancois,  
 S. Lehtola,  D. S. Levine,  Yi-Pei Li,  You-Sheng Lin,  Fenglai Liu,  
 E. Livshits,  A. Luenser,  P. Manohar,  E. Mansoor,  S. F. Manzer,  
 Shan-Ping Mao,  Yuezhi Mao,  N. Mardirossian,  A. V. Marenich,  
 T. Markovich,  L. A. Martinez-Martinez,  S. A. Maurer,  N. J. Mayhall,  
 S. C. McKenzie,  J.-M. Mewes,  P. Morgante,  A. F. Morrison,  
 J. W. Mullinax,  K. Nanda,  T. S. Nguyen-Beck,  R. Olivares-Amaya,  
 J. A. Parkhill,  Zheng Pei,  T. M. Perrine,  F. Plasser,  P. Pokhilko,  
 S. Prager,  A. Prociuk,  E. Ramos,  D. R. Rehn,  F. Rob,  M. Scheurer,  
 M. Schneider,  N. Sergueev,  S. M. Sharada,  S. Sharma,  D. W. Small,  
 T. Stauch,  T. Stein,  Yu-Chuan Su,  A. J. W. Thom,  A. Tkatchenko,  
 T. Tsuchimochi,  N. M. Tubman,  L. Vogt,  M. L. Vidal,  O. Vydrov,  
 M. A. Watson,  J. Wenzel,  M. de Wergifosse,  T. A. Wesolowski,  A. White,  
 J. Witte,  A. Yamada,  Jun Yang,  K. Yao,  S. Yeganeh,  S. R. Yost,  
 Zhi-Qiang You,  A. Zech,  Igor Ying Zhang,  Xing Zhang,  Yan Zhao,  
 Ying Zhu,  B. R. Brooks,  G. K. L. Chan,  C. J. Cramer,  M. S. Gordon,  
 W. J. Hehre,  A. Klamt,  M. W. Schmidt,  C. D. Sherrill,  D. G. Truhlar,  
 A. Aspuru-Guzik,  R. Baer,  A. T. Bell,  N. A. Besley,  Jeng-Da Chai,  
 A. E. DePrince, III,  R. A. DiStasio Jr.,  A. Dreuw,  B. D. Dunietz,  
 T. R. Furlani,  Chao-Ping Hsu,  Yousung Jung,  Jing Kong,  D. S. Lambrecht,  
 WanZhen Liang,  C. Ochsenfeld,  V. A. Rassolov,  L. V. Slipchenko,  
 J. E. Subotnik,  T. Van Voorhis,  J. M. Herbert,  A. I. Krylov,  
 P. M. W. Gill,  M. Head-Gordon

 Contributors to earlier versions of Q-Chem not listed above: 
 R. D. Adamson,  B. Austin,  J. Baker,  G. J. O. Beran,  K. Brandhorst,  
 S. T. Brown,  E. F. C. Byrd,  A. K. Chakraborty,  C.-L. Cheng,  
 Siu Hung Chien,  D. M. Chipman,  D. L. Crittenden,  H. Dachsel,  
 R. J. Doerksen,  A. D. Dutoi,  L. Fusti-Molnar,  W. A. Goddard III,  
 A. Golubeva-Zadorozhnaya,  S. R. Gwaltney,  G. Hawkins,  A. Heyden,  
 S. Hirata,  G. Kedziora,  F. J. Keil,  C. Kelley,  Jihan Kim,  R. A. King,  
 R. Z. Khaliullin,  P. P. Korambath,  W. Kurlancheek,  A. M. Lee,  M. S. Lee,  
 S. V. Levchenko,  Ching Yeh Lin,  D. Liotard,  R. C. Lochan,  I. Lotan,  
 P. E. Maslen,  N. Nair,  D. P. O'Neill,  D. Neuhauser,  E. Neuscamman,  
 C. M. Oana,  R. Olson,  B. Peters,  R. Peverati,  P. A. Pieniazek,  
 Y. M. Rhee,  J. Ritchie,  M. A. Rohrdanz,  E. Rosta,  N. J. Russ,  
 H. F. Schaefer III,  N. E. Schultz,  N. Shenvi,  A. C. Simmonett,  A. Sodt,  
 D. Stuck,  K. S. Thanthiriwatte,  V. Vanovschi,  Tao Wang,  A. Warshel,  
 C. F. Williams,  Q. Wu,  X. Xu,  W. Zhang

 Please cite Q-Chem as follows:
 Y. Shao et al., Mol. Phys. 113, 184-215 (2015)
 DOI: 10.1080/00268976.2014.952696

 Q-Chem 5.2.0 for Intel X86 EM64T Linux

 Parts of Q-Chem use Armadillo 8.300.2 (Tropical Shenanigans).
 http://arma.sourceforge.net/

 Q-Chem begins on Sun Sep 26 08:23:49 2021  

Host: cori01
0

     Scratch files written to /tmp/qchem46078//
 May1019 |scratch|qcdevops|jenkins|workspace|build_RNUM -1
Processing $rem in /global/common/cori/software/qchem/5.2/config/preferences:
	 MEM_TOTAL  96000 
NAlpha2: 64
NElect   64
Mult     1
Symmetry turned off for PCM/SM12/SMD calculation

 Q-Chem warning in module libgen/rem_setup.C, line 2803:

 Neither GIA nor STOLL is specified by user. Use STOLL as the default


Checking the input file for inconsistencies... 	...done.

--------------------------------------------------------------
User input:
--------------------------------------------------------------
$comment
SSI-052ASN-061ASN-1.pdb
$end

$molecule
0 1
--
0 1
C   -0.477788024395    1.685737998812   -3.312308285405
C   -0.251788024395    1.338737998812   -1.867308285405
O    0.093211975605    0.207737998812   -1.548308285405
N   -0.451788024395    2.303737998812   -0.984308285405
H   -1.234788024395    2.460737998812   -3.378308285405
H   -0.866788024395    0.803737998812   -3.820308285405
H   -0.337788024395    2.117737998812    0.006691714595
H   -0.655788024395    3.242737998812   -1.307308285405
H    0.441691975605    2.022977998812   -3.813108285405
--
0 1
C   -1.135788024395   -1.117262001188    2.098691714595
C    0.332211975605   -1.447262001188    1.947691714595
O    0.923211975605   -2.092262001188    2.810691714595
N    0.947211975605   -0.972262001188    0.873691714595
H    1.925211975605   -1.182262001188    0.754691714595
H    0.428211975605   -0.513262001188    0.129691714595
H   -1.559788024395   -0.833262001188    1.135691714595
H   -1.190788024395   -0.242262001188    2.745691714595
H   -1.709388024395   -1.944682001188    2.541791714595
$end

$rem
JOBTYPE			EDA
EDA2			1
method			wB97X-V
BASIS			def2-TZVPD
XC_GRID			000099000590
NL_GRID			1
UNRESTRICTED		FALSE
MAX_SCF_CYCLES		200
SYMMETRY		FALSE
SYM_IGNORE		TRUE
MEM_STATIC		2000
BASIS_LIN_DEP_THRESH 	6
THRESH 			14
SCF_CONVERGENCE 	8
SCF_PRINT_FRGM 		TRUE
SOLVENT_METHOD          PCM
$end

$PCM
THEORY                  CPCM
METHOD                  SWIG
SOLVER                  INVERSION
RADII                   UFF
HPOINTS                 302
HEAVYPOINTS             302
PRINTLEVEL              0
$END

$SOLVENT
DIELECTRIC              78.390000 ! water
$END
--------------------------------------------------------------
 ----------------------------------------------------------------
             Standard Nuclear Orientation (Angstroms)
    I     Atom           X                Y                Z
 ----------------------------------------------------------------
    1      C      -0.4777880244     1.6857379988    -3.3123082854
    2      C      -0.2517880244     1.3387379988    -1.8673082854
    3      O       0.0932119756     0.2077379988    -1.5483082854
    4      N      -0.4517880244     2.3037379988    -0.9843082854
    5      H      -1.2347880244     2.4607379988    -3.3783082854
    6      H      -0.8667880244     0.8037379988    -3.8203082854
    7      H      -0.3377880244     2.1177379988     0.0066917146
    8      H      -0.6557880244     3.2427379988    -1.3073082854
    9      H       0.4416919756     2.0229779988    -3.8131082854
   10      C      -1.1357880244    -1.1172620012     2.0986917146
   11      C       0.3322119756    -1.4472620012     1.9476917146
   12      O       0.9232119756    -2.0922620012     2.8106917146
   13      N       0.9472119756    -0.9722620012     0.8736917146
   14      H       1.9252119756    -1.1822620012     0.7546917146
   15      H       0.4282119756    -0.5132620012     0.1296917146
   16      H      -1.5597880244    -0.8332620012     1.1356917146
   17      H      -1.1907880244    -0.2422620012     2.7456917146
   18      H      -1.7093880244    -1.9446820012     2.5417917146
 ----------------------------------------------------------------
 Nuclear Repulsion Energy =         360.95805480 hartrees
 There are       32 alpha and       32 beta electrons
 Requested basis set is def2-TZVPD
 There are 156 shells and 392 basis functions

 Total QAlloc Memory Limit  96000 MB
 Mega-Array Size      1956 MB
 MEM_STATIC part      2000 MB
 Discretize the solute cavity surface with Lebedev spheres
	Using 302 Lebedev grid points for each H atom
	Using 302 Lebedev grid points for other atoms
	Atomic van der Waals radii will be scaled by 1.20
 Remove points where switching function is < 1.0e-08
 Keep 2237 surface tesserae and discard 3199 interior tesserae
 Molecular Surface Area = 228.072 Angst**2
 A cutoff of  1.0D-14 yielded  10870 shell pairs
 There are     68642 function pairs (     85962 Cartesian)
 Smallest overlap matrix eigenvalue = 7.65E-06

 Scale SEOQF with 1.000000e-01/1.000000e-01/1.000000e-01

 Standard Electronic Orientation quadrupole field applied
 Nucleus-field energy     =    -0.0000000182 hartrees

 -----------------------------------------------------------------------
  General SCF calculation program by
  Eric Jon Sundstrom, Paul Horn, Yuezhi Mao, Dmitri Zuev, Alec White,
  David Stuck, Shaama M.S., Shane Yost, Joonho Lee, David Small,
  Daniel Levine, Susi Lehtola, Hugh Burton, Evgeny Epifanovsky
 -----------------------------------------------------------------------
================================================================
                 ALMO-EDA with the EDA2 driver                  
================================================================
 The second-generation ALMO-EDA (for DFT):                      
 P. R. Horn, Y. Mao and M. Head-Gordon, PCCP, 18, 23067 (2016)  
 Decomposition of the frozen energy:                            
 P. R. Horn, Y. Mao and M. Head-Gordon, JCP, 144, 114107 (2016) 
 FERF model for polarization:                                   
 P. R. Horn and M. Head-Gordon, JCP, 143, 114111 (2015)         
Using eda2 option set 1
Option set summary: Frozen orbital wavefunction, initial wavefunction decomposition, and nDQ polarization.
--------------------------------
Printing EDA Options
--------------------------------
eda_child_super_basis      0
fragmo_guess_mode          0
child_mp                   1
child_mp_orders            232
cls_elec                   1
cls_disp                   0
scfmi_mode                 1
scfmi_occs                 0
scfmi_virts                0
frz_relax                  0
frz_relax_method           0
dc_pen_start               0
dc_pen_conv                0
dc_pen_increment           0
dc_pen_steps               0
dc_pen_thresh_factor       0
dc_pen_pre_newton_thresh   0
frz_ortho_decomp           1
frz_ortho_decomp_conv      6
frgm_method                2
scfmi_freeze_ss            0
separate_rehyb             0
plot_diff_den              0
eda_nocv                   0
eda_vct_relax              1
disp_free_x                0
disp_free_c                0
eda_bsse                   0
eda_pct_a                  0
eda_covp                   0
--------------------------------
Attempting to make child job directory: /tmp/qchem46078//Frg1/
Attempting to make child job directory: /tmp/qchem46078//Frg2/
Creating input file /tmp/qchem46078/Frg1.input
using default PutDataFrgm: nothing
calling putenv with: QCSCRATCH=/tmp/qchem46078/ 
calling putenv with: QCLOCALSCR=/tmp/qchem46078/ 
Spawning Job For Fragment 0
                  Welcome to Q-Chem
     A Quantum Leap Into The Future Of Chemistry


 Q-Chem 5.2, Q-Chem, Inc., Pleasanton, CA (2019)

 License issued to: National Energy Research Scientific Computing Center

 Yihan Shao,  Zhengting Gan,  E. Epifanovsky,  A. T. B. Gilbert,  M. Wormit,  
 J. Kussmann,  A. W. Lange,  A. Behn,  Jia Deng,  Xintian Feng,  D. Ghosh,  
 M. Goldey,  P. R. Horn,  L. D. Jacobson,  I. Kaliman,  T. Kus,  A. Landau,  
 Jie Liu,  E. I. Proynov,  R. M. Richard,  R. P. Steele,  E. J. Sundstrom,  
 H. L. Woodcock III,  P. M. Zimmerman,  D. Zuev,  B. Albrecht,  E. Alguire,  
 S. A. Baeppler,  D. Barton,  Z. Benda,  Y. A. Bernard,  E. J. Berquist,  
 K. B. Bravaya,  H. Burton,  D. Casanova,  Chun-Min Chang,  Yunqing Chen,  
 A. Chien,  K. D. Closser,  M. P. Coons,  S. Coriani,  S. Dasgupta,  
 A. L. Dempwolff,  M. Diedenhofen,  Hainam Do,  R. G. Edgar,  Po-Tung Fang,  
 S. Faraji,  S. Fatehi,  Qingguo Feng,  K. D. Fenk,  J. Fosso-Tande,  
 J. Gayvert,  Qinghui Ge,  A. Ghysels,  G. Gidofalvi,  J. Gomes,  
 J. Gonthier,  A. Gunina,  D. Hait,  M. W. D. Hanson-Heine,  
 P. H. P. Harbach,  A. W. Hauser,  M. F. Herbst,  J. E. Herr,  
 E. G. Hohenstein,  Z. C. Holden,  Kerwin Hui,  B. C. Huynh,  T.-C. Jagau,  
 Hyunjun Ji,  B. Kaduk,  K. Khistyaev,  Jaehoon Kim,  P. Klunzinger,  K. Koh,  
 D. Kosenkov,  L. Koulias,  T. Kowalczyk,  C. M. Krauter,  A. Kunitsa,  
 Ka Un Lao,  A. Laurent,  K. V. Lawler,  Joonho Lee,  D. Lefrancois,  
 S. Lehtola,  D. S. Levine,  Yi-Pei Li,  You-Sheng Lin,  Fenglai Liu,  
 E. Livshits,  A. Luenser,  P. Manohar,  E. Mansoor,  S. F. Manzer,  
 Shan-Ping Mao,  Yuezhi Mao,  N. Mardirossian,  A. V. Marenich,  
 T. Markovich,  L. A. Martinez-Martinez,  S. A. Maurer,  N. J. Mayhall,  
 S. C. McKenzie,  J.-M. Mewes,  P. Morgante,  A. F. Morrison,  
 J. W. Mullinax,  K. Nanda,  T. S. Nguyen-Beck,  R. Olivares-Amaya,  
 J. A. Parkhill,  Zheng Pei,  T. M. Perrine,  F. Plasser,  P. Pokhilko,  
 S. Prager,  A. Prociuk,  E. Ramos,  D. R. Rehn,  F. Rob,  M. Scheurer,  
 M. Schneider,  N. Sergueev,  S. M. Sharada,  S. Sharma,  D. W. Small,  
 T. Stauch,  T. Stein,  Yu-Chuan Su,  A. J. W. Thom,  A. Tkatchenko,  
 T. Tsuchimochi,  N. M. Tubman,  L. Vogt,  M. L. Vidal,  O. Vydrov,  
 M. A. Watson,  J. Wenzel,  M. de Wergifosse,  T. A. Wesolowski,  A. White,  
 J. Witte,  A. Yamada,  Jun Yang,  K. Yao,  S. Yeganeh,  S. R. Yost,  
 Zhi-Qiang You,  A. Zech,  Igor Ying Zhang,  Xing Zhang,  Yan Zhao,  
 Ying Zhu,  B. R. Brooks,  G. K. L. Chan,  C. J. Cramer,  M. S. Gordon,  
 W. J. Hehre,  A. Klamt,  M. W. Schmidt,  C. D. Sherrill,  D. G. Truhlar,  
 A. Aspuru-Guzik,  R. Baer,  A. T. Bell,  N. A. Besley,  Jeng-Da Chai,  
 A. E. DePrince, III,  R. A. DiStasio Jr.,  A. Dreuw,  B. D. Dunietz,  
 T. R. Furlani,  Chao-Ping Hsu,  Yousung Jung,  Jing Kong,  D. S. Lambrecht,  
 WanZhen Liang,  C. Ochsenfeld,  V. A. Rassolov,  L. V. Slipchenko,  
 J. E. Subotnik,  T. Van Voorhis,  J. M. Herbert,  A. I. Krylov,  
 P. M. W. Gill,  M. Head-Gordon

 Contributors to earlier versions of Q-Chem not listed above: 
 R. D. Adamson,  B. Austin,  J. Baker,  G. J. O. Beran,  K. Brandhorst,  
 S. T. Brown,  E. F. C. Byrd,  A. K. Chakraborty,  C.-L. Cheng,  
 Siu Hung Chien,  D. M. Chipman,  D. L. Crittenden,  H. Dachsel,  
 R. J. Doerksen,  A. D. Dutoi,  L. Fusti-Molnar,  W. A. Goddard III,  
 A. Golubeva-Zadorozhnaya,  S. R. Gwaltney,  G. Hawkins,  A. Heyden,  
 S. Hirata,  G. Kedziora,  F. J. Keil,  C. Kelley,  Jihan Kim,  R. A. King,  
 R. Z. Khaliullin,  P. P. Korambath,  W. Kurlancheek,  A. M. Lee,  M. S. Lee,  
 S. V. Levchenko,  Ching Yeh Lin,  D. Liotard,  R. C. Lochan,  I. Lotan,  
 P. E. Maslen,  N. Nair,  D. P. O'Neill,  D. Neuhauser,  E. Neuscamman,  
 C. M. Oana,  R. Olson,  B. Peters,  R. Peverati,  P. A. Pieniazek,  
 Y. M. Rhee,  J. Ritchie,  M. A. Rohrdanz,  E. Rosta,  N. J. Russ,  
 H. F. Schaefer III,  N. E. Schultz,  N. Shenvi,  A. C. Simmonett,  A. Sodt,  
 D. Stuck,  K. S. Thanthiriwatte,  V. Vanovschi,  Tao Wang,  A. Warshel,  
 C. F. Williams,  Q. Wu,  X. Xu,  W. Zhang

 Please cite Q-Chem as follows:
 Y. Shao et al., Mol. Phys. 113, 184-215 (2015)
 DOI: 10.1080/00268976.2014.952696

 Q-Chem 5.2.0 for Intel X86 EM64T Linux

 Parts of Q-Chem use Armadillo 8.300.2 (Tropical Shenanigans).
 http://arma.sourceforge.net/

 Q-Chem begins on Sun Sep 26 08:23:53 2021  

Host: cori01
0

     Scratch files written to /tmp/qchem46078//Frg1//
 May1019 |scratch|qcdevops|jenkins|workspace|build_RNUM -1
Processing $rem in /global/common/cori/software/qchem/5.2/config/preferences:
	 MEM_TOTAL  96000 
NAlpha2: 32
NElect   32
Mult     1
Symmetry turned off for PCM/SM12/SMD calculation

Checking the input file for inconsistencies... 	...done.

--------------------------------------------------------------
User input:
--------------------------------------------------------------
$molecule
0 1
 6	-0.4777880244	1.6857379988	-3.3123082854
 6	-0.2517880244	1.3387379988	-1.8673082854
 8	0.0932119756	0.2077379988	-1.5483082854
 7	-0.4517880244	2.3037379988	-0.9843082854
 1	-1.2347880244	2.4607379988	-3.3783082854
 1	-0.8667880244	0.8037379988	-3.8203082854
 1	-0.3377880244	2.1177379988	0.0066917146
 1	-0.6557880244	3.2427379988	-1.3073082854
 1	0.4416919756	2.0229779988	-3.8131082854
$end
$rem
EDA2		1
METHOD		WB97X-V
BASIS		DEF2-TZVPD
XC_GRID		000099000590
NL_GRID		1
UNRESTRICTED		FALSE
MAX_SCF_CYCLES		200
SYMMETRY		FALSE
SYM_IGNORE		TRUE
BASIS_LIN_DEP_THRESH		6
THRESH		14
SCF_CONVERGENCE		8
SCF_PRINT_FRGM		TRUE
SOLVENT_METHOD		PCM
!required keywords
JOBTYPE		SP
SYM_IGNORE		TRUE
SUBSYSTEM		TRUE
GEN_SCFMAN		TRUE
CHILD_INSTRUCTION		2
SYM_IGNORE		TRUE
SCFMI		0
RI_K 0		
PARI_K 0		
MIN_PARI_K 0		
IARI_K 0		
OCC_RI_K 0		
PURECART		1111
MEM_STATIC		2000
MEM_TOTAL		96000
GUI		0
CHILD_MP		1
CHILD_MP_ORDERS		232
FRZ_RELAX		0
FRZ_RELAX_METHOD		0
EDA_CLS_ELEC		1
EDA_CLS_DISP		0
FRZ_ORTHO_DECOMP		1
EDA2		FALSE
FRGM_METHOD		FALSE
CIS_N_ROOTS  0
LOCAL_CIS    0
CIS_RLX_DNS  1
$end
$pcm
THEORY                  CPCM
METHOD                  SWIG
SOLVER                  INVERSION
RADII                   UFF
HPOINTS                 302
HEAVYPOINTS             302
PRINTLEVEL              0
$end
$solvent
DIELECTRIC              78.390000 ! water
$end
--------------------------------------------------------------
 ----------------------------------------------------------------
             Standard Nuclear Orientation (Angstroms)
    I     Atom           X                Y                Z
 ----------------------------------------------------------------
    1      C      -0.4777880244     1.6857379988    -3.3123082854
    2      C      -0.2517880244     1.3387379988    -1.8673082854
    3      O       0.0932119756     0.2077379988    -1.5483082854
    4      N      -0.4517880244     2.3037379988    -0.9843082854
    5      H      -1.2347880244     2.4607379988    -3.3783082854
    6      H      -0.8667880244     0.8037379988    -3.8203082854
    7      H      -0.3377880244     2.1177379988     0.0066917146
    8      H      -0.6557880244     3.2427379988    -1.3073082854
    9      H       0.4416919756     2.0229779988    -3.8131082854
 ----------------------------------------------------------------
 Nuclear Repulsion Energy =         122.71318352 hartrees
 There are       16 alpha and       16 beta electrons
 Requested basis set is def2-TZVPD
 There are 78 shells and 196 basis functions

 Total QAlloc Memory Limit  96000 MB
 Mega-Array Size      1956 MB
 MEM_STATIC part      2000 MB
 Discretize the solute cavity surface with Lebedev spheres
	Using 302 Lebedev grid points for each H atom
	Using 302 Lebedev grid points for other atoms
	Atomic van der Waals radii will be scaled by 1.20
 Remove points where switching function is < 1.0e-08
 Keep 1200 surface tesserae and discard 1518 interior tesserae
 Molecular Surface Area = 127.972 Angst**2

                       Distance Matrix (Angstroms)
             C (  1)   C (  2)   O (  3)   N (  4)   H (  5)   H (  6)
   C (  2)  1.503167
   O (  3)  2.371122  1.224723
   N (  4)  2.408772  1.323221  2.237931
   H (  5)  1.085371  2.123274  3.191942  2.523683
   H (  6)  1.089637  2.116284  2.537479  3.234984  1.753977
   H (  7)  3.349923  2.031284  2.500377  1.014728  3.518591  4.080731
   H (  8)  2.544790  2.025347  3.135332  1.013739  2.288188  3.508335
   H (  9)  1.099989  2.176060  2.923329  2.979806  1.786413  1.788496
             H (  7)   H (  8)
   H (  8)  1.758791
   H (  9)  3.899672  2.995215
 
 A cutoff of  1.0D-14 yielded   3052 shell pairs
 There are     19542 function pairs (     24700 Cartesian)
 Smallest overlap matrix eigenvalue = 1.08E-05

 Scale SEOQF with 1.000000e-01/1.000000e-01/1.000000e-01

 Standard Electronic Orientation quadrupole field applied
 Nucleus-field energy     =    -0.0000000099 hartrees
 Guess from superposition of atomic densities
 Warning:  Energy on first SCF cycle will be non-variational
 SAD guess density has 31.604610 electrons

 -----------------------------------------------------------------------
  General SCF calculation program by
  Eric Jon Sundstrom, Paul Horn, Yuezhi Mao, Dmitri Zuev, Alec White,
  David Stuck, Shaama M.S., Shane Yost, Joonho Lee, David Small,
  Daniel Levine, Susi Lehtola, Hugh Burton, Evgeny Epifanovsky
 -----------------------------------------------------------------------
 Exchange:     0.1670 Hartree-Fock + 1.0000 wB97X-V + LR-HF
 Correlation:  1.0000 wB97X-V
 Using Euler-Maclaurin-Lebedev (99,590) quadrature formula
 Nonlocal Correlation:  VV10 with C = 0.0100 and b = 6.00 and scale = 1.00000
 Grid used for NLC:  SG-1 standard quadrature
Energy prior to optimization (guess energy) = -208.705778842364
Begin Timing: Total SCF Calculation
begin iterations for algorithm: DIIS         
the SCF tolerance is set to 1.00e-08
    1    -208.7057788424      1.25e-02     00000 
    2    -208.3302564317      1.54e-02     00000 
    3    -209.2231468501      2.46e-03     00000 
    4    -209.2426104617      8.28e-04     00000 
    5    -209.2453250369      1.22e-04     00000 
    6    -209.2454214936      4.90e-05     00000 
    7    -209.2454385214      1.11e-05     00000 
    8    -209.2454396740      2.09e-06     00000 
    9    -209.2454397620      7.82e-07     00000 
   10    -209.2454397674      3.17e-07     00000 
   11    -209.2454397683      6.85e-08     00000 
   12    -209.2454397684      1.66e-08     00000 
   13    -209.2454397684      4.51e-09     00000 Convergence criterion met
Timing for Total SCF: 374.00s (wall), 739.86s (cpu)

************** Final PCM Free Energy Summary **************
 G_electrostatic  =      -0.01210360 hartree =      -7.59512101 kcal/mol
 G_cavitation     =       0.00000000 hartree =       0.00000000 kcal/mol
 G_dispersion     =       0.00000000 hartree =       0.00000000 kcal/mol
 G_repulsion      =       0.00000000 hartree =       0.00000000 kcal/mol
 --------------------------------------------------
 Non-electrostatic Free Energy =       0.00000000 hartree =       0.00000000 kcal/mol
 Total                         =      -0.01210360 hartree =      -7.59512101 kcal/mol
 --------------------------------------------------
 SCF Energy (H0 + V/2)                       =    -209.24543977 
 Solute Internal Energy (H0)                 =    -209.23333617 
 Total Free Energy (H0 + V/2 + non-elec)     =    -209.24543977 hartree
                                             = -131303.49521825 kcal/mol
***********************************************************

E_pcm = -0.0121035958
Multipole orders to be included
        2
        3
computing dipole RHS
computing quadrupole RHS
total number of RHS in solve_reponses: 8
RHS batch sizes
        8
Beginning Block Conjugate Gradient Iterations. Batch Number: 0
computing hessian-vector products by finite difference
              1      6.55e-01     00000 Conjugate Gradient Iteration
computing hessian-vector products by finite difference
              2      2.19e-01     00000 Conjugate Gradient Iteration
computing hessian-vector products by finite difference
              3      5.65e-02     00000 Conjugate Gradient Iteration
computing hessian-vector products by finite difference
              4      1.42e-02     00000 Conjugate Gradient Iteration
computing hessian-vector products by finite difference
              5      2.19e-03     00000 Conjugate Gradient Iteration
computing hessian-vector products by finite difference
              6      4.88e-04     00000 Conjugate Gradient Iteration
computing hessian-vector products by finite difference
              7      7.44e-05     00000 Conjugate Gradient Iteration
computing hessian-vector products by finite difference
              8      8.75e-06     00000 Conjugate Gradient Iteration
computing hessian-vector products by finite difference
              9      1.34e-06     00000 Conjugate Gradient Iteration
computing hessian-vector products by finite difference
             10      1.51e-07     00000 Conjugate Gradient Iteration
computing hessian-vector products by finite difference
             11      2.48e-08     00000 Conjugate Gradient Iteration
computing hessian-vector products by finite difference
             12      5.57e-09     00000 CG Converged
batch 0 complete
Done Calculating Responses
TESTING ORTHOGONALIZATION OF MULTIPOLE BASIS
Multipole virts passed orthogonality test
Virts Per Order
        48
        80
 
 --------------------------------------------------------------
 
                    Orbital Energies (a.u.)
 --------------------------------------------------------------
 
 Alpha MOs
 -- Occupied --
-19.1770 -14.4351 -10.3750 -10.2702  -1.1732  -1.0474  -0.8724  -0.7149
 -0.6598  -0.5913  -0.5708  -0.5177  -0.5067  -0.4831  -0.3835  -0.3672
 -- Virtual --
  0.0592   0.0914   0.0934   0.0971   0.1264   0.1291   0.1355   0.1419
  0.1706   0.1785   0.1913   0.2139   0.2243   0.2405   0.2467   0.2572
  0.2624   0.2694   0.2968   0.3100   0.3282   0.3312   0.3411   0.3470
  0.3554   0.3605   0.3696   0.3720   0.3941   0.4020   0.4150   0.4168
  0.4336   0.4487   0.4567   0.4758   0.4803   0.4879   0.4929   0.5018
  0.5250   0.5321   0.5450   0.5707   0.5833   0.5988   0.6195   0.6315
  0.6369   0.6575   0.6741   0.6915   0.7079   0.7167   0.7315   0.7614
  0.7729   0.7791   0.7899   0.8102   0.8180   0.8439   0.8472   0.8628
  0.9107   0.9465   0.9822   0.9888   1.0104   1.0333   1.0525   1.0987
  1.1084   1.1872   1.2248   1.2477   1.2815   1.3251   1.3456   1.3766
  1.4738   1.4962   1.4992   1.6239   1.6700   1.7249   1.7357   1.8109
  1.8439   1.8622   1.9045   1.9134   1.9266   1.9553   1.9793   2.0228
  2.0550   2.0914   2.1464   2.1787   2.1969   2.2324   2.2994   2.3721
  2.3886   2.3989   2.4533   2.4872   2.5593   2.5645   2.5913   2.6134
  2.6815   2.7028   2.7769   2.8034   2.8271   2.9006   2.9442   2.9856
  3.0500   3.0723   3.1399   3.1703   3.2034   3.2339   3.2682   3.2693
  3.3171   3.3361   3.3535   3.4179   3.4571   3.5360   3.5548   3.5824
  3.6283   3.6520   3.6777   3.7816   3.8838   3.9558   4.0032   4.0620
  4.0970   4.1839   4.2770   4.4160   4.5205   4.5733   4.6304   4.6730
  4.7906   4.8821   4.8933   4.9465   5.1385   5.1814   5.2614   5.3471
  5.3727   5.4078   5.4196   5.4749   5.5314   5.7903   5.9209   6.1311
  6.2726   6.5391   6.6478   6.7530   6.8473   6.9857   7.2336   7.3284
 22.5939  23.6098  32.4080  44.3272
 --------------------------------------------------------------
 
          Ground-State Mulliken Net Atomic Charges

     Atom                 Charge (a.u.)
  ----------------------------------------
      1 C                    -0.613871
      2 C                     0.411489
      3 O                    -0.578690
      4 N                    -0.265103
      5 H                     0.239404
      6 H                     0.197067
      7 H                     0.208502
      8 H                     0.197714
      9 H                     0.203487
  ----------------------------------------
  Sum of atomic charges =     0.000000

 -----------------------------------------------------------------
                    Cartesian Multipole Moments
 -----------------------------------------------------------------
    Charge (ESU x 10^10)
                -0.0000
    Dipole Moment (Debye)
         X      -1.3198      Y       4.9867      Z      -0.3213
       Tot       5.1684
    Quadrupole Moments (Debye-Ang)
        XX     -24.7042     XY      -2.4624     YY     -11.7805
        XZ       2.1982     YZ      -7.3200     ZZ     -19.0868
    Octopole Moments (Debye-Ang^2)
       XXX      22.6466    XXY     -35.0855    XYY      -1.0503
       YYY     -68.0963    XXZ      47.5693    XYZ       3.1534
       YYZ      31.5174    XZZ       2.4527    YZZ     -16.0975
       ZZZ     126.3010
    Hexadecapole Moments (Debye-Ang^3)
      XXXX     -54.9808   XXXY      46.2400   XXYY     -77.9755
      XYYY      14.2762   YYYY    -306.6234   XXXZ     -49.7096
      XXYZ      66.4888   XYYZ      -5.2060   YYYZ     160.2919
      XXZZ    -128.8146   XYZZ      10.7722   YYZZ    -158.4364
      XZZZ     -40.3464   YZZZ     164.4817   ZZZZ    -690.3824
 -----------------------------------------------------------------
Archival summary:
1\1\nid00504\SP\ProcedureUnspecified\BasisUnspecified\1125\meili\SunSep2610:15:392021SunSep2610:15:392021\0\\#,ProcedureUnspecified,BasisUnspecified,\\0,1\C\O,1,1.22472\N,1,1.32322,2,122.836\H,3,1.01374,1,119.558,2,174.556,0\H,3,1.01473,1,120.069,2,-1.21483,0\C,1,1.50317,2,120.393,3,-179.571,0\H,6,1.08537,1,109.157,2,150.006,0\H,6,1.08964,1,108.36,2,33.2221,0\H,6,1.09999,1,112.505,2,-88.0291,0\\\@

 Total job time:  6708.16s(wall), 13238.64s(cpu) 
 Sun Sep 26 10:15:41 2021

        *************************************************************
        *                                                           *
        *  Thank you very much for using Q-Chem.  Have a nice day.  *
        *                                                           *
        *************************************************************


Done Job For Fragment 0
calling putenv with: QCSCRATCH=/global/cscratch1/sd/meili 
calling putenv with: QCLOCALSCR=/tmp 
calling putenv with: QCTHREADS=32 
Creating input file /tmp/qchem46078/Frg2.input
using default PutDataFrgm: nothing
calling putenv with: QCSCRATCH=/tmp/qchem46078/ 
calling putenv with: QCLOCALSCR=/tmp/qchem46078/ 
Spawning Job For Fragment 1
                  Welcome to Q-Chem
     A Quantum Leap Into The Future Of Chemistry


 Q-Chem 5.2, Q-Chem, Inc., Pleasanton, CA (2019)

 License issued to: National Energy Research Scientific Computing Center

 Yihan Shao,  Zhengting Gan,  E. Epifanovsky,  A. T. B. Gilbert,  M. Wormit,  
 J. Kussmann,  A. W. Lange,  A. Behn,  Jia Deng,  Xintian Feng,  D. Ghosh,  
 M. Goldey,  P. R. Horn,  L. D. Jacobson,  I. Kaliman,  T. Kus,  A. Landau,  
 Jie Liu,  E. I. Proynov,  R. M. Richard,  R. P. Steele,  E. J. Sundstrom,  
 H. L. Woodcock III,  P. M. Zimmerman,  D. Zuev,  B. Albrecht,  E. Alguire,  
 S. A. Baeppler,  D. Barton,  Z. Benda,  Y. A. Bernard,  E. J. Berquist,  
 K. B. Bravaya,  H. Burton,  D. Casanova,  Chun-Min Chang,  Yunqing Chen,  
 A. Chien,  K. D. Closser,  M. P. Coons,  S. Coriani,  S. Dasgupta,  
 A. L. Dempwolff,  M. Diedenhofen,  Hainam Do,  R. G. Edgar,  Po-Tung Fang,  
 S. Faraji,  S. Fatehi,  Qingguo Feng,  K. D. Fenk,  J. Fosso-Tande,  
 J. Gayvert,  Qinghui Ge,  A. Ghysels,  G. Gidofalvi,  J. Gomes,  
 J. Gonthier,  A. Gunina,  D. Hait,  M. W. D. Hanson-Heine,  
 P. H. P. Harbach,  A. W. Hauser,  M. F. Herbst,  J. E. Herr,  
 E. G. Hohenstein,  Z. C. Holden,  Kerwin Hui,  B. C. Huynh,  T.-C. Jagau,  
 Hyunjun Ji,  B. Kaduk,  K. Khistyaev,  Jaehoon Kim,  P. Klunzinger,  K. Koh,  
 D. Kosenkov,  L. Koulias,  T. Kowalczyk,  C. M. Krauter,  A. Kunitsa,  
 Ka Un Lao,  A. Laurent,  K. V. Lawler,  Joonho Lee,  D. Lefrancois,  
 S. Lehtola,  D. S. Levine,  Yi-Pei Li,  You-Sheng Lin,  Fenglai Liu,  
 E. Livshits,  A. Luenser,  P. Manohar,  E. Mansoor,  S. F. Manzer,  
 Shan-Ping Mao,  Yuezhi Mao,  N. Mardirossian,  A. V. Marenich,  
 T. Markovich,  L. A. Martinez-Martinez,  S. A. Maurer,  N. J. Mayhall,  
 S. C. McKenzie,  J.-M. Mewes,  P. Morgante,  A. F. Morrison,  
 J. W. Mullinax,  K. Nanda,  T. S. Nguyen-Beck,  R. Olivares-Amaya,  
 J. A. Parkhill,  Zheng Pei,  T. M. Perrine,  F. Plasser,  P. Pokhilko,  
 S. Prager,  A. Prociuk,  E. Ramos,  D. R. Rehn,  F. Rob,  M. Scheurer,  
 M. Schneider,  N. Sergueev,  S. M. Sharada,  S. Sharma,  D. W. Small,  
 T. Stauch,  T. Stein,  Yu-Chuan Su,  A. J. W. Thom,  A. Tkatchenko,  
 T. Tsuchimochi,  N. M. Tubman,  L. Vogt,  M. L. Vidal,  O. Vydrov,  
 M. A. Watson,  J. Wenzel,  M. de Wergifosse,  T. A. Wesolowski,  A. White,  
 J. Witte,  A. Yamada,  Jun Yang,  K. Yao,  S. Yeganeh,  S. R. Yost,  
 Zhi-Qiang You,  A. Zech,  Igor Ying Zhang,  Xing Zhang,  Yan Zhao,  
 Ying Zhu,  B. R. Brooks,  G. K. L. Chan,  C. J. Cramer,  M. S. Gordon,  
 W. J. Hehre,  A. Klamt,  M. W. Schmidt,  C. D. Sherrill,  D. G. Truhlar,  
 A. Aspuru-Guzik,  R. Baer,  A. T. Bell,  N. A. Besley,  Jeng-Da Chai,  
 A. E. DePrince, III,  R. A. DiStasio Jr.,  A. Dreuw,  B. D. Dunietz,  
 T. R. Furlani,  Chao-Ping Hsu,  Yousung Jung,  Jing Kong,  D. S. Lambrecht,  
 WanZhen Liang,  C. Ochsenfeld,  V. A. Rassolov,  L. V. Slipchenko,  
 J. E. Subotnik,  T. Van Voorhis,  J. M. Herbert,  A. I. Krylov,  
 P. M. W. Gill,  M. Head-Gordon

 Contributors to earlier versions of Q-Chem not listed above: 
 R. D. Adamson,  B. Austin,  J. Baker,  G. J. O. Beran,  K. Brandhorst,  
 S. T. Brown,  E. F. C. Byrd,  A. K. Chakraborty,  C.-L. Cheng,  
 Siu Hung Chien,  D. M. Chipman,  D. L. Crittenden,  H. Dachsel,  
 R. J. Doerksen,  A. D. Dutoi,  L. Fusti-Molnar,  W. A. Goddard III,  
 A. Golubeva-Zadorozhnaya,  S. R. Gwaltney,  G. Hawkins,  A. Heyden,  
 S. Hirata,  G. Kedziora,  F. J. Keil,  C. Kelley,  Jihan Kim,  R. A. King,  
 R. Z. Khaliullin,  P. P. Korambath,  W. Kurlancheek,  A. M. Lee,  M. S. Lee,  
 S. V. Levchenko,  Ching Yeh Lin,  D. Liotard,  R. C. Lochan,  I. Lotan,  
 P. E. Maslen,  N. Nair,  D. P. O'Neill,  D. Neuhauser,  E. Neuscamman,  
 C. M. Oana,  R. Olson,  B. Peters,  R. Peverati,  P. A. Pieniazek,  
 Y. M. Rhee,  J. Ritchie,  M. A. Rohrdanz,  E. Rosta,  N. J. Russ,  
 H. F. Schaefer III,  N. E. Schultz,  N. Shenvi,  A. C. Simmonett,  A. Sodt,  
 D. Stuck,  K. S. Thanthiriwatte,  V. Vanovschi,  Tao Wang,  A. Warshel,  
 C. F. Williams,  Q. Wu,  X. Xu,  W. Zhang

 Please cite Q-Chem as follows:
 Y. Shao et al., Mol. Phys. 113, 184-215 (2015)
 DOI: 10.1080/00268976.2014.952696

 Q-Chem 5.2.0 for Intel X86 EM64T Linux

 Parts of Q-Chem use Armadillo 8.300.2 (Tropical Shenanigans).
 http://arma.sourceforge.net/

 Q-Chem begins on Sun Sep 26 10:15:43 2021  

Host: cori01
0

     Scratch files written to /tmp/qchem46078//Frg2//
 May1019 |scratch|qcdevops|jenkins|workspace|build_RNUM -1
Processing $rem in /global/common/cori/software/qchem/5.2/config/preferences:
	 MEM_TOTAL  96000 
NAlpha2: 32
NElect   32
Mult     1
Symmetry turned off for PCM/SM12/SMD calculation

Checking the input file for inconsistencies... 	...done.

--------------------------------------------------------------
User input:
--------------------------------------------------------------
$molecule
0 1
 6	-1.1357880244	-1.1172620012	2.0986917146
 6	0.3322119756	-1.4472620012	1.9476917146
 8	0.9232119756	-2.0922620012	2.8106917146
 7	0.9472119756	-0.9722620012	0.8736917146
 1	1.9252119756	-1.1822620012	0.7546917146
 1	0.4282119756	-0.5132620012	0.1296917146
 1	-1.5597880244	-0.8332620012	1.1356917146
 1	-1.1907880244	-0.2422620012	2.7456917146
 1	-1.7093880244	-1.9446820012	2.5417917146
$end
$rem
EDA2		1
METHOD		WB97X-V
BASIS		DEF2-TZVPD
XC_GRID		000099000590
NL_GRID		1
UNRESTRICTED		FALSE
MAX_SCF_CYCLES		200
SYMMETRY		FALSE
SYM_IGNORE		TRUE
BASIS_LIN_DEP_THRESH		6
THRESH		14
SCF_CONVERGENCE		8
SCF_PRINT_FRGM		TRUE
SOLVENT_METHOD		PCM
!required keywords
JOBTYPE		SP
SYM_IGNORE		TRUE
SUBSYSTEM		TRUE
GEN_SCFMAN		TRUE
CHILD_INSTRUCTION		2
SYM_IGNORE		TRUE
SCFMI		0
RI_K 0		
PARI_K 0		
MIN_PARI_K 0		
IARI_K 0		
OCC_RI_K 0		
PURECART		1111
MEM_STATIC		2000
MEM_TOTAL		96000
GUI		0
CHILD_MP		1
CHILD_MP_ORDERS		232
FRZ_RELAX		0
FRZ_RELAX_METHOD		0
EDA_CLS_ELEC		1
EDA_CLS_DISP		0
FRZ_ORTHO_DECOMP		1
EDA2		FALSE
FRGM_METHOD		FALSE
CIS_N_ROOTS  0
LOCAL_CIS    0
CIS_RLX_DNS  1
$end
$pcm
THEORY                  CPCM
METHOD                  SWIG
SOLVER                  INVERSION
RADII                   UFF
HPOINTS                 302
HEAVYPOINTS             302
PRINTLEVEL              0
$end
$solvent
DIELECTRIC              78.390000 ! water
$end
--------------------------------------------------------------
 ----------------------------------------------------------------
             Standard Nuclear Orientation (Angstroms)
    I     Atom           X                Y                Z
 ----------------------------------------------------------------
    1      C      -1.1357880244    -1.1172620012     2.0986917146
    2      C       0.3322119756    -1.4472620012     1.9476917146
    3      O       0.9232119756    -2.0922620012     2.8106917146
    4      N       0.9472119756    -0.9722620012     0.8736917146
    5      H       1.9252119756    -1.1822620012     0.7546917146
    6      H       0.4282119756    -0.5132620012     0.1296917146
    7      H      -1.5597880244    -0.8332620012     1.1356917146
    8      H      -1.1907880244    -0.2422620012     2.7456917146
    9      H      -1.7093880244    -1.9446820012     2.5417917146
 ----------------------------------------------------------------
 Nuclear Repulsion Energy =         122.38364666 hartrees
 There are       16 alpha and       16 beta electrons
 Requested basis set is def2-TZVPD
 There are 78 shells and 196 basis functions

 Total QAlloc Memory Limit  96000 MB
 Mega-Array Size      1956 MB
 MEM_STATIC part      2000 MB
 Discretize the solute cavity surface with Lebedev spheres
	Using 302 Lebedev grid points for each H atom
	Using 302 Lebedev grid points for other atoms
	Atomic van der Waals radii will be scaled by 1.20
 Remove points where switching function is < 1.0e-08
 Keep 1208 surface tesserae and discard 1510 interior tesserae
 Molecular Surface Area = 128.467 Angst**2

                       Distance Matrix (Angstroms)
             C (  1)   C (  2)   O (  3)   N (  4)   H (  5)   H (  6)
   C (  2)  1.512192
   O (  3)  2.386849  1.228851
   N (  4)  2.420855  1.325642  2.237620
   H (  5)  3.343693  2.007766  2.461552  1.007346
   H (  6)  2.586092  2.046142  3.150560  1.016650  1.754764
   H (  7)  1.089863  2.148489  3.248999  2.524483  3.523093  2.250906
   H (  8)  1.089614  2.099609  2.809933  2.933995  3.815382  3.088375
   H (  9)  1.099990  2.183692  2.650409  3.284156  4.121326  3.526546
             H (  7)   H (  8)
   H (  8)  1.754292
   H (  9)  1.798542  1.791300
 
 A cutoff of  1.0D-14 yielded   3054 shell pairs
 There are     19544 function pairs (     24702 Cartesian)
 Smallest overlap matrix eigenvalue = 1.13E-05

 Scale SEOQF with 1.000000e-01/1.000000e-01/1.000000e-01

 Standard Electronic Orientation quadrupole field applied
 Nucleus-field energy     =    -0.0000000083 hartrees
 Guess from superposition of atomic densities
 Warning:  Energy on first SCF cycle will be non-variational
 SAD guess density has 31.604610 electrons

 -----------------------------------------------------------------------
  General SCF calculation program by
  Eric Jon Sundstrom, Paul Horn, Yuezhi Mao, Dmitri Zuev, Alec White,
  David Stuck, Shaama M.S., Shane Yost, Joonho Lee, David Small,
  Daniel Levine, Susi Lehtola, Hugh Burton, Evgeny Epifanovsky
 -----------------------------------------------------------------------
 Exchange:     0.1670 Hartree-Fock + 1.0000 wB97X-V + LR-HF
 Correlation:  1.0000 wB97X-V
 Using Euler-Maclaurin-Lebedev (99,590) quadrature formula
 Nonlocal Correlation:  VV10 with C = 0.0100 and b = 6.00 and scale = 1.00000
 Grid used for NLC:  SG-1 standard quadrature
Energy prior to optimization (guess energy) = -208.704387210877
Begin Timing: Total SCF Calculation
begin iterations for algorithm: DIIS         
the SCF tolerance is set to 1.00e-08
    1    -208.7043872109      1.26e-02     00000 
    2    -208.3203316977      1.55e-02     00000 
    3    -209.2235228071      2.48e-03     00000 
    4    -209.2432956898      8.30e-04     00000 
    5    -209.2460173081      1.24e-04     00000 
    6    -209.2461152124      4.92e-05     00000 
    7    -209.2461324418      1.11e-05     00000 
    8    -209.2461336049      2.10e-06     00000 
    9    -209.2461336947      7.64e-07     00000 
   10    -209.2461336989      3.17e-07     00000 
   11    -209.2461336998      6.96e-08     00000 
   12    -209.2461336999      1.66e-08     00000 
   13    -209.2461336999      4.35e-09     00000 Convergence criterion met
Timing for Total SCF: 363.00s (wall), 716.20s (cpu)

************** Final PCM Free Energy Summary **************
 G_electrostatic  =      -0.01220478 hartree =      -7.65861538 kcal/mol
 G_cavitation     =       0.00000000 hartree =       0.00000000 kcal/mol
 G_dispersion     =       0.00000000 hartree =       0.00000000 kcal/mol
 G_repulsion      =       0.00000000 hartree =       0.00000000 kcal/mol
 --------------------------------------------------
 Non-electrostatic Free Energy =       0.00000000 hartree =       0.00000000 kcal/mol
 Total                         =      -0.01220478 hartree =      -7.65861538 kcal/mol
 --------------------------------------------------
 SCF Energy (H0 + V/2)                       =    -209.24613370 
 Solute Internal Energy (H0)                 =    -209.23392892 
 Total Free Energy (H0 + V/2 + non-elec)     =    -209.24613370 hartree
                                             = -131303.93066683 kcal/mol
***********************************************************

E_pcm = -0.0122047805
Multipole orders to be included
        2
        3
computing dipole RHS
computing quadrupole RHS
total number of RHS in solve_reponses: 8
RHS batch sizes
        8
Beginning Block Conjugate Gradient Iterations. Batch Number: 0
computing hessian-vector products by finite difference
              1      5.93e-01     00000 Conjugate Gradient Iteration
computing hessian-vector products by finite difference
              2      1.98e-01     00000 Conjugate Gradient Iteration
computing hessian-vector products by finite difference
              3      5.18e-02     00000 Conjugate Gradient Iteration
computing hessian-vector products by finite difference
              4      1.30e-02     00000 Conjugate Gradient Iteration
computing hessian-vector products by finite difference
              5      1.97e-03     00000 Conjugate Gradient Iteration
computing hessian-vector products by finite difference
              6      4.33e-04     00000 Conjugate Gradient Iteration
computing hessian-vector products by finite difference
              7      6.27e-05     00000 Conjugate Gradient Iteration
computing hessian-vector products by finite difference
              8      8.62e-06     00000 Conjugate Gradient Iteration
computing hessian-vector products by finite difference
              9      1.57e-06     00000 Conjugate Gradient Iteration
computing hessian-vector products by finite difference
             10      2.68e-07     00000 Conjugate Gradient Iteration
computing hessian-vector products by finite difference
             11      4.11e-08     00000 Conjugate Gradient Iteration
computing hessian-vector products by finite difference
             12      6.50e-09     00000 CG Converged
batch 0 complete
Done Calculating Responses
TESTING ORTHOGONALIZATION OF MULTIPOLE BASIS
Multipole virts passed orthogonality test
Virts Per Order
        48
        80
 
 --------------------------------------------------------------
 
                    Orbital Energies (a.u.)
 --------------------------------------------------------------
 
 Alpha MOs
 -- Occupied --
-19.1775 -14.4354 -10.3771 -10.2728  -1.1718  -1.0466  -0.8721  -0.7149
 -0.6608  -0.5902  -0.5693  -0.5171  -0.5099  -0.4818  -0.3834  -0.3676
 -- Virtual --
  0.0594   0.0912   0.0932   0.0972   0.1265   0.1280   0.1356   0.1428
  0.1753   0.1814   0.1897   0.2082   0.2224   0.2421   0.2497   0.2577
  0.2620   0.2682   0.2918   0.3076   0.3283   0.3324   0.3399   0.3470
  0.3566   0.3631   0.3686   0.3726   0.3855   0.3999   0.4156   0.4195
  0.4352   0.4537   0.4599   0.4658   0.4774   0.4894   0.4952   0.5013
  0.5246   0.5267   0.5459   0.5648   0.5800   0.5933   0.6261   0.6322
  0.6361   0.6590   0.6771   0.6868   0.7147   0.7229   0.7283   0.7638
  0.7668   0.7806   0.7951   0.8058   0.8138   0.8352   0.8471   0.8643
  0.9087   0.9547   0.9743   0.9853   1.0154   1.0202   1.0564   1.0876
  1.1066   1.1726   1.2248   1.2429   1.2831   1.3195   1.3374   1.3760
  1.4805   1.4878   1.5118   1.6150   1.6688   1.7236   1.7363   1.8070
  1.8475   1.8632   1.8899   1.9106   1.9330   1.9533   1.9845   2.0329
  2.0461   2.0802   2.1341   2.1697   2.2076   2.2270   2.3060   2.3602
  2.3954   2.4327   2.4470   2.4742   2.5431   2.5649   2.5881   2.6184
  2.6616   2.6850   2.7789   2.7966   2.8347   2.8903   2.9558   2.9940
  3.0558   3.1060   3.1380   3.1445   3.2022   3.2265   3.2613   3.2884
  3.3090   3.3374   3.3699   3.4042   3.4510   3.4857   3.5460   3.5680
  3.6365   3.6451   3.6714   3.7916   3.8645   3.9351   4.0110   4.0357
  4.0672   4.1878   4.3090   4.4148   4.5055   4.5968   4.6283   4.6623
  4.7744   4.8849   4.8967   4.9293   5.1400   5.1787   5.2670   5.3456
  5.3777   5.3966   5.4084   5.4840   5.5281   5.7760   5.9184   6.1377
  6.2558   6.5296   6.6444   6.7436   6.8333   6.9774   7.2270   7.3251
 22.5788  23.5810  32.4062  44.3083
 --------------------------------------------------------------
 
          Ground-State Mulliken Net Atomic Charges

     Atom                 Charge (a.u.)
  ----------------------------------------
      1 C                    -0.589926
      2 C                     0.399597
      3 O                    -0.581684
      4 N                    -0.258946
      5 H                     0.208924
      6 H                     0.197000
      7 H                     0.235896
      8 H                     0.181689
      9 H                     0.207450
  ----------------------------------------
  Sum of atomic charges =     0.000000

 -----------------------------------------------------------------
                    Cartesian Multipole Moments
 -----------------------------------------------------------------
    Charge (ESU x 10^10)
                 0.0000
    Dipole Moment (Debye)
         X      -1.5655      Y       2.6632      Z      -4.1626
       Tot       5.1837
    Quadrupole Moments (Debye-Ang)
        XX     -23.0295     XY       4.0497     YY     -33.2894
        XZ      -7.6670     YZ      11.2726     ZZ     -39.4927
    Octopole Moments (Debye-Ang^2)
       XXX      -9.0814    XXY      33.1485    XYY     -15.8686
       YYY     122.9773    XXZ     -50.8103    XYZ      15.7618
       YYZ     -74.5611    XZZ     -28.2753    YZZ      72.2354
       ZZZ    -190.7329
    Hexadecapole Moments (Debye-Ang^3)
      XXXX    -156.4423   XXXY      29.4304   XXYY     -88.8115
      XYYY      59.0285   YYYY    -390.4923   XXXZ     -21.2238
      XXYZ      79.9972   XYYZ     -41.9110   YYYZ     278.0087
      XXZZ    -152.9419   XYZZ      58.6000   YYZZ    -252.6860
      XZZZ     -84.1034   YZZZ     337.3137   ZZZZ    -812.2809
 -----------------------------------------------------------------
Archival summary:
1\1\nid00504\SP\ProcedureUnspecified\BasisUnspecified\1125\meili\SunSep2612:09:222021SunSep2612:09:222021\0\\#,ProcedureUnspecified,BasisUnspecified,\\0,1\C\O,1,1.22885\N,1,1.32564,2,122.271\H,3,1.00735,1,118.127,2,2.28456,0\H,3,1.01665,1,121.187,2,174.452,0\C,1,1.51219,2,120.75,3,-177.703,0\H,6,1.08961,1,106.471,2,81.8941,0\H,6,1.08986,1,110.261,2,-162.134,0\H,6,1.09999,1,112.476,2,-38.3954,0\\\@

 Total job time:  6821.20s(wall), 13480.04s(cpu) 
 Sun Sep 26 12:09:25 2021

        *************************************************************
        *                                                           *
        *  Thank you very much for using Q-Chem.  Have a nice day.  *
        *                                                           *
        *************************************************************


Done Job For Fragment 1
calling putenv with: QCSCRATCH=/global/cscratch1/sd/meili 
calling putenv with: QCLOCALSCR=/tmp 
calling putenv with: QCTHREADS=32 
Doing General SCFMI
 Exchange:     0.1670 Hartree-Fock + 1.0000 wB97X-V + LR-HF
 Correlation:  1.0000 wB97X-V
 Using Euler-Maclaurin-Lebedev (99,590) quadrature formula
 Nonlocal Correlation:  VV10 with C = 0.0100 and b = 6.00 and scale = 1.00000
 Grid used for NLC:  SG-1 standard quadrature
performing fock build before subrot guess so that all methods have access
Printing subrot_rss_gen Method Specification:
Occupied Subspace Method is 0
Virtual Subspace Method is 0
Energy of the unrelaxed supersystem initial determinant -418.474264054655
performing fock build before subrot guess so that all methods have access
Printing subrot_rss_gen Method Specification:
Occupied Subspace Method is 0
Virtual Subspace Method is 0
Energy of the unrelaxed supersystem initial determinant w/ solvent -418.492540015387
write pseudocanon occs and virts to disk
write pseudocanon orbital energies to disk
Tolerance of ortho_decomp_scf: 1.00e-06
GDM subspace size: 20
Beginning the Orthogonal Decomposition of the Initial Supersystem Wavefunction
    1    -418.4142006757      9.25e-02     ortho_decomp Preconditoned Steepest Descent
    2    -418.4240318591      2.33e-03     ortho_decomp BFGS Step
    3    -418.4240676111      2.10e-04     ortho_decomp BFGS Step
    4    -418.4240676978      9.20e-06     ortho_decomp BFGS Step
    5    -418.4240676982      3.16e-07     ortho_decomp 00000 Convergence criterion met
 Hartree-Fock
 Hartree-Fock
 Hartree-Fock
Doing General SCFMI
 Exchange:     0.1670 Hartree-Fock + 1.0000 wB97X-V + LR-HF
 Correlation:  1.0000 wB97X-V
 Using Euler-Maclaurin-Lebedev (99,590) quadrature formula
 Nonlocal Correlation:  VV10 with C = 0.0100 and b = 6.00 and scale = 1.00000
 Grid used for NLC:  SG-1 standard quadrature
performing fock build at end of subrot_r(subrot) constructor so that all methods have access
<S^2> of initial wavefunction before polarization iterations 0.0000000000
Beginning iterations for the determination of the polarized wavefunction
Energy prior to optimization (guess energy) = -418.492540015387
Begin Timing: Total SCF Calculation
begin iterations for algorithm: DIIS         
the SCF tolerance is set to 1.00e-08
    1    -418.4925400154      2.37e-04     00000 
    2    -418.4948870724      8.40e-05     00000 
    3    -418.4951078256      5.87e-05     00000 
    4    -418.4951827087      2.08e-05     00000 
    5    -418.4951950018      8.62e-06     00000 
    6    -418.4951981793      3.67e-06     00000 
    7    -418.4951989222      1.38e-06     00000 
    8    -418.4951990373      5.33e-07     00000 
    9    -418.4951990504      1.14e-07     00000 
   10    -418.4951990510      7.30e-08     00000 
   11    -418.4951990512      3.42e-08     00000 
   12    -418.4951990512      1.04e-08     00000 
   13    -418.4951990512      4.30e-09     00000 Convergence criterion met
write pseudocanon occs and virts to disk
write pseudocanon orbital energies to disk
Timing for Total SCF: 2249.00s (wall), 4463.03s (cpu)
<S^2> of polarized wavefunction after polarization iterations 0.0000000000
relaxing scfmi constraint to allow all rotations in the entire AO span
Doing General SCFMI
 Exchange:     0.1670 Hartree-Fock + 1.0000 wB97X-V + LR-HF
 Correlation:  1.0000 wB97X-V
 Using Euler-Maclaurin-Lebedev (99,590) quadrature formula
 Nonlocal Correlation:  VV10 with C = 0.0100 and b = 6.00 and scale = 1.00000
 Grid used for NLC:  SG-1 standard quadrature
performing fock build at end of subrot_r(subrot) constructor so that all methods have access
<S^2> of polarized wavefunction before ct-allowed iterations 0.0000000000
Beginning iterations for the determination of the CT-Allowed wavefunction
Energy prior to optimization (guess energy) = -418.495199051200
Begin Timing: Total SCF Calculation
begin iterations for algorithm: DIIS         
the SCF tolerance is set to 1.00e-08
    1    -418.4951990512      2.14e-04     00000 
    2    -418.4993381342      3.45e-05     00000 
    3    -418.4995029854      1.75e-05     00000 
    4    -418.4995184560      7.98e-06     00000 
    5    -418.4995228712      1.51e-06     00000 
    6    -418.4995230764      4.99e-07     00000 
    7    -418.4995231123      1.63e-07     00000 
    8    -418.4995231153      5.67e-08     00000 
    9    -418.4995231158      1.81e-08     00000 
   10    -418.4995231159      1.08e-08     00000 
   11    -418.4995231159      2.96e-09     00000 Convergence criterion met
write pseudocanon occs and virts to disk
write pseudocanon orbital energies to disk
Timing for Total SCF: 1907.00s (wall), 3786.65s (cpu)
<S^2> of ct_allowed wavefunction after ct-allowed iterations 0.0000000000

================================
        Results of EDA2         
================================
Basic EDA Quantities
--------------------
Fragment Energies (Ha):
1 -209.2454397684
2 -209.2461336999
--------------------
  E_prp (kJ/mol) = -0.0000
  E_sol (kJ/mol) = 15.8383
  E_frz (kJ/mol) = -18.3760
  E_pol (kJ/mol) = -6.9814
  E_vct (kJ/mol) = -11.3530
  E_int (kJ/mol) = -20.8720
--------------------


Initial Wavefunction Decomposition
--------------------
  --------------------
  Orthogonal Fragment Subspace Decomposition:
  --------------------
     E_elec   (ELEC)   (kJ/mol) = -98.6008
     E_pauli  (PAULI)  (kJ/mol) = 93.8093
     E_disp   (DISP)   (kJ/mol) = -13.5844
     --------------------
     Terms summing to E_pauli:
     --------------------
        E_kep_pauli       (kJ/mol) = 113.4161
        E_disp_free_pauli (kJ/mol) = -19.6069
  --------------------
  Classical Frozen Decomposition:
  --------------------
     E_cls_elec  (CLS ELEC)  (kJ/mol) = -62.1317
     E_cls_pauli (CLS PAULI) (kJ/mol) = 43.7557
    [E_mod_pauli (MOD PAULI) (kJ/mol) = 57.3402 (CLS PAULI - DISP from orthogonal decomposition) ]
  --------------------
--------------------

Simplified EDA Summary (kJ/mol)
--------------------
 PREPARATION     -0.0000
 SOLVATION       15.8383
 FROZEN          -4.7915      (does not include dispersion)
[PAULI           93.8093]     (if this is negligible, then frozen describes electrostatics)
 DISPERSION      -13.5844
 POLARIZATION    -6.9814
 CHARGE TRANSFER -11.3530
 TOTAL           -20.8720     (PRP + SOL + FRZ + DISP + POL + CT)
--------------------
 
 --------------------------------------------------------------
 
                    Orbital Energies (a.u.)
 --------------------------------------------------------------
 
 Alpha MOs
 -- Occupied --
-19.1901 -19.1701 -14.4426 -14.4160 -10.3855 -10.3682 -10.2745 -10.2691
 -1.1869  -1.1637  -1.0562  -1.0331  -0.8781  -0.8669  -0.7233  -0.7035
 -0.6669  -0.6538  -0.5975  -0.5841  -0.5776  -0.5634  -0.5300  -0.5118
 -0.5068  -0.5052  -0.4900  -0.4756  -0.3939  -0.3827  -0.3723  -0.3595
 -- Virtual --
  0.0536   0.0701   0.0823   0.0846   0.0944   0.0993   0.1062   0.1185
  0.1234   0.1237   0.1311   0.1364   0.1388   0.1550   0.1629   0.1713
  0.1766   0.1803   0.1860   0.1994   0.2160   0.2169   0.2189   0.2354
  0.2395   0.2450   0.2536   0.2567   0.2587   0.2639   0.2808   0.2830
  0.2909   0.2965   0.3018   0.3060   0.3149   0.3209   0.3237   0.3306
  0.3342   0.3406   0.3425   0.3470   0.3575   0.3630   0.3646   0.3691
  0.3737   0.3766   0.3839   0.3908   0.3943   0.3985   0.4027   0.4047
  0.4141   0.4221   0.4270   0.4296   0.4400   0.4469   0.4555   0.4587
  0.4638   0.4716   0.4727   0.4800   0.4850   0.4875   0.4949   0.5009
  0.5026   0.5112   0.5221   0.5335   0.5367   0.5429   0.5506   0.5619
  0.5686   0.5720   0.5781   0.5828   0.5921   0.6084   0.6130   0.6160
  0.6278   0.6369   0.6428   0.6540   0.6585   0.6639   0.6687   0.6755
  0.6827   0.6904   0.7006   0.7120   0.7261   0.7309   0.7360   0.7456
  0.7507   0.7517   0.7580   0.7699   0.7795   0.7836   0.7922   0.7994
  0.8017   0.8102   0.8168   0.8227   0.8246   0.8366   0.8404   0.8630
  0.8757   0.8877   0.8913   0.9030   0.9135   0.9227   0.9414   0.9459
  0.9735   0.9879   1.0155   1.0185   1.0292   1.0431   1.0504   1.0511
  1.0731   1.0827   1.0973   1.1028   1.1081   1.1324   1.1495   1.1612
  1.1777   1.2127   1.2302   1.2498   1.2737   1.2774   1.2934   1.3083
  1.3275   1.3309   1.3460   1.3523   1.3539   1.3887   1.4040   1.4666
  1.4986   1.5184   1.5230   1.5306   1.5743   1.5894   1.6422   1.6768
  1.6819   1.7284   1.7460   1.7706   1.7812   1.8136   1.8305   1.8421
  1.8665   1.8875   1.8957   1.9099   1.9180   1.9263   1.9351   1.9558
  1.9639   1.9789   1.9928   1.9975   2.0174   2.0403   2.0445   2.0633
  2.0706   2.0985   2.1146   2.1541   2.1598   2.1838   2.1919   2.1967
  2.2226   2.2577   2.2771   2.3035   2.3344   2.3661   2.3855   2.4008
  2.4103   2.4370   2.4479   2.4730   2.4862   2.5036   2.5313   2.5630
  2.5715   2.5735   2.6020   2.6131   2.6241   2.6309   2.6331   2.6796
  2.6950   2.7008   2.7315   2.7857   2.7988   2.8160   2.8273   2.8361
  2.8478   2.8675   2.9135   2.9221   2.9700   3.0025   3.0259   3.0335
  3.0693   3.1102   3.1455   3.1511   3.1609   3.1718   3.1777   3.2071
  3.2271   3.2328   3.2563   3.2638   3.2780   3.2930   3.3097   3.3255
  3.3315   3.3379   3.3527   3.3707   3.3827   3.4046   3.4379   3.4405
  3.4630   3.4860   3.5263   3.5495   3.5630   3.5849   3.6314   3.6333
  3.6397   3.6597   3.6699   3.6803   3.6821   3.7132   3.7866   3.8186
  3.8885   3.8935   3.9568   3.9890   4.0095   4.0364   4.0579   4.0828
  4.1041   4.1198   4.1941   4.2094   4.2890   4.3381   4.4209   4.4503
  4.5199   4.5331   4.5917   4.6223   4.6376   4.6504   4.6821   4.6880
  4.7986   4.8211   4.8871   4.9067   4.9156   4.9561   4.9591   4.9663
  5.1532   5.1777   5.1885   5.2037   5.2614   5.2842   5.3392   5.3717
  5.3812   5.3990   5.4061   5.4171   5.4487   5.4890   5.5189   5.5313
  5.5484   5.5649   5.7791   5.7855   5.9214   5.9479   6.1395   6.1868
  6.2642   6.2831   6.5439   6.5807   6.6608   6.6763   6.7612   6.8058
  6.8395   6.8477   6.9878   6.9961   7.2361   7.2776   7.3448   7.3798
 22.6034  22.6056  23.6072  23.6232  32.4316  32.5618  44.3755  44.4033
 --------------------------------------------------------------
 
          Ground-State Mulliken Net Atomic Charges

     Atom                 Charge (a.u.)
  ----------------------------------------
      1 C                    -0.821513
      2 C                     0.527852
      3 O                    -0.680185
      4 N                    -0.225628
      5 H                     0.271799
      6 H                     0.218852
      7 H                     0.182819
      8 H                     0.198196
      9 H                     0.224523
     10 C                    -0.558867
     11 C                     0.406980
     12 O                    -0.604050
     13 N                    -0.089287
     14 H                     0.193632
     15 H                     0.156418
     16 H                     0.213964
     17 H                     0.170593
     18 H                     0.213902
  ----------------------------------------
  Sum of atomic charges =     0.000000

 -----------------------------------------------------------------
                    Cartesian Multipole Moments
 -----------------------------------------------------------------
    Charge (ESU x 10^10)
                 0.0000
    Dipole Moment (Debye)
         X      -3.0623      Y       8.2589      Z      -5.3289
       Tot      10.2949
    Quadrupole Moments (Debye-Ang)
        XX     -48.0370     XY       1.6680     YY     -44.8335
        XZ      -5.5705     YZ       4.1077     ZZ     -58.5987
    Octopole Moments (Debye-Ang^2)
       XXX      12.9088    XXY      -0.7316    XYY     -17.9472
       YYY      59.6038    XXZ      -4.8476    XYZ      19.7394
       YYZ     -46.6481    XZZ     -26.8259    YZZ      60.4027
       ZZZ     -73.3039
    Hexadecapole Moments (Debye-Ang^3)
      XXXX    -213.6667   XXXY      75.9918   XXYY    -167.2645
      XYYY      73.0674   YYYY    -693.3667   XXXZ     -71.0078
      XXYZ     147.1858   XYYZ     -47.3038   YYYZ     438.3756
      XXZZ    -282.8054   XYZZ      69.6383   YYZZ    -411.4686
      XZZZ    -124.0719   YZZZ     501.7877   ZZZZ   -1498.0908
 -----------------------------------------------------------------
Archival summary:
1\1\nid00504\SP\ProcedureUnspecified\BasisUnspecified\22410\meili\SunSep2614:02:252021SunSep2614:02:252021\0\\#,ProcedureUnspecified,BasisUnspecified,\\0,1\O\C,1,1.22472\N,2,1.32322,1,122.836\H,3,1.01374,2,119.558,1,174.556,0\H,3,1.01473,2,120.069,1,-1.21483,0\C,2,1.50317,1,120.393,3,-179.571,0\H,6,1.08537,2,109.157,1,150.006,0\H,6,1.08964,2,108.36,1,33.2221,0\H,6,1.09999,2,112.505,1,-88.0291,0\H,1,1.85681,2,130.15,3,0.208898,0\N,10,1.01665,1,158.241,2,-122.562,0\H,11,1.00735,10,120.218,1,6.77496,0\C,11,1.32564,10,121.187,1,-165.231,0\O,13,1.22885,11,122.271,10,174.452,0\C,13,1.51219,11,116.941,10,-7.76166,0\H,15,1.08961,13,106.471,11,-95.9275,0\H,15,1.08986,13,110.261,11,20.044,0\H,15,1.09999,13,112.476,11,143.783,0\\\@

 Total job time:  20317.65s(wall), 13482.09s(cpu) 
 Sun Sep 26 14:02:27 2021

        *************************************************************
        *                                                           *
        *  Thank you very much for using Q-Chem.  Have a nice day.  *
        *                                                           *
        *************************************************************


