
Running Job 1 of 1 SSI-083TYR-087PHE-1_SMD_TZVPD.in
qchem SSI-083TYR-087PHE-1_SMD_TZVPD.in_14151.0 /tmp/qchem14151/ 0
/global/common/cori/software/qchem/5.2/exe/qcprog.exe_s SSI-083TYR-087PHE-1_SMD_TZVPD.in_14151.0 /tmp/qchem14151/
                  Welcome to Q-Chem
     A Quantum Leap Into The Future Of Chemistry


 Q-Chem 5.2, Q-Chem, Inc., Pleasanton, CA (2019)

 License issued to: National Energy Research Scientific Computing Center

 Yihan Shao,  Zhengting Gan,  E. Epifanovsky,  A. T. B. Gilbert,  M. Wormit,  
 J. Kussmann,  A. W. Lange,  A. Behn,  Jia Deng,  Xintian Feng,  D. Ghosh,  
 M. Goldey,  P. R. Horn,  L. D. Jacobson,  I. Kaliman,  T. Kus,  A. Landau,  
 Jie Liu,  E. I. Proynov,  R. M. Richard,  R. P. Steele,  E. J. Sundstrom,  
 H. L. Woodcock III,  P. M. Zimmerman,  D. Zuev,  B. Albrecht,  E. Alguire,  
 S. A. Baeppler,  D. Barton,  Z. Benda,  Y. A. Bernard,  E. J. Berquist,  
 K. B. Bravaya,  H. Burton,  D. Casanova,  Chun-Min Chang,  Yunqing Chen,  
 A. Chien,  K. D. Closser,  M. P. Coons,  S. Coriani,  S. Dasgupta,  
 A. L. Dempwolff,  M. Diedenhofen,  Hainam Do,  R. G. Edgar,  Po-Tung Fang,  
 S. Faraji,  S. Fatehi,  Qingguo Feng,  K. D. Fenk,  J. Fosso-Tande,  
 J. Gayvert,  Qinghui Ge,  A. Ghysels,  G. Gidofalvi,  J. Gomes,  
 J. Gonthier,  A. Gunina,  D. Hait,  M. W. D. Hanson-Heine,  
 P. H. P. Harbach,  A. W. Hauser,  M. F. Herbst,  J. E. Herr,  
 E. G. Hohenstein,  Z. C. Holden,  Kerwin Hui,  B. C. Huynh,  T.-C. Jagau,  
 Hyunjun Ji,  B. Kaduk,  K. Khistyaev,  Jaehoon Kim,  P. Klunzinger,  K. Koh,  
 D. Kosenkov,  L. Koulias,  T. Kowalczyk,  C. M. Krauter,  A. Kunitsa,  
 Ka Un Lao,  A. Laurent,  K. V. Lawler,  Joonho Lee,  D. Lefrancois,  
 S. Lehtola,  D. S. Levine,  Yi-Pei Li,  You-Sheng Lin,  Fenglai Liu,  
 E. Livshits,  A. Luenser,  P. Manohar,  E. Mansoor,  S. F. Manzer,  
 Shan-Ping Mao,  Yuezhi Mao,  N. Mardirossian,  A. V. Marenich,  
 T. Markovich,  L. A. Martinez-Martinez,  S. A. Maurer,  N. J. Mayhall,  
 S. C. McKenzie,  J.-M. Mewes,  P. Morgante,  A. F. Morrison,  
 J. W. Mullinax,  K. Nanda,  T. S. Nguyen-Beck,  R. Olivares-Amaya,  
 J. A. Parkhill,  Zheng Pei,  T. M. Perrine,  F. Plasser,  P. Pokhilko,  
 S. Prager,  A. Prociuk,  E. Ramos,  D. R. Rehn,  F. Rob,  M. Scheurer,  
 M. Schneider,  N. Sergueev,  S. M. Sharada,  S. Sharma,  D. W. Small,  
 T. Stauch,  T. Stein,  Yu-Chuan Su,  A. J. W. Thom,  A. Tkatchenko,  
 T. Tsuchimochi,  N. M. Tubman,  L. Vogt,  M. L. Vidal,  O. Vydrov,  
 M. A. Watson,  J. Wenzel,  M. de Wergifosse,  T. A. Wesolowski,  A. White,  
 J. Witte,  A. Yamada,  Jun Yang,  K. Yao,  S. Yeganeh,  S. R. Yost,  
 Zhi-Qiang You,  A. Zech,  Igor Ying Zhang,  Xing Zhang,  Yan Zhao,  
 Ying Zhu,  B. R. Brooks,  G. K. L. Chan,  C. J. Cramer,  M. S. Gordon,  
 W. J. Hehre,  A. Klamt,  M. W. Schmidt,  C. D. Sherrill,  D. G. Truhlar,  
 A. Aspuru-Guzik,  R. Baer,  A. T. Bell,  N. A. Besley,  Jeng-Da Chai,  
 A. E. DePrince, III,  R. A. DiStasio Jr.,  A. Dreuw,  B. D. Dunietz,  
 T. R. Furlani,  Chao-Ping Hsu,  Yousung Jung,  Jing Kong,  D. S. Lambrecht,  
 WanZhen Liang,  C. Ochsenfeld,  V. A. Rassolov,  L. V. Slipchenko,  
 J. E. Subotnik,  T. Van Voorhis,  J. M. Herbert,  A. I. Krylov,  
 P. M. W. Gill,  M. Head-Gordon

 Contributors to earlier versions of Q-Chem not listed above: 
 R. D. Adamson,  B. Austin,  J. Baker,  G. J. O. Beran,  K. Brandhorst,  
 S. T. Brown,  E. F. C. Byrd,  A. K. Chakraborty,  C.-L. Cheng,  
 Siu Hung Chien,  D. M. Chipman,  D. L. Crittenden,  H. Dachsel,  
 R. J. Doerksen,  A. D. Dutoi,  L. Fusti-Molnar,  W. A. Goddard III,  
 A. Golubeva-Zadorozhnaya,  S. R. Gwaltney,  G. Hawkins,  A. Heyden,  
 S. Hirata,  G. Kedziora,  F. J. Keil,  C. Kelley,  Jihan Kim,  R. A. King,  
 R. Z. Khaliullin,  P. P. Korambath,  W. Kurlancheek,  A. M. Lee,  M. S. Lee,  
 S. V. Levchenko,  Ching Yeh Lin,  D. Liotard,  R. C. Lochan,  I. Lotan,  
 P. E. Maslen,  N. Nair,  D. P. O'Neill,  D. Neuhauser,  E. Neuscamman,  
 C. M. Oana,  R. Olson,  B. Peters,  R. Peverati,  P. A. Pieniazek,  
 Y. M. Rhee,  J. Ritchie,  M. A. Rohrdanz,  E. Rosta,  N. J. Russ,  
 H. F. Schaefer III,  N. E. Schultz,  N. Shenvi,  A. C. Simmonett,  A. Sodt,  
 D. Stuck,  K. S. Thanthiriwatte,  V. Vanovschi,  Tao Wang,  A. Warshel,  
 C. F. Williams,  Q. Wu,  X. Xu,  W. Zhang

 Please cite Q-Chem as follows:
 Y. Shao et al., Mol. Phys. 113, 184-215 (2015)
 DOI: 10.1080/00268976.2014.952696

 Q-Chem 5.2.0 for Intel X86 EM64T Linux

 Parts of Q-Chem use Armadillo 8.300.2 (Tropical Shenanigans).
 http://arma.sourceforge.net/

 Q-Chem begins on Sun Sep 26 11:49:06 2021  

Host: cori01
0

     Scratch files written to /tmp/qchem14151//
 May1019 |scratch|qcdevops|jenkins|workspace|build_RNUM -1
Processing $rem in /global/common/cori/software/qchem/5.2/config/preferences:
	 MEM_TOTAL  96000 
NAlpha2: 108
NElect   108
Mult     1
Symmetry turned off for PCM/SM12/SMD calculation

 Q-Chem warning in module libgen/rem_setup.C, line 2803:

 Neither GIA nor STOLL is specified by user. Use STOLL as the default


Checking the input file for inconsistencies... 	...done.

--------------------------------------------------------------
User input:
--------------------------------------------------------------
$comment
SSI-083TYR-087PHE-1.pdb
$end

$molecule
0 1
--
0 1
C    1.992251441556    2.412848117238    0.365645147772
C    0.353251441556    0.768848117238   -0.610354852228
C    0.826251441556    2.081848117238   -0.526354852228
C   -0.737748558444    0.454848117238   -1.416354852228
C    0.194251441556    3.082848117238   -1.269354852228
C   -1.351748558444    1.459848117238   -2.163354852228
C   -0.890748558444    2.775848117238   -2.089354852228
O   -2.409748558444    1.180848117238   -2.969354852228
H    0.835251441556   -0.012151882762   -0.042354852228
H   -1.121748558444   -0.552151882762   -1.452354852228
H    2.320251441556    1.509848117238    0.877645147772
H    1.641251441556    3.109848117238    1.127645147772
H    0.548251441556    4.104848117238   -1.210354852228
H   -1.360748558444    3.554848117238   -2.673354852228
H   -2.675748558444    1.933848117238   -3.504354852228
H    2.850186441556    2.858028117238   -0.159488852228
--
0 1
C    1.059251441556   -0.416151882762    3.243645147772
C   -0.741748558444   -1.727151882762    2.059645147772
C    0.617251441556   -1.461151882762    2.249645147772
C   -1.157748558444   -2.667151882762    1.115645147772
C    1.553251441556   -2.130151882762    1.460645147772
C   -0.215748558444   -3.344151882762    0.341645147772
C    1.141251441556   -3.072151882762    0.512645147772
H   -1.481748558444   -1.208151882762    2.653645147772
H   -2.212748558444   -2.874151882762    0.988645147772
H    0.220251441556    0.244848117238    3.453645147772
H    1.824251441556    0.202848117238    2.774645147772
H    2.606251441556   -1.925151882762    1.588645147772
H   -0.537748558444   -4.077151882762   -0.385354852228
H    1.875251441556   -3.594151882762   -0.083354852228
H    1.461623441556   -0.809251882762    4.188934147772
$end

$rem
JOBTYPE			EDA
EDA2			1
method			wB97X-V
BASIS			def2-TZVPD
XC_GRID			000099000590
NL_GRID			1
UNRESTRICTED		FALSE
MAX_SCF_CYCLES		200
SYMMETRY		FALSE
SYM_IGNORE		TRUE
MEM_STATIC		2000
BASIS_LIN_DEP_THRESH 	6
THRESH 			14
SCF_CONVERGENCE 	8
SCF_PRINT_FRGM 		TRUE
SOLVENT_METHOD          SMD
$end

$SMX
SOLVENT			WATER
$END
--------------------------------------------------------------
 ----------------------------------------------------------------
             Standard Nuclear Orientation (Angstroms)
    I     Atom           X                Y                Z
 ----------------------------------------------------------------
    1      C       1.9922514416     2.4128481172     0.3656451478
    2      C       0.3532514416     0.7688481172    -0.6103548522
    3      C       0.8262514416     2.0818481172    -0.5263548522
    4      C      -0.7377485584     0.4548481172    -1.4163548522
    5      C       0.1942514416     3.0828481172    -1.2693548522
    6      C      -1.3517485584     1.4598481172    -2.1633548522
    7      C      -0.8907485584     2.7758481172    -2.0893548522
    8      O      -2.4097485584     1.1808481172    -2.9693548522
    9      H       0.8352514416    -0.0121518828    -0.0423548522
   10      H      -1.1217485584    -0.5521518828    -1.4523548522
   11      H       2.3202514416     1.5098481172     0.8776451478
   12      H       1.6412514416     3.1098481172     1.1276451478
   13      H       0.5482514416     4.1048481172    -1.2103548522
   14      H      -1.3607485584     3.5548481172    -2.6733548522
   15      H      -2.6757485584     1.9338481172    -3.5043548522
   16      H       2.8501864416     2.8580281172    -0.1594888522
   17      C       1.0592514416    -0.4161518828     3.2436451478
   18      C      -0.7417485584    -1.7271518828     2.0596451478
   19      C       0.6172514416    -1.4611518828     2.2496451478
   20      C      -1.1577485584    -2.6671518828     1.1156451478
   21      C       1.5532514416    -2.1301518828     1.4606451478
   22      C      -0.2157485584    -3.3441518828     0.3416451478
   23      C       1.1412514416    -3.0721518828     0.5126451478
   24      H      -1.4817485584    -1.2081518828     2.6536451478
   25      H      -2.2127485584    -2.8741518828     0.9886451478
   26      H       0.2202514416     0.2448481172     3.4536451478
   27      H       1.8242514416     0.2028481172     2.7746451478
   28      H       2.6062514416    -1.9251518828     1.5886451478
   29      H      -0.5377485584    -4.0771518828    -0.3853548522
   30      H       1.8752514416    -3.5941518828    -0.0833548522
   31      H       1.4616234416    -0.8092518828     4.1889341478
 ----------------------------------------------------------------
 Nuclear Repulsion Energy =         902.87305990 hartrees
 There are       54 alpha and       54 beta electrons
 Requested basis set is def2-TZVPD
 There are 276 shells and 702 basis functions

 Total QAlloc Memory Limit  96000 MB
 Mega-Array Size      1956 MB
 MEM_STATIC part      2000 MB
 
 Citation of the SMD model:
 Marenich, A.V.; Cramer, C.J.; Truhlar, D.G.
 J. Phys. Chem. B 2009, 113, 6378-6396.
 iSolventCode=           1
 Solvent: water                                                           
 
 vradii
            1           2           3           4           5           6
    1   1.8500000   1.8500000   1.8500000   1.8500000   1.8500000   1.8500000
            7           8           9          10          11          12
    1   1.8500000   1.5200000   1.2000000   1.2000000   1.2000000   1.2000000
           13          14          15          16          17          18
    1   1.2000000   1.2000000   1.2000000   1.2000000   1.8500000   1.8500000
           19          20          21          22          23          24
    1   1.8500000   1.8500000   1.8500000   1.8500000   1.8500000   1.2000000
           25          26          27          28          29          30
    1   1.2000000   1.2000000   1.2000000   1.2000000   1.2000000   1.2000000
           31
    1   1.2000000
 Changing PCM_VDW_RADII to SMD_RADIUS
 Discretize the solute cavity surface with Lebedev spheres
	Using 110 Lebedev grid points for each H atom
	Using 194 Lebedev grid points for other atoms
	Atomic van der Waals radii will be scaled by 1.20
 Remove points where switching function is < 1.0e-08
 Keep 2270 surface tesserae and discard 2400 interior tesserae
 Molecular Surface Area = 268.632 Angst**2
 A cutoff of  1.0D-14 yielded  32932 shell pairs
 There are    214240 function pairs (    270956 Cartesian)
 Smallest overlap matrix eigenvalue = 4.20E-07
 Linear dependence detected in AO basis
 Tighter screening thresholds may be required for diffuse basis sets
 Use S2THRESH > 14 and THRESH = 14 in case of SCF convergence issues
 Number of orthogonalized atomic orbitals = 698
 Maximum deviation from orthogonality = 2.905E-10

 Scale SEOQF with 1.000000e-01/1.000000e-01/1.000000e-01

 Standard Electronic Orientation quadrupole field applied
 Nucleus-field energy     =     0.0000000044 hartrees

 -----------------------------------------------------------------------
  General SCF calculation program by
  Eric Jon Sundstrom, Paul Horn, Yuezhi Mao, Dmitri Zuev, Alec White,
  David Stuck, Shaama M.S., Shane Yost, Joonho Lee, David Small,
  Daniel Levine, Susi Lehtola, Hugh Burton, Evgeny Epifanovsky
 -----------------------------------------------------------------------
================================================================
                 ALMO-EDA with the EDA2 driver                  
================================================================
 The second-generation ALMO-EDA (for DFT):                      
 P. R. Horn, Y. Mao and M. Head-Gordon, PCCP, 18, 23067 (2016)  
 Decomposition of the frozen energy:                            
 P. R. Horn, Y. Mao and M. Head-Gordon, JCP, 144, 114107 (2016) 
 FERF model for polarization:                                   
 P. R. Horn and M. Head-Gordon, JCP, 143, 114111 (2015)         
Using eda2 option set 1
Option set summary: Frozen orbital wavefunction, initial wavefunction decomposition, and nDQ polarization.
--------------------------------
Printing EDA Options
--------------------------------
eda_child_super_basis      0
fragmo_guess_mode          0
child_mp                   1
child_mp_orders            232
cls_elec                   1
cls_disp                   0
scfmi_mode                 1
scfmi_occs                 0
scfmi_virts                0
frz_relax                  0
frz_relax_method           0
dc_pen_start               0
dc_pen_conv                0
dc_pen_increment           0
dc_pen_steps               0
dc_pen_thresh_factor       0
dc_pen_pre_newton_thresh   0
frz_ortho_decomp           1
frz_ortho_decomp_conv      6
frgm_method                2
scfmi_freeze_ss            0
separate_rehyb             0
plot_diff_den              0
eda_nocv                   0
eda_vct_relax              1
disp_free_x                0
disp_free_c                0
eda_bsse                   0
eda_pct_a                  0
eda_covp                   0
--------------------------------
Attempting to make child job directory: /tmp/qchem14151//Frg1/
Attempting to make child job directory: /tmp/qchem14151//Frg2/
Creating input file /tmp/qchem14151/Frg1.input
using default PutDataFrgm: nothing
calling putenv with: QCSCRATCH=/tmp/qchem14151/ 
calling putenv with: QCLOCALSCR=/tmp/qchem14151/ 
Spawning Job For Fragment 0
                  Welcome to Q-Chem
     A Quantum Leap Into The Future Of Chemistry


 Q-Chem 5.2, Q-Chem, Inc., Pleasanton, CA (2019)

 License issued to: National Energy Research Scientific Computing Center

 Yihan Shao,  Zhengting Gan,  E. Epifanovsky,  A. T. B. Gilbert,  M. Wormit,  
 J. Kussmann,  A. W. Lange,  A. Behn,  Jia Deng,  Xintian Feng,  D. Ghosh,  
 M. Goldey,  P. R. Horn,  L. D. Jacobson,  I. Kaliman,  T. Kus,  A. Landau,  
 Jie Liu,  E. I. Proynov,  R. M. Richard,  R. P. Steele,  E. J. Sundstrom,  
 H. L. Woodcock III,  P. M. Zimmerman,  D. Zuev,  B. Albrecht,  E. Alguire,  
 S. A. Baeppler,  D. Barton,  Z. Benda,  Y. A. Bernard,  E. J. Berquist,  
 K. B. Bravaya,  H. Burton,  D. Casanova,  Chun-Min Chang,  Yunqing Chen,  
 A. Chien,  K. D. Closser,  M. P. Coons,  S. Coriani,  S. Dasgupta,  
 A. L. Dempwolff,  M. Diedenhofen,  Hainam Do,  R. G. Edgar,  Po-Tung Fang,  
 S. Faraji,  S. Fatehi,  Qingguo Feng,  K. D. Fenk,  J. Fosso-Tande,  
 J. Gayvert,  Qinghui Ge,  A. Ghysels,  G. Gidofalvi,  J. Gomes,  
 J. Gonthier,  A. Gunina,  D. Hait,  M. W. D. Hanson-Heine,  
 P. H. P. Harbach,  A. W. Hauser,  M. F. Herbst,  J. E. Herr,  
 E. G. Hohenstein,  Z. C. Holden,  Kerwin Hui,  B. C. Huynh,  T.-C. Jagau,  
 Hyunjun Ji,  B. Kaduk,  K. Khistyaev,  Jaehoon Kim,  P. Klunzinger,  K. Koh,  
 D. Kosenkov,  L. Koulias,  T. Kowalczyk,  C. M. Krauter,  A. Kunitsa,  
 Ka Un Lao,  A. Laurent,  K. V. Lawler,  Joonho Lee,  D. Lefrancois,  
 S. Lehtola,  D. S. Levine,  Yi-Pei Li,  You-Sheng Lin,  Fenglai Liu,  
 E. Livshits,  A. Luenser,  P. Manohar,  E. Mansoor,  S. F. Manzer,  
 Shan-Ping Mao,  Yuezhi Mao,  N. Mardirossian,  A. V. Marenich,  
 T. Markovich,  L. A. Martinez-Martinez,  S. A. Maurer,  N. J. Mayhall,  
 S. C. McKenzie,  J.-M. Mewes,  P. Morgante,  A. F. Morrison,  
 J. W. Mullinax,  K. Nanda,  T. S. Nguyen-Beck,  R. Olivares-Amaya,  
 J. A. Parkhill,  Zheng Pei,  T. M. Perrine,  F. Plasser,  P. Pokhilko,  
 S. Prager,  A. Prociuk,  E. Ramos,  D. R. Rehn,  F. Rob,  M. Scheurer,  
 M. Schneider,  N. Sergueev,  S. M. Sharada,  S. Sharma,  D. W. Small,  
 T. Stauch,  T. Stein,  Yu-Chuan Su,  A. J. W. Thom,  A. Tkatchenko,  
 T. Tsuchimochi,  N. M. Tubman,  L. Vogt,  M. L. Vidal,  O. Vydrov,  
 M. A. Watson,  J. Wenzel,  M. de Wergifosse,  T. A. Wesolowski,  A. White,  
 J. Witte,  A. Yamada,  Jun Yang,  K. Yao,  S. Yeganeh,  S. R. Yost,  
 Zhi-Qiang You,  A. Zech,  Igor Ying Zhang,  Xing Zhang,  Yan Zhao,  
 Ying Zhu,  B. R. Brooks,  G. K. L. Chan,  C. J. Cramer,  M. S. Gordon,  
 W. J. Hehre,  A. Klamt,  M. W. Schmidt,  C. D. Sherrill,  D. G. Truhlar,  
 A. Aspuru-Guzik,  R. Baer,  A. T. Bell,  N. A. Besley,  Jeng-Da Chai,  
 A. E. DePrince, III,  R. A. DiStasio Jr.,  A. Dreuw,  B. D. Dunietz,  
 T. R. Furlani,  Chao-Ping Hsu,  Yousung Jung,  Jing Kong,  D. S. Lambrecht,  
 WanZhen Liang,  C. Ochsenfeld,  V. A. Rassolov,  L. V. Slipchenko,  
 J. E. Subotnik,  T. Van Voorhis,  J. M. Herbert,  A. I. Krylov,  
 P. M. W. Gill,  M. Head-Gordon

 Contributors to earlier versions of Q-Chem not listed above: 
 R. D. Adamson,  B. Austin,  J. Baker,  G. J. O. Beran,  K. Brandhorst,  
 S. T. Brown,  E. F. C. Byrd,  A. K. Chakraborty,  C.-L. Cheng,  
 Siu Hung Chien,  D. M. Chipman,  D. L. Crittenden,  H. Dachsel,  
 R. J. Doerksen,  A. D. Dutoi,  L. Fusti-Molnar,  W. A. Goddard III,  
 A. Golubeva-Zadorozhnaya,  S. R. Gwaltney,  G. Hawkins,  A. Heyden,  
 S. Hirata,  G. Kedziora,  F. J. Keil,  C. Kelley,  Jihan Kim,  R. A. King,  
 R. Z. Khaliullin,  P. P. Korambath,  W. Kurlancheek,  A. M. Lee,  M. S. Lee,  
 S. V. Levchenko,  Ching Yeh Lin,  D. Liotard,  R. C. Lochan,  I. Lotan,  
 P. E. Maslen,  N. Nair,  D. P. O'Neill,  D. Neuhauser,  E. Neuscamman,  
 C. M. Oana,  R. Olson,  B. Peters,  R. Peverati,  P. A. Pieniazek,  
 Y. M. Rhee,  J. Ritchie,  M. A. Rohrdanz,  E. Rosta,  N. J. Russ,  
 H. F. Schaefer III,  N. E. Schultz,  N. Shenvi,  A. C. Simmonett,  A. Sodt,  
 D. Stuck,  K. S. Thanthiriwatte,  V. Vanovschi,  Tao Wang,  A. Warshel,  
 C. F. Williams,  Q. Wu,  X. Xu,  W. Zhang

 Please cite Q-Chem as follows:
 Y. Shao et al., Mol. Phys. 113, 184-215 (2015)
 DOI: 10.1080/00268976.2014.952696

 Q-Chem 5.2.0 for Intel X86 EM64T Linux

 Parts of Q-Chem use Armadillo 8.300.2 (Tropical Shenanigans).
 http://arma.sourceforge.net/

 Q-Chem begins on Sun Sep 26 11:55:21 2021  

Host: cori01
0

     Scratch files written to /tmp/qchem14151//Frg1//
 May1019 |scratch|qcdevops|jenkins|workspace|build_RNUM -1
Processing $rem in /global/common/cori/software/qchem/5.2/config/preferences:
	 MEM_TOTAL  96000 
NAlpha2: 58
NElect   58
Mult     1
Symmetry turned off for PCM/SM12/SMD calculation

Checking the input file for inconsistencies... 	...done.

--------------------------------------------------------------
User input:
--------------------------------------------------------------
$molecule
0 1
 6	1.9922514416	2.4128481172	0.3656451478
 6	0.3532514416	0.7688481172	-0.6103548522
 6	0.8262514416	2.0818481172	-0.5263548522
 6	-0.7377485584	0.4548481172	-1.4163548522
 6	0.1942514416	3.0828481172	-1.2693548522
 6	-1.3517485584	1.4598481172	-2.1633548522
 6	-0.8907485584	2.7758481172	-2.0893548522
 8	-2.4097485584	1.1808481172	-2.9693548522
 1	0.8352514416	-0.0121518828	-0.0423548522
 1	-1.1217485584	-0.5521518828	-1.4523548522
 1	2.3202514416	1.5098481172	0.8776451478
 1	1.6412514416	3.1098481172	1.1276451478
 1	0.5482514416	4.1048481172	-1.2103548522
 1	-1.3607485584	3.5548481172	-2.6733548522
 1	-2.6757485584	1.9338481172	-3.5043548522
 1	2.8501864416	2.8580281172	-0.1594888522
$end
$rem
EDA2		1
METHOD		WB97X-V
BASIS		DEF2-TZVPD
XC_GRID		000099000590
NL_GRID		1
UNRESTRICTED		FALSE
MAX_SCF_CYCLES		200
SYMMETRY		FALSE
SYM_IGNORE		TRUE
BASIS_LIN_DEP_THRESH		6
THRESH		14
SCF_CONVERGENCE		8
SCF_PRINT_FRGM		TRUE
SOLVENT_METHOD		SMD
!required keywords
JOBTYPE		SP
SYM_IGNORE		TRUE
SUBSYSTEM		TRUE
GEN_SCFMAN		TRUE
CHILD_INSTRUCTION		2
SYM_IGNORE		TRUE
SCFMI		0
RI_K 0		
PARI_K 0		
MIN_PARI_K 0		
IARI_K 0		
OCC_RI_K 0		
PURECART		1111
MEM_STATIC		2000
MEM_TOTAL		96000
GUI		0
CHILD_MP		1
CHILD_MP_ORDERS		232
FRZ_RELAX		0
FRZ_RELAX_METHOD		0
EDA_CLS_ELEC		1
EDA_CLS_DISP		0
FRZ_ORTHO_DECOMP		1
EDA2		FALSE
FRGM_METHOD		FALSE
CIS_N_ROOTS  0
LOCAL_CIS    0
CIS_RLX_DNS  1
$end
$smx
SOLVENT			WATER
$end
--------------------------------------------------------------
 ----------------------------------------------------------------
             Standard Nuclear Orientation (Angstroms)
    I     Atom           X                Y                Z
 ----------------------------------------------------------------
    1      C       1.9922514416     2.4128481172     0.3656451478
    2      C       0.3532514416     0.7688481172    -0.6103548522
    3      C       0.8262514416     2.0818481172    -0.5263548522
    4      C      -0.7377485584     0.4548481172    -1.4163548522
    5      C       0.1942514416     3.0828481172    -1.2693548522
    6      C      -1.3517485584     1.4598481172    -2.1633548522
    7      C      -0.8907485584     2.7758481172    -2.0893548522
    8      O      -2.4097485584     1.1808481172    -2.9693548522
    9      H       0.8352514416    -0.0121518828    -0.0423548522
   10      H      -1.1217485584    -0.5521518828    -1.4523548522
   11      H       2.3202514416     1.5098481172     0.8776451478
   12      H       1.6412514416     3.1098481172     1.1276451478
   13      H       0.5482514416     4.1048481172    -1.2103548522
   14      H      -1.3607485584     3.5548481172    -2.6733548522
   15      H      -2.6757485584     1.9338481172    -3.5043548522
   16      H       2.8501864416     2.8580281172    -0.1594888522
 ----------------------------------------------------------------
 Nuclear Repulsion Energy =         342.99820487 hartrees
 There are       29 alpha and       29 beta electrons
 Requested basis set is def2-TZVPD
 There are 145 shells and 371 basis functions

 Total QAlloc Memory Limit  96000 MB
 Mega-Array Size      1956 MB
 MEM_STATIC part      2000 MB
 
 Citation of the SMD model:
 Marenich, A.V.; Cramer, C.J.; Truhlar, D.G.
 J. Phys. Chem. B 2009, 113, 6378-6396.
 iSolventCode=           1
 Solvent: water                                                           
 
 vradii
            1           2           3           4           5           6
    1   1.8500000   1.8500000   1.8500000   1.8500000   1.8500000   1.8500000
            7           8           9          10          11          12
    1   1.8500000   1.5200000   1.2000000   1.2000000   1.2000000   1.2000000
           13          14          15          16
    1   1.2000000   1.2000000   1.2000000   1.2000000
 Changing PCM_VDW_RADII to SMD_RADIUS
 Discretize the solute cavity surface with Lebedev spheres
	Using 110 Lebedev grid points for each H atom
	Using 194 Lebedev grid points for other atoms
	Atomic van der Waals radii will be scaled by 1.20
 Remove points where switching function is < 1.0e-08
 Keep 1184 surface tesserae and discard 1248 interior tesserae
 Molecular Surface Area = 141.272 Angst**2
 A cutoff of  1.0D-14 yielded  10047 shell pairs
 There are     67093 function pairs (     85795 Cartesian)
 Smallest overlap matrix eigenvalue = 5.69E-07
 Linear dependence detected in AO basis
 Tighter screening thresholds may be required for diffuse basis sets
 Use S2THRESH > 14 and THRESH = 14 in case of SCF convergence issues
 Number of orthogonalized atomic orbitals = 370
 Maximum deviation from orthogonality = 1.232E-10

 Scale SEOQF with 1.000000e-01/1.000000e-01/1.000000e-01

 Standard Electronic Orientation quadrupole field applied
 Nucleus-field energy     =     0.0000000031 hartrees
 Guess from superposition of atomic densities
 Warning:  Energy on first SCF cycle will be non-variational
 SAD guess density has 57.738434 electrons

 -----------------------------------------------------------------------
  General SCF calculation program by
  Eric Jon Sundstrom, Paul Horn, Yuezhi Mao, Dmitri Zuev, Alec White,
  David Stuck, Shaama M.S., Shane Yost, Joonho Lee, David Small,
  Daniel Levine, Susi Lehtola, Hugh Burton, Evgeny Epifanovsky
 -----------------------------------------------------------------------
 Exchange:     0.1670 Hartree-Fock + 1.0000 wB97X-V + LR-HF
 Correlation:  1.0000 wB97X-V
 Using Euler-Maclaurin-Lebedev (99,590) quadrature formula
 Nonlocal Correlation:  VV10 with C = 0.0100 and b = 6.00 and scale = 1.00000
 Grid used for NLC:  SG-1 standard quadrature
Energy prior to optimization (guess energy) = -346.496808791604
Begin Timing: Total SCF Calculation
begin iterations for algorithm: DIIS         
the SCF tolerance is set to 1.00e-08
    1    -346.4968087916      5.17e-03     00000 
    2    -346.4410844546      5.57e-03     00000 
    3    -346.8201544376      5.29e-04     00000 
    4    -346.8249858622      1.74e-04     00000 
    5    -346.8256745765      3.66e-05     00000 
    6    -346.8257237420      1.24e-05     00000 
    7    -346.8257281795      4.59e-06     00000 
    8    -346.8257288268      1.39e-06     00000 
    9    -346.8257289107      4.30e-07     00000 
   10    -346.8257289225      2.53e-07     00000 
   11    -346.8257289259      7.40e-08     00000 
   12    -346.8257289266      3.36e-08     00000 
   13    -346.8257289267      1.45e-08     00000 
   14    -346.8257289268      3.46e-09     00000 Convergence criterion met
Timing for Total SCF: 2211.00s (wall), 4398.16s (cpu)
(3)  G-ENP(liq) elect-nuc-pol free energy of system     -346.825728927 a.u.
(4)  G-CDS(liq) cavity-dispersion-solvent structure 
     free energy                                                3.8075 kcal/mol
(6)  G-S(liq) free energy of system                     -346.819661356 a.u.
E_pcm = -0.0174930143
E_cds = 0.0060675705
Multipole orders to be included
        2
        3
computing dipole RHS
computing quadrupole RHS
total number of RHS in solve_reponses: 8
RHS batch sizes
        8
Beginning Block Conjugate Gradient Iterations. Batch Number: 0
computing hessian-vector products by finite difference
              1      6.36e-01     00000 Conjugate Gradient Iteration
computing hessian-vector products by finite difference
              2      2.02e-01     00000 Conjugate Gradient Iteration
computing hessian-vector products by finite difference
              3      5.35e-02     00000 Conjugate Gradient Iteration
computing hessian-vector products by finite difference
              4      1.72e-02     00000 Conjugate Gradient Iteration
computing hessian-vector products by finite difference
              5      4.99e-03     00000 Conjugate Gradient Iteration
computing hessian-vector products by finite difference
              6      1.96e-03     00000 Conjugate Gradient Iteration
computing hessian-vector products by finite difference
              7      4.46e-04     00000 Conjugate Gradient Iteration
computing hessian-vector products by finite difference
              8      8.95e-05     00000 Conjugate Gradient Iteration
computing hessian-vector products by finite difference
              9      1.69e-05     00000 Conjugate Gradient Iteration
computing hessian-vector products by finite difference
             10      2.39e-06     00000 Conjugate Gradient Iteration
computing hessian-vector products by finite difference
             11      3.09e-07     00000 Conjugate Gradient Iteration
computing hessian-vector products by finite difference
             12      5.46e-08     00000 Conjugate Gradient Iteration
computing hessian-vector products by finite difference
             13      1.07e-08     00000 Conjugate Gradient Iteration
computing hessian-vector products by finite difference
             14      3.82e-09     00000 CG Converged
batch 0 complete
Done Calculating Responses
TESTING ORTHOGONALIZATION OF MULTIPOLE BASIS
Multipole virts passed orthogonality test
Virts Per Order
           87
          145
 
 --------------------------------------------------------------
 
                    Orbital Energies (a.u.)
 --------------------------------------------------------------
 
 Alpha MOs
 -- Occupied --
-19.2390 -10.3314 -10.2714 -10.2688 -10.2687 -10.2664 -10.2662 -10.2521
 -1.1910  -0.9896  -0.8954  -0.8789  -0.8035  -0.7418  -0.7091  -0.6606
 -0.5968  -0.5744  -0.5446  -0.5370  -0.5279  -0.5158  -0.5043  -0.4706
 -0.4492  -0.4385  -0.4341  -0.3495  -0.3081
 -- Virtual --
  0.0633   0.0637   0.0744   0.0822   0.0888   0.0996   0.1139   0.1155
  0.1184   0.1367   0.1502   0.1569   0.1612   0.1782   0.1860   0.1970
  0.2049   0.2098   0.2210   0.2352   0.2362   0.2448   0.2528   0.2606
  0.2687   0.2747   0.2791   0.2831   0.2856   0.3004   0.3007   0.3068
  0.3104   0.3152   0.3174   0.3311   0.3375   0.3459   0.3499   0.3573
  0.3609   0.3632   0.3712   0.3730   0.3806   0.3843   0.3872   0.3967
  0.4017   0.4021   0.4059   0.4094   0.4180   0.4242   0.4330   0.4361
  0.4402   0.4602   0.4637   0.4657   0.4797   0.4843   0.4857   0.4892
  0.4975   0.4990   0.5059   0.5126   0.5141   0.5172   0.5292   0.5418
  0.5463   0.5505   0.5566   0.5587   0.5594   0.5698   0.5831   0.5960
  0.6041   0.6118   0.6191   0.6250   0.6513   0.6618   0.6634   0.6732
  0.6827   0.6851   0.6977   0.7017   0.7069   0.7145   0.7212   0.7320
  0.7377   0.7445   0.7479   0.7567   0.7633   0.7726   0.7859   0.7885
  0.7924   0.7945   0.7995   0.8039   0.8090   0.8253   0.8307   0.8353
  0.8467   0.8568   0.8600   0.8634   0.8721   0.8784   0.8845   0.8934
  0.9103   0.9151   0.9457   0.9497   0.9623   0.9924   1.0061   1.0174
  1.0208   1.0439   1.0487   1.0538   1.0584   1.0675   1.0835   1.0941
  1.0984   1.1234   1.1398   1.1629   1.2055   1.2386   1.2796   1.2983
  1.3198   1.3230   1.3294   1.3614   1.3750   1.3845   1.4076   1.4470
  1.4512   1.4692   1.4755   1.4908   1.5321   1.5720   1.6162   1.6316
  1.6477   1.6574   1.6677   1.6794   1.7074   1.7386   1.7519   1.8033
  1.8246   1.8342   1.8396   1.8513   1.8690   1.8862   1.9199   1.9265
  1.9473   1.9637   1.9840   1.9911   1.9942   2.0330   2.0466   2.0544
  2.0620   2.0780   2.0873   2.1176   2.1235   2.1711   2.2033   2.2093
  2.2291   2.2540   2.2747   2.2925   2.3101   2.3256   2.3430   2.3730
  2.4029   2.4086   2.4439   2.4695   2.4871   2.5022   2.5333   2.5595
  2.5850   2.6220   2.6328   2.6458   2.6600   2.6686   2.6952   2.7460
  2.7639   2.7738   2.7781   2.8083   2.8231   2.8378   2.8658   2.8770
  2.9139   2.9225   2.9356   2.9520   2.9745   2.9810   2.9912   3.0175
  3.0284   3.0440   3.0633   3.0844   3.1017   3.1413   3.1570   3.1660
  3.1893   3.2054   3.2192   3.2237   3.2421   3.2622   3.2927   3.3051
  3.3136   3.3705   3.3892   3.3949   3.4045   3.4230   3.4477   3.4558
  3.4587   3.4817   3.4931   3.5158   3.5248   3.5299   3.5432   3.5472
  3.5527   3.5713   3.5753   3.5977   3.6081   3.6326   3.6488   3.6951
  3.6984   3.7068   3.7462   3.7526   3.8008   3.8184   3.8557   3.9294
  3.9473   3.9569   3.9819   3.9968   4.0432   4.0869   4.1642   4.1716
  4.2506   4.2685   4.2848   4.3152   4.3208   4.3380   4.3466   4.3599
  4.3774   4.3950   4.4258   4.4765   4.4946   4.5462   4.5902   4.6244
  4.7465   4.7652   4.8066   4.8076   4.8364   4.9311   5.0259   5.0648
  5.0919   5.1316   5.1634   5.3020   5.3348   5.4047   5.4487   5.5426
  5.6142   5.6582   5.7127   5.7686   5.9567   6.2193   6.4987   6.5918
  6.6513   6.8794   7.0135   7.3058   7.4597  22.6850  22.6979  22.9322
 22.9991  23.0308  23.1810  23.5043  44.4255
 --------------------------------------------------------------
 
          Ground-State Mulliken Net Atomic Charges

     Atom                 Charge (a.u.)
  ----------------------------------------
      1 C                    -1.068738
      2 C                    -0.463018
      3 C                     0.477448
      4 C                    -0.813139
      5 C                    -0.617422
      6 C                     0.675428
      7 C                    -0.336657
      8 O                    -0.544190
      9 H                     0.367506
     10 H                     0.402413
     11 H                     0.294698
     12 H                     0.249659
     13 H                     0.408016
     14 H                     0.368981
     15 H                     0.327549
     16 H                     0.271464
  ----------------------------------------
  Sum of atomic charges =     0.000000

 -----------------------------------------------------------------
                    Cartesian Multipole Moments
 -----------------------------------------------------------------
    Charge (ESU x 10^10)
                 0.0000
    Dipole Moment (Debye)
         X       0.4463      Y       1.9755      Z      -0.3135
       Tot       2.0494
    Quadrupole Moments (Debye-Ang)
        XX     -47.2400     XY      -3.4199     YY     -36.6376
        XZ       5.0275     YZ      -8.4089     ZZ     -44.4635
    Octopole Moments (Debye-Ang^2)
       XXX      28.0219    XXY     -71.3745    XYY      -3.1216
       YYY    -216.9296    XXZ      52.6368    XYZ      24.5696
       YYZ      29.6221    XZZ     -13.7815    YZZ     -54.9344
       ZZZ     163.9339
    Hexadecapole Moments (Debye-Ang^3)
      XXXX    -606.0460   XXXY     -48.5747   XXYY    -264.2493
      XYYY     -43.5423   YYYY   -1110.4862   XXXZ    -216.5656
      XXYZ      40.3106   XYYZ      -7.8408   YYYZ     207.8428
      XXZZ    -193.3705   XYZZ    -105.3241   YYZZ    -255.2286
      XZZZ    -146.0632   YZZZ     194.8790   ZZZZ    -767.8332
 -----------------------------------------------------------------
Archival summary:
1\1\nid00551\SP\ProcedureUnspecified\BasisUnspecified\178\meili\SunSep2622:40:072021SunSep2622:40:072021\0\\#,ProcedureUnspecified,BasisUnspecified,\\0,1\C\O,1,1.35899\H,2,0.961244,1,112.626\C,1,1.39464,2,120.829,3,-173.354,0\H,4,1.07833,1,119.887,2,-1.85019,0\C,4,1.3923,1,119.507,2,179.324,0\H,6,1.07931,4,119.432,1,-179.236,0\C,1,1.39637,2,118.812,3,6.9532,0\H,8,1.08111,1,120.46,2,-0.766262,0\C,8,1.39423,1,119.71,2,-179.938,0\H,10,1.08318,8,119.612,1,-179.777,0\C,10,1.39767,8,120.454,1,0.279219,0\C,12,1.50492,10,120.525,8,-179.629,0\H,13,1.08864,12,109.255,10,178.218,0\H,13,1.09071,12,107.777,10,61.8598,0\H,13,1.1,12,114.226,10,-59.4421,0\\\@

 Total job time:  38688.03s(wall), 76892.52s(cpu) 
 Sun Sep 26 22:40:09 2021

        *************************************************************
        *                                                           *
        *  Thank you very much for using Q-Chem.  Have a nice day.  *
        *                                                           *
        *************************************************************


Done Job For Fragment 0
calling putenv with: QCSCRATCH=/global/cscratch1/sd/meili 
calling putenv with: QCLOCALSCR=/tmp 
calling putenv with: QCTHREADS=32 
Creating input file /tmp/qchem14151/Frg2.input
using default PutDataFrgm: nothing
calling putenv with: QCSCRATCH=/tmp/qchem14151/ 
calling putenv with: QCLOCALSCR=/tmp/qchem14151/ 
Spawning Job For Fragment 1
                  Welcome to Q-Chem
     A Quantum Leap Into The Future Of Chemistry


 Q-Chem 5.2, Q-Chem, Inc., Pleasanton, CA (2019)

 License issued to: National Energy Research Scientific Computing Center

 Yihan Shao,  Zhengting Gan,  E. Epifanovsky,  A. T. B. Gilbert,  M. Wormit,  
 J. Kussmann,  A. W. Lange,  A. Behn,  Jia Deng,  Xintian Feng,  D. Ghosh,  
 M. Goldey,  P. R. Horn,  L. D. Jacobson,  I. Kaliman,  T. Kus,  A. Landau,  
 Jie Liu,  E. I. Proynov,  R. M. Richard,  R. P. Steele,  E. J. Sundstrom,  
 H. L. Woodcock III,  P. M. Zimmerman,  D. Zuev,  B. Albrecht,  E. Alguire,  
 S. A. Baeppler,  D. Barton,  Z. Benda,  Y. A. Bernard,  E. J. Berquist,  
 K. B. Bravaya,  H. Burton,  D. Casanova,  Chun-Min Chang,  Yunqing Chen,  
 A. Chien,  K. D. Closser,  M. P. Coons,  S. Coriani,  S. Dasgupta,  
 A. L. Dempwolff,  M. Diedenhofen,  Hainam Do,  R. G. Edgar,  Po-Tung Fang,  
 S. Faraji,  S. Fatehi,  Qingguo Feng,  K. D. Fenk,  J. Fosso-Tande,  
 J. Gayvert,  Qinghui Ge,  A. Ghysels,  G. Gidofalvi,  J. Gomes,  
 J. Gonthier,  A. Gunina,  D. Hait,  M. W. D. Hanson-Heine,  
 P. H. P. Harbach,  A. W. Hauser,  M. F. Herbst,  J. E. Herr,  
 E. G. Hohenstein,  Z. C. Holden,  Kerwin Hui,  B. C. Huynh,  T.-C. Jagau,  
 Hyunjun Ji,  B. Kaduk,  K. Khistyaev,  Jaehoon Kim,  P. Klunzinger,  K. Koh,  
 D. Kosenkov,  L. Koulias,  T. Kowalczyk,  C. M. Krauter,  A. Kunitsa,  
 Ka Un Lao,  A. Laurent,  K. V. Lawler,  Joonho Lee,  D. Lefrancois,  
 S. Lehtola,  D. S. Levine,  Yi-Pei Li,  You-Sheng Lin,  Fenglai Liu,  
 E. Livshits,  A. Luenser,  P. Manohar,  E. Mansoor,  S. F. Manzer,  
 Shan-Ping Mao,  Yuezhi Mao,  N. Mardirossian,  A. V. Marenich,  
 T. Markovich,  L. A. Martinez-Martinez,  S. A. Maurer,  N. J. Mayhall,  
 S. C. McKenzie,  J.-M. Mewes,  P. Morgante,  A. F. Morrison,  
 J. W. Mullinax,  K. Nanda,  T. S. Nguyen-Beck,  R. Olivares-Amaya,  
 J. A. Parkhill,  Zheng Pei,  T. M. Perrine,  F. Plasser,  P. Pokhilko,  
 S. Prager,  A. Prociuk,  E. Ramos,  D. R. Rehn,  F. Rob,  M. Scheurer,  
 M. Schneider,  N. Sergueev,  S. M. Sharada,  S. Sharma,  D. W. Small,  
 T. Stauch,  T. Stein,  Yu-Chuan Su,  A. J. W. Thom,  A. Tkatchenko,  
 T. Tsuchimochi,  N. M. Tubman,  L. Vogt,  M. L. Vidal,  O. Vydrov,  
 M. A. Watson,  J. Wenzel,  M. de Wergifosse,  T. A. Wesolowski,  A. White,  
 J. Witte,  A. Yamada,  Jun Yang,  K. Yao,  S. Yeganeh,  S. R. Yost,  
 Zhi-Qiang You,  A. Zech,  Igor Ying Zhang,  Xing Zhang,  Yan Zhao,  
 Ying Zhu,  B. R. Brooks,  G. K. L. Chan,  C. J. Cramer,  M. S. Gordon,  
 W. J. Hehre,  A. Klamt,  M. W. Schmidt,  C. D. Sherrill,  D. G. Truhlar,  
 A. Aspuru-Guzik,  R. Baer,  A. T. Bell,  N. A. Besley,  Jeng-Da Chai,  
 A. E. DePrince, III,  R. A. DiStasio Jr.,  A. Dreuw,  B. D. Dunietz,  
 T. R. Furlani,  Chao-Ping Hsu,  Yousung Jung,  Jing Kong,  D. S. Lambrecht,  
 WanZhen Liang,  C. Ochsenfeld,  V. A. Rassolov,  L. V. Slipchenko,  
 J. E. Subotnik,  T. Van Voorhis,  J. M. Herbert,  A. I. Krylov,  
 P. M. W. Gill,  M. Head-Gordon

 Contributors to earlier versions of Q-Chem not listed above: 
 R. D. Adamson,  B. Austin,  J. Baker,  G. J. O. Beran,  K. Brandhorst,  
 S. T. Brown,  E. F. C. Byrd,  A. K. Chakraborty,  C.-L. Cheng,  
 Siu Hung Chien,  D. M. Chipman,  D. L. Crittenden,  H. Dachsel,  
 R. J. Doerksen,  A. D. Dutoi,  L. Fusti-Molnar,  W. A. Goddard III,  
 A. Golubeva-Zadorozhnaya,  S. R. Gwaltney,  G. Hawkins,  A. Heyden,  
 S. Hirata,  G. Kedziora,  F. J. Keil,  C. Kelley,  Jihan Kim,  R. A. King,  
 R. Z. Khaliullin,  P. P. Korambath,  W. Kurlancheek,  A. M. Lee,  M. S. Lee,  
 S. V. Levchenko,  Ching Yeh Lin,  D. Liotard,  R. C. Lochan,  I. Lotan,  
 P. E. Maslen,  N. Nair,  D. P. O'Neill,  D. Neuhauser,  E. Neuscamman,  
 C. M. Oana,  R. Olson,  B. Peters,  R. Peverati,  P. A. Pieniazek,  
 Y. M. Rhee,  J. Ritchie,  M. A. Rohrdanz,  E. Rosta,  N. J. Russ,  
 H. F. Schaefer III,  N. E. Schultz,  N. Shenvi,  A. C. Simmonett,  A. Sodt,  
 D. Stuck,  K. S. Thanthiriwatte,  V. Vanovschi,  Tao Wang,  A. Warshel,  
 C. F. Williams,  Q. Wu,  X. Xu,  W. Zhang

 Please cite Q-Chem as follows:
 Y. Shao et al., Mol. Phys. 113, 184-215 (2015)
 DOI: 10.1080/00268976.2014.952696

 Q-Chem 5.2.0 for Intel X86 EM64T Linux

 Parts of Q-Chem use Armadillo 8.300.2 (Tropical Shenanigans).
 http://arma.sourceforge.net/

 Q-Chem begins on Sun Sep 26 22:40:13 2021  

Host: cori01
0

     Scratch files written to /tmp/qchem14151//Frg2//
 May1019 |scratch|qcdevops|jenkins|workspace|build_RNUM -1
Processing $rem in /global/common/cori/software/qchem/5.2/config/preferences:
	 MEM_TOTAL  96000 
NAlpha2: 50
NElect   50
Mult     1
Symmetry turned off for PCM/SM12/SMD calculation

Checking the input file for inconsistencies... 	...done.

--------------------------------------------------------------
User input:
--------------------------------------------------------------
$molecule
0 1
 6	1.0592514416	-0.4161518828	3.2436451478
 6	-0.7417485584	-1.7271518828	2.0596451478
 6	0.6172514416	-1.4611518828	2.2496451478
 6	-1.1577485584	-2.6671518828	1.1156451478
 6	1.5532514416	-2.1301518828	1.4606451478
 6	-0.2157485584	-3.3441518828	0.3416451478
 6	1.1412514416	-3.0721518828	0.5126451478
 1	-1.4817485584	-1.2081518828	2.6536451478
 1	-2.2127485584	-2.8741518828	0.9886451478
 1	0.2202514416	0.2448481172	3.4536451478
 1	1.8242514416	0.2028481172	2.7746451478
 1	2.6062514416	-1.9251518828	1.5886451478
 1	-0.5377485584	-4.0771518828	-0.3853548522
 1	1.8752514416	-3.5941518828	-0.0833548522
 1	1.4616234416	-0.8092518828	4.1889341478
$end
$rem
EDA2		1
METHOD		WB97X-V
BASIS		DEF2-TZVPD
XC_GRID		000099000590
NL_GRID		1
UNRESTRICTED		FALSE
MAX_SCF_CYCLES		200
SYMMETRY		FALSE
SYM_IGNORE		TRUE
BASIS_LIN_DEP_THRESH		6
THRESH		14
SCF_CONVERGENCE		8
SCF_PRINT_FRGM		TRUE
SOLVENT_METHOD		SMD
!required keywords
JOBTYPE		SP
SYM_IGNORE		TRUE
SUBSYSTEM		TRUE
GEN_SCFMAN		TRUE
CHILD_INSTRUCTION		2
SYM_IGNORE		TRUE
SCFMI		0
RI_K 0		
PARI_K 0		
MIN_PARI_K 0		
IARI_K 0		
OCC_RI_K 0		
PURECART		1111
MEM_STATIC		2000
MEM_TOTAL		96000
GUI		0
CHILD_MP		1
CHILD_MP_ORDERS		232
FRZ_RELAX		0
FRZ_RELAX_METHOD		0
EDA_CLS_ELEC		1
EDA_CLS_DISP		0
FRZ_ORTHO_DECOMP		1
EDA2		FALSE
FRGM_METHOD		FALSE
CIS_N_ROOTS  0
LOCAL_CIS    0
CIS_RLX_DNS  1
$end
$smx
SOLVENT			WATER
$end
--------------------------------------------------------------
 ----------------------------------------------------------------
             Standard Nuclear Orientation (Angstroms)
    I     Atom           X                Y                Z
 ----------------------------------------------------------------
    1      C       1.0592514416    -0.4161518828     3.2436451478
    2      C      -0.7417485584    -1.7271518828     2.0596451478
    3      C       0.6172514416    -1.4611518828     2.2496451478
    4      C      -1.1577485584    -2.6671518828     1.1156451478
    5      C       1.5532514416    -2.1301518828     1.4606451478
    6      C      -0.2157485584    -3.3441518828     0.3416451478
    7      C       1.1412514416    -3.0721518828     0.5126451478
    8      H      -1.4817485584    -1.2081518828     2.6536451478
    9      H      -2.2127485584    -2.8741518828     0.9886451478
   10      H       0.2202514416     0.2448481172     3.4536451478
   11      H       1.8242514416     0.2028481172     2.7746451478
   12      H       2.6062514416    -1.9251518828     1.5886451478
   13      H      -0.5377485584    -4.0771518828    -0.3853548522
   14      H       1.8752514416    -3.5941518828    -0.0833548522
   15      H       1.4616234416    -0.8092518828     4.1889341478
 ----------------------------------------------------------------
 Nuclear Repulsion Energy =         269.27252917 hartrees
 There are       25 alpha and       25 beta electrons
 Requested basis set is def2-TZVPD
 There are 131 shells and 331 basis functions

 Total QAlloc Memory Limit  96000 MB
 Mega-Array Size      1956 MB
 MEM_STATIC part      2000 MB
 
 Citation of the SMD model:
 Marenich, A.V.; Cramer, C.J.; Truhlar, D.G.
 J. Phys. Chem. B 2009, 113, 6378-6396.
 iSolventCode=           1
 Solvent: water                                                           
 
 vradii
            1           2           3           4           5           6
    1   1.8500000   1.8500000   1.8500000   1.8500000   1.8500000   1.8500000
            7           8           9          10          11          12
    1   1.8500000   1.2000000   1.2000000   1.2000000   1.2000000   1.2000000
           13          14          15
    1   1.2000000   1.2000000   1.2000000
 Changing PCM_VDW_RADII to SMD_RADIUS
 Discretize the solute cavity surface with Lebedev spheres
	Using 110 Lebedev grid points for each H atom
	Using 194 Lebedev grid points for other atoms
	Atomic van der Waals radii will be scaled by 1.20
 Remove points where switching function is < 1.0e-08
 Keep 1095 surface tesserae and discard 1143 interior tesserae
 Molecular Surface Area = 132.532 Angst**2

                       Distance Matrix (Angstroms)
             C (  1)   C (  2)   C (  3)   C (  4)   C (  5)   C (  6)
   C (  2)  2.522732
   C (  3)  1.508451  1.397761
   C (  4)  3.809262  1.395633  2.427142
   C (  5)  2.522087  2.405875  1.395055  2.785124
   C (  6)  4.315138  2.417207  2.807141  1.394550  2.419776
   C (  7)  3.810436  2.783509  2.426328  2.411024  1.398503  1.394516
   H (  8)  2.726178  1.081572  2.152447  2.144551  3.388887  3.392727
   H (  9)  4.672555  2.150928  3.405230  1.082591  3.867696  2.151167
   H ( 10)  1.088550  2.599512  2.125479  3.980562  3.374843  4.770279
   H ( 11)  1.090113  3.289450  2.121643  4.458868  2.691268  4.760493
   H ( 12)  2.722006  3.386761  2.146704  3.865487  1.080379  3.395917
   H ( 13)  5.396570  3.397373  3.888535  2.150698  3.401589  1.081435
   H ( 14)  4.672737  3.863525  3.402226  3.390578  2.151956  2.148350
   H ( 15)  1.100001  3.198634  2.213319  4.444998  3.032612  4.903155
             C (  7)   H (  8)   H (  9)   H ( 10)   H ( 11)   H ( 12)
   H (  8)  3.865036
   H (  9)  3.393390  2.466200
   H ( 10)  4.527716  2.376555  4.660888
   H ( 11)  4.038410  3.596554  5.380994  1.742303
   H ( 12)  2.149328  4.284864  4.948066  3.725603  2.558614
   H ( 13)  2.153014  4.284602  2.478046  5.830280  5.820914  4.290981
   H ( 14)  1.080026  4.945060  4.287112  5.476067  4.752681  2.472955
   H ( 15)  4.328794  3.343602  5.292133  1.786836  1.776530  3.052361
             H ( 13)   H ( 14)
   H ( 14)  2.479327
   H ( 15)  5.966639  5.116562
 
 A cutoff of  1.0D-14 yielded   8360 shell pairs
 There are     54510 function pairs (     69464 Cartesian)
 Smallest overlap matrix eigenvalue = 5.78E-07
 Linear dependence detected in AO basis
 Tighter screening thresholds may be required for diffuse basis sets
 Use S2THRESH > 14 and THRESH = 14 in case of SCF convergence issues
 Number of orthogonalized atomic orbitals = 330
 Maximum deviation from orthogonality = 2.084E-10

 Scale SEOQF with 1.000000e-01/1.000000e-01/1.000000e-01

 Standard Electronic Orientation quadrupole field applied
 Nucleus-field energy     =     0.0000000013 hartrees
 Guess from superposition of atomic densities
 Warning:  Energy on first SCF cycle will be non-variational
 SAD guess density has 49.913408 electrons

 -----------------------------------------------------------------------
  General SCF calculation program by
  Eric Jon Sundstrom, Paul Horn, Yuezhi Mao, Dmitri Zuev, Alec White,
  David Stuck, Shaama M.S., Shane Yost, Joonho Lee, David Small,
  Daniel Levine, Susi Lehtola, Hugh Burton, Evgeny Epifanovsky
 -----------------------------------------------------------------------
 Exchange:     0.1670 Hartree-Fock + 1.0000 wB97X-V + LR-HF
 Correlation:  1.0000 wB97X-V
 Using Euler-Maclaurin-Lebedev (99,590) quadrature formula
 Nonlocal Correlation:  VV10 with C = 0.0100 and b = 6.00 and scale = 1.00000
 Grid used for NLC:  SG-1 standard quadrature
Energy prior to optimization (guess energy) = -271.520878001875
Begin Timing: Total SCF Calculation
begin iterations for algorithm: DIIS         
the SCF tolerance is set to 1.00e-08
    1    -271.5208780019      1.94e-03     00000 
    2    -271.5614712197      1.26e-03     00000 
    3    -271.5847987544      1.55e-04     00000 
    4    -271.5854985714      4.53e-05     00000 
    5    -271.5855484632      2.03e-05     00000 
    6    -271.5855554716      5.17e-06     00000 
    7    -271.5855561551      8.78e-07     00000 
    8    -271.5855561768      3.73e-07     00000 
    9    -271.5855561796      9.52e-08     00000 
   10    -271.5855561799      2.83e-08     00000 
   11    -271.5855561799      1.24e-08     00000 
   12    -271.5855561799      5.50e-09     00000 Convergence criterion met
Timing for Total SCF: 1345.00s (wall), 2676.30s (cpu)
(3)  G-ENP(liq) elect-nuc-pol free energy of system     -271.585556180 a.u.
(4)  G-CDS(liq) cavity-dispersion-solvent structure 
     free energy                                                3.1909 kcal/mol
(6)  G-S(liq) free energy of system                     -271.580471136 a.u.
E_pcm = -0.0075390284
E_cds = 0.0050850437
Multipole orders to be included
        2
        3
computing dipole RHS
computing quadrupole RHS
total number of RHS in solve_reponses: 8
RHS batch sizes
        8
Beginning Block Conjugate Gradient Iterations. Batch Number: 0
computing hessian-vector products by finite difference
              1      6.36e-01     00000 Conjugate Gradient Iteration
computing hessian-vector products by finite difference
              2      2.00e-01     00000 Conjugate Gradient Iteration
computing hessian-vector products by finite difference
              3      4.74e-02     00000 Conjugate Gradient Iteration
computing hessian-vector products by finite difference
              4      1.17e-02     00000 Conjugate Gradient Iteration
computing hessian-vector products by finite difference
              5      2.64e-03     00000 Conjugate Gradient Iteration
computing hessian-vector products by finite difference
              6      8.06e-04     00000 Conjugate Gradient Iteration
computing hessian-vector products by finite difference
              7      1.57e-04     00000 Conjugate Gradient Iteration
computing hessian-vector products by finite difference
              8      2.59e-05     00000 Conjugate Gradient Iteration
computing hessian-vector products by finite difference
              9      4.22e-06     00000 Conjugate Gradient Iteration
computing hessian-vector products by finite difference
             10      6.50e-07     00000 Conjugate Gradient Iteration
computing hessian-vector products by finite difference
             11      1.36e-07     00000 Conjugate Gradient Iteration
computing hessian-vector products by finite difference
             12      2.07e-08     00000 Conjugate Gradient Iteration
computing hessian-vector products by finite difference
             13      3.54e-09     00000 CG Converged
batch 0 complete
Done Calculating Responses
TESTING ORTHOGONALIZATION OF MULTIPOLE BASIS
Multipole virts passed orthogonality test
Virts Per Order
           75
          125
 
 --------------------------------------------------------------
 
                    Orbital Energies (a.u.)
 --------------------------------------------------------------
 
 Alpha MOs
 -- Occupied --
-10.2787 -10.2693 -10.2690 -10.2663 -10.2655 -10.2654 -10.2538  -0.9917
 -0.9010  -0.8734  -0.8070  -0.7248  -0.7002  -0.6236  -0.5673  -0.5610
 -0.5282  -0.5232  -0.5086  -0.4791  -0.4689  -0.4355  -0.4349  -0.3457
 -0.3350
 -- Virtual --
  0.0659   0.0682   0.0713   0.0844   0.0899   0.1094   0.1158   0.1182
  0.1409   0.1596   0.1713   0.1760   0.1898   0.1948   0.2002   0.2059
  0.2267   0.2304   0.2391   0.2441   0.2555   0.2644   0.2658   0.2755
  0.2847   0.2873   0.2937   0.2966   0.2984   0.3051   0.3063   0.3149
  0.3230   0.3298   0.3368   0.3426   0.3552   0.3557   0.3701   0.3787
  0.3817   0.3869   0.3896   0.3922   0.3960   0.4047   0.4071   0.4121
  0.4178   0.4332   0.4348   0.4400   0.4442   0.4526   0.4553   0.4569
  0.4694   0.4745   0.4768   0.4875   0.4977   0.5018   0.5165   0.5191
  0.5227   0.5279   0.5394   0.5449   0.5489   0.5534   0.5565   0.5707
  0.5848   0.5895   0.5978   0.6008   0.6031   0.6264   0.6427   0.6481
  0.6653   0.6779   0.6854   0.6913   0.6952   0.7002   0.7252   0.7272
  0.7326   0.7390   0.7486   0.7615   0.7668   0.7704   0.7813   0.7898
  0.7940   0.7968   0.8016   0.8056   0.8122   0.8258   0.8300   0.8349
  0.8388   0.8419   0.8494   0.8584   0.8650   0.8745   0.8905   0.8987
  0.9135   0.9198   0.9376   0.9464   0.9544   1.0127   1.0308   1.0404
  1.0487   1.0653   1.0760   1.0809   1.0917   1.1004   1.1060   1.1423
  1.1642   1.1804   1.2562   1.2770   1.2998   1.3318   1.3530   1.3567
  1.3812   1.4397   1.4504   1.4627   1.4698   1.4837   1.5290   1.5394
  1.6056   1.6120   1.6184   1.6293   1.6679   1.6796   1.7425   1.7860
  1.7932   1.8035   1.8040   1.8200   1.8319   1.8683   1.8921   1.9138
  1.9213   1.9279   1.9434   1.9692   1.9903   1.9954   2.0186   2.0287
  2.0351   2.0523   2.0732   2.0963   2.1186   2.1271   2.1769   2.1847
  2.2045   2.2339   2.2440   2.2789   2.2926   2.3147   2.3894   2.3984
  2.4054   2.4148   2.4807   2.5106   2.5393   2.5597   2.5616   2.6157
  2.6210   2.6290   2.6759   2.6901   2.7009   2.7143   2.7598   2.7704
  2.7877   2.8127   2.8180   2.8488   2.8613   2.8974   2.9105   2.9213
  2.9363   2.9445   2.9679   2.9788   2.9938   3.0211   3.0261   3.0526
  3.0615   3.0960   3.1021   3.1171   3.1790   3.1981   3.2073   3.2165
  3.2375   3.2467   3.2871   3.2937   3.3368   3.3561   3.3643   3.3818
  3.4089   3.4444   3.4477   3.4541   3.4647   3.4815   3.4895   3.4969
  3.5092   3.5342   3.5426   3.5462   3.5564   3.5690   3.5830   3.6071
  3.6253   3.6383   3.6557   3.6939   3.7057   3.7526   3.7781   3.8149
  3.8508   3.8948   3.9118   3.9471   3.9500   3.9996   4.0339   4.0504
  4.1236   4.2004   4.2708   4.2736   4.2886   4.3129   4.3295   4.3383
  4.3506   4.3681   4.3878   4.3951   4.4237   4.4465   4.4818   4.5270
  4.5928   4.6216   4.7445   4.7662   4.8288   4.8715   4.9107   4.9454
  5.0202   5.0463   5.1671   5.2628   5.3587   5.3773   5.4990   5.5305
  5.6663   5.8521  22.5839  22.6731  22.8836  22.8921  23.0009  23.0632
 23.4051
 --------------------------------------------------------------
 
          Ground-State Mulliken Net Atomic Charges

     Atom                 Charge (a.u.)
  ----------------------------------------
      1 C                    -1.090051
      2 C                    -0.420680
      3 C                     0.815157
      4 C                    -0.565089
      5 C                    -0.383435
      6 C                    -0.569799
      7 C                    -0.537417
      8 H                     0.376244
      9 H                     0.372469
     10 H                     0.299628
     11 H                     0.271146
     12 H                     0.402999
     13 H                     0.398725
     14 H                     0.378923
     15 H                     0.251179
  ----------------------------------------
  Sum of atomic charges =     0.000000

 -----------------------------------------------------------------
                    Cartesian Multipole Moments
 -----------------------------------------------------------------
    Charge (ESU x 10^10)
                -0.0000
    Dipole Moment (Debye)
         X       0.1785      Y       0.3931      Z       0.3331
       Tot       0.5453
    Quadrupole Moments (Debye-Ang)
        XX     -37.3809     XY       0.2167     YY     -43.6204
        XZ       0.1877     YZ       4.5662     ZZ     -40.7205
    Octopole Moments (Debye-Ang^2)
       XXX     -40.3723    XXY      76.6786    XYY     -16.1472
       YYY     267.3541    XXZ     -61.5584    XYZ       1.0001
       YYZ     -91.4037    XZZ     -12.9351    YZZ      96.6587
       ZZZ    -197.6020
    Hexadecapole Moments (Debye-Ang^3)
      XXXX    -335.0096   XXXY      49.2768   XXYY    -269.6257
      XYYY      59.5615   YYYY   -1438.9953   XXXZ     -95.1149
      XXYZ      90.4699   XYYZ     -39.4665   YYYZ     381.4478
      XXZZ    -214.0933   XYZZ      14.6640   YYZZ    -445.9596
      XZZZ     -86.8307   YZZZ     303.4349   ZZZZ    -965.4063
 -----------------------------------------------------------------
Archival summary:
1\1\nid00551\SP\ProcedureUnspecified\BasisUnspecified\78\meili\MonSep2706:11:192021MonSep2706:11:192021\0\\#,ProcedureUnspecified,BasisUnspecified,\\0,1\C\C,1,1.39505\H,2,1.08038,1,119.732\C,1,1.39776,2,118.96,3,179.253,0\H,4,1.08157,1,119.95,2,-179.208,0\C,4,1.39563,1,120.659,2,1.32503,0\H,6,1.08259,4,119.908,1,179.108,0\C,6,1.39455,4,120.069,1,-0.560084,0\H,8,1.08144,6,120.068,4,179.605,0\C,8,1.39452,6,119.641,4,-0.275675,0\H,10,1.08003,8,119.96,6,179.94,0\C,1,1.50845,2,120.551,3,2.31928,0\H,12,1.08855,1,108.781,2,157.596,0\H,12,1.09011,1,108.391,2,42.5278,0\H,12,1.1,1,115.207,2,-79.1061,0\\\@

 Total job time:  27067.42s(wall), 53759.87s(cpu) 
 Mon Sep 27 06:11:20 2021

        *************************************************************
        *                                                           *
        *  Thank you very much for using Q-Chem.  Have a nice day.  *
        *                                                           *
        *************************************************************


Done Job For Fragment 1
calling putenv with: QCSCRATCH=/global/cscratch1/sd/meili 
calling putenv with: QCLOCALSCR=/tmp 
calling putenv with: QCTHREADS=32 
Doing General SCFMI
 Exchange:     0.1670 Hartree-Fock + 1.0000 wB97X-V + LR-HF
 Correlation:  1.0000 wB97X-V
 Using Euler-Maclaurin-Lebedev (99,590) quadrature formula
 Nonlocal Correlation:  VV10 with C = 0.0100 and b = 6.00 and scale = 1.00000
 Grid used for NLC:  SG-1 standard quadrature
performing fock build before subrot guess so that all methods have access
Printing subrot_rss_gen Method Specification:
Occupied Subspace Method is 0
Virtual Subspace Method is 0
Energy of the unrelaxed supersystem initial determinant -618.389728733455
performing fock build before subrot guess so that all methods have access
Printing subrot_rss_gen Method Specification:
Occupied Subspace Method is 0
Virtual Subspace Method is 0
Energy of the unrelaxed supersystem initial determinant w/ solvent -618.414207221028
write pseudocanon occs and virts to disk
write pseudocanon orbital energies to disk
Tolerance of ortho_decomp_scf: 1.00e-06
GDM subspace size: 20
Beginning the Orthogonal Decomposition of the Initial Supersystem Wavefunction
    1    -618.3674972779      1.84e-02     ortho_decomp Preconditoned Steepest Descent
    2    -618.3691626395      4.39e-04     ortho_decomp BFGS Step
    3    -618.3691674916      3.45e-05     ortho_decomp BFGS Step
    4    -618.3691675024      1.42e-06     ortho_decomp BFGS Step
    5    -618.3691675025      3.95e-08     ortho_decomp 00000 Convergence criterion met
 Hartree-Fock
 Hartree-Fock
 Hartree-Fock
Doing General SCFMI
 Exchange:     0.1670 Hartree-Fock + 1.0000 wB97X-V + LR-HF
 Correlation:  1.0000 wB97X-V
 Using Euler-Maclaurin-Lebedev (99,590) quadrature formula
 Nonlocal Correlation:  VV10 with C = 0.0100 and b = 6.00 and scale = 1.00000
 Grid used for NLC:  SG-1 standard quadrature
performing fock build at end of subrot_r(subrot) constructor so that all methods have access
<S^2> of initial wavefunction before polarization iterations 0.0000000000
Beginning iterations for the determination of the polarized wavefunction
Energy prior to optimization (guess energy) = -618.414207221028
Begin Timing: Total SCF Calculation
begin iterations for algorithm: DIIS         
the SCF tolerance is set to 1.00e-08
    1    -618.4142072210      4.02e-05     00000 
    2    -618.4144007300      1.64e-05     00000 
    3    -618.4144245111      9.18e-06     00000 
    4    -618.4144327659      2.69e-06     00000 
    5    -618.4144339349      1.35e-06     00000 
    6    -618.4144342496      4.72e-07     00000 
    7    -618.4144342899      2.58e-07     00000 
    8    -618.4144342978      1.18e-07     00000 
    9    -618.4144342993      4.56e-08     00000 
   10    -618.4144342995      2.55e-08     00000 
   11    -618.4144342995      1.21e-08     00000 
   12    -618.4144342995      5.26e-09     00000 Convergence criterion met
write pseudocanon occs and virts to disk
write pseudocanon orbital energies to disk
Timing for Total SCF: 11209.00s (wall), 22332.29s (cpu)
<S^2> of polarized wavefunction after polarization iterations 0.0000000000
relaxing scfmi constraint to allow all rotations in the entire AO span
Doing General SCFMI
 Exchange:     0.1670 Hartree-Fock + 1.0000 wB97X-V + LR-HF
 Correlation:  1.0000 wB97X-V
 Using Euler-Maclaurin-Lebedev (99,590) quadrature formula
 Nonlocal Correlation:  VV10 with C = 0.0100 and b = 6.00 and scale = 1.00000
 Grid used for NLC:  SG-1 standard quadrature
performing fock build at end of subrot_r(subrot) constructor so that all methods have access
<S^2> of polarized wavefunction before ct-allowed iterations 0.0000000000
Beginning iterations for the determination of the CT-Allowed wavefunction
Energy prior to optimization (guess energy) = -618.414434299509
Begin Timing: Total SCF Calculation
begin iterations for algorithm: DIIS         
the SCF tolerance is set to 1.00e-08
    1    -618.4144342995      6.58e-05     00000 
    2    -618.4154612517      6.83e-06     00000 
    3    -618.4154911221      1.17e-06     00000 
    4    -618.4154921200      5.83e-07     00000 
    5    -618.4154922181      1.46e-07     00000 
    6    -618.4154922304      4.94e-08     00000 
    7    -618.4154922313      1.38e-08     00000 
    8    -618.4154922314      5.76e-09     00000 Convergence criterion met
write pseudocanon occs and virts to disk
write pseudocanon orbital energies to disk
Timing for Total SCF: 7240.00s (wall), 14421.53s (cpu)
<S^2> of ct_allowed wavefunction after ct-allowed iterations 0.0000000000

================================
        Results of EDA2         
================================
Basic EDA Quantities
--------------------
Fragment Energies (Ha):
1 -346.8196613563
2 -271.5804711363
--------------------
  E_prp (kJ/mol) = 0.0000
  E_sol (kJ/mol) = -0.4171
  E_frz (kJ/mol) = -9.1255
  E_pol (kJ/mol) = -0.5962
  E_vct (kJ/mol) = -2.7776
  E_int (kJ/mol) = -12.9164
--------------------


Initial Wavefunction Decomposition
--------------------
  --------------------
  Orthogonal Fragment Subspace Decomposition:
  --------------------
     E_elec   (ELEC)   (kJ/mol) = -22.5805
     E_pauli  (PAULI)  (kJ/mol) = 34.5833
     E_disp   (DISP)   (kJ/mol) = -21.1283
     --------------------
     Terms summing to E_pauli:
     --------------------
        E_kep_pauli       (kJ/mol) = 44.8587
        E_disp_free_pauli (kJ/mol) = -10.2754
  --------------------
  Classical Frozen Decomposition:
  --------------------
     E_cls_elec  (CLS ELEC)  (kJ/mol) = -8.5094
     E_cls_pauli (CLS PAULI) (kJ/mol) = -0.6161
    [E_mod_pauli (MOD PAULI) (kJ/mol) = 20.5122 (CLS PAULI - DISP from orthogonal decomposition) ]
  --------------------
--------------------

Simplified EDA Summary (kJ/mol)
--------------------
 PREPARATION     0.0000
 SOLVATION       -0.4171
 FROZEN          12.0028      (does not include dispersion)
[PAULI           34.5833]     (if this is negligible, then frozen describes electrostatics)
 DISPERSION      -21.1283
 POLARIZATION    -0.5962
 CHARGE TRANSFER -2.7776
 TOTAL           -12.9164     (PRP + SOL + FRZ + DISP + POL + CT)
--------------------
 
 --------------------------------------------------------------
 
                    Orbital Energies (a.u.)
 --------------------------------------------------------------
 
 Alpha MOs
 -- Occupied --
-19.2389 -10.3312 -10.2786 -10.2709 -10.2699 -10.2695 -10.2684 -10.2672
-10.2669 -10.2659 -10.2658 -10.2656 -10.2654 -10.2538 -10.2519  -1.1909
 -0.9923  -0.9890  -0.9014  -0.8950  -0.8784  -0.8738  -0.8074  -0.8030
 -0.7415  -0.7251  -0.7088  -0.7004  -0.6605  -0.6239  -0.5967  -0.5742
 -0.5676  -0.5612  -0.5461  -0.5382  -0.5329  -0.5235  -0.5215  -0.5156
 -0.5086  -0.5049  -0.4798  -0.4723  -0.4652  -0.4482  -0.4383  -0.4357
 -0.4352  -0.4335  -0.3521  -0.3433  -0.3342  -0.3078
 -- Virtual --
  0.0573   0.0604   0.0658   0.0707   0.0723   0.0766   0.0779   0.0899
  0.0919   0.0984   0.1022   0.1061   0.1170   0.1187   0.1229   0.1269
  0.1345   0.1373   0.1447   0.1506   0.1582   0.1608   0.1710   0.1774
  0.1844   0.1885   0.1961   0.2000   0.2045   0.2098   0.2157   0.2188
  0.2230   0.2281   0.2305   0.2344   0.2382   0.2432   0.2455   0.2565
  0.2604   0.2639   0.2659   0.2698   0.2723   0.2764   0.2803   0.2833
  0.2851   0.2876   0.2889   0.2936   0.2979   0.2998   0.3030   0.3054
  0.3107   0.3109   0.3143   0.3181   0.3218   0.3288   0.3319   0.3369
  0.3381   0.3398   0.3443   0.3486   0.3504   0.3576   0.3632   0.3641
  0.3657   0.3680   0.3693   0.3722   0.3762   0.3789   0.3818   0.3851
  0.3876   0.3908   0.3943   0.3957   0.3968   0.4025   0.4043   0.4077
  0.4108   0.4158   0.4194   0.4219   0.4257   0.4280   0.4330   0.4354
  0.4386   0.4393   0.4445   0.4471   0.4501   0.4513   0.4585   0.4602
  0.4633   0.4668   0.4715   0.4728   0.4771   0.4786   0.4834   0.4887
  0.4932   0.4945   0.4954   0.4995   0.5079   0.5096   0.5127   0.5164
  0.5195   0.5257   0.5278   0.5325   0.5363   0.5395   0.5409   0.5414
  0.5508   0.5520   0.5548   0.5636   0.5661   0.5691   0.5705   0.5792
  0.5829   0.5898   0.5916   0.5931   0.5977   0.5987   0.6010   0.6087
  0.6118   0.6203   0.6224   0.6331   0.6361   0.6391   0.6414   0.6443
  0.6486   0.6538   0.6593   0.6658   0.6724   0.6741   0.6784   0.6842
  0.6856   0.6911   0.6940   0.6990   0.7040   0.7088   0.7105   0.7128
  0.7167   0.7239   0.7279   0.7298   0.7323   0.7368   0.7407   0.7452
  0.7482   0.7521   0.7547   0.7605   0.7617   0.7651   0.7729   0.7753
  0.7766   0.7809   0.7870   0.7875   0.7919   0.7958   0.8006   0.8023
  0.8055   0.8074   0.8107   0.8163   0.8175   0.8188   0.8245   0.8281
  0.8356   0.8371   0.8406   0.8434   0.8451   0.8516   0.8532   0.8618
  0.8627   0.8706   0.8711   0.8744   0.8773   0.8855   0.8873   0.8895
  0.9036   0.9052   0.9092   0.9121   0.9236   0.9258   0.9284   0.9321
  0.9354   0.9512   0.9547   0.9591   0.9635   0.9690   0.9771   0.9782
  0.9898   0.9922   1.0051   1.0139   1.0225   1.0298   1.0338   1.0361
  1.0390   1.0468   1.0471   1.0568   1.0696   1.0744   1.0770   1.0878
  1.0929   1.1004   1.1096   1.1146   1.1170   1.1239   1.1355   1.1372
  1.1450   1.1550   1.1623   1.1760   1.1793   1.1811   1.2061   1.2141
  1.2242   1.2350   1.2449   1.2725   1.2819   1.3132   1.3163   1.3287
  1.3371   1.3497   1.3543   1.3607   1.3663   1.3791   1.3862   1.3887
  1.3984   1.3999   1.4207   1.4331   1.4544   1.4619   1.4681   1.4739
  1.4832   1.4900   1.4939   1.5025   1.5205   1.5315   1.5353   1.5453
  1.5539   1.5612   1.5760   1.5948   1.6194   1.6359   1.6402   1.6444
  1.6569   1.6654   1.6745   1.6877   1.6954   1.7051   1.7245   1.7271
  1.7477   1.7773   1.8040   1.8092   1.8154   1.8278   1.8399   1.8433
  1.8570   1.8659   1.8693   1.8791   1.8882   1.9101   1.9175   1.9209
  1.9284   1.9334   1.9445   1.9547   1.9636   1.9722   1.9751   1.9842
  1.9866   2.0010   2.0134   2.0152   2.0239   2.0359   2.0458   2.0507
  2.0570   2.0662   2.0675   2.0732   2.0825   2.0926   2.1042   2.1054
  2.1230   2.1271   2.1440   2.1538   2.1653   2.1697   2.1851   2.1921
  2.1988   2.2100   2.2118   2.2354   2.2472   2.2601   2.2657   2.2781
  2.2906   2.3012   2.3056   2.3138   2.3171   2.3240   2.3280   2.3472
  2.3572   2.3705   2.3784   2.4062   2.4108   2.4235   2.4260   2.4407
  2.4477   2.4535   2.4759   2.4891   2.5049   2.5292   2.5388   2.5542
  2.5648   2.5774   2.5798   2.5943   2.6139   2.6162   2.6292   2.6507
  2.6578   2.6641   2.6709   2.6820   2.6860   2.7065   2.7164   2.7229
  2.7324   2.7392   2.7651   2.7760   2.7827   2.7854   2.7912   2.7945
  2.8187   2.8243   2.8317   2.8481   2.8515   2.8582   2.8611   2.8700
  2.8792   2.8935   2.8965   2.9230   2.9299   2.9409   2.9423   2.9516
  2.9572   2.9716   2.9776   2.9881   2.9890   2.9936   3.0051   3.0100
  3.0229   3.0299   3.0386   3.0473   3.0572   3.0660   3.0776   3.0786
  3.0897   3.0995   3.1170   3.1228   3.1274   3.1328   3.1565   3.1615
  3.1725   3.1875   3.1993   3.2109   3.2237   3.2348   3.2391   3.2471
  3.2529   3.2768   3.2820   3.2922   3.2990   3.3151   3.3214   3.3357
  3.3399   3.3486   3.3649   3.3797   3.3930   3.3960   3.4009   3.4088
  3.4177   3.4253   3.4282   3.4474   3.4525   3.4582   3.4674   3.4765
  3.4801   3.4826   3.4939   3.4980   3.5080   3.5139   3.5166   3.5235
  3.5318   3.5355   3.5434   3.5483   3.5528   3.5619   3.5683   3.5745
  3.5785   3.5809   3.5850   3.5896   3.5969   3.5990   3.6087   3.6209
  3.6321   3.6387   3.6426   3.6505   3.6576   3.6656   3.6765   3.6963
  3.7041   3.7101   3.7151   3.7282   3.7490   3.7549   3.7657   3.7709
  3.8099   3.8165   3.8271   3.8560   3.8657   3.8758   3.9147   3.9447
  3.9519   3.9610   3.9649   3.9664   3.9833   4.0148   4.0225   4.0345
  4.0508   4.0560   4.0756   4.1104   4.1322   4.1761   4.1815   4.2247
  4.2642   4.2814   4.2857   4.2945   4.2957   4.3012   4.3272   4.3330
  4.3416   4.3475   4.3528   4.3565   4.3692   4.3736   4.3813   4.3859
  4.3913   4.4001   4.4134   4.4208   4.4374   4.4544   4.4642   4.4878
  4.4962   4.5124   4.5434   4.5676   4.6074   4.6247   4.6569   4.6587
  4.7523   4.7596   4.7732   4.7854   4.8157   4.8323   4.8446   4.8539
  4.8864   4.9290   4.9634   4.9658   5.0351   5.0499   5.0702   5.0733
  5.1122   5.1469   5.1701   5.1778   5.2728   5.3109   5.3444   5.3644
  5.3825   5.4080   5.4584   5.5073   5.5321   5.5491   5.6171   5.6645
  5.6796   5.7296   5.7691   5.8578   5.9590   6.2229   6.4968   6.5985
  6.6564   6.8841   7.0127   7.3002   7.4673  22.7065  22.7162  22.7317
 22.7474  22.9274  22.9544  22.9855  23.0191  23.0481  23.0588  23.0964
 23.2144  23.4188  23.5349  44.4502
 --------------------------------------------------------------
 
          Ground-State Mulliken Net Atomic Charges

     Atom                 Charge (a.u.)
  ----------------------------------------
      1 C                    -1.072308
      2 C                    -0.242433
      3 C                     0.229503
      4 C                    -0.610430
      5 C                    -0.651829
      6 C                     0.477325
      7 C                    -0.362794
      8 O                    -0.539612
      9 H                     0.384747
     10 H                     0.454468
     11 H                     0.178920
     12 H                     0.244959
     13 H                     0.451673
     14 H                     0.383345
     15 H                     0.329550
     16 H                     0.292411
     17 C                    -1.157163
     18 C                    -0.360170
     19 C                     0.968605
     20 C                    -0.642294
     21 C                    -0.278582
     22 C                    -0.666566
     23 C                    -0.443427
     24 H                     0.367384
     25 H                     0.380316
     26 H                     0.297253
     27 H                     0.136557
     28 H                     0.384794
     29 H                     0.402407
     30 H                     0.372898
     31 H                     0.290491
  ----------------------------------------
  Sum of atomic charges =     0.000000

 -----------------------------------------------------------------
                    Cartesian Multipole Moments
 -----------------------------------------------------------------
    Charge (ESU x 10^10)
                 0.0000
    Dipole Moment (Debye)
         X       0.6345      Y       2.2834      Z       0.0717
       Tot       2.3710
    Quadrupole Moments (Debye-Ang)
        XX     -84.6525     XY      -3.1798     YY     -80.2964
        XZ       5.1882     YZ      -3.7874     ZZ     -85.2967
    Octopole Moments (Debye-Ang^2)
       XXX     -12.3405    XXY       5.0976    XYY     -19.3728
       YYY      49.4083    XXZ      -8.7925    XYZ      25.6123
       YYZ     -61.6893    XZZ     -26.6685    YZZ      41.7009
       ZZZ     -33.4815
    Hexadecapole Moments (Debye-Ang^3)
      XXXX    -941.4183   XXXY       0.7146   XXYY    -534.0793
      XYYY      16.0777   YYYY   -2550.0030   XXXZ    -311.8353
      XXYZ     130.9533   XYYZ     -47.6886   YYYZ     590.3344
      XXZZ    -407.7035   XYZZ     -90.3426   YYZZ    -702.3244
      XZZZ    -233.0603   YZZZ     499.2144   ZZZZ   -1734.5298
 -----------------------------------------------------------------
Archival summary:
1\1\nid00551\SP\ProcedureUnspecified\BasisUnspecified\11416\meili\MonSep2715:43:542021MonSep2715:43:542021\0\\#,ProcedureUnspecified,BasisUnspecified,\\0,1\C\H,1,1.07931\C,1,1.3923,2,119.432\H,3,1.07833,1,120.596,2,1.94694,0\C,3,1.39464,1,119.507,2,-179.236,0\O,5,1.35899,3,120.829,1,179.324,0\H,6,0.961244,5,112.626,3,-173.354,0\C,5,1.39637,3,120.358,1,-0.987496,0\H,8,1.08111,5,120.46,3,179.539,0\C,8,1.39423,5,119.71,3,0.3672,0\H,10,1.08318,8,119.612,5,-179.777,0\C,10,1.39767,8,120.454,5,0.279219,0\C,12,1.50492,10,120.525,8,-179.629,0\H,13,1.08864,12,109.255,10,178.218,0\H,13,1.09071,12,107.777,10,61.8598,0\H,13,1.1,12,114.226,10,-59.4421,0\H,14,2.35645,13,140.829,12,-83.8801,0\C,17,1.09011,14,143.999,13,63.5667,0\H,18,1.08855,17,106.205,14,-64.2709,0\H,18,1.1,17,108.418,14,178.184,0\C,18,1.50845,17,108.391,14,52.469,0\C,21,1.39505,18,120.551,17,42.5278,0\H,22,1.08038,21,119.732,18,2.31928,0\C,21,1.39776,18,120.418,17,-134.361,0\H,24,1.08157,21,119.95,18,-2.27026,0\C,24,1.39563,21,120.659,18,178.263,0\H,26,1.08259,24,119.908,21,179.108,0\C,26,1.39455,24,120.069,21,-0.560084,0\H,28,1.08144,26,120.068,24,179.605,0\C,28,1.39452,26,119.641,24,-0.275675,0\H,30,1.08003,28,119.96,26,179.94,0\\\@

 Total job time:  100489.58s(wall), 69227.33s(cpu) 
 Mon Sep 27 15:43:55 2021

        *************************************************************
        *                                                           *
        *  Thank you very much for using Q-Chem.  Have a nice day.  *
        *                                                           *
        *************************************************************


