
Running Job 1 of 1 SSI-035HIE-059ARG-2_PCM_TZVPD.in
qchem SSI-035HIE-059ARG-2_PCM_TZVPD.in_13670.0 /tmp/qchem13670/ 0
/global/common/cori/software/qchem/5.2/exe/qcprog.exe_s SSI-035HIE-059ARG-2_PCM_TZVPD.in_13670.0 /tmp/qchem13670/
                  Welcome to Q-Chem
     A Quantum Leap Into The Future Of Chemistry


 Q-Chem 5.2, Q-Chem, Inc., Pleasanton, CA (2019)

 License issued to: National Energy Research Scientific Computing Center

 Yihan Shao,  Zhengting Gan,  E. Epifanovsky,  A. T. B. Gilbert,  M. Wormit,  
 J. Kussmann,  A. W. Lange,  A. Behn,  Jia Deng,  Xintian Feng,  D. Ghosh,  
 M. Goldey,  P. R. Horn,  L. D. Jacobson,  I. Kaliman,  T. Kus,  A. Landau,  
 Jie Liu,  E. I. Proynov,  R. M. Richard,  R. P. Steele,  E. J. Sundstrom,  
 H. L. Woodcock III,  P. M. Zimmerman,  D. Zuev,  B. Albrecht,  E. Alguire,  
 S. A. Baeppler,  D. Barton,  Z. Benda,  Y. A. Bernard,  E. J. Berquist,  
 K. B. Bravaya,  H. Burton,  D. Casanova,  Chun-Min Chang,  Yunqing Chen,  
 A. Chien,  K. D. Closser,  M. P. Coons,  S. Coriani,  S. Dasgupta,  
 A. L. Dempwolff,  M. Diedenhofen,  Hainam Do,  R. G. Edgar,  Po-Tung Fang,  
 S. Faraji,  S. Fatehi,  Qingguo Feng,  K. D. Fenk,  J. Fosso-Tande,  
 J. Gayvert,  Qinghui Ge,  A. Ghysels,  G. Gidofalvi,  J. Gomes,  
 J. Gonthier,  A. Gunina,  D. Hait,  M. W. D. Hanson-Heine,  
 P. H. P. Harbach,  A. W. Hauser,  M. F. Herbst,  J. E. Herr,  
 E. G. Hohenstein,  Z. C. Holden,  Kerwin Hui,  B. C. Huynh,  T.-C. Jagau,  
 Hyunjun Ji,  B. Kaduk,  K. Khistyaev,  Jaehoon Kim,  P. Klunzinger,  K. Koh,  
 D. Kosenkov,  L. Koulias,  T. Kowalczyk,  C. M. Krauter,  A. Kunitsa,  
 Ka Un Lao,  A. Laurent,  K. V. Lawler,  Joonho Lee,  D. Lefrancois,  
 S. Lehtola,  D. S. Levine,  Yi-Pei Li,  You-Sheng Lin,  Fenglai Liu,  
 E. Livshits,  A. Luenser,  P. Manohar,  E. Mansoor,  S. F. Manzer,  
 Shan-Ping Mao,  Yuezhi Mao,  N. Mardirossian,  A. V. Marenich,  
 T. Markovich,  L. A. Martinez-Martinez,  S. A. Maurer,  N. J. Mayhall,  
 S. C. McKenzie,  J.-M. Mewes,  P. Morgante,  A. F. Morrison,  
 J. W. Mullinax,  K. Nanda,  T. S. Nguyen-Beck,  R. Olivares-Amaya,  
 J. A. Parkhill,  Zheng Pei,  T. M. Perrine,  F. Plasser,  P. Pokhilko,  
 S. Prager,  A. Prociuk,  E. Ramos,  D. R. Rehn,  F. Rob,  M. Scheurer,  
 M. Schneider,  N. Sergueev,  S. M. Sharada,  S. Sharma,  D. W. Small,  
 T. Stauch,  T. Stein,  Yu-Chuan Su,  A. J. W. Thom,  A. Tkatchenko,  
 T. Tsuchimochi,  N. M. Tubman,  L. Vogt,  M. L. Vidal,  O. Vydrov,  
 M. A. Watson,  J. Wenzel,  M. de Wergifosse,  T. A. Wesolowski,  A. White,  
 J. Witte,  A. Yamada,  Jun Yang,  K. Yao,  S. Yeganeh,  S. R. Yost,  
 Zhi-Qiang You,  A. Zech,  Igor Ying Zhang,  Xing Zhang,  Yan Zhao,  
 Ying Zhu,  B. R. Brooks,  G. K. L. Chan,  C. J. Cramer,  M. S. Gordon,  
 W. J. Hehre,  A. Klamt,  M. W. Schmidt,  C. D. Sherrill,  D. G. Truhlar,  
 A. Aspuru-Guzik,  R. Baer,  A. T. Bell,  N. A. Besley,  Jeng-Da Chai,  
 A. E. DePrince, III,  R. A. DiStasio Jr.,  A. Dreuw,  B. D. Dunietz,  
 T. R. Furlani,  Chao-Ping Hsu,  Yousung Jung,  Jing Kong,  D. S. Lambrecht,  
 WanZhen Liang,  C. Ochsenfeld,  V. A. Rassolov,  L. V. Slipchenko,  
 J. E. Subotnik,  T. Van Voorhis,  J. M. Herbert,  A. I. Krylov,  
 P. M. W. Gill,  M. Head-Gordon

 Contributors to earlier versions of Q-Chem not listed above: 
 R. D. Adamson,  B. Austin,  J. Baker,  G. J. O. Beran,  K. Brandhorst,  
 S. T. Brown,  E. F. C. Byrd,  A. K. Chakraborty,  C.-L. Cheng,  
 Siu Hung Chien,  D. M. Chipman,  D. L. Crittenden,  H. Dachsel,  
 R. J. Doerksen,  A. D. Dutoi,  L. Fusti-Molnar,  W. A. Goddard III,  
 A. Golubeva-Zadorozhnaya,  S. R. Gwaltney,  G. Hawkins,  A. Heyden,  
 S. Hirata,  G. Kedziora,  F. J. Keil,  C. Kelley,  Jihan Kim,  R. A. King,  
 R. Z. Khaliullin,  P. P. Korambath,  W. Kurlancheek,  A. M. Lee,  M. S. Lee,  
 S. V. Levchenko,  Ching Yeh Lin,  D. Liotard,  R. C. Lochan,  I. Lotan,  
 P. E. Maslen,  N. Nair,  D. P. O'Neill,  D. Neuhauser,  E. Neuscamman,  
 C. M. Oana,  R. Olson,  B. Peters,  R. Peverati,  P. A. Pieniazek,  
 Y. M. Rhee,  J. Ritchie,  M. A. Rohrdanz,  E. Rosta,  N. J. Russ,  
 H. F. Schaefer III,  N. E. Schultz,  N. Shenvi,  A. C. Simmonett,  A. Sodt,  
 D. Stuck,  K. S. Thanthiriwatte,  V. Vanovschi,  Tao Wang,  A. Warshel,  
 C. F. Williams,  Q. Wu,  X. Xu,  W. Zhang

 Please cite Q-Chem as follows:
 Y. Shao et al., Mol. Phys. 113, 184-215 (2015)
 DOI: 10.1080/00268976.2014.952696

 Q-Chem 5.2.0 for Intel X86 EM64T Linux

 Parts of Q-Chem use Armadillo 8.300.2 (Tropical Shenanigans).
 http://arma.sourceforge.net/

 Q-Chem begins on Sun Sep 26 05:41:06 2021  

Host: cori01
0

     Scratch files written to /tmp/qchem13670//
 May1019 |scratch|qcdevops|jenkins|workspace|build_RNUM -1
Processing $rem in /global/common/cori/software/qchem/5.2/config/preferences:
	 MEM_TOTAL  96000 
NAlpha2: 84
NElect   84
Mult     1
Symmetry turned off for PCM/SM12/SMD calculation

 Q-Chem warning in module libgen/rem_setup.C, line 2803:

 Neither GIA nor STOLL is specified by user. Use STOLL as the default


Checking the input file for inconsistencies... 	...done.

--------------------------------------------------------------
User input:
--------------------------------------------------------------
$comment
SSI-035HIE-059ARG-2.pdb
$end

$molecule
1 1
--
0 1
C    2.220921179106   -0.570098343513   -1.813346414784
C    1.067921179106   -1.210098343513    0.401653585216
C    1.805921179106   -0.394098343513   -0.385346414784
C    1.696921179106    0.523901656487    1.632653585216
N    0.956921179106   -0.578098343513    1.631653585216
N    2.242921179106    0.645901656487    0.432653585216
H    0.619921179106   -2.149098343513    0.111653585216
H    0.429921179106   -0.921098343513    2.427653585216
H    2.125921179106    0.379901656487   -2.341346414784
H    1.540921179106   -1.285098343513   -2.277346414784
H    1.849921179106    1.191901656487    2.473653585216
H    3.251001179106   -0.946358343513   -1.899186414784
--
1 1
C   -2.448078820894   -1.049098343513   -1.630346414784
C   -1.675078820894    0.642901656487   -0.031346414784
N   -1.710078820894    0.147901656487   -1.258346414784
N   -2.371078820894    0.048901656487    0.935653585216
N   -0.973078820894    1.728901656487    0.219653585216
H   -1.222078820894    0.650901656487   -1.985346414784
H   -2.926078820894   -0.763098343513    0.731653585216
H   -2.384078820894    0.439901656487    1.864653585216
H   -0.400078820894    2.139901656487   -0.498346414784
H   -0.945078820894    2.109901656487    1.149653585216
H   -3.137078820894   -0.766098343513   -2.429346414784
H   -3.049078820894   -1.472098343513   -0.825346414784
H   -1.762148820894   -1.820498343513   -2.010396414784
$end

$rem
JOBTYPE			EDA
EDA2			1
method			wB97X-V
BASIS			def2-TZVPD
XC_GRID			000099000590
NL_GRID			1
UNRESTRICTED		FALSE
MAX_SCF_CYCLES		200
SYMMETRY		FALSE
SYM_IGNORE		TRUE
MEM_STATIC		2000
BASIS_LIN_DEP_THRESH 	6
THRESH 			14
SCF_CONVERGENCE 	8
SCF_PRINT_FRGM 		TRUE
SOLVENT_METHOD          PCM
$end

$PCM
THEORY                  CPCM
METHOD                  SWIG
SOLVER                  INVERSION
RADII                   UFF
HPOINTS                 302
HEAVYPOINTS             302
PRINTLEVEL              0
$END

$SOLVENT
DIELECTRIC              78.390000 ! water
$END
--------------------------------------------------------------
 ----------------------------------------------------------------
             Standard Nuclear Orientation (Angstroms)
    I     Atom           X                Y                Z
 ----------------------------------------------------------------
    1      C       2.2209211791    -0.5700983435    -1.8133464148
    2      C       1.0679211791    -1.2100983435     0.4016535852
    3      C       1.8059211791    -0.3940983435    -0.3853464148
    4      C       1.6969211791     0.5239016565     1.6326535852
    5      N       0.9569211791    -0.5780983435     1.6316535852
    6      N       2.2429211791     0.6459016565     0.4326535852
    7      H       0.6199211791    -2.1490983435     0.1116535852
    8      H       0.4299211791    -0.9210983435     2.4276535852
    9      H       2.1259211791     0.3799016565    -2.3413464148
   10      H       1.5409211791    -1.2850983435    -2.2773464148
   11      H       1.8499211791     1.1919016565     2.4736535852
   12      H       3.2510011791    -0.9463583435    -1.8991864148
   13      C      -2.4480788209    -1.0490983435    -1.6303464148
   14      C      -1.6750788209     0.6429016565    -0.0313464148
   15      N      -1.7100788209     0.1479016565    -1.2583464148
   16      N      -2.3710788209     0.0489016565     0.9356535852
   17      N      -0.9730788209     1.7289016565     0.2196535852
   18      H      -1.2220788209     0.6509016565    -1.9853464148
   19      H      -2.9260788209    -0.7630983435     0.7316535852
   20      H      -2.3840788209     0.4399016565     1.8646535852
   21      H      -0.4000788209     2.1399016565    -0.4983464148
   22      H      -0.9450788209     2.1099016565     1.1496535852
   23      H      -3.1370788209    -0.7660983435    -2.4293464148
   24      H      -3.0490788209    -1.4720983435    -0.8253464148
   25      H      -1.7621488209    -1.8204983435    -2.0103964148
 ----------------------------------------------------------------
 Nuclear Repulsion Energy =         651.52309100 hartrees
 There are       42 alpha and       42 beta electrons
 Requested basis set is def2-TZVPD
 There are 213 shells and 533 basis functions

 Total QAlloc Memory Limit  96000 MB
 Mega-Array Size      1956 MB
 MEM_STATIC part      2000 MB
 Discretize the solute cavity surface with Lebedev spheres
	Using 302 Lebedev grid points for each H atom
	Using 302 Lebedev grid points for other atoms
	Atomic van der Waals radii will be scaled by 1.20
 Remove points where switching function is < 1.0e-08
 Keep 2752 surface tesserae and discard 4798 interior tesserae
 Molecular Surface Area = 258.802 Angst**2
 A cutoff of  1.0D-14 yielded  20971 shell pairs
 There are    133823 function pairs (    169081 Cartesian)
 Smallest overlap matrix eigenvalue = 1.14E-06

 Scale SEOQF with 1.000000e-01/1.000000e-01/1.000000e-01

 Standard Electronic Orientation quadrupole field applied
 Nucleus-field energy     =     0.0000000011 hartrees

 -----------------------------------------------------------------------
  General SCF calculation program by
  Eric Jon Sundstrom, Paul Horn, Yuezhi Mao, Dmitri Zuev, Alec White,
  David Stuck, Shaama M.S., Shane Yost, Joonho Lee, David Small,
  Daniel Levine, Susi Lehtola, Hugh Burton, Evgeny Epifanovsky
 -----------------------------------------------------------------------
================================================================
                 ALMO-EDA with the EDA2 driver                  
================================================================
 The second-generation ALMO-EDA (for DFT):                      
 P. R. Horn, Y. Mao and M. Head-Gordon, PCCP, 18, 23067 (2016)  
 Decomposition of the frozen energy:                            
 P. R. Horn, Y. Mao and M. Head-Gordon, JCP, 144, 114107 (2016) 
 FERF model for polarization:                                   
 P. R. Horn and M. Head-Gordon, JCP, 143, 114111 (2015)         
Using eda2 option set 1
Option set summary: Frozen orbital wavefunction, initial wavefunction decomposition, and nDQ polarization.
--------------------------------
Printing EDA Options
--------------------------------
eda_child_super_basis      0
fragmo_guess_mode          0
child_mp                   1
child_mp_orders            232
cls_elec                   1
cls_disp                   0
scfmi_mode                 1
scfmi_occs                 0
scfmi_virts                0
frz_relax                  0
frz_relax_method           0
dc_pen_start               0
dc_pen_conv                0
dc_pen_increment           0
dc_pen_steps               0
dc_pen_thresh_factor       0
dc_pen_pre_newton_thresh   0
frz_ortho_decomp           1
frz_ortho_decomp_conv      6
frgm_method                2
scfmi_freeze_ss            0
separate_rehyb             0
plot_diff_den              0
eda_nocv                   0
eda_vct_relax              1
disp_free_x                0
disp_free_c                0
eda_bsse                   0
eda_pct_a                  0
eda_covp                   0
--------------------------------
Attempting to make child job directory: /tmp/qchem13670//Frg1/
Attempting to make child job directory: /tmp/qchem13670//Frg2/
Creating input file /tmp/qchem13670/Frg1.input
using default PutDataFrgm: nothing
calling putenv with: QCSCRATCH=/tmp/qchem13670/ 
calling putenv with: QCLOCALSCR=/tmp/qchem13670/ 
Spawning Job For Fragment 0
                  Welcome to Q-Chem
     A Quantum Leap Into The Future Of Chemistry


 Q-Chem 5.2, Q-Chem, Inc., Pleasanton, CA (2019)

 License issued to: National Energy Research Scientific Computing Center

 Yihan Shao,  Zhengting Gan,  E. Epifanovsky,  A. T. B. Gilbert,  M. Wormit,  
 J. Kussmann,  A. W. Lange,  A. Behn,  Jia Deng,  Xintian Feng,  D. Ghosh,  
 M. Goldey,  P. R. Horn,  L. D. Jacobson,  I. Kaliman,  T. Kus,  A. Landau,  
 Jie Liu,  E. I. Proynov,  R. M. Richard,  R. P. Steele,  E. J. Sundstrom,  
 H. L. Woodcock III,  P. M. Zimmerman,  D. Zuev,  B. Albrecht,  E. Alguire,  
 S. A. Baeppler,  D. Barton,  Z. Benda,  Y. A. Bernard,  E. J. Berquist,  
 K. B. Bravaya,  H. Burton,  D. Casanova,  Chun-Min Chang,  Yunqing Chen,  
 A. Chien,  K. D. Closser,  M. P. Coons,  S. Coriani,  S. Dasgupta,  
 A. L. Dempwolff,  M. Diedenhofen,  Hainam Do,  R. G. Edgar,  Po-Tung Fang,  
 S. Faraji,  S. Fatehi,  Qingguo Feng,  K. D. Fenk,  J. Fosso-Tande,  
 J. Gayvert,  Qinghui Ge,  A. Ghysels,  G. Gidofalvi,  J. Gomes,  
 J. Gonthier,  A. Gunina,  D. Hait,  M. W. D. Hanson-Heine,  
 P. H. P. Harbach,  A. W. Hauser,  M. F. Herbst,  J. E. Herr,  
 E. G. Hohenstein,  Z. C. Holden,  Kerwin Hui,  B. C. Huynh,  T.-C. Jagau,  
 Hyunjun Ji,  B. Kaduk,  K. Khistyaev,  Jaehoon Kim,  P. Klunzinger,  K. Koh,  
 D. Kosenkov,  L. Koulias,  T. Kowalczyk,  C. M. Krauter,  A. Kunitsa,  
 Ka Un Lao,  A. Laurent,  K. V. Lawler,  Joonho Lee,  D. Lefrancois,  
 S. Lehtola,  D. S. Levine,  Yi-Pei Li,  You-Sheng Lin,  Fenglai Liu,  
 E. Livshits,  A. Luenser,  P. Manohar,  E. Mansoor,  S. F. Manzer,  
 Shan-Ping Mao,  Yuezhi Mao,  N. Mardirossian,  A. V. Marenich,  
 T. Markovich,  L. A. Martinez-Martinez,  S. A. Maurer,  N. J. Mayhall,  
 S. C. McKenzie,  J.-M. Mewes,  P. Morgante,  A. F. Morrison,  
 J. W. Mullinax,  K. Nanda,  T. S. Nguyen-Beck,  R. Olivares-Amaya,  
 J. A. Parkhill,  Zheng Pei,  T. M. Perrine,  F. Plasser,  P. Pokhilko,  
 S. Prager,  A. Prociuk,  E. Ramos,  D. R. Rehn,  F. Rob,  M. Scheurer,  
 M. Schneider,  N. Sergueev,  S. M. Sharada,  S. Sharma,  D. W. Small,  
 T. Stauch,  T. Stein,  Yu-Chuan Su,  A. J. W. Thom,  A. Tkatchenko,  
 T. Tsuchimochi,  N. M. Tubman,  L. Vogt,  M. L. Vidal,  O. Vydrov,  
 M. A. Watson,  J. Wenzel,  M. de Wergifosse,  T. A. Wesolowski,  A. White,  
 J. Witte,  A. Yamada,  Jun Yang,  K. Yao,  S. Yeganeh,  S. R. Yost,  
 Zhi-Qiang You,  A. Zech,  Igor Ying Zhang,  Xing Zhang,  Yan Zhao,  
 Ying Zhu,  B. R. Brooks,  G. K. L. Chan,  C. J. Cramer,  M. S. Gordon,  
 W. J. Hehre,  A. Klamt,  M. W. Schmidt,  C. D. Sherrill,  D. G. Truhlar,  
 A. Aspuru-Guzik,  R. Baer,  A. T. Bell,  N. A. Besley,  Jeng-Da Chai,  
 A. E. DePrince, III,  R. A. DiStasio Jr.,  A. Dreuw,  B. D. Dunietz,  
 T. R. Furlani,  Chao-Ping Hsu,  Yousung Jung,  Jing Kong,  D. S. Lambrecht,  
 WanZhen Liang,  C. Ochsenfeld,  V. A. Rassolov,  L. V. Slipchenko,  
 J. E. Subotnik,  T. Van Voorhis,  J. M. Herbert,  A. I. Krylov,  
 P. M. W. Gill,  M. Head-Gordon

 Contributors to earlier versions of Q-Chem not listed above: 
 R. D. Adamson,  B. Austin,  J. Baker,  G. J. O. Beran,  K. Brandhorst,  
 S. T. Brown,  E. F. C. Byrd,  A. K. Chakraborty,  C.-L. Cheng,  
 Siu Hung Chien,  D. M. Chipman,  D. L. Crittenden,  H. Dachsel,  
 R. J. Doerksen,  A. D. Dutoi,  L. Fusti-Molnar,  W. A. Goddard III,  
 A. Golubeva-Zadorozhnaya,  S. R. Gwaltney,  G. Hawkins,  A. Heyden,  
 S. Hirata,  G. Kedziora,  F. J. Keil,  C. Kelley,  Jihan Kim,  R. A. King,  
 R. Z. Khaliullin,  P. P. Korambath,  W. Kurlancheek,  A. M. Lee,  M. S. Lee,  
 S. V. Levchenko,  Ching Yeh Lin,  D. Liotard,  R. C. Lochan,  I. Lotan,  
 P. E. Maslen,  N. Nair,  D. P. O'Neill,  D. Neuhauser,  E. Neuscamman,  
 C. M. Oana,  R. Olson,  B. Peters,  R. Peverati,  P. A. Pieniazek,  
 Y. M. Rhee,  J. Ritchie,  M. A. Rohrdanz,  E. Rosta,  N. J. Russ,  
 H. F. Schaefer III,  N. E. Schultz,  N. Shenvi,  A. C. Simmonett,  A. Sodt,  
 D. Stuck,  K. S. Thanthiriwatte,  V. Vanovschi,  Tao Wang,  A. Warshel,  
 C. F. Williams,  Q. Wu,  X. Xu,  W. Zhang

 Please cite Q-Chem as follows:
 Y. Shao et al., Mol. Phys. 113, 184-215 (2015)
 DOI: 10.1080/00268976.2014.952696

 Q-Chem 5.2.0 for Intel X86 EM64T Linux

 Parts of Q-Chem use Armadillo 8.300.2 (Tropical Shenanigans).
 http://arma.sourceforge.net/

 Q-Chem begins on Sun Sep 26 05:41:10 2021  

Host: cori01
0

     Scratch files written to /tmp/qchem13670//Frg1//
 May1019 |scratch|qcdevops|jenkins|workspace|build_RNUM -1
Processing $rem in /global/common/cori/software/qchem/5.2/config/preferences:
	 MEM_TOTAL  96000 
NAlpha2: 44
NElect   44
Mult     1
Symmetry turned off for PCM/SM12/SMD calculation

Checking the input file for inconsistencies... 	...done.

--------------------------------------------------------------
User input:
--------------------------------------------------------------
$molecule
0 1
 6	2.2209211791	-0.5700983435	-1.8133464148
 6	1.0679211791	-1.2100983435	0.4016535852
 6	1.8059211791	-0.3940983435	-0.3853464148
 6	1.6969211791	0.5239016565	1.6326535852
 7	0.9569211791	-0.5780983435	1.6316535852
 7	2.2429211791	0.6459016565	0.4326535852
 1	0.6199211791	-2.1490983435	0.1116535852
 1	0.4299211791	-0.9210983435	2.4276535852
 1	2.1259211791	0.3799016565	-2.3413464148
 1	1.5409211791	-1.2850983435	-2.2773464148
 1	1.8499211791	1.1919016565	2.4736535852
 1	3.2510011791	-0.9463583435	-1.8991864148
$end
$rem
EDA2		1
METHOD		WB97X-V
BASIS		DEF2-TZVPD
XC_GRID		000099000590
NL_GRID		1
UNRESTRICTED		FALSE
MAX_SCF_CYCLES		200
SYMMETRY		FALSE
SYM_IGNORE		TRUE
BASIS_LIN_DEP_THRESH		6
THRESH		14
SCF_CONVERGENCE		8
SCF_PRINT_FRGM		TRUE
SOLVENT_METHOD		PCM
!required keywords
JOBTYPE		SP
SYM_IGNORE		TRUE
SUBSYSTEM		TRUE
GEN_SCFMAN		TRUE
CHILD_INSTRUCTION		2
SYM_IGNORE		TRUE
SCFMI		0
RI_K 0		
PARI_K 0		
MIN_PARI_K 0		
IARI_K 0		
OCC_RI_K 0		
PURECART		1111
MEM_STATIC		2000
MEM_TOTAL		96000
GUI		0
CHILD_MP		1
CHILD_MP_ORDERS		232
FRZ_RELAX		0
FRZ_RELAX_METHOD		0
EDA_CLS_ELEC		1
EDA_CLS_DISP		0
FRZ_ORTHO_DECOMP		1
EDA2		FALSE
FRGM_METHOD		FALSE
CIS_N_ROOTS  0
LOCAL_CIS    0
CIS_RLX_DNS  1
$end
$pcm
THEORY                  CPCM
METHOD                  SWIG
SOLVER                  INVERSION
RADII                   UFF
HPOINTS                 302
HEAVYPOINTS             302
PRINTLEVEL              0
$end
$solvent
DIELECTRIC              78.390000 ! water
$end
--------------------------------------------------------------
 ----------------------------------------------------------------
             Standard Nuclear Orientation (Angstroms)
    I     Atom           X                Y                Z
 ----------------------------------------------------------------
    1      C       2.2209211791    -0.5700983435    -1.8133464148
    2      C       1.0679211791    -1.2100983435     0.4016535852
    3      C       1.8059211791    -0.3940983435    -0.3853464148
    4      C       1.6969211791     0.5239016565     1.6326535852
    5      N       0.9569211791    -0.5780983435     1.6316535852
    6      N       2.2429211791     0.6459016565     0.4326535852
    7      H       0.6199211791    -2.1490983435     0.1116535852
    8      H       0.4299211791    -0.9210983435     2.4276535852
    9      H       2.1259211791     0.3799016565    -2.3413464148
   10      H       1.5409211791    -1.2850983435    -2.2773464148
   11      H       1.8499211791     1.1919016565     2.4736535852
   12      H       3.2510011791    -0.9463583435    -1.8991864148
 ----------------------------------------------------------------
 Nuclear Repulsion Energy =         224.41705957 hartrees
 There are       22 alpha and       22 beta electrons
 Requested basis set is def2-TZVPD
 There are 108 shells and 276 basis functions

 Total QAlloc Memory Limit  96000 MB
 Mega-Array Size      1956 MB
 MEM_STATIC part      2000 MB
 Discretize the solute cavity surface with Lebedev spheres
	Using 302 Lebedev grid points for each H atom
	Using 302 Lebedev grid points for other atoms
	Atomic van der Waals radii will be scaled by 1.20
 Remove points where switching function is < 1.0e-08
 Keep 1528 surface tesserae and discard 2096 interior tesserae
 Molecular Surface Area = 157.367 Angst**2

                       Distance Matrix (Angstroms)
             C (  1)   C (  2)   C (  3)   C (  4)   N (  5)   N (  6)
   C (  2)  2.577835
   C (  3)  1.497460  1.352727
   C (  4)  3.653263  2.217602  2.219669
   N (  5)  3.669576  1.387316  2.196121  1.327405
   N (  6)  2.554145  2.196889  1.393446  1.324009  2.142329
   H (  7)  2.960079  1.080058  2.175691  3.258573  2.211789  3.247952
   H (  8)  4.617030  2.143651  3.175543  2.079745  1.014393  3.118090
   H (  9)  1.091013  3.342381  2.127772  3.999682  4.250771  2.789179
   H ( 10)  1.090377  2.721469  2.108025  4.311023  4.015120  3.400833
   H ( 11)  4.649802  3.267157  3.269742  1.084857  2.153906  2.149010
   H ( 12)  1.100002  3.182650  2.164477  4.129252  4.226730  2.998165
             H (  7)   H (  8)   H (  9)   H ( 10)   H ( 11)
   H (  8)  2.628296
   H (  9)  3.831591  5.226125
   H ( 10)  2.702232  4.848076  1.765941
   H ( 11)  4.272496  2.546230  4.890782  5.366844
   H ( 12)  3.523158  5.165334  1.794513  1.783851  5.065265
 
 A cutoff of  1.0D-14 yielded   5736 shell pairs
 There are     38168 function pairs (     48947 Cartesian)
 Smallest overlap matrix eigenvalue = 1.83E-06

 Scale SEOQF with 1.000000e-01/1.000000e-01/1.000000e-01

 Standard Electronic Orientation quadrupole field applied
 Nucleus-field energy     =    -0.0000000021 hartrees
 Guess from superposition of atomic densities
 Warning:  Energy on first SCF cycle will be non-variational
 SAD guess density has 43.559167 electrons

 -----------------------------------------------------------------------
  General SCF calculation program by
  Eric Jon Sundstrom, Paul Horn, Yuezhi Mao, Dmitri Zuev, Alec White,
  David Stuck, Shaama M.S., Shane Yost, Joonho Lee, David Small,
  Daniel Levine, Susi Lehtola, Hugh Burton, Evgeny Epifanovsky
 -----------------------------------------------------------------------
 Exchange:     0.1670 Hartree-Fock + 1.0000 wB97X-V + LR-HF
 Correlation:  1.0000 wB97X-V
 Using Euler-Maclaurin-Lebedev (99,590) quadrature formula
 Nonlocal Correlation:  VV10 with C = 0.0100 and b = 6.00 and scale = 1.00000
 Grid used for NLC:  SG-1 standard quadrature
Energy prior to optimization (guess energy) = -265.133345799323
Begin Timing: Total SCF Calculation
begin iterations for algorithm: DIIS         
the SCF tolerance is set to 1.00e-08
    1    -265.1333457993      7.28e-03     00000 
    2    -265.0729904133      7.56e-03     00000 
    3    -265.5563606400      7.40e-04     00000 
    4    -265.5600759110      4.32e-04     00000 
    5    -265.5616013622      8.53e-05     00000 
    6    -265.5616884893      3.11e-05     00000 
    7    -265.5617018679      9.56e-06     00000 
    8    -265.5617032870      3.26e-06     00000 
    9    -265.5617034723      1.24e-06     00000 
   10    -265.5617035112      3.36e-07     00000 
   11    -265.5617035153      7.53e-08     00000 
   12    -265.5617035155      4.70e-08     00000 
   13    -265.5617035155      1.01e-08     00000 
   14    -265.5617035155      3.13e-09     00000 Convergence criterion met
Timing for Total SCF: 957.00s (wall), 1900.69s (cpu)

************** Final PCM Free Energy Summary **************
 G_electrostatic  =      -0.01082634 hartree =      -6.79363356 kcal/mol
 G_cavitation     =       0.00000000 hartree =       0.00000000 kcal/mol
 G_dispersion     =       0.00000000 hartree =       0.00000000 kcal/mol
 G_repulsion      =       0.00000000 hartree =       0.00000000 kcal/mol
 --------------------------------------------------
 Non-electrostatic Free Energy =       0.00000000 hartree =       0.00000000 kcal/mol
 Total                         =      -0.01082634 hartree =      -6.79363356 kcal/mol
 --------------------------------------------------
 SCF Energy (H0 + V/2)                       =    -265.56170352 
 Solute Internal Energy (H0)                 =    -265.55087717 
 Total Free Energy (H0 + V/2 + non-elec)     =    -265.56170352 hartree
                                             = -166642.48409088 kcal/mol
***********************************************************

E_pcm = -0.0108263443
Multipole orders to be included
        2
        3
computing dipole RHS
computing quadrupole RHS
total number of RHS in solve_reponses: 8
RHS batch sizes
        8
Beginning Block Conjugate Gradient Iterations. Batch Number: 0
computing hessian-vector products by finite difference
              1      5.70e-01     00000 Conjugate Gradient Iteration
computing hessian-vector products by finite difference
              2      1.84e-01     00000 Conjugate Gradient Iteration
computing hessian-vector products by finite difference
              3      4.44e-02     00000 Conjugate Gradient Iteration
computing hessian-vector products by finite difference
              4      1.35e-02     00000 Conjugate Gradient Iteration
computing hessian-vector products by finite difference
              5      2.94e-03     00000 Conjugate Gradient Iteration
computing hessian-vector products by finite difference
              6      5.17e-04     00000 Conjugate Gradient Iteration
computing hessian-vector products by finite difference
              7      9.76e-05     00000 Conjugate Gradient Iteration
computing hessian-vector products by finite difference
              8      1.58e-05     00000 Conjugate Gradient Iteration
computing hessian-vector products by finite difference
              9      2.92e-06     00000 Conjugate Gradient Iteration
computing hessian-vector products by finite difference
             10      5.18e-07     00000 Conjugate Gradient Iteration
computing hessian-vector products by finite difference
             11      8.06e-08     00000 Conjugate Gradient Iteration
computing hessian-vector products by finite difference
             12      1.16e-08     00000 Conjugate Gradient Iteration
computing hessian-vector products by finite difference
             13      2.23e-09     00000 CG Converged
batch 0 complete
Done Calculating Responses
TESTING ORTHOGONALIZATION OF MULTIPOLE BASIS
Multipole virts passed orthogonality test
Virts Per Order
           66
          110
 
 --------------------------------------------------------------
 
                    Orbital Energies (a.u.)
 --------------------------------------------------------------
 
 Alpha MOs
 -- Occupied --
-14.4656 -14.3869 -10.3238 -10.2906 -10.2879 -10.2659  -1.1553  -0.9935
 -0.9034  -0.8297  -0.7270  -0.6878  -0.6702  -0.5659  -0.5597  -0.5462
 -0.5164  -0.5022  -0.4837  -0.3779  -0.3700  -0.3282
 -- Virtual --
  0.0642   0.0820   0.0929   0.1023   0.1135   0.1230   0.1301   0.1430
  0.1657   0.1680   0.1730   0.1824   0.1942   0.2005   0.2227   0.2375
  0.2415   0.2483   0.2572   0.2587   0.2655   0.2866   0.2919   0.2997
  0.3082   0.3113   0.3174   0.3220   0.3247   0.3339   0.3449   0.3535
  0.3569   0.3648   0.3719   0.3787   0.3910   0.3953   0.4050   0.4117
  0.4148   0.4227   0.4280   0.4467   0.4564   0.4610   0.4689   0.4839
  0.4850   0.4905   0.4946   0.5186   0.5266   0.5415   0.5463   0.5587
  0.5650   0.5721   0.5851   0.5938   0.6009   0.6080   0.6229   0.6277
  0.6495   0.6500   0.6676   0.6796   0.6879   0.6981   0.7025   0.7147
  0.7305   0.7362   0.7578   0.7702   0.7778   0.7839   0.7924   0.7968
  0.8072   0.8136   0.8232   0.8291   0.8604   0.8652   0.8741   0.8914
  0.9185   0.9340   0.9619   0.9900   0.9984   1.0026   1.0169   1.0315
  1.0676   1.0742   1.0962   1.1185   1.1345   1.1460   1.1760   1.2125
  1.2248   1.2282   1.2778   1.3244   1.3387   1.3536   1.3706   1.4132
  1.4391   1.4619   1.5248   1.5434   1.6032   1.6328   1.6531   1.6723
  1.6961   1.7359   1.7939   1.8258   1.8269   1.8518   1.8760   1.8866
  1.9066   1.9443   1.9450   1.9485   1.9661   1.9777   1.9962   2.0070
  2.0136   2.0656   2.0821   2.1265   2.1739   2.2296   2.2610   2.2719
  2.3044   2.3469   2.3668   2.3873   2.4190   2.4577   2.4727   2.4900
  2.5474   2.5793   2.5988   2.6176   2.6283   2.6527   2.6809   2.7094
  2.7323   2.7683   2.7876   2.8282   2.8667   2.8816   2.8974   2.9850
  3.0113   3.0361   3.0453   3.0608   3.0805   3.1201   3.1387   3.1588
  3.1710   3.2068   3.2229   3.2270   3.2648   3.2876   3.2999   3.3385
  3.3464   3.3642   3.3833   3.3911   3.4063   3.4396   3.4706   3.4919
  3.5108   3.5245   3.5612   3.6062   3.6213   3.6418   3.6992   3.7095
  3.7552   3.7805   3.8242   3.8630   3.8704   3.9402   3.9527   4.0331
  4.0805   4.1052   4.1313   4.2239   4.2899   4.3865   4.4136   4.4879
  4.5241   4.5464   4.6076   4.7151   4.7567   4.8044   4.8487   4.8741
  4.9316   4.9629   5.0105   5.0336   5.0424   5.0677   5.1574   5.1838
  5.2339   5.3064   5.3745   5.4403   5.4687   5.5194   5.5725   5.6011
  5.6713   5.6922   5.7390   5.7886   5.8694   6.0345   6.2096   6.2795
 22.6156  22.8455  23.1149  23.3579  32.6431  32.7767
 --------------------------------------------------------------
 
          Ground-State Mulliken Net Atomic Charges

     Atom                 Charge (a.u.)
  ----------------------------------------
      1 C                    -0.739067
      2 C                    -0.514333
      3 C                     0.530476
      4 C                    -0.207020
      5 N                     0.085962
      6 N                    -0.490463
      7 H                     0.257743
      8 H                     0.165871
      9 H                     0.213533
     10 H                     0.222133
     11 H                     0.285656
     12 H                     0.189507
  ----------------------------------------
  Sum of atomic charges =     0.000000

 -----------------------------------------------------------------
                    Cartesian Multipole Moments
 -----------------------------------------------------------------
    Charge (ESU x 10^10)
                 0.0000
    Dipole Moment (Debye)
         X      -2.6414      Y      -2.7301      Z       2.3646
       Tot       4.4746
    Quadrupole Moments (Debye-Ang)
        XX     -45.9262     XY      -3.6360     YY     -35.3686
        XZ      -0.1667     YZ       0.1127     ZZ     -25.0083
    Octopole Moments (Debye-Ang^2)
       XXX    -212.0605    XXY       0.1715    XYY     -66.1197
       YYY      23.6594    XXZ     -12.7894    XYZ       4.4260
       YYZ      -5.5674    XZZ     -50.7709    YZZ       9.7328
       ZZZ       0.2457
    Hexadecapole Moments (Debye-Ang^3)
      XXXX    -811.5747   XXXY      -7.3099   XXYY    -167.5233
      XYYY      23.3099   YYYY    -170.0541   XXXZ     -14.2635
      XXYZ       1.6807   XYYZ       3.0358   YYYZ     -22.1615
      XXZZ    -178.8463   XYZZ      20.0701   YYZZ     -86.4664
      XZZZ      23.8001   YZZZ     -26.0638   ZZZZ    -360.2690
 -----------------------------------------------------------------
Archival summary:
1\1\nid00538\SP\ProcedureUnspecified\BasisUnspecified\246\meili\SunSep2610:11:442021SunSep2610:11:442021\0\\#,ProcedureUnspecified,BasisUnspecified,\\0,1\N\C,1,1.32401\H,2,1.08486,1,125.995\N,2,1.32741,1,107.801,3,-178.483,0\H,4,1.01439,2,124.733,1,179.389,0\C,4,1.38732,2,109.528,1,2.07772,0\H,6,1.08006,4,126.936,2,177.065,0\C,6,1.35273,4,106.539,2,-5.28433,0\C,8,1.49746,6,129.427,4,-179.227,0\H,9,1.09038,8,108.062,6,21.1016,0\H,9,1.09101,8,109.575,6,138.673,0\H,9,1.1,8,111.971,6,-99.0224,0\\\@

 Total job time:  16236.57s(wall), 32116.18s(cpu) 
 Sun Sep 26 10:11:47 2021

        *************************************************************
        *                                                           *
        *  Thank you very much for using Q-Chem.  Have a nice day.  *
        *                                                           *
        *************************************************************


Done Job For Fragment 0
calling putenv with: QCSCRATCH=/global/cscratch1/sd/meili 
calling putenv with: QCLOCALSCR=/tmp 
calling putenv with: QCTHREADS=32 
Creating input file /tmp/qchem13670/Frg2.input
using default PutDataFrgm: nothing
calling putenv with: QCSCRATCH=/tmp/qchem13670/ 
calling putenv with: QCLOCALSCR=/tmp/qchem13670/ 
Spawning Job For Fragment 1
                  Welcome to Q-Chem
     A Quantum Leap Into The Future Of Chemistry


 Q-Chem 5.2, Q-Chem, Inc., Pleasanton, CA (2019)

 License issued to: National Energy Research Scientific Computing Center

 Yihan Shao,  Zhengting Gan,  E. Epifanovsky,  A. T. B. Gilbert,  M. Wormit,  
 J. Kussmann,  A. W. Lange,  A. Behn,  Jia Deng,  Xintian Feng,  D. Ghosh,  
 M. Goldey,  P. R. Horn,  L. D. Jacobson,  I. Kaliman,  T. Kus,  A. Landau,  
 Jie Liu,  E. I. Proynov,  R. M. Richard,  R. P. Steele,  E. J. Sundstrom,  
 H. L. Woodcock III,  P. M. Zimmerman,  D. Zuev,  B. Albrecht,  E. Alguire,  
 S. A. Baeppler,  D. Barton,  Z. Benda,  Y. A. Bernard,  E. J. Berquist,  
 K. B. Bravaya,  H. Burton,  D. Casanova,  Chun-Min Chang,  Yunqing Chen,  
 A. Chien,  K. D. Closser,  M. P. Coons,  S. Coriani,  S. Dasgupta,  
 A. L. Dempwolff,  M. Diedenhofen,  Hainam Do,  R. G. Edgar,  Po-Tung Fang,  
 S. Faraji,  S. Fatehi,  Qingguo Feng,  K. D. Fenk,  J. Fosso-Tande,  
 J. Gayvert,  Qinghui Ge,  A. Ghysels,  G. Gidofalvi,  J. Gomes,  
 J. Gonthier,  A. Gunina,  D. Hait,  M. W. D. Hanson-Heine,  
 P. H. P. Harbach,  A. W. Hauser,  M. F. Herbst,  J. E. Herr,  
 E. G. Hohenstein,  Z. C. Holden,  Kerwin Hui,  B. C. Huynh,  T.-C. Jagau,  
 Hyunjun Ji,  B. Kaduk,  K. Khistyaev,  Jaehoon Kim,  P. Klunzinger,  K. Koh,  
 D. Kosenkov,  L. Koulias,  T. Kowalczyk,  C. M. Krauter,  A. Kunitsa,  
 Ka Un Lao,  A. Laurent,  K. V. Lawler,  Joonho Lee,  D. Lefrancois,  
 S. Lehtola,  D. S. Levine,  Yi-Pei Li,  You-Sheng Lin,  Fenglai Liu,  
 E. Livshits,  A. Luenser,  P. Manohar,  E. Mansoor,  S. F. Manzer,  
 Shan-Ping Mao,  Yuezhi Mao,  N. Mardirossian,  A. V. Marenich,  
 T. Markovich,  L. A. Martinez-Martinez,  S. A. Maurer,  N. J. Mayhall,  
 S. C. McKenzie,  J.-M. Mewes,  P. Morgante,  A. F. Morrison,  
 J. W. Mullinax,  K. Nanda,  T. S. Nguyen-Beck,  R. Olivares-Amaya,  
 J. A. Parkhill,  Zheng Pei,  T. M. Perrine,  F. Plasser,  P. Pokhilko,  
 S. Prager,  A. Prociuk,  E. Ramos,  D. R. Rehn,  F. Rob,  M. Scheurer,  
 M. Schneider,  N. Sergueev,  S. M. Sharada,  S. Sharma,  D. W. Small,  
 T. Stauch,  T. Stein,  Yu-Chuan Su,  A. J. W. Thom,  A. Tkatchenko,  
 T. Tsuchimochi,  N. M. Tubman,  L. Vogt,  M. L. Vidal,  O. Vydrov,  
 M. A. Watson,  J. Wenzel,  M. de Wergifosse,  T. A. Wesolowski,  A. White,  
 J. Witte,  A. Yamada,  Jun Yang,  K. Yao,  S. Yeganeh,  S. R. Yost,  
 Zhi-Qiang You,  A. Zech,  Igor Ying Zhang,  Xing Zhang,  Yan Zhao,  
 Ying Zhu,  B. R. Brooks,  G. K. L. Chan,  C. J. Cramer,  M. S. Gordon,  
 W. J. Hehre,  A. Klamt,  M. W. Schmidt,  C. D. Sherrill,  D. G. Truhlar,  
 A. Aspuru-Guzik,  R. Baer,  A. T. Bell,  N. A. Besley,  Jeng-Da Chai,  
 A. E. DePrince, III,  R. A. DiStasio Jr.,  A. Dreuw,  B. D. Dunietz,  
 T. R. Furlani,  Chao-Ping Hsu,  Yousung Jung,  Jing Kong,  D. S. Lambrecht,  
 WanZhen Liang,  C. Ochsenfeld,  V. A. Rassolov,  L. V. Slipchenko,  
 J. E. Subotnik,  T. Van Voorhis,  J. M. Herbert,  A. I. Krylov,  
 P. M. W. Gill,  M. Head-Gordon

 Contributors to earlier versions of Q-Chem not listed above: 
 R. D. Adamson,  B. Austin,  J. Baker,  G. J. O. Beran,  K. Brandhorst,  
 S. T. Brown,  E. F. C. Byrd,  A. K. Chakraborty,  C.-L. Cheng,  
 Siu Hung Chien,  D. M. Chipman,  D. L. Crittenden,  H. Dachsel,  
 R. J. Doerksen,  A. D. Dutoi,  L. Fusti-Molnar,  W. A. Goddard III,  
 A. Golubeva-Zadorozhnaya,  S. R. Gwaltney,  G. Hawkins,  A. Heyden,  
 S. Hirata,  G. Kedziora,  F. J. Keil,  C. Kelley,  Jihan Kim,  R. A. King,  
 R. Z. Khaliullin,  P. P. Korambath,  W. Kurlancheek,  A. M. Lee,  M. S. Lee,  
 S. V. Levchenko,  Ching Yeh Lin,  D. Liotard,  R. C. Lochan,  I. Lotan,  
 P. E. Maslen,  N. Nair,  D. P. O'Neill,  D. Neuhauser,  E. Neuscamman,  
 C. M. Oana,  R. Olson,  B. Peters,  R. Peverati,  P. A. Pieniazek,  
 Y. M. Rhee,  J. Ritchie,  M. A. Rohrdanz,  E. Rosta,  N. J. Russ,  
 H. F. Schaefer III,  N. E. Schultz,  N. Shenvi,  A. C. Simmonett,  A. Sodt,  
 D. Stuck,  K. S. Thanthiriwatte,  V. Vanovschi,  Tao Wang,  A. Warshel,  
 C. F. Williams,  Q. Wu,  X. Xu,  W. Zhang

 Please cite Q-Chem as follows:
 Y. Shao et al., Mol. Phys. 113, 184-215 (2015)
 DOI: 10.1080/00268976.2014.952696

 Q-Chem 5.2.0 for Intel X86 EM64T Linux

 Parts of Q-Chem use Armadillo 8.300.2 (Tropical Shenanigans).
 http://arma.sourceforge.net/

 Q-Chem begins on Sun Sep 26 10:11:51 2021  

Host: cori01
0

     Scratch files written to /tmp/qchem13670//Frg2//
 May1019 |scratch|qcdevops|jenkins|workspace|build_RNUM -1
Processing $rem in /global/common/cori/software/qchem/5.2/config/preferences:
	 MEM_TOTAL  96000 
NAlpha2: 40
NElect   40
Mult     1
Symmetry turned off for PCM/SM12/SMD calculation

Checking the input file for inconsistencies... 	...done.

--------------------------------------------------------------
User input:
--------------------------------------------------------------
$molecule
1 1
 6	-2.4480788209	-1.0490983435	-1.6303464148
 6	-1.6750788209	0.6429016565	-0.0313464148
 7	-1.7100788209	0.1479016565	-1.2583464148
 7	-2.3710788209	0.0489016565	0.9356535852
 7	-0.9730788209	1.7289016565	0.2196535852
 1	-1.2220788209	0.6509016565	-1.9853464148
 1	-2.9260788209	-0.7630983435	0.7316535852
 1	-2.3840788209	0.4399016565	1.8646535852
 1	-0.4000788209	2.1399016565	-0.4983464148
 1	-0.9450788209	2.1099016565	1.1496535852
 1	-3.1370788209	-0.7660983435	-2.4293464148
 1	-3.0490788209	-1.4720983435	-0.8253464148
 1	-1.7621488209	-1.8204983435	-2.0103964148
$end
$rem
EDA2		1
METHOD		WB97X-V
BASIS		DEF2-TZVPD
XC_GRID		000099000590
NL_GRID		1
UNRESTRICTED		FALSE
MAX_SCF_CYCLES		200
SYMMETRY		FALSE
SYM_IGNORE		TRUE
BASIS_LIN_DEP_THRESH		6
THRESH		14
SCF_CONVERGENCE		8
SCF_PRINT_FRGM		TRUE
SOLVENT_METHOD		PCM
!required keywords
JOBTYPE		SP
SYM_IGNORE		TRUE
SUBSYSTEM		TRUE
GEN_SCFMAN		TRUE
CHILD_INSTRUCTION		2
SYM_IGNORE		TRUE
SCFMI		0
RI_K 0		
PARI_K 0		
MIN_PARI_K 0		
IARI_K 0		
OCC_RI_K 0		
PURECART		1111
MEM_STATIC		2000
MEM_TOTAL		96000
GUI		0
CHILD_MP		1
CHILD_MP_ORDERS		232
FRZ_RELAX		0
FRZ_RELAX_METHOD		0
EDA_CLS_ELEC		1
EDA_CLS_DISP		0
FRZ_ORTHO_DECOMP		1
EDA2		FALSE
FRGM_METHOD		FALSE
CIS_N_ROOTS  0
LOCAL_CIS    0
CIS_RLX_DNS  1
$end
$pcm
THEORY                  CPCM
METHOD                  SWIG
SOLVER                  INVERSION
RADII                   UFF
HPOINTS                 302
HEAVYPOINTS             302
PRINTLEVEL              0
$end
$solvent
DIELECTRIC              78.390000 ! water
$end
--------------------------------------------------------------
 ----------------------------------------------------------------
             Standard Nuclear Orientation (Angstroms)
    I     Atom           X                Y                Z
 ----------------------------------------------------------------
    1      C      -2.4480788209    -1.0490983435    -1.6303464148
    2      C      -1.6750788209     0.6429016565    -0.0313464148
    3      N      -1.7100788209     0.1479016565    -1.2583464148
    4      N      -2.3710788209     0.0489016565     0.9356535852
    5      N      -0.9730788209     1.7289016565     0.2196535852
    6      H      -1.2220788209     0.6509016565    -1.9853464148
    7      H      -2.9260788209    -0.7630983435     0.7316535852
    8      H      -2.3840788209     0.4399016565     1.8646535852
    9      H      -0.4000788209     2.1399016565    -0.4983464148
   10      H      -0.9450788209     2.1099016565     1.1496535852
   11      H      -3.1370788209    -0.7660983435    -2.4293464148
   12      H      -3.0490788209    -1.4720983435    -0.8253464148
   13      H      -1.7621488209    -1.8204983435    -2.0103964148
 ----------------------------------------------------------------
 Nuclear Repulsion Energy =         194.60692254 hartrees
 There are       20 alpha and       20 beta electrons
 Requested basis set is def2-TZVPD
 There are 105 shells and 257 basis functions

 Total QAlloc Memory Limit  96000 MB
 Mega-Array Size      1956 MB
 MEM_STATIC part      2000 MB
 Discretize the solute cavity surface with Lebedev spheres
	Using 302 Lebedev grid points for each H atom
	Using 302 Lebedev grid points for other atoms
	Atomic van der Waals radii will be scaled by 1.20
 Remove points where switching function is < 1.0e-08
 Keep 1564 surface tesserae and discard 2362 interior tesserae
 Molecular Surface Area = 151.347 Angst**2

                       Distance Matrix (Angstroms)
             C (  1)   C (  2)   N (  3)   N (  4)   N (  5)   H (  6)
   C (  2)  2.452997
   N (  3)  1.454592  1.323548
   N (  4)  2.792112  1.331293  2.293547
   N (  5)  3.649029  1.317270  2.286310  2.299883
   H (  6)  2.125818  2.005839  1.009793  3.196067  2.467004
   H (  7)  2.426793  2.030765  2.503733  1.004482  3.207244  3.505011
   H (  8)  3.799505  2.034381  3.208219  1.008013  2.521600  4.027067
   H (  9)  3.955433  2.021070  2.502352  3.211460  1.006367  2.259198
   H ( 10)  4.468410  2.019839  3.198927  2.515351  1.005408  3.468953
   H ( 11)  1.092342  3.142154  2.059846  3.546013  4.233807  2.423273
   H ( 12)  1.090025  2.644151  2.145882  2.423684  3.955781  3.031610
   H ( 13)  1.099998  3.161101  2.107816  3.541845  4.265442  2.529846
             H (  7)   H (  8)   H (  9)   H ( 10)   H ( 11)   H ( 12)
   H (  8)  1.739156
   H (  9)  4.039924  3.522787
   H ( 10)  3.514714  2.317509  1.736038
   H ( 11)  3.168036  4.523260  4.434497  5.087778
   H ( 12)  1.715243  3.366611  4.491177  4.599801  1.754707
   H ( 13)  3.160960  4.529042  4.452673  5.108969  1.782614  1.783792

 
 A cutoff of  1.0D-14 yielded   5441 shell pairs
 There are     33173 function pairs (     41507 Cartesian)
 Smallest overlap matrix eigenvalue = 1.40E-05

 Scale SEOQF with 1.000000e-01/1.000000e-01/1.000000e-01

 Standard Electronic Orientation quadrupole field applied
 Nucleus-field energy     =     0.0000000032 hartrees
 Guess from superposition of atomic densities
 Warning:  Energy on first SCF cycle will be non-variational
 SAD guess density has 40.388232 electrons

 -----------------------------------------------------------------------
  General SCF calculation program by
  Eric Jon Sundstrom, Paul Horn, Yuezhi Mao, Dmitri Zuev, Alec White,
  David Stuck, Shaama M.S., Shane Yost, Joonho Lee, David Small,
  Daniel Levine, Susi Lehtola, Hugh Burton, Evgeny Epifanovsky
 -----------------------------------------------------------------------
 Exchange:     0.1670 Hartree-Fock + 1.0000 wB97X-V + LR-HF
 Correlation:  1.0000 wB97X-V
 Using Euler-Maclaurin-Lebedev (99,590) quadrature formula
 Nonlocal Correlation:  VV10 with C = 0.0100 and b = 6.00 and scale = 1.00000
 Grid used for NLC:  SG-1 standard quadrature
Energy prior to optimization (guess energy) = -244.722376379257
Begin Timing: Total SCF Calculation
begin iterations for algorithm: DIIS         
the SCF tolerance is set to 1.00e-08
    1    -244.7223763793      7.94e-03     00000 
    2    -244.9391833912      6.22e-03     00000 
    3    -245.1771480906      3.06e-04     00000 
    4    -245.1777703507      1.71e-04     00000 
    5    -245.1779725928      3.41e-05     00000 
    6    -245.1779812361      1.42e-05     00000 
    7    -245.1779828913      2.26e-06     00000 
    8    -245.1779829687      7.94e-07     00000 
    9    -245.1779829784      3.20e-07     00000 
   10    -245.1779829801      9.64e-08     00000 
   11    -245.1779829802      4.46e-08     00000 
   12    -245.1779829803      9.48e-09     00000 Convergence criterion met
Timing for Total SCF: 699.00s (wall), 1387.65s (cpu)

************** Final PCM Free Energy Summary **************
 G_electrostatic  =      -0.08169600 hartree =     -51.26501270 kcal/mol
 G_cavitation     =       0.00000000 hartree =       0.00000000 kcal/mol
 G_dispersion     =       0.00000000 hartree =       0.00000000 kcal/mol
 G_repulsion      =       0.00000000 hartree =       0.00000000 kcal/mol
 --------------------------------------------------
 Non-electrostatic Free Energy =       0.00000000 hartree =       0.00000000 kcal/mol
 Total                         =      -0.08169600 hartree =     -51.26501270 kcal/mol
 --------------------------------------------------
 SCF Energy (H0 + V/2)                       =    -245.17798298 
 Solute Internal Energy (H0)                 =    -245.09628698 
 Total Free Energy (H0 + V/2 + non-elec)     =    -245.17798298 hartree
                                             = -153851.50640079 kcal/mol
***********************************************************

E_pcm = -0.0816959983
Multipole orders to be included
        2
        3
computing dipole RHS
computing quadrupole RHS
total number of RHS in solve_reponses: 8
RHS batch sizes
        8
Beginning Block Conjugate Gradient Iterations. Batch Number: 0
computing hessian-vector products by finite difference
              1      4.58e-01     00000 Conjugate Gradient Iteration
computing hessian-vector products by finite difference
              2      1.79e-01     00000 Conjugate Gradient Iteration
computing hessian-vector products by finite difference
              3      4.84e-02     00000 Conjugate Gradient Iteration
computing hessian-vector products by finite difference
              4      1.29e-02     00000 Conjugate Gradient Iteration
computing hessian-vector products by finite difference
              5      1.93e-03     00000 Conjugate Gradient Iteration
computing hessian-vector products by finite difference
              6      3.00e-04     00000 Conjugate Gradient Iteration
computing hessian-vector products by finite difference
              7      4.05e-05     00000 Conjugate Gradient Iteration
computing hessian-vector products by finite difference
              8      5.08e-06     00000 Conjugate Gradient Iteration
computing hessian-vector products by finite difference
              9      7.27e-07     00000 Conjugate Gradient Iteration
computing hessian-vector products by finite difference
             10      1.30e-07     00000 Conjugate Gradient Iteration
computing hessian-vector products by finite difference
             11      2.09e-08     00000 Conjugate Gradient Iteration
computing hessian-vector products by finite difference
             12      4.44e-09     00000 CG Converged
batch 0 complete
Done Calculating Responses
TESTING ORTHOGONALIZATION OF MULTIPOLE BASIS
Multipole virts passed orthogonality test
Virts Per Order
           60
          100
 
 --------------------------------------------------------------
 
                    Orbital Energies (a.u.)
 --------------------------------------------------------------
 
 Alpha MOs
 -- Occupied --
-14.4829 -14.4753 -14.4745 -10.4508 -10.3312  -1.2008  -1.0845  -1.0712
 -0.8815  -0.7947  -0.7554  -0.7188  -0.6469  -0.6433  -0.6207  -0.5996
 -0.5516  -0.5358  -0.4258  -0.4002
 -- Virtual --
  0.0484   0.0755   0.0811   0.0865   0.1138   0.1171   0.1246   0.1416
  0.1579   0.1716   0.1791   0.1846   0.1904   0.2027   0.2057   0.2189
  0.2302   0.2372   0.2396   0.2558   0.2700   0.2742   0.2900   0.2941
  0.2967   0.3035   0.3107   0.3121   0.3167   0.3348   0.3405   0.3487
  0.3525   0.3556   0.3633   0.3728   0.4011   0.4060   0.4127   0.4203
  0.4287   0.4334   0.4467   0.4625   0.4659   0.4726   0.4779   0.4866
  0.4999   0.5037   0.5077   0.5144   0.5197   0.5283   0.5304   0.5445
  0.5469   0.5619   0.5763   0.5804   0.5970   0.6075   0.6212   0.6379
  0.6428   0.6653   0.6756   0.6815   0.6917   0.7037   0.7311   0.7478
  0.7796   0.7874   0.7892   0.8053   0.8180   0.8206   0.8395   0.8550
  0.8620   0.8709   0.8838   0.9100   0.9295   0.9545   0.9773   0.9822
  1.0277   1.0448   1.0697   1.0800   1.0885   1.0972   1.1112   1.1356
  1.1555   1.1639   1.2009   1.2257   1.2562   1.3296   1.3671   1.4021
  1.4187   1.4213   1.4618   1.4788   1.5219   1.5457   1.6289   1.6394
  1.6612   1.6689   1.7177   1.7621   1.7737   1.8050   1.8581   1.8727
  1.8825   1.8903   1.9183   1.9671   1.9781   1.9938   2.0091   2.0408
  2.0724   2.0918   2.1481   2.1983   2.2132   2.2189   2.2488   2.2607
  2.2791   2.3448   2.3525   2.3838   2.4242   2.4505   2.4756   2.5323
  2.5554   2.5741   2.5876   2.6148   2.6435   2.6488   2.6872   2.7126
  2.7270   2.7964   2.8236   2.8520   2.8695   2.9005   2.9065   2.9667
  3.0329   3.1191   3.1217   3.1268   3.1543   3.1654   3.2077   3.2163
  3.2531   3.2716   3.2842   3.2972   3.3387   3.3477   3.4247   3.4315
  3.5060   3.5233   3.5297   3.5511   3.5665   3.6491   3.7195   3.7256
  3.7826   3.8560   3.8934   3.9756   4.0321   4.1362   4.1646   4.2147
  4.2499   4.2595   4.2970   4.3389   4.3947   4.5220   4.5545   4.5885
  4.6553   4.8057   4.8310   4.8424   4.8939   4.9656   4.9999   5.0193
  5.0865   5.0943   5.1232   5.1694   5.1809   5.2010   5.2499   5.3425
  5.3720   5.3894   5.4281   5.4334   5.4619   5.4783   5.5634   5.6144
  5.6894   5.7638   5.7782   5.8715   6.1341   6.1684   6.3608   6.4490
 22.6409  23.5979  32.3102  32.4229  32.7958
 --------------------------------------------------------------
 
          Ground-State Mulliken Net Atomic Charges

     Atom                 Charge (a.u.)
  ----------------------------------------
      1 C                    -0.734504
      2 C                     0.605912
      3 N                    -0.084115
      4 N                    -0.208761
      5 N                    -0.252967
      6 H                     0.213401
      7 H                     0.086064
      8 H                     0.201538
      9 H                     0.203116
     10 H                     0.197064
     11 H                     0.254950
     12 H                     0.283783
     13 H                     0.234518
  ----------------------------------------
  Sum of atomic charges =     1.000000

 -----------------------------------------------------------------
                    Cartesian Multipole Moments
 -----------------------------------------------------------------
    Charge (ESU x 10^10)
                 4.8032
    Dipole Moment (Debye)
         X      -8.2772      Y       2.6905      Z      -0.7402
       Tot       8.7349
    Quadrupole Moments (Debye-Ang)
        XX     -11.5261     XY       2.9794     YY     -19.3263
        XZ      -0.9339     YZ       2.6560     ZZ     -16.0157
    Octopole Moments (Debye-Ang^2)
       XXX     121.4158    XXY     -23.5821    XYY      47.0671
       YYY      -8.8437    XXZ      15.1654    XYZ      -6.5302
       YYZ      12.0323    XZZ      30.5857    YZZ      -0.2269
       ZZZ      29.6969
    Hexadecapole Moments (Debye-Ang^3)
      XXXX    -604.7024   XXXY      47.0846   XXYY    -142.3326
      XYYY      -2.0769   YYYY    -183.4596   XXXZ     -83.5937
      XXYZ      -2.6587   XYYZ     -28.0685   YYYZ     -32.1335
      XXZZ    -107.8232   XYZZ      -6.4576   YYZZ     -59.0749
      XZZZ     -71.9586   YZZZ     -33.2324   ZZZZ    -196.8897
 -----------------------------------------------------------------
Archival summary:
1\1\nid00538\SP\ProcedureUnspecified\BasisUnspecified\328(1+,1)\meili\SunSep2614:01:182021SunSep2614:01:182021\0\\#,ProcedureUnspecified,BasisUnspecified,\\1,1\C\N,1,1.31727\H,2,1.00541,1,120.233\H,2,1.00637,1,120.277,3,174.907,0\N,1,1.32355,2,119.939,3,179.861,0\H,5,1.00979,1,117.928,2,-2.72971,0\N,1,1.33129,2,120.534,3,1.02761,0\H,7,1.00448,1,120.134,2,178.181,0\H,7,1.00801,1,120.205,2,1.50291,0\C,5,1.45459,1,123.936,2,179.57,0\H,10,1.09003,5,114.218,1,4.84655,0\H,10,1.09234,5,107.091,1,123.164,0\H,10,1.1,5,110.43,1,-118.519,0\\\@

 Total job time:  13772.08s(wall), 27295.45s(cpu) 
 Sun Sep 26 14:01:23 2021

        *************************************************************
        *                                                           *
        *  Thank you very much for using Q-Chem.  Have a nice day.  *
        *                                                           *
        *************************************************************


Done Job For Fragment 1
calling putenv with: QCSCRATCH=/global/cscratch1/sd/meili 
calling putenv with: QCLOCALSCR=/tmp 
calling putenv with: QCTHREADS=32 
Doing General SCFMI
 Exchange:     0.1670 Hartree-Fock + 1.0000 wB97X-V + LR-HF
 Correlation:  1.0000 wB97X-V
 Using Euler-Maclaurin-Lebedev (99,590) quadrature formula
 Nonlocal Correlation:  VV10 with C = 0.0100 and b = 6.00 and scale = 1.00000
 Grid used for NLC:  SG-1 standard quadrature
performing fock build before subrot guess so that all methods have access
Printing subrot_rss_gen Method Specification:
Occupied Subspace Method is 0
Virtual Subspace Method is 0
Energy of the unrelaxed supersystem initial determinant -510.651914714131
performing fock build before subrot guess so that all methods have access
Printing subrot_rss_gen Method Specification:
Occupied Subspace Method is 0
Virtual Subspace Method is 0
Energy of the unrelaxed supersystem initial determinant w/ solvent -510.743847749066
write pseudocanon occs and virts to disk
write pseudocanon orbital energies to disk
Tolerance of ortho_decomp_scf: 1.00e-06
GDM subspace size: 20
Beginning the Orthogonal Decomposition of the Initial Supersystem Wavefunction
    1    -510.6221966564      2.91e-02     ortho_decomp Preconditoned Steepest Descent
    2    -510.6243821458      6.78e-04     ortho_decomp BFGS Step
    3    -510.6243881641      4.63e-05     ortho_decomp BFGS Step
    4    -510.6243881720      1.58e-06     ortho_decomp BFGS Step
    5    -510.6243881720      3.53e-08     ortho_decomp 00000 Convergence criterion met
 Hartree-Fock
 Hartree-Fock
 Hartree-Fock
Doing General SCFMI
 Exchange:     0.1670 Hartree-Fock + 1.0000 wB97X-V + LR-HF
 Correlation:  1.0000 wB97X-V
 Using Euler-Maclaurin-Lebedev (99,590) quadrature formula
 Nonlocal Correlation:  VV10 with C = 0.0100 and b = 6.00 and scale = 1.00000
 Grid used for NLC:  SG-1 standard quadrature
performing fock build at end of subrot_r(subrot) constructor so that all methods have access
<S^2> of initial wavefunction before polarization iterations 0.0000000000
Beginning iterations for the determination of the polarized wavefunction
Energy prior to optimization (guess energy) = -510.743847749066
Begin Timing: Total SCF Calculation
begin iterations for algorithm: DIIS         
the SCF tolerance is set to 1.00e-08
    1    -510.7438477491      8.11e-05     00000 
    2    -510.7443528559      3.50e-05     00000 
    3    -510.7444069475      1.50e-05     00000 
    4    -510.7444203969      7.59e-06     00000 
    5    -510.7444231502      2.78e-06     00000 
    6    -510.7444237639      1.46e-06     00000 
    7    -510.7444238629      4.78e-07     00000 
    8    -510.7444238746      2.07e-07     00000 
    9    -510.7444238760      8.67e-08     00000 
   10    -510.7444238763      3.01e-08     00000 
   11    -510.7444238763      1.36e-08     00000 
   12    -510.7444238763      5.41e-09     00000 Convergence criterion met
write pseudocanon occs and virts to disk
write pseudocanon orbital energies to disk
Timing for Total SCF: 6066.00s (wall), 12073.28s (cpu)
<S^2> of polarized wavefunction after polarization iterations 0.0000000000
relaxing scfmi constraint to allow all rotations in the entire AO span
Doing General SCFMI
 Exchange:     0.1670 Hartree-Fock + 1.0000 wB97X-V + LR-HF
 Correlation:  1.0000 wB97X-V
 Using Euler-Maclaurin-Lebedev (99,590) quadrature formula
 Nonlocal Correlation:  VV10 with C = 0.0100 and b = 6.00 and scale = 1.00000
 Grid used for NLC:  SG-1 standard quadrature
performing fock build at end of subrot_r(subrot) constructor so that all methods have access
<S^2> of polarized wavefunction before ct-allowed iterations 0.0000000000
Beginning iterations for the determination of the CT-Allowed wavefunction
Energy prior to optimization (guess energy) = -510.744423876297
Begin Timing: Total SCF Calculation
begin iterations for algorithm: DIIS         
the SCF tolerance is set to 1.00e-08
    1    -510.7444238763      8.69e-05     00000 
    2    -510.7453579877      8.27e-06     00000 
    3    -510.7453904111      1.67e-06     00000 
    4    -510.7453923198      6.57e-07     00000 
    5    -510.7453924134      2.66e-07     00000 
    6    -510.7453924315      9.18e-08     00000 
    7    -510.7453924329      2.37e-08     00000 
    8    -510.7453924330      1.04e-08     00000 
    9    -510.7453924331      3.42e-09     00000 Convergence criterion met
write pseudocanon occs and virts to disk
write pseudocanon orbital energies to disk
Timing for Total SCF: 4452.00s (wall), 8862.00s (cpu)
<S^2> of ct_allowed wavefunction after ct-allowed iterations 0.0000000000

================================
        Results of EDA2         
================================
Basic EDA Quantities
--------------------
Fragment Energies (Ha):
1 -265.5617035155
2 -245.1779829803
--------------------
  E_prp (kJ/mol) = -0.0000
  E_sol (kJ/mol) = 1.5472
  E_frz (kJ/mol) = -12.4727
  E_pol (kJ/mol) = -1.5126
  E_vct (kJ/mol) = -2.5430
  E_int (kJ/mol) = -14.9811
--------------------


Initial Wavefunction Decomposition
--------------------
  --------------------
  Orthogonal Fragment Subspace Decomposition:
  --------------------
     E_elec   (ELEC)   (kJ/mol) = -33.9178
     E_pauli  (PAULI)  (kJ/mol) = 46.7721
     E_disp   (DISP)   (kJ/mol) = -25.3270
     --------------------
     Terms summing to E_pauli:
     --------------------
        E_kep_pauli       (kJ/mol) = 59.7990
        E_disp_free_pauli (kJ/mol) = -13.0270
  --------------------
  Classical Frozen Decomposition:
  --------------------
     E_cls_elec  (CLS ELEC)  (kJ/mol) = -13.3541
     E_cls_pauli (CLS PAULI) (kJ/mol) = 0.8813
    [E_mod_pauli (MOD PAULI) (kJ/mol) = 26.2084 (CLS PAULI - DISP from orthogonal decomposition) ]
  --------------------
--------------------

Simplified EDA Summary (kJ/mol)
--------------------
 PREPARATION     -0.0000
 SOLVATION       1.5472
 FROZEN          12.8543      (does not include dispersion)
[PAULI           46.7721]     (if this is negligible, then frozen describes electrostatics)
 DISPERSION      -25.3270
 POLARIZATION    -1.5126
 CHARGE TRANSFER -2.5430
 TOTAL           -14.9811     (PRP + SOL + FRZ + DISP + POL + CT)
--------------------
 
 --------------------------------------------------------------
 
                    Orbital Energies (a.u.)
 --------------------------------------------------------------
 
 Alpha MOs
 -- Occupied --
-14.4815 -14.4741 -14.4736 -14.4713 -14.3920 -10.4496 -10.3311 -10.3290
-10.2963 -10.2936 -10.2698  -1.1998  -1.1613  -1.0834  -1.0705  -0.9991
 -0.9088  -0.8809  -0.8346  -0.7940  -0.7546  -0.7325  -0.7179  -0.6933
 -0.6755  -0.6459  -0.6428  -0.6230  -0.5990  -0.5725  -0.5649  -0.5517
 -0.5484  -0.5356  -0.5201  -0.5068  -0.4879  -0.4263  -0.4001  -0.3828
 -0.3746  -0.3334
 -- Virtual --
  0.0481   0.0685   0.0695   0.0720   0.0822   0.0940   0.0966   0.1021
  0.1047   0.1091   0.1164   0.1201   0.1272   0.1378   0.1460   0.1487
  0.1584   0.1604   0.1674   0.1712   0.1803   0.1863   0.1978   0.2057
  0.2077   0.2107   0.2171   0.2220   0.2259   0.2276   0.2371   0.2477
  0.2495   0.2533   0.2559   0.2648   0.2653   0.2762   0.2836   0.2856
  0.2896   0.2932   0.2985   0.3036   0.3043   0.3085   0.3117   0.3161
  0.3182   0.3272   0.3295   0.3306   0.3342   0.3398   0.3430   0.3481
  0.3512   0.3537   0.3562   0.3636   0.3692   0.3726   0.3746   0.3813
  0.3860   0.3936   0.3957   0.4019   0.4043   0.4104   0.4146   0.4175
  0.4208   0.4263   0.4288   0.4313   0.4354   0.4390   0.4475   0.4540
  0.4625   0.4642   0.4663   0.4726   0.4740   0.4848   0.4862   0.4881
  0.4926   0.4966   0.5046   0.5055   0.5085   0.5159   0.5214   0.5246
  0.5289   0.5329   0.5391   0.5428   0.5463   0.5553   0.5584   0.5592
  0.5665   0.5707   0.5771   0.5815   0.5873   0.5943   0.6001   0.6049
  0.6137   0.6161   0.6255   0.6264   0.6309   0.6397   0.6414   0.6513
  0.6571   0.6617   0.6649   0.6737   0.6765   0.6817   0.6881   0.6948
  0.7005   0.7018   0.7051   0.7160   0.7220   0.7323   0.7395   0.7439
  0.7483   0.7576   0.7635   0.7660   0.7732   0.7775   0.7848   0.7881
  0.7992   0.8066   0.8091   0.8129   0.8233   0.8294   0.8313   0.8393
  0.8405   0.8478   0.8537   0.8641   0.8670   0.8729   0.8838   0.8872
  0.8983   0.9031   0.9061   0.9137   0.9212   0.9274   0.9374   0.9496
  0.9621   0.9667   0.9749   0.9780   0.9944   1.0007   1.0111   1.0309
  1.0365   1.0391   1.0496   1.0569   1.0607   1.0660   1.0786   1.0922
  1.0955   1.1039   1.1136   1.1242   1.1283   1.1327   1.1459   1.1653
  1.1717   1.1828   1.1893   1.2095   1.2162   1.2201   1.2315   1.2349
  1.2512   1.2748   1.2927   1.2991   1.3132   1.3470   1.3526   1.3642
  1.3777   1.3817   1.3911   1.4075   1.4280   1.4416   1.4537   1.4739
  1.4807   1.5059   1.5253   1.5354   1.5591   1.5800   1.5857   1.6102
  1.6232   1.6473   1.6505   1.6653   1.6714   1.6760   1.7041   1.7124
  1.7190   1.7418   1.7509   1.7805   1.8000   1.8142   1.8354   1.8472
  1.8574   1.8761   1.8915   1.9003   1.9089   1.9124   1.9330   1.9393
  1.9480   1.9562   1.9668   1.9697   1.9853   1.9936   2.0060   2.0087
  2.0202   2.0407   2.0515   2.0610   2.0697   2.0794   2.1027   2.1097
  2.1221   2.1331   2.1561   2.1703   2.1850   2.2263   2.2294   2.2462
  2.2573   2.2648   2.2833   2.2916   2.3065   2.3178   2.3246   2.3355
  2.3464   2.3693   2.3856   2.3977   2.4072   2.4211   2.4347   2.4491
  2.4754   2.4811   2.4971   2.5088   2.5242   2.5562   2.5648   2.5856
  2.5941   2.6028   2.6196   2.6342   2.6393   2.6584   2.6731   2.6811
  2.6990   2.7149   2.7253   2.7297   2.7345   2.7385   2.7614   2.7812
  2.7852   2.8085   2.8249   2.8485   2.8738   2.8798   2.8930   2.9017
  2.9188   2.9302   2.9382   2.9683   2.9945   3.0163   3.0296   3.0387
  3.0709   3.0808   3.0906   3.1059   3.1158   3.1326   3.1512   3.1595
  3.1680   3.1772   3.1823   3.1961   3.2011   3.2142   3.2329   3.2435
  3.2544   3.2576   3.2762   3.2977   3.3024   3.3112   3.3215   3.3268
  3.3389   3.3513   3.3567   3.3689   3.3789   3.3867   3.4057   3.4190
  3.4354   3.4392   3.4584   3.4640   3.4796   3.5096   3.5190   3.5250
  3.5312   3.5443   3.5681   3.5705   3.5798   3.5957   3.6005   3.6154
  3.6536   3.6544   3.6749   3.7027   3.7246   3.7348   3.7518   3.7678
  3.7905   3.8040   3.8136   3.8442   3.8744   3.8759   3.9002   3.9317
  3.9699   3.9743   4.0036   4.0532   4.0670   4.1014   4.1274   4.1514
  4.1789   4.2074   4.2448   4.2569   4.2849   4.2893   4.3092   4.3229
  4.3618   4.4109   4.4257   4.4283   4.5146   4.5271   4.5444   4.5597
  4.5748   4.6075   4.6315   4.6835   4.7278   4.7869   4.8159   4.8480
  4.8599   4.8793   4.8867   4.8947   4.9289   4.9535   4.9830   5.0021
  5.0133   5.0355   5.0407   5.0647   5.0736   5.0827   5.1079   5.1450
  5.1506   5.1775   5.1949   5.2112   5.2253   5.2736   5.2837   5.2958
  5.3552   5.3667   5.3977   5.4113   5.4357   5.4576   5.4585   5.4702
  5.4783   5.5098   5.5186   5.5332   5.5789   5.6056   5.6195   5.6410
  5.6923   5.7063   5.7326   5.7781   5.7956   5.8062   5.8408   5.8852
  5.9175   6.0589   6.1540   6.1807   6.2175   6.2896   6.3770   6.4660
 22.6450  22.6909  22.9222  23.1685  23.3828  23.6237  32.4828  32.5493
 32.7315  32.8547  32.8638
 --------------------------------------------------------------
 
          Ground-State Mulliken Net Atomic Charges

     Atom                 Charge (a.u.)
  ----------------------------------------
      1 C                    -0.862921
      2 C                    -0.671231
      3 C                     0.762573
      4 C                    -0.281366
      5 N                     0.183320
      6 N                    -0.468384
      7 H                     0.249248
      8 H                     0.181333
      9 H                     0.202207
     10 H                     0.212031
     11 H                     0.275283
     12 H                     0.242338
     13 C                    -0.784436
     14 C                     0.604596
     15 N                    -0.085082
     16 N                    -0.245303
     17 N                    -0.263018
     18 H                     0.225519
     19 H                     0.059074
     20 H                     0.216636
     21 H                     0.211235
     22 H                     0.213285
     23 H                     0.294903
     24 H                     0.298893
     25 H                     0.229265
  ----------------------------------------
  Sum of atomic charges =     1.000000

 -----------------------------------------------------------------
                    Cartesian Multipole Moments
 -----------------------------------------------------------------
    Charge (ESU x 10^10)
                 4.8032
    Dipole Moment (Debye)
         X     -10.6277      Y      -0.0974      Z       1.6269
       Tot      10.7520
    Quadrupole Moments (Debye-Ang)
        XX     -56.9454     XY      -0.7284     YY     -54.6168
        XZ      -1.0675     YZ       2.7729     ZZ     -40.9042
    Octopole Moments (Debye-Ang^2)
       XXX     -87.8905    XXY     -23.7067    XYY     -18.3719
       YYY      14.4257    XXZ       2.1639    XYZ      -1.9195
       YYZ       6.5469    XZZ     -19.0932    YZZ       9.3142
       ZZZ      30.0624
    Hexadecapole Moments (Debye-Ang^3)
      XXXX   -1410.9583   XXXY      39.7149   XXYY    -309.1843
      XYYY      21.0481   YYYY    -353.3784   XXXZ     -98.7329
      XXYZ      -0.3432   XYYZ     -25.0154   YYYZ     -54.4270
      XXZZ    -284.8530   XYZZ      13.4720   YYZZ    -145.3105
      XZZZ     -48.4124   YZZZ     -59.1009   ZZZZ    -555.3547
 -----------------------------------------------------------------
Archival summary:
1\1\nid00538\SP\ProcedureUnspecified\BasisUnspecified\5614(1+,1)\meili\SunSep2619:11:102021SunSep2619:11:102021\0\\#,ProcedureUnspecified,BasisUnspecified,\\1,1\N\H,1,1.01439\C,1,1.32741,2,124.733\H,3,1.08486,1,126.185,2,0.909714,0\N,3,1.32401,1,107.801,2,179.389,0\C,1,1.38732,2,125.68,3,176.879,0\H,6,1.08006,1,126.936,2,-0.21425,0\C,6,1.35273,1,106.539,2,177.436,0\C,8,1.49746,6,129.427,1,-179.227,0\H,9,1.09038,8,108.062,6,21.1016,0\H,9,1.09101,8,109.575,6,138.673,0\H,9,1.1,8,111.971,6,-99.0224,0\H,3,3.11911,1,87.1233,2,-81.7333,0\N,13,1.00541,3,88.5181,1,-70.5702,0\H,14,1.00637,13,119.296,3,-79.9936,0\C,14,1.31727,13,120.233,3,94.9633,0\N,16,1.32355,14,119.939,13,179.861,0\H,17,1.00979,16,117.928,14,-2.72971,0\N,16,1.33129,14,120.534,13,1.02761,0\H,19,1.00448,16,120.134,14,178.181,0\H,19,1.00801,16,120.205,14,1.50291,0\C,17,1.45459,16,123.936,14,179.57,0\H,22,1.09003,17,114.218,16,4.84655,0\H,22,1.09234,17,107.091,16,123.164,0\H,22,1.1,17,110.43,16,-118.519,0\\\@

 Total job time:  48610.74s(wall), 36996.05s(cpu) 
 Sun Sep 26 19:11:16 2021

        *************************************************************
        *                                                           *
        *  Thank you very much for using Q-Chem.  Have a nice day.  *
        *                                                           *
        *************************************************************


