
Running Job 1 of 1 SSI-009ARG-103GLN-1_SMD_TZVPD.in
qchem SSI-009ARG-103GLN-1_SMD_TZVPD.in_20512.0 /tmp/qchem20512/ 0
/global/common/cori/software/qchem/5.2/exe/qcprog.exe_s SSI-009ARG-103GLN-1_SMD_TZVPD.in_20512.0 /tmp/qchem20512/
                  Welcome to Q-Chem
     A Quantum Leap Into The Future Of Chemistry


 Q-Chem 5.2, Q-Chem, Inc., Pleasanton, CA (2019)

 License issued to: National Energy Research Scientific Computing Center

 Yihan Shao,  Zhengting Gan,  E. Epifanovsky,  A. T. B. Gilbert,  M. Wormit,  
 J. Kussmann,  A. W. Lange,  A. Behn,  Jia Deng,  Xintian Feng,  D. Ghosh,  
 M. Goldey,  P. R. Horn,  L. D. Jacobson,  I. Kaliman,  T. Kus,  A. Landau,  
 Jie Liu,  E. I. Proynov,  R. M. Richard,  R. P. Steele,  E. J. Sundstrom,  
 H. L. Woodcock III,  P. M. Zimmerman,  D. Zuev,  B. Albrecht,  E. Alguire,  
 S. A. Baeppler,  D. Barton,  Z. Benda,  Y. A. Bernard,  E. J. Berquist,  
 K. B. Bravaya,  H. Burton,  D. Casanova,  Chun-Min Chang,  Yunqing Chen,  
 A. Chien,  K. D. Closser,  M. P. Coons,  S. Coriani,  S. Dasgupta,  
 A. L. Dempwolff,  M. Diedenhofen,  Hainam Do,  R. G. Edgar,  Po-Tung Fang,  
 S. Faraji,  S. Fatehi,  Qingguo Feng,  K. D. Fenk,  J. Fosso-Tande,  
 J. Gayvert,  Qinghui Ge,  A. Ghysels,  G. Gidofalvi,  J. Gomes,  
 J. Gonthier,  A. Gunina,  D. Hait,  M. W. D. Hanson-Heine,  
 P. H. P. Harbach,  A. W. Hauser,  M. F. Herbst,  J. E. Herr,  
 E. G. Hohenstein,  Z. C. Holden,  Kerwin Hui,  B. C. Huynh,  T.-C. Jagau,  
 Hyunjun Ji,  B. Kaduk,  K. Khistyaev,  Jaehoon Kim,  P. Klunzinger,  K. Koh,  
 D. Kosenkov,  L. Koulias,  T. Kowalczyk,  C. M. Krauter,  A. Kunitsa,  
 Ka Un Lao,  A. Laurent,  K. V. Lawler,  Joonho Lee,  D. Lefrancois,  
 S. Lehtola,  D. S. Levine,  Yi-Pei Li,  You-Sheng Lin,  Fenglai Liu,  
 E. Livshits,  A. Luenser,  P. Manohar,  E. Mansoor,  S. F. Manzer,  
 Shan-Ping Mao,  Yuezhi Mao,  N. Mardirossian,  A. V. Marenich,  
 T. Markovich,  L. A. Martinez-Martinez,  S. A. Maurer,  N. J. Mayhall,  
 S. C. McKenzie,  J.-M. Mewes,  P. Morgante,  A. F. Morrison,  
 J. W. Mullinax,  K. Nanda,  T. S. Nguyen-Beck,  R. Olivares-Amaya,  
 J. A. Parkhill,  Zheng Pei,  T. M. Perrine,  F. Plasser,  P. Pokhilko,  
 S. Prager,  A. Prociuk,  E. Ramos,  D. R. Rehn,  F. Rob,  M. Scheurer,  
 M. Schneider,  N. Sergueev,  S. M. Sharada,  S. Sharma,  D. W. Small,  
 T. Stauch,  T. Stein,  Yu-Chuan Su,  A. J. W. Thom,  A. Tkatchenko,  
 T. Tsuchimochi,  N. M. Tubman,  L. Vogt,  M. L. Vidal,  O. Vydrov,  
 M. A. Watson,  J. Wenzel,  M. de Wergifosse,  T. A. Wesolowski,  A. White,  
 J. Witte,  A. Yamada,  Jun Yang,  K. Yao,  S. Yeganeh,  S. R. Yost,  
 Zhi-Qiang You,  A. Zech,  Igor Ying Zhang,  Xing Zhang,  Yan Zhao,  
 Ying Zhu,  B. R. Brooks,  G. K. L. Chan,  C. J. Cramer,  M. S. Gordon,  
 W. J. Hehre,  A. Klamt,  M. W. Schmidt,  C. D. Sherrill,  D. G. Truhlar,  
 A. Aspuru-Guzik,  R. Baer,  A. T. Bell,  N. A. Besley,  Jeng-Da Chai,  
 A. E. DePrince, III,  R. A. DiStasio Jr.,  A. Dreuw,  B. D. Dunietz,  
 T. R. Furlani,  Chao-Ping Hsu,  Yousung Jung,  Jing Kong,  D. S. Lambrecht,  
 WanZhen Liang,  C. Ochsenfeld,  V. A. Rassolov,  L. V. Slipchenko,  
 J. E. Subotnik,  T. Van Voorhis,  J. M. Herbert,  A. I. Krylov,  
 P. M. W. Gill,  M. Head-Gordon

 Contributors to earlier versions of Q-Chem not listed above: 
 R. D. Adamson,  B. Austin,  J. Baker,  G. J. O. Beran,  K. Brandhorst,  
 S. T. Brown,  E. F. C. Byrd,  A. K. Chakraborty,  C.-L. Cheng,  
 Siu Hung Chien,  D. M. Chipman,  D. L. Crittenden,  H. Dachsel,  
 R. J. Doerksen,  A. D. Dutoi,  L. Fusti-Molnar,  W. A. Goddard III,  
 A. Golubeva-Zadorozhnaya,  S. R. Gwaltney,  G. Hawkins,  A. Heyden,  
 S. Hirata,  G. Kedziora,  F. J. Keil,  C. Kelley,  Jihan Kim,  R. A. King,  
 R. Z. Khaliullin,  P. P. Korambath,  W. Kurlancheek,  A. M. Lee,  M. S. Lee,  
 S. V. Levchenko,  Ching Yeh Lin,  D. Liotard,  R. C. Lochan,  I. Lotan,  
 P. E. Maslen,  N. Nair,  D. P. O'Neill,  D. Neuhauser,  E. Neuscamman,  
 C. M. Oana,  R. Olson,  B. Peters,  R. Peverati,  P. A. Pieniazek,  
 Y. M. Rhee,  J. Ritchie,  M. A. Rohrdanz,  E. Rosta,  N. J. Russ,  
 H. F. Schaefer III,  N. E. Schultz,  N. Shenvi,  A. C. Simmonett,  A. Sodt,  
 D. Stuck,  K. S. Thanthiriwatte,  V. Vanovschi,  Tao Wang,  A. Warshel,  
 C. F. Williams,  Q. Wu,  X. Xu,  W. Zhang

 Please cite Q-Chem as follows:
 Y. Shao et al., Mol. Phys. 113, 184-215 (2015)
 DOI: 10.1080/00268976.2014.952696

 Q-Chem 5.2.0 for Intel X86 EM64T Linux

 Parts of Q-Chem use Armadillo 8.300.2 (Tropical Shenanigans).
 http://arma.sourceforge.net/

 Q-Chem begins on Sun Sep 26 02:18:21 2021  

Host: cori01
0

     Scratch files written to /tmp/qchem20512//
 May1019 |scratch|qcdevops|jenkins|workspace|build_RNUM -1
Processing $rem in /global/common/cori/software/qchem/5.2/config/preferences:
	 MEM_TOTAL  96000 
NAlpha2: 72
NElect   72
Mult     1
Symmetry turned off for PCM/SM12/SMD calculation

 Q-Chem warning in module libgen/rem_setup.C, line 2803:

 Neither GIA nor STOLL is specified by user. Use STOLL as the default


Checking the input file for inconsistencies... 	...done.

--------------------------------------------------------------
User input:
--------------------------------------------------------------
$comment
SSI-009ARG-103GLN-1.pdb
$end

$molecule
1 1
--
1 1
C    0.306979451596   -1.136845758141    3.379810772971
C    0.088979451596    0.903154241859    1.997810772971
N    0.546979451596    1.663154241859    1.023810772971
N    0.721979451596   -0.212845758141    2.318810772971
N   -1.000020548404    1.261154241859    2.645810772971
H    1.346979451596    1.321154241859    0.502810772971
H    0.058979451596    2.504154241859    0.755810772971
H    1.486979451596   -0.489845758141    1.702810772971
H   -1.446020548404    0.618154241859    3.287810772971
H   -1.482020548404    2.141154241859    2.445810772971
H   -0.044020548404   -2.061845758141    2.915810772971
H   -0.499020548404   -0.737845758141    3.994810772971
H    1.149879451596   -1.372072758141    4.046287772971
--
0 1
C   -1.470020548404   -0.694845758141   -3.459189227029
C   -0.080020548404   -0.659845758141   -2.860189227029
O    0.828979451596   -1.364845758141   -3.299189227029
N    0.103979451596    0.169154241859   -1.852189227029
H    0.952979451596    0.021154241859   -1.314189227029
H   -0.699020548404    0.655154241859   -1.463189227029
H   -1.649020548404    0.297154241859   -3.870189227029
H   -2.194020548404   -0.881845758141   -2.664189227029
H   -1.579150548404   -1.465227758141   -4.236751227029
$end

$rem
JOBTYPE			EDA
EDA2			1
method			wB97X-V
BASIS			def2-TZVPD
XC_GRID			000099000590
NL_GRID			1
UNRESTRICTED		FALSE
MAX_SCF_CYCLES		200
SYMMETRY		FALSE
SYM_IGNORE		TRUE
MEM_STATIC		2000
BASIS_LIN_DEP_THRESH 	6
THRESH 			14
SCF_CONVERGENCE 	8
SCF_PRINT_FRGM 		TRUE
SOLVENT_METHOD          SMD
$end

$SMX
SOLVENT			WATER
$END
--------------------------------------------------------------
 ----------------------------------------------------------------
             Standard Nuclear Orientation (Angstroms)
    I     Atom           X                Y                Z
 ----------------------------------------------------------------
    1      C       0.3069794516    -1.1368457581     3.3798107730
    2      C       0.0889794516     0.9031542419     1.9978107730
    3      N       0.5469794516     1.6631542419     1.0238107730
    4      N       0.7219794516    -0.2128457581     2.3188107730
    5      N      -1.0000205484     1.2611542419     2.6458107730
    6      H       1.3469794516     1.3211542419     0.5028107730
    7      H       0.0589794516     2.5041542419     0.7558107730
    8      H       1.4869794516    -0.4898457581     1.7028107730
    9      H      -1.4460205484     0.6181542419     3.2878107730
   10      H      -1.4820205484     2.1411542419     2.4458107730
   11      H      -0.0440205484    -2.0618457581     2.9158107730
   12      H      -0.4990205484    -0.7378457581     3.9948107730
   13      H       1.1498794516    -1.3720727581     4.0462877730
   14      C      -1.4700205484    -0.6948457581    -3.4591892270
   15      C      -0.0800205484    -0.6598457581    -2.8601892270
   16      O       0.8289794516    -1.3648457581    -3.2991892270
   17      N       0.1039794516     0.1691542419    -1.8521892270
   18      H       0.9529794516     0.0211542419    -1.3141892270
   19      H      -0.6990205484     0.6551542419    -1.4631892270
   20      H      -1.6490205484     0.2971542419    -3.8701892270
   21      H      -2.1940205484    -0.8818457581    -2.6641892270
   22      H      -1.5791505484    -1.4652277581    -4.2367512270
 ----------------------------------------------------------------
 Nuclear Repulsion Energy =         448.18991940 hartrees
 There are       36 alpha and       36 beta electrons
 Requested basis set is def2-TZVPD
 There are 183 shells and 453 basis functions

 Total QAlloc Memory Limit  96000 MB
 Mega-Array Size      1956 MB
 MEM_STATIC part      2000 MB
 
 Citation of the SMD model:
 Marenich, A.V.; Cramer, C.J.; Truhlar, D.G.
 J. Phys. Chem. B 2009, 113, 6378-6396.
 iSolventCode=           1
 Solvent: water                                                           
 
 vradii
            1           2           3           4           5           6
    1   1.8500000   1.8500000   1.8900000   1.8900000   1.8900000   1.2000000
            7           8           9          10          11          12
    1   1.2000000   1.2000000   1.2000000   1.2000000   1.2000000   1.2000000
           13          14          15          16          17          18
    1   1.2000000   1.8500000   1.8500000   1.5200000   1.8900000   1.2000000
           19          20          21          22
    1   1.2000000   1.2000000   1.2000000   1.2000000
 Changing PCM_VDW_RADII to SMD_RADIUS
 Discretize the solute cavity surface with Lebedev spheres
	Using 110 Lebedev grid points for each H atom
	Using 194 Lebedev grid points for other atoms
	Atomic van der Waals radii will be scaled by 1.20
 Remove points where switching function is < 1.0e-08
 Keep 1598 surface tesserae and discard 1578 interior tesserae
 Molecular Surface Area = 196.538 Angst**2
 A cutoff of  1.0D-14 yielded  14499 shell pairs
 There are     88271 function pairs (    109528 Cartesian)
 Smallest overlap matrix eigenvalue = 7.81E-06

 Scale SEOQF with 1.000000e-01/1.000000e-01/1.000000e-01

 Standard Electronic Orientation quadrupole field applied
 Nucleus-field energy     =    -0.0000000480 hartrees

 -----------------------------------------------------------------------
  General SCF calculation program by
  Eric Jon Sundstrom, Paul Horn, Yuezhi Mao, Dmitri Zuev, Alec White,
  David Stuck, Shaama M.S., Shane Yost, Joonho Lee, David Small,
  Daniel Levine, Susi Lehtola, Hugh Burton, Evgeny Epifanovsky
 -----------------------------------------------------------------------
================================================================
                 ALMO-EDA with the EDA2 driver                  
================================================================
 The second-generation ALMO-EDA (for DFT):                      
 P. R. Horn, Y. Mao and M. Head-Gordon, PCCP, 18, 23067 (2016)  
 Decomposition of the frozen energy:                            
 P. R. Horn, Y. Mao and M. Head-Gordon, JCP, 144, 114107 (2016) 
 FERF model for polarization:                                   
 P. R. Horn and M. Head-Gordon, JCP, 143, 114111 (2015)         
Using eda2 option set 1
Option set summary: Frozen orbital wavefunction, initial wavefunction decomposition, and nDQ polarization.
--------------------------------
Printing EDA Options
--------------------------------
eda_child_super_basis      0
fragmo_guess_mode          0
child_mp                   1
child_mp_orders            232
cls_elec                   1
cls_disp                   0
scfmi_mode                 1
scfmi_occs                 0
scfmi_virts                0
frz_relax                  0
frz_relax_method           0
dc_pen_start               0
dc_pen_conv                0
dc_pen_increment           0
dc_pen_steps               0
dc_pen_thresh_factor       0
dc_pen_pre_newton_thresh   0
frz_ortho_decomp           1
frz_ortho_decomp_conv      6
frgm_method                2
scfmi_freeze_ss            0
separate_rehyb             0
plot_diff_den              0
eda_nocv                   0
eda_vct_relax              1
disp_free_x                0
disp_free_c                0
eda_bsse                   0
eda_pct_a                  0
eda_covp                   0
--------------------------------
Attempting to make child job directory: /tmp/qchem20512//Frg1/
Attempting to make child job directory: /tmp/qchem20512//Frg2/
Creating input file /tmp/qchem20512/Frg1.input
using default PutDataFrgm: nothing
calling putenv with: QCSCRATCH=/tmp/qchem20512/ 
calling putenv with: QCLOCALSCR=/tmp/qchem20512/ 
Spawning Job For Fragment 0
                  Welcome to Q-Chem
     A Quantum Leap Into The Future Of Chemistry


 Q-Chem 5.2, Q-Chem, Inc., Pleasanton, CA (2019)

 License issued to: National Energy Research Scientific Computing Center

 Yihan Shao,  Zhengting Gan,  E. Epifanovsky,  A. T. B. Gilbert,  M. Wormit,  
 J. Kussmann,  A. W. Lange,  A. Behn,  Jia Deng,  Xintian Feng,  D. Ghosh,  
 M. Goldey,  P. R. Horn,  L. D. Jacobson,  I. Kaliman,  T. Kus,  A. Landau,  
 Jie Liu,  E. I. Proynov,  R. M. Richard,  R. P. Steele,  E. J. Sundstrom,  
 H. L. Woodcock III,  P. M. Zimmerman,  D. Zuev,  B. Albrecht,  E. Alguire,  
 S. A. Baeppler,  D. Barton,  Z. Benda,  Y. A. Bernard,  E. J. Berquist,  
 K. B. Bravaya,  H. Burton,  D. Casanova,  Chun-Min Chang,  Yunqing Chen,  
 A. Chien,  K. D. Closser,  M. P. Coons,  S. Coriani,  S. Dasgupta,  
 A. L. Dempwolff,  M. Diedenhofen,  Hainam Do,  R. G. Edgar,  Po-Tung Fang,  
 S. Faraji,  S. Fatehi,  Qingguo Feng,  K. D. Fenk,  J. Fosso-Tande,  
 J. Gayvert,  Qinghui Ge,  A. Ghysels,  G. Gidofalvi,  J. Gomes,  
 J. Gonthier,  A. Gunina,  D. Hait,  M. W. D. Hanson-Heine,  
 P. H. P. Harbach,  A. W. Hauser,  M. F. Herbst,  J. E. Herr,  
 E. G. Hohenstein,  Z. C. Holden,  Kerwin Hui,  B. C. Huynh,  T.-C. Jagau,  
 Hyunjun Ji,  B. Kaduk,  K. Khistyaev,  Jaehoon Kim,  P. Klunzinger,  K. Koh,  
 D. Kosenkov,  L. Koulias,  T. Kowalczyk,  C. M. Krauter,  A. Kunitsa,  
 Ka Un Lao,  A. Laurent,  K. V. Lawler,  Joonho Lee,  D. Lefrancois,  
 S. Lehtola,  D. S. Levine,  Yi-Pei Li,  You-Sheng Lin,  Fenglai Liu,  
 E. Livshits,  A. Luenser,  P. Manohar,  E. Mansoor,  S. F. Manzer,  
 Shan-Ping Mao,  Yuezhi Mao,  N. Mardirossian,  A. V. Marenich,  
 T. Markovich,  L. A. Martinez-Martinez,  S. A. Maurer,  N. J. Mayhall,  
 S. C. McKenzie,  J.-M. Mewes,  P. Morgante,  A. F. Morrison,  
 J. W. Mullinax,  K. Nanda,  T. S. Nguyen-Beck,  R. Olivares-Amaya,  
 J. A. Parkhill,  Zheng Pei,  T. M. Perrine,  F. Plasser,  P. Pokhilko,  
 S. Prager,  A. Prociuk,  E. Ramos,  D. R. Rehn,  F. Rob,  M. Scheurer,  
 M. Schneider,  N. Sergueev,  S. M. Sharada,  S. Sharma,  D. W. Small,  
 T. Stauch,  T. Stein,  Yu-Chuan Su,  A. J. W. Thom,  A. Tkatchenko,  
 T. Tsuchimochi,  N. M. Tubman,  L. Vogt,  M. L. Vidal,  O. Vydrov,  
 M. A. Watson,  J. Wenzel,  M. de Wergifosse,  T. A. Wesolowski,  A. White,  
 J. Witte,  A. Yamada,  Jun Yang,  K. Yao,  S. Yeganeh,  S. R. Yost,  
 Zhi-Qiang You,  A. Zech,  Igor Ying Zhang,  Xing Zhang,  Yan Zhao,  
 Ying Zhu,  B. R. Brooks,  G. K. L. Chan,  C. J. Cramer,  M. S. Gordon,  
 W. J. Hehre,  A. Klamt,  M. W. Schmidt,  C. D. Sherrill,  D. G. Truhlar,  
 A. Aspuru-Guzik,  R. Baer,  A. T. Bell,  N. A. Besley,  Jeng-Da Chai,  
 A. E. DePrince, III,  R. A. DiStasio Jr.,  A. Dreuw,  B. D. Dunietz,  
 T. R. Furlani,  Chao-Ping Hsu,  Yousung Jung,  Jing Kong,  D. S. Lambrecht,  
 WanZhen Liang,  C. Ochsenfeld,  V. A. Rassolov,  L. V. Slipchenko,  
 J. E. Subotnik,  T. Van Voorhis,  J. M. Herbert,  A. I. Krylov,  
 P. M. W. Gill,  M. Head-Gordon

 Contributors to earlier versions of Q-Chem not listed above: 
 R. D. Adamson,  B. Austin,  J. Baker,  G. J. O. Beran,  K. Brandhorst,  
 S. T. Brown,  E. F. C. Byrd,  A. K. Chakraborty,  C.-L. Cheng,  
 Siu Hung Chien,  D. M. Chipman,  D. L. Crittenden,  H. Dachsel,  
 R. J. Doerksen,  A. D. Dutoi,  L. Fusti-Molnar,  W. A. Goddard III,  
 A. Golubeva-Zadorozhnaya,  S. R. Gwaltney,  G. Hawkins,  A. Heyden,  
 S. Hirata,  G. Kedziora,  F. J. Keil,  C. Kelley,  Jihan Kim,  R. A. King,  
 R. Z. Khaliullin,  P. P. Korambath,  W. Kurlancheek,  A. M. Lee,  M. S. Lee,  
 S. V. Levchenko,  Ching Yeh Lin,  D. Liotard,  R. C. Lochan,  I. Lotan,  
 P. E. Maslen,  N. Nair,  D. P. O'Neill,  D. Neuhauser,  E. Neuscamman,  
 C. M. Oana,  R. Olson,  B. Peters,  R. Peverati,  P. A. Pieniazek,  
 Y. M. Rhee,  J. Ritchie,  M. A. Rohrdanz,  E. Rosta,  N. J. Russ,  
 H. F. Schaefer III,  N. E. Schultz,  N. Shenvi,  A. C. Simmonett,  A. Sodt,  
 D. Stuck,  K. S. Thanthiriwatte,  V. Vanovschi,  Tao Wang,  A. Warshel,  
 C. F. Williams,  Q. Wu,  X. Xu,  W. Zhang

 Please cite Q-Chem as follows:
 Y. Shao et al., Mol. Phys. 113, 184-215 (2015)
 DOI: 10.1080/00268976.2014.952696

 Q-Chem 5.2.0 for Intel X86 EM64T Linux

 Parts of Q-Chem use Armadillo 8.300.2 (Tropical Shenanigans).
 http://arma.sourceforge.net/

 Q-Chem begins on Sun Sep 26 02:18:25 2021  

Host: cori01
0

     Scratch files written to /tmp/qchem20512//Frg1//
 May1019 |scratch|qcdevops|jenkins|workspace|build_RNUM -1
Processing $rem in /global/common/cori/software/qchem/5.2/config/preferences:
	 MEM_TOTAL  96000 
NAlpha2: 40
NElect   40
Mult     1
Symmetry turned off for PCM/SM12/SMD calculation

Checking the input file for inconsistencies... 	...done.

--------------------------------------------------------------
User input:
--------------------------------------------------------------
$molecule
1 1
 6	0.3069794516	-1.1368457581	3.3798107730
 6	0.0889794516	0.9031542419	1.9978107730
 7	0.5469794516	1.6631542419	1.0238107730
 7	0.7219794516	-0.2128457581	2.3188107730
 7	-1.0000205484	1.2611542419	2.6458107730
 1	1.3469794516	1.3211542419	0.5028107730
 1	0.0589794516	2.5041542419	0.7558107730
 1	1.4869794516	-0.4898457581	1.7028107730
 1	-1.4460205484	0.6181542419	3.2878107730
 1	-1.4820205484	2.1411542419	2.4458107730
 1	-0.0440205484	-2.0618457581	2.9158107730
 1	-0.4990205484	-0.7378457581	3.9948107730
 1	1.1498794516	-1.3720727581	4.0462877730
$end
$rem
EDA2		1
METHOD		WB97X-V
BASIS		DEF2-TZVPD
XC_GRID		000099000590
NL_GRID		1
UNRESTRICTED		FALSE
MAX_SCF_CYCLES		200
SYMMETRY		FALSE
SYM_IGNORE		TRUE
BASIS_LIN_DEP_THRESH		6
THRESH		14
SCF_CONVERGENCE		8
SCF_PRINT_FRGM		TRUE
SOLVENT_METHOD		SMD
!required keywords
JOBTYPE		SP
SYM_IGNORE		TRUE
SUBSYSTEM		TRUE
GEN_SCFMAN		TRUE
CHILD_INSTRUCTION		2
SYM_IGNORE		TRUE
SCFMI		0
RI_K 0		
PARI_K 0		
MIN_PARI_K 0		
IARI_K 0		
OCC_RI_K 0		
PURECART		1111
MEM_STATIC		2000
MEM_TOTAL		96000
GUI		0
CHILD_MP		1
CHILD_MP_ORDERS		232
FRZ_RELAX		0
FRZ_RELAX_METHOD		0
EDA_CLS_ELEC		1
EDA_CLS_DISP		0
FRZ_ORTHO_DECOMP		1
EDA2		FALSE
FRGM_METHOD		FALSE
CIS_N_ROOTS  0
LOCAL_CIS    0
CIS_RLX_DNS  1
$end
$smx
SOLVENT			WATER
$end
--------------------------------------------------------------
 ----------------------------------------------------------------
             Standard Nuclear Orientation (Angstroms)
    I     Atom           X                Y                Z
 ----------------------------------------------------------------
    1      C       0.3069794516    -1.1368457581     3.3798107730
    2      C       0.0889794516     0.9031542419     1.9978107730
    3      N       0.5469794516     1.6631542419     1.0238107730
    4      N       0.7219794516    -0.2128457581     2.3188107730
    5      N      -1.0000205484     1.2611542419     2.6458107730
    6      H       1.3469794516     1.3211542419     0.5028107730
    7      H       0.0589794516     2.5041542419     0.7558107730
    8      H       1.4869794516    -0.4898457581     1.7028107730
    9      H      -1.4460205484     0.6181542419     3.2878107730
   10      H      -1.4820205484     2.1411542419     2.4458107730
   11      H      -0.0440205484    -2.0618457581     2.9158107730
   12      H      -0.4990205484    -0.7378457581     3.9948107730
   13      H       1.1498794516    -1.3720727581     4.0462877730
 ----------------------------------------------------------------
 Nuclear Repulsion Energy =         194.33688153 hartrees
 There are       20 alpha and       20 beta electrons
 Requested basis set is def2-TZVPD
 There are 105 shells and 257 basis functions

 Total QAlloc Memory Limit  96000 MB
 Mega-Array Size      1956 MB
 MEM_STATIC part      2000 MB
 
 Citation of the SMD model:
 Marenich, A.V.; Cramer, C.J.; Truhlar, D.G.
 J. Phys. Chem. B 2009, 113, 6378-6396.
 iSolventCode=           1
 Solvent: water                                                           
 
 vradii
            1           2           3           4           5           6
    1   1.8500000   1.8500000   1.8900000   1.8900000   1.8900000   1.2000000
            7           8           9          10          11          12
    1   1.2000000   1.2000000   1.2000000   1.2000000   1.2000000   1.2000000
           13
    1   1.2000000
 Changing PCM_VDW_RADII to SMD_RADIUS
 Discretize the solute cavity surface with Lebedev spheres
	Using 110 Lebedev grid points for each H atom
	Using 194 Lebedev grid points for other atoms
	Atomic van der Waals radii will be scaled by 1.20
 Remove points where switching function is < 1.0e-08
 Keep 898 surface tesserae and discard 952 interior tesserae
 Molecular Surface Area = 112.954 Angst**2

                       Distance Matrix (Angstroms)
             C (  1)   C (  2)   N (  3)   N (  4)   N (  5)   H (  6)
   C (  2)  2.473671
   N (  3)  3.667197  1.317589
   N (  4)  1.466875  1.322568  2.286269
   N (  5)  2.827969  1.316810  2.277213  2.290172
   H (  6)  3.924346  1.998077  1.014103  2.457974  3.178751
   H (  7)  4.494859  2.026491  1.008588  3.203846  2.497725  1.767043
   H (  8)  2.150195  1.995464  2.445414  1.020495  3.184402  2.176998
   H (  9)  2.482236  2.025228  3.192142  2.515899  1.012190  4.006405
   H ( 10)  3.849436  2.049729  2.523373  3.227237  1.023095  3.528582
   H ( 11)  1.092759  3.106709  4.219546  2.088532  3.468309  4.382025
   H ( 12)  1.089524  2.650780  3.960525  2.139028  2.463088  4.454353
   H ( 13)  1.100002  3.240127  4.325674  2.123931  3.676587  4.455171
             H (  7)   H (  8)   H (  9)   H ( 10)   H ( 11)   H ( 12)
   H (  8)  3.449642
   H (  9)  3.497577  3.513172
   H ( 10)  2.315718  4.035985  1.740629
   H ( 11)  5.052184  2.507292  3.047358  4.466985
   H ( 12)  4.616606  3.042855  1.798720  3.413844  1.767553
   H ( 13)  5.200234  2.526627  3.357825  4.672386  1.783021  1.767418

 
 A cutoff of  1.0D-14 yielded   5441 shell pairs
 There are     33173 function pairs (     41507 Cartesian)
 Smallest overlap matrix eigenvalue = 1.48E-05

 Scale SEOQF with 1.000000e-01/1.000000e-01/1.000000e-01

 Standard Electronic Orientation quadrupole field applied
 Nucleus-field energy     =    -0.0000000212 hartrees
 Guess from superposition of atomic densities
 Warning:  Energy on first SCF cycle will be non-variational
 SAD guess density has 40.388232 electrons

 -----------------------------------------------------------------------
  General SCF calculation program by
  Eric Jon Sundstrom, Paul Horn, Yuezhi Mao, Dmitri Zuev, Alec White,
  David Stuck, Shaama M.S., Shane Yost, Joonho Lee, David Small,
  Daniel Levine, Susi Lehtola, Hugh Burton, Evgeny Epifanovsky
 -----------------------------------------------------------------------
 Exchange:     0.1670 Hartree-Fock + 1.0000 wB97X-V + LR-HF
 Correlation:  1.0000 wB97X-V
 Using Euler-Maclaurin-Lebedev (99,590) quadrature formula
 Nonlocal Correlation:  VV10 with C = 0.0100 and b = 6.00 and scale = 1.00000
 Grid used for NLC:  SG-1 standard quadrature
Energy prior to optimization (guess energy) = -244.721407032530
Begin Timing: Total SCF Calculation
begin iterations for algorithm: DIIS         
the SCF tolerance is set to 1.00e-08
    1    -244.7214070325      7.93e-03     00000 
    2    -244.9607260580      6.24e-03     00000 
    3    -245.2022629208      3.21e-04     00000 
    4    -245.2032132034      1.66e-04     00000 
    5    -245.2034314825      4.62e-05     00000 
    6    -245.2034502387      1.92e-05     00000 
    7    -245.2034532823      3.47e-06     00000 
    8    -245.2034534793      9.35e-07     00000 
    9    -245.2034534922      3.98e-07     00000 
   10    -245.2034534945      1.11e-07     00000 
   11    -245.2034534947      5.15e-08     00000 
   12    -245.2034534948      1.60e-08     00000 
   13    -245.2034534948      2.31e-09     00000 Convergence criterion met
Timing for Total SCF: 720.00s (wall), 1430.36s (cpu)
(3)  G-ENP(liq) elect-nuc-pol free energy of system     -245.203453495 a.u.
(4)  G-CDS(liq) cavity-dispersion-solvent structure 
     free energy                                                2.8249 kcal/mol
(6)  G-S(liq) free energy of system                     -245.198951725 a.u.
E_pcm = -0.1088209890
E_cds = 0.0045017698
Multipole orders to be included
        2
        3
computing dipole RHS
computing quadrupole RHS
total number of RHS in solve_reponses: 8
RHS batch sizes
        8
Beginning Block Conjugate Gradient Iterations. Batch Number: 0
computing hessian-vector products by finite difference
              1      4.70e-01     00000 Conjugate Gradient Iteration
computing hessian-vector products by finite difference
              2      1.68e-01     00000 Conjugate Gradient Iteration
computing hessian-vector products by finite difference
              3      4.81e-02     00000 Conjugate Gradient Iteration
computing hessian-vector products by finite difference
              4      1.38e-02     00000 Conjugate Gradient Iteration
computing hessian-vector products by finite difference
              5      2.08e-03     00000 Conjugate Gradient Iteration
computing hessian-vector products by finite difference
              6      3.61e-04     00000 Conjugate Gradient Iteration
computing hessian-vector products by finite difference
              7      4.61e-05     00000 Conjugate Gradient Iteration
computing hessian-vector products by finite difference
              8      6.14e-06     00000 Conjugate Gradient Iteration
computing hessian-vector products by finite difference
              9      1.01e-06     00000 Conjugate Gradient Iteration
computing hessian-vector products by finite difference
             10      1.31e-07     00000 Conjugate Gradient Iteration
computing hessian-vector products by finite difference
             11      3.36e-08     00000 Conjugate Gradient Iteration
computing hessian-vector products by finite difference
             12      4.61e-09     00000 CG Converged
batch 0 complete
Done Calculating Responses
TESTING ORTHOGONALIZATION OF MULTIPOLE BASIS
Multipole virts passed orthogonality test
Virts Per Order
           60
          100
 
 --------------------------------------------------------------
 
                    Orbital Energies (a.u.)
 --------------------------------------------------------------
 
 Alpha MOs
 -- Occupied --
-14.4561 -14.4467 -14.4455 -10.4209 -10.3066  -1.1737  -1.0540  -1.0414
 -0.8534  -0.7637  -0.7197  -0.6898  -0.6159  -0.6091  -0.5912  -0.5715
 -0.5266  -0.5087  -0.3983  -0.3753
 -- Virtual --
  0.0585   0.0854   0.0984   0.1054   0.1233   0.1285   0.1391   0.1510
  0.1730   0.1797   0.1929   0.1990   0.2031   0.2116   0.2232   0.2346
  0.2414   0.2466   0.2505   0.2702   0.2811   0.2865   0.3042   0.3060
  0.3114   0.3198   0.3217   0.3247   0.3352   0.3509   0.3540   0.3630
  0.3634   0.3694   0.3774   0.3890   0.4111   0.4152   0.4228   0.4336
  0.4399   0.4441   0.4616   0.4730   0.4775   0.4848   0.4946   0.5008
  0.5147   0.5168   0.5215   0.5231   0.5336   0.5423   0.5474   0.5549
  0.5628   0.5760   0.5918   0.5933   0.6072   0.6206   0.6361   0.6500
  0.6651   0.6826   0.6989   0.7096   0.7150   0.7270   0.7472   0.7686
  0.7992   0.8042   0.8088   0.8219   0.8334   0.8461   0.8556   0.8681
  0.8741   0.8836   0.9009   0.9346   0.9433   0.9773   0.9942   1.0062
  1.0411   1.0627   1.0812   1.0914   1.1109   1.1124   1.1403   1.1596
  1.1727   1.1821   1.2256   1.2489   1.2695   1.3432   1.3807   1.4276
  1.4287   1.4566   1.4888   1.5042   1.5678   1.5779   1.6291   1.6748
  1.6987   1.7099   1.7462   1.7822   1.8167   1.8383   1.8764   1.8930
  1.9065   1.9202   1.9381   1.9781   2.0027   2.0202   2.0340   2.0464
  2.1050   2.1117   2.1765   2.2140   2.2409   2.2606   2.2806   2.2889
  2.3070   2.3581   2.3747   2.4013   2.4521   2.4794   2.5165   2.5390
  2.5745   2.6093   2.6196   2.6475   2.6543   2.6709   2.7073   2.7370
  2.7412   2.8114   2.8453   2.8712   2.8975   2.9155   2.9483   2.9635
  3.0442   3.1266   3.1447   3.1512   3.1827   3.2096   3.2315   3.2533
  3.2840   3.2928   3.2973   3.3203   3.3725   3.3831   3.4484   3.4571
  3.5072   3.5189   3.5596   3.5680   3.5830   3.6650   3.7354   3.7615
  3.7845   3.8779   3.9088   4.0111   4.0485   4.1184   4.1652   4.2301
  4.2679   4.2998   4.3442   4.3593   4.4407   4.5459   4.5640   4.6279
  4.6731   4.8345   4.8648   4.8755   4.9222   4.9932   5.0181   5.0542
  5.1193   5.1268   5.1401   5.1943   5.2097   5.2238   5.2758   5.3367
  5.3868   5.4027   5.4459   5.4748   5.4895   5.5021   5.5928   5.6633
  5.7153   5.7614   5.8071   5.9051   6.1237   6.1958   6.3594   6.4957
 22.6445  23.6640  32.3380  32.4483  32.8282
 --------------------------------------------------------------
 
          Ground-State Mulliken Net Atomic Charges

     Atom                 Charge (a.u.)
  ----------------------------------------
      1 C                    -0.757283
      2 C                     0.495544
      3 N                    -0.304850
      4 N                    -0.135668
      5 N                    -0.289134
      6 H                     0.253748
      7 H                     0.245571
      8 H                     0.266787
      9 H                     0.167308
     10 H                     0.249803
     11 H                     0.256764
     12 H                     0.305720
     13 H                     0.245690
  ----------------------------------------
  Sum of atomic charges =     1.000000

 -----------------------------------------------------------------
                    Cartesian Multipole Moments
 -----------------------------------------------------------------
    Charge (ESU x 10^10)
                 4.8032
    Dipole Moment (Debye)
         X       0.1201      Y       3.5360      Z       9.5427
       Tot      10.1775
    Quadrupole Moments (Debye-Ang)
        XX     -21.4548     XY      -4.8902     YY     -16.2252
        XZ      -5.7199     YZ       1.1303     ZZ      -3.8600
    Octopole Moments (Debye-Ang^2)
       XXX     -10.1759    XXY      -7.4675    XYY     -12.6565
       YYY     -12.5452    XXZ     -52.2167    XYZ     -15.2626
       YYZ     -50.7886    XZZ     -25.1349    YZZ     -19.5174
       ZZZ    -126.4693
    Hexadecapole Moments (Debye-Ang^3)
      XXXX     -97.8140   XXXY       5.5614   XXYY     -53.1338
      XYYY      -8.9967   YYYY    -214.5529   XXXZ     -23.1200
      XXYZ       2.2651   XYYZ     -25.1295   YYYZ       0.7814
      XXZZ    -158.2129   XYZZ     -33.9342   YYZZ    -201.7812
      XZZZ     -78.3634   YZZZ     -64.2104   ZZZZ    -860.4418
 -----------------------------------------------------------------
Archival summary:
1\1\nid00563\SP\ProcedureUnspecified\BasisUnspecified\328(1+,1)\meili\SunSep2605:52:012021SunSep2605:52:012021\0\\#,ProcedureUnspecified,BasisUnspecified,\\1,1\C\N,1,1.31681\H,2,1.01219,1,120.253\H,2,1.0231,1,121.821,3,-172.96,0\N,1,1.31759,2,119.632,3,169.966,0\H,5,1.00859,1,120.611,2,-1.47952,0\H,5,1.0141,1,117.353,2,-175.569,0\N,1,1.32257,2,120.383,3,-9.97572,0\H,8,1.02049,1,116.188,2,172.551,0\C,8,1.46687,1,124.867,2,0.0252276,0\H,10,1.08952,8,112.761,1,-9.00695,0\H,10,1.09276,8,108.479,1,110.796,0\H,10,1.1,8,110.864,1,-129.789,0\\\@

 Total job time:  12818.86s(wall), 25410.99s(cpu) 
 Sun Sep 26 05:52:03 2021

        *************************************************************
        *                                                           *
        *  Thank you very much for using Q-Chem.  Have a nice day.  *
        *                                                           *
        *************************************************************


Done Job For Fragment 0
calling putenv with: QCSCRATCH=/global/cscratch1/sd/meili 
calling putenv with: QCLOCALSCR=/tmp 
calling putenv with: QCTHREADS=32 
Creating input file /tmp/qchem20512/Frg2.input
using default PutDataFrgm: nothing
calling putenv with: QCSCRATCH=/tmp/qchem20512/ 
calling putenv with: QCLOCALSCR=/tmp/qchem20512/ 
Spawning Job For Fragment 1
                  Welcome to Q-Chem
     A Quantum Leap Into The Future Of Chemistry


 Q-Chem 5.2, Q-Chem, Inc., Pleasanton, CA (2019)

 License issued to: National Energy Research Scientific Computing Center

 Yihan Shao,  Zhengting Gan,  E. Epifanovsky,  A. T. B. Gilbert,  M. Wormit,  
 J. Kussmann,  A. W. Lange,  A. Behn,  Jia Deng,  Xintian Feng,  D. Ghosh,  
 M. Goldey,  P. R. Horn,  L. D. Jacobson,  I. Kaliman,  T. Kus,  A. Landau,  
 Jie Liu,  E. I. Proynov,  R. M. Richard,  R. P. Steele,  E. J. Sundstrom,  
 H. L. Woodcock III,  P. M. Zimmerman,  D. Zuev,  B. Albrecht,  E. Alguire,  
 S. A. Baeppler,  D. Barton,  Z. Benda,  Y. A. Bernard,  E. J. Berquist,  
 K. B. Bravaya,  H. Burton,  D. Casanova,  Chun-Min Chang,  Yunqing Chen,  
 A. Chien,  K. D. Closser,  M. P. Coons,  S. Coriani,  S. Dasgupta,  
 A. L. Dempwolff,  M. Diedenhofen,  Hainam Do,  R. G. Edgar,  Po-Tung Fang,  
 S. Faraji,  S. Fatehi,  Qingguo Feng,  K. D. Fenk,  J. Fosso-Tande,  
 J. Gayvert,  Qinghui Ge,  A. Ghysels,  G. Gidofalvi,  J. Gomes,  
 J. Gonthier,  A. Gunina,  D. Hait,  M. W. D. Hanson-Heine,  
 P. H. P. Harbach,  A. W. Hauser,  M. F. Herbst,  J. E. Herr,  
 E. G. Hohenstein,  Z. C. Holden,  Kerwin Hui,  B. C. Huynh,  T.-C. Jagau,  
 Hyunjun Ji,  B. Kaduk,  K. Khistyaev,  Jaehoon Kim,  P. Klunzinger,  K. Koh,  
 D. Kosenkov,  L. Koulias,  T. Kowalczyk,  C. M. Krauter,  A. Kunitsa,  
 Ka Un Lao,  A. Laurent,  K. V. Lawler,  Joonho Lee,  D. Lefrancois,  
 S. Lehtola,  D. S. Levine,  Yi-Pei Li,  You-Sheng Lin,  Fenglai Liu,  
 E. Livshits,  A. Luenser,  P. Manohar,  E. Mansoor,  S. F. Manzer,  
 Shan-Ping Mao,  Yuezhi Mao,  N. Mardirossian,  A. V. Marenich,  
 T. Markovich,  L. A. Martinez-Martinez,  S. A. Maurer,  N. J. Mayhall,  
 S. C. McKenzie,  J.-M. Mewes,  P. Morgante,  A. F. Morrison,  
 J. W. Mullinax,  K. Nanda,  T. S. Nguyen-Beck,  R. Olivares-Amaya,  
 J. A. Parkhill,  Zheng Pei,  T. M. Perrine,  F. Plasser,  P. Pokhilko,  
 S. Prager,  A. Prociuk,  E. Ramos,  D. R. Rehn,  F. Rob,  M. Scheurer,  
 M. Schneider,  N. Sergueev,  S. M. Sharada,  S. Sharma,  D. W. Small,  
 T. Stauch,  T. Stein,  Yu-Chuan Su,  A. J. W. Thom,  A. Tkatchenko,  
 T. Tsuchimochi,  N. M. Tubman,  L. Vogt,  M. L. Vidal,  O. Vydrov,  
 M. A. Watson,  J. Wenzel,  M. de Wergifosse,  T. A. Wesolowski,  A. White,  
 J. Witte,  A. Yamada,  Jun Yang,  K. Yao,  S. Yeganeh,  S. R. Yost,  
 Zhi-Qiang You,  A. Zech,  Igor Ying Zhang,  Xing Zhang,  Yan Zhao,  
 Ying Zhu,  B. R. Brooks,  G. K. L. Chan,  C. J. Cramer,  M. S. Gordon,  
 W. J. Hehre,  A. Klamt,  M. W. Schmidt,  C. D. Sherrill,  D. G. Truhlar,  
 A. Aspuru-Guzik,  R. Baer,  A. T. Bell,  N. A. Besley,  Jeng-Da Chai,  
 A. E. DePrince, III,  R. A. DiStasio Jr.,  A. Dreuw,  B. D. Dunietz,  
 T. R. Furlani,  Chao-Ping Hsu,  Yousung Jung,  Jing Kong,  D. S. Lambrecht,  
 WanZhen Liang,  C. Ochsenfeld,  V. A. Rassolov,  L. V. Slipchenko,  
 J. E. Subotnik,  T. Van Voorhis,  J. M. Herbert,  A. I. Krylov,  
 P. M. W. Gill,  M. Head-Gordon

 Contributors to earlier versions of Q-Chem not listed above: 
 R. D. Adamson,  B. Austin,  J. Baker,  G. J. O. Beran,  K. Brandhorst,  
 S. T. Brown,  E. F. C. Byrd,  A. K. Chakraborty,  C.-L. Cheng,  
 Siu Hung Chien,  D. M. Chipman,  D. L. Crittenden,  H. Dachsel,  
 R. J. Doerksen,  A. D. Dutoi,  L. Fusti-Molnar,  W. A. Goddard III,  
 A. Golubeva-Zadorozhnaya,  S. R. Gwaltney,  G. Hawkins,  A. Heyden,  
 S. Hirata,  G. Kedziora,  F. J. Keil,  C. Kelley,  Jihan Kim,  R. A. King,  
 R. Z. Khaliullin,  P. P. Korambath,  W. Kurlancheek,  A. M. Lee,  M. S. Lee,  
 S. V. Levchenko,  Ching Yeh Lin,  D. Liotard,  R. C. Lochan,  I. Lotan,  
 P. E. Maslen,  N. Nair,  D. P. O'Neill,  D. Neuhauser,  E. Neuscamman,  
 C. M. Oana,  R. Olson,  B. Peters,  R. Peverati,  P. A. Pieniazek,  
 Y. M. Rhee,  J. Ritchie,  M. A. Rohrdanz,  E. Rosta,  N. J. Russ,  
 H. F. Schaefer III,  N. E. Schultz,  N. Shenvi,  A. C. Simmonett,  A. Sodt,  
 D. Stuck,  K. S. Thanthiriwatte,  V. Vanovschi,  Tao Wang,  A. Warshel,  
 C. F. Williams,  Q. Wu,  X. Xu,  W. Zhang

 Please cite Q-Chem as follows:
 Y. Shao et al., Mol. Phys. 113, 184-215 (2015)
 DOI: 10.1080/00268976.2014.952696

 Q-Chem 5.2.0 for Intel X86 EM64T Linux

 Parts of Q-Chem use Armadillo 8.300.2 (Tropical Shenanigans).
 http://arma.sourceforge.net/

 Q-Chem begins on Sun Sep 26 05:52:07 2021  

Host: cori01
0

     Scratch files written to /tmp/qchem20512//Frg2//
 May1019 |scratch|qcdevops|jenkins|workspace|build_RNUM -1
Processing $rem in /global/common/cori/software/qchem/5.2/config/preferences:
	 MEM_TOTAL  96000 
NAlpha2: 32
NElect   32
Mult     1
Symmetry turned off for PCM/SM12/SMD calculation

Checking the input file for inconsistencies... 	...done.

--------------------------------------------------------------
User input:
--------------------------------------------------------------
$molecule
0 1
 6	-1.4700205484	-0.6948457581	-3.4591892270
 6	-0.0800205484	-0.6598457581	-2.8601892270
 8	0.8289794516	-1.3648457581	-3.2991892270
 7	0.1039794516	0.1691542419	-1.8521892270
 1	0.9529794516	0.0211542419	-1.3141892270
 1	-0.6990205484	0.6551542419	-1.4631892270
 1	-1.6490205484	0.2971542419	-3.8701892270
 1	-2.1940205484	-0.8818457581	-2.6641892270
 1	-1.5791505484	-1.4652277581	-4.2367512270
$end
$rem
EDA2		1
METHOD		WB97X-V
BASIS		DEF2-TZVPD
XC_GRID		000099000590
NL_GRID		1
UNRESTRICTED		FALSE
MAX_SCF_CYCLES		200
SYMMETRY		FALSE
SYM_IGNORE		TRUE
BASIS_LIN_DEP_THRESH		6
THRESH		14
SCF_CONVERGENCE		8
SCF_PRINT_FRGM		TRUE
SOLVENT_METHOD		SMD
!required keywords
JOBTYPE		SP
SYM_IGNORE		TRUE
SUBSYSTEM		TRUE
GEN_SCFMAN		TRUE
CHILD_INSTRUCTION		2
SYM_IGNORE		TRUE
SCFMI		0
RI_K 0		
PARI_K 0		
MIN_PARI_K 0		
IARI_K 0		
OCC_RI_K 0		
PURECART		1111
MEM_STATIC		2000
MEM_TOTAL		96000
GUI		0
CHILD_MP		1
CHILD_MP_ORDERS		232
FRZ_RELAX		0
FRZ_RELAX_METHOD		0
EDA_CLS_ELEC		1
EDA_CLS_DISP		0
FRZ_ORTHO_DECOMP		1
EDA2		FALSE
FRGM_METHOD		FALSE
CIS_N_ROOTS  0
LOCAL_CIS    0
CIS_RLX_DNS  1
$end
$smx
SOLVENT			WATER
$end
--------------------------------------------------------------
 ----------------------------------------------------------------
             Standard Nuclear Orientation (Angstroms)
    I     Atom           X                Y                Z
 ----------------------------------------------------------------
    1      C      -1.4700205484    -0.6948457581    -3.4591892270
    2      C      -0.0800205484    -0.6598457581    -2.8601892270
    3      O       0.8289794516    -1.3648457581    -3.2991892270
    4      N       0.1039794516     0.1691542419    -1.8521892270
    5      H       0.9529794516     0.0211542419    -1.3141892270
    6      H      -0.6990205484     0.6551542419    -1.4631892270
    7      H      -1.6490205484     0.2971542419    -3.8701892270
    8      H      -2.1940205484    -0.8818457581    -2.6641892270
    9      H      -1.5791505484    -1.4652277581    -4.2367512270
 ----------------------------------------------------------------
 Nuclear Repulsion Energy =         122.56369038 hartrees
 There are       16 alpha and       16 beta electrons
 Requested basis set is def2-TZVPD
 There are 78 shells and 196 basis functions

 Total QAlloc Memory Limit  96000 MB
 Mega-Array Size      1956 MB
 MEM_STATIC part      2000 MB
 
 Citation of the SMD model:
 Marenich, A.V.; Cramer, C.J.; Truhlar, D.G.
 J. Phys. Chem. B 2009, 113, 6378-6396.
 iSolventCode=           1
 Solvent: water                                                           
 
 vradii
            1           2           3           4           5           6
    1   1.8500000   1.8500000   1.5200000   1.8900000   1.2000000   1.2000000
            7           8           9
    1   1.2000000   1.2000000   1.2000000
 Changing PCM_VDW_RADII to SMD_RADIUS
 Discretize the solute cavity surface with Lebedev spheres
	Using 110 Lebedev grid points for each H atom
	Using 194 Lebedev grid points for other atoms
	Atomic van der Waals radii will be scaled by 1.20
 Remove points where switching function is < 1.0e-08
 Keep 716 surface tesserae and discard 610 interior tesserae
 Molecular Surface Area = 90.151 Angst**2

                       Distance Matrix (Angstroms)
             C (  1)   C (  2)   O (  3)   N (  4)   H (  5)   H (  6)
   C (  2)  1.513977
   O (  3)  2.399979  1.231270
   N (  4)  2.409652  1.318014  2.229930
   H (  5)  3.314304  1.980143  2.424169  1.015947
   H (  6)  2.530011  2.015935  3.128271  1.016034  1.775742
   H (  7)  1.088589  2.097072  3.037889  2.676138  3.657829  2.612339
   H (  8)  1.091407  2.134642  3.126507  2.654195  3.541401  2.457599
   H (  9)  1.100000  2.188825  2.586153  3.345186  4.142751  3.600458
             H (  7)   H (  8)
   H (  8)  1.772428
   H (  9)  1.801455  1.786435
 
 A cutoff of  1.0D-14 yielded   3054 shell pairs
 There are     19544 function pairs (     24702 Cartesian)
 Smallest overlap matrix eigenvalue = 1.01E-05

 Scale SEOQF with 1.000000e-01/1.000000e-01/1.000000e-01

 Standard Electronic Orientation quadrupole field applied
 Nucleus-field energy     =    -0.0000000268 hartrees
 Guess from superposition of atomic densities
 Warning:  Energy on first SCF cycle will be non-variational
 SAD guess density has 31.604610 electrons

 -----------------------------------------------------------------------
  General SCF calculation program by
  Eric Jon Sundstrom, Paul Horn, Yuezhi Mao, Dmitri Zuev, Alec White,
  David Stuck, Shaama M.S., Shane Yost, Joonho Lee, David Small,
  Daniel Levine, Susi Lehtola, Hugh Burton, Evgeny Epifanovsky
 -----------------------------------------------------------------------
 Exchange:     0.1670 Hartree-Fock + 1.0000 wB97X-V + LR-HF
 Correlation:  1.0000 wB97X-V
 Using Euler-Maclaurin-Lebedev (99,590) quadrature formula
 Nonlocal Correlation:  VV10 with C = 0.0100 and b = 6.00 and scale = 1.00000
 Grid used for NLC:  SG-1 standard quadrature
Energy prior to optimization (guess energy) = -208.700747718559
Begin Timing: Total SCF Calculation
begin iterations for algorithm: DIIS         
the SCF tolerance is set to 1.00e-08
    1    -208.7007477186      1.26e-02     00000 
    2    -208.3124985937      1.54e-02     00000 
    3    -209.2344803411      2.38e-03     00000 
    4    -209.2534161422      7.85e-04     00000 
    5    -209.2565902908      1.98e-04     00000 
    6    -209.2568664633      6.68e-05     00000 
    7    -209.2569070102      2.08e-05     00000 
    8    -209.2569121088      5.90e-06     00000 
    9    -209.2569128624      2.02e-06     00000 
   10    -209.2569129137      3.33e-07     00000 
   11    -209.2569129149      1.45e-07     00000 
   12    -209.2569129151      2.20e-08     00000 
   13    -209.2569129151      5.13e-09     00000 Convergence criterion met
Timing for Total SCF: 344.00s (wall), 680.55s (cpu)
(3)  G-ENP(liq) elect-nuc-pol free energy of system     -209.256912915 a.u.
(4)  G-CDS(liq) cavity-dispersion-solvent structure 
     free energy                                                3.4590 kcal/mol
(6)  G-S(liq) free energy of system                     -209.251400624 a.u.
E_pcm = -0.0302811484
E_cds = 0.0055122909
Multipole orders to be included
        2
        3
computing dipole RHS
computing quadrupole RHS
total number of RHS in solve_reponses: 8
RHS batch sizes
        8
Beginning Block Conjugate Gradient Iterations. Batch Number: 0
computing hessian-vector products by finite difference
              1      5.65e-01     00000 Conjugate Gradient Iteration
computing hessian-vector products by finite difference
              2      1.81e-01     00000 Conjugate Gradient Iteration
computing hessian-vector products by finite difference
              3      4.50e-02     00000 Conjugate Gradient Iteration
computing hessian-vector products by finite difference
              4      1.11e-02     00000 Conjugate Gradient Iteration
computing hessian-vector products by finite difference
              5      1.56e-03     00000 Conjugate Gradient Iteration
computing hessian-vector products by finite difference
              6      3.44e-04     00000 Conjugate Gradient Iteration
computing hessian-vector products by finite difference
              7      4.80e-05     00000 Conjugate Gradient Iteration
computing hessian-vector products by finite difference
              8      5.73e-06     00000 Conjugate Gradient Iteration
computing hessian-vector products by finite difference
              9      8.15e-07     00000 Conjugate Gradient Iteration
computing hessian-vector products by finite difference
             10      1.25e-07     00000 Conjugate Gradient Iteration
computing hessian-vector products by finite difference
             11      1.78e-08     00000 Conjugate Gradient Iteration
computing hessian-vector products by finite difference
             12      2.84e-09     00000 CG Converged
batch 0 complete
Done Calculating Responses
TESTING ORTHOGONALIZATION OF MULTIPOLE BASIS
Multipole virts passed orthogonality test
Virts Per Order
        48
        80
 
 --------------------------------------------------------------
 
                    Orbital Energies (a.u.)
 --------------------------------------------------------------
 
 Alpha MOs
 -- Occupied --
-19.1834 -14.4262 -10.3758 -10.2622  -1.1764  -1.0433  -0.8632  -0.7028
 -0.6520  -0.5896  -0.5663  -0.5180  -0.5015  -0.4772  -0.3853  -0.3736
 -- Virtual --
  0.0638   0.0956   0.0967   0.1042   0.1294   0.1336   0.1405   0.1478
  0.1723   0.1923   0.2067   0.2124   0.2331   0.2442   0.2452   0.2580
  0.2631   0.2830   0.3116   0.3166   0.3321   0.3368   0.3465   0.3556
  0.3600   0.3769   0.3808   0.3865   0.3933   0.4051   0.4206   0.4219
  0.4290   0.4567   0.4638   0.4752   0.4882   0.4903   0.4950   0.4979
  0.5272   0.5421   0.5436   0.5684   0.5819   0.5891   0.6281   0.6395
  0.6521   0.6583   0.6633   0.6852   0.6988   0.7179   0.7313   0.7679
  0.7785   0.7859   0.8066   0.8131   0.8156   0.8373   0.8520   0.8751
  0.9221   0.9554   0.9583   0.9839   1.0063   1.0363   1.0445   1.1106
  1.1384   1.1692   1.2259   1.2650   1.3000   1.3144   1.3269   1.4025
  1.4696   1.4935   1.5158   1.6174   1.6956   1.7299   1.7521   1.8004
  1.8360   1.8715   1.8907   1.9126   1.9371   1.9401   1.9872   2.0272
  2.0419   2.1012   2.1531   2.1985   2.2629   2.2807   2.2985   2.3286
  2.3763   2.3972   2.4388   2.4829   2.5422   2.5714   2.6161   2.6287
  2.6612   2.7242   2.7657   2.8308   2.8855   2.9165   2.9468   2.9887
  3.0153   3.1233   3.1342   3.1757   3.2091   3.2287   3.2731   3.2946
  3.3127   3.3387   3.3530   3.4277   3.4594   3.5207   3.5407   3.5734
  3.6207   3.6722   3.6917   3.7058   3.9063   3.9273   3.9914   4.0344
  4.0750   4.1845   4.2384   4.4980   4.5446   4.6120   4.6362   4.6612
  4.7924   4.9023   4.9162   4.9374   5.1452   5.1856   5.2511   5.3195
  5.3753   5.3995   5.4316   5.4849   5.5363   5.7665   5.9069   6.1022
  6.2676   6.5135   6.6291   6.7291   6.8320   6.9726   7.2262   7.3144
 22.6153  23.6055  32.4232  44.2944
 --------------------------------------------------------------
 
          Ground-State Mulliken Net Atomic Charges

     Atom                 Charge (a.u.)
  ----------------------------------------
      1 C                    -0.649858
      2 C                     0.438945
      3 O                    -0.697302
      4 N                    -0.325082
      5 H                     0.273415
      6 H                     0.252057
      7 H                     0.225308
      8 H                     0.252810
      9 H                     0.229706
  ----------------------------------------
  Sum of atomic charges =     0.000000

 -----------------------------------------------------------------
                    Cartesian Multipole Moments
 -----------------------------------------------------------------
    Charge (ESU x 10^10)
                 0.0000
    Dipole Moment (Debye)
         X      -3.8002      Y       3.3182      Z       3.2533
       Tot       6.0030
    Quadrupole Moments (Debye-Ang)
        XX     -23.8072     XY       3.7476     YY     -29.6834
        XZ      13.1836     YZ     -10.3858     ZZ     -39.6667
    Octopole Moments (Debye-Ang^2)
       XXX      13.2135    XXY      18.1803    XYY      -1.9800
       YYY      54.3305    XXZ      72.8983    XYZ     -14.1224
       YYZ      88.0226    XZZ     -38.6936    YZZ      50.3592
       ZZZ     268.4496
    Hexadecapole Moments (Debye-Ang^3)
      XXXX    -165.1000   XXXY       2.7878   XXYY     -53.0263
      XYYY       5.6783   YYYY    -151.2443   XXXZ     -54.0176
      XXYZ     -60.8676   XYYZ       3.2676   YYYZ    -184.0175
      XXZZ    -260.2237   XYZZ      49.7449   YYZZ    -299.5394
      XZZZ      85.2998   YZZZ    -276.6241   ZZZZ   -1521.2750
 -----------------------------------------------------------------
Archival summary:
1\1\nid00563\SP\ProcedureUnspecified\BasisUnspecified\1125\meili\SunSep2607:33:222021SunSep2607:33:222021\0\\#,ProcedureUnspecified,BasisUnspecified,\\0,1\C\O,1,1.23127\N,1,1.31801,2,121.989\H,3,1.01595,1,115.47,2,-15.0782,0\H,3,1.01603,1,118.903,2,-173.554,0\C,1,1.51398,2,121.568,3,179.604,0\H,6,1.08859,1,106.217,2,-116.29,0\H,6,1.09141,1,108.954,2,126.675,0\H,6,1.1,1,112.765,2,5.24465,0\\\@

 Total job time:  6077.17s(wall), 11955.95s(cpu) 
 Sun Sep 26 07:33:24 2021

        *************************************************************
        *                                                           *
        *  Thank you very much for using Q-Chem.  Have a nice day.  *
        *                                                           *
        *************************************************************


Done Job For Fragment 1
calling putenv with: QCSCRATCH=/global/cscratch1/sd/meili 
calling putenv with: QCLOCALSCR=/tmp 
calling putenv with: QCTHREADS=32 
Doing General SCFMI
 Exchange:     0.1670 Hartree-Fock + 1.0000 wB97X-V + LR-HF
 Correlation:  1.0000 wB97X-V
 Using Euler-Maclaurin-Lebedev (99,590) quadrature formula
 Nonlocal Correlation:  VV10 with C = 0.0100 and b = 6.00 and scale = 1.00000
 Grid used for NLC:  SG-1 standard quadrature
performing fock build before subrot guess so that all methods have access
Printing subrot_rss_gen Method Specification:
Occupied Subspace Method is 0
Virtual Subspace Method is 0
Energy of the unrelaxed supersystem initial determinant -454.304987454086
performing fock build before subrot guess so that all methods have access
Printing subrot_rss_gen Method Specification:
Occupied Subspace Method is 0
Virtual Subspace Method is 0
Energy of the unrelaxed supersystem initial determinant w/ solvent -454.460579418806
write pseudocanon occs and virts to disk
write pseudocanon orbital energies to disk
Tolerance of ortho_decomp_scf: 1.00e-06
GDM subspace size: 20
Beginning the Orthogonal Decomposition of the Initial Supersystem Wavefunction
    1    -454.3139038713      2.24e-02     ortho_decomp Preconditoned Steepest Descent
    2    -454.3147226677      4.51e-04     ortho_decomp BFGS Step
    3    -454.3147243682      2.90e-05     ortho_decomp BFGS Step
    4    -454.3147243706      1.01e-06     ortho_decomp BFGS Step
    5    -454.3147243706      3.13e-08     ortho_decomp 00000 Convergence criterion met
 Hartree-Fock
 Hartree-Fock
 Hartree-Fock
Doing General SCFMI
 Exchange:     0.1670 Hartree-Fock + 1.0000 wB97X-V + LR-HF
 Correlation:  1.0000 wB97X-V
 Using Euler-Maclaurin-Lebedev (99,590) quadrature formula
 Nonlocal Correlation:  VV10 with C = 0.0100 and b = 6.00 and scale = 1.00000
 Grid used for NLC:  SG-1 standard quadrature
performing fock build at end of subrot_r(subrot) constructor so that all methods have access
<S^2> of initial wavefunction before polarization iterations 0.0000000000
Beginning iterations for the determination of the polarized wavefunction
Energy prior to optimization (guess energy) = -454.460579418806
Begin Timing: Total SCF Calculation
begin iterations for algorithm: DIIS         
the SCF tolerance is set to 1.00e-08
    1    -454.4605794188      3.93e-05     00000 
    2    -454.4606613541      1.55e-05     00000 
    3    -454.4606693604      9.39e-06     00000 
    4    -454.4606720013      2.45e-06     00000 
    5    -454.4606722459      1.38e-06     00000 
    6    -454.4606723146      4.30e-07     00000 
    7    -454.4606723218      1.65e-07     00000 
    8    -454.4606723227      3.54e-08     00000 
    9    -454.4606723228      1.43e-08     00000 
   10    -454.4606723228      4.97e-09     00000 Convergence criterion met
write pseudocanon occs and virts to disk
write pseudocanon orbital energies to disk
Timing for Total SCF: 2256.00s (wall), 4485.44s (cpu)
<S^2> of polarized wavefunction after polarization iterations 0.0000000000
relaxing scfmi constraint to allow all rotations in the entire AO span
Doing General SCFMI
 Exchange:     0.1670 Hartree-Fock + 1.0000 wB97X-V + LR-HF
 Correlation:  1.0000 wB97X-V
 Using Euler-Maclaurin-Lebedev (99,590) quadrature formula
 Nonlocal Correlation:  VV10 with C = 0.0100 and b = 6.00 and scale = 1.00000
 Grid used for NLC:  SG-1 standard quadrature
performing fock build at end of subrot_r(subrot) constructor so that all methods have access
<S^2> of polarized wavefunction before ct-allowed iterations 0.0000000000
Beginning iterations for the determination of the CT-Allowed wavefunction
Energy prior to optimization (guess energy) = -454.460672322806
Begin Timing: Total SCF Calculation
begin iterations for algorithm: DIIS         
the SCF tolerance is set to 1.00e-08
    1    -454.4606723228      6.43e-05     00000 
    2    -454.4610498575      6.00e-06     00000 
    3    -454.4610583486      8.01e-07     00000 
    4    -454.4610585430      3.18e-07     00000 
    5    -454.4610585531      1.20e-07     00000 
    6    -454.4610585554      3.44e-08     00000 
    7    -454.4610585556      1.64e-08     00000 
    8    -454.4610585556      5.47e-09     00000 Convergence criterion met
write pseudocanon occs and virts to disk
write pseudocanon orbital energies to disk
Timing for Total SCF: 1777.00s (wall), 3535.79s (cpu)
<S^2> of ct_allowed wavefunction after ct-allowed iterations 0.0000000000

================================
        Results of EDA2         
================================
Basic EDA Quantities
--------------------
Fragment Energies (Ha):
1 -245.1989517250
2 -209.2514006242
--------------------
  E_prp (kJ/mol) = 0.0000
  E_sol (kJ/mol) = -44.0897
  E_frz (kJ/mol) = 42.7353
  E_pol (kJ/mol) = -0.2439
  E_vct (kJ/mol) = -1.0141
  E_int (kJ/mol) = -2.6124
--------------------


Initial Wavefunction Decomposition
--------------------
  --------------------
  Orthogonal Fragment Subspace Decomposition:
  --------------------
     E_elec   (ELEC)   (kJ/mol) = 35.8697
     E_pauli  (PAULI)  (kJ/mol) = 13.5756
     E_disp   (DISP)   (kJ/mol) = -6.7100
     --------------------
     Terms summing to E_pauli:
     --------------------
        E_kep_pauli       (kJ/mol) = 17.1707
        E_disp_free_pauli (kJ/mol) = -3.5951
  --------------------
  Classical Frozen Decomposition:
  --------------------
     E_cls_elec  (CLS ELEC)  (kJ/mol) = 41.6518
     E_cls_pauli (CLS PAULI) (kJ/mol) = 1.0835
    [E_mod_pauli (MOD PAULI) (kJ/mol) = 7.7935 (CLS PAULI - DISP from orthogonal decomposition) ]
  --------------------
--------------------

Simplified EDA Summary (kJ/mol)
--------------------
 PREPARATION     0.0000
 SOLVATION       -44.0897
 FROZEN          49.4453      (does not include dispersion)
[PAULI           13.5756]     (if this is negligible, then frozen describes electrostatics)
 DISPERSION      -6.7100
 POLARIZATION    -0.2439
 CHARGE TRANSFER -1.0141
 TOTAL           -2.6124     (PRP + SOL + FRZ + DISP + POL + CT)
--------------------
 
 --------------------------------------------------------------
 
                    Orbital Energies (a.u.)
 --------------------------------------------------------------
 
 Alpha MOs
 -- Occupied --
-19.1850 -14.4568 -14.4472 -14.4466 -14.4283 -10.4216 -10.3775 -10.3068
-10.2635  -1.1780  -1.1745  -1.0548  -1.0459  -1.0418  -0.8647  -0.8538
 -0.7646  -0.7211  -0.7048  -0.6907  -0.6543  -0.6168  -0.6099  -0.5931
 -0.5896  -0.5720  -0.5678  -0.5271  -0.5195  -0.5089  -0.5027  -0.4786
 -0.3995  -0.3871  -0.3768  -0.3741
 -- Virtual --
  0.0524   0.0715   0.0832   0.0876   0.0924   0.0998   0.1031   0.1200
  0.1237   0.1250   0.1268   0.1373   0.1379   0.1511   0.1584   0.1666
  0.1701   0.1781   0.1830   0.1914   0.1961   0.2065   0.2099   0.2172
  0.2193   0.2290   0.2342   0.2380   0.2410   0.2468   0.2542   0.2636
  0.2655   0.2726   0.2755   0.2861   0.2906   0.2973   0.3016   0.3064
  0.3131   0.3141   0.3199   0.3242   0.3295   0.3353   0.3356   0.3412
  0.3489   0.3521   0.3572   0.3587   0.3652   0.3690   0.3710   0.3757
  0.3790   0.3828   0.3916   0.3951   0.4025   0.4078   0.4117   0.4177
  0.4205   0.4264   0.4353   0.4357   0.4457   0.4472   0.4522   0.4614
  0.4665   0.4723   0.4747   0.4758   0.4841   0.4877   0.4889   0.4961
  0.4968   0.4991   0.5092   0.5130   0.5197   0.5271   0.5317   0.5334
  0.5378   0.5417   0.5435   0.5498   0.5540   0.5646   0.5676   0.5779
  0.5840   0.5862   0.5907   0.5976   0.6039   0.6133   0.6171   0.6236
  0.6346   0.6444   0.6493   0.6552   0.6622   0.6646   0.6715   0.6873
  0.6921   0.7026   0.7066   0.7110   0.7161   0.7215   0.7234   0.7343
  0.7414   0.7520   0.7586   0.7698   0.7797   0.7947   0.8004   0.8045
  0.8107   0.8141   0.8154   0.8206   0.8277   0.8369   0.8474   0.8534
  0.8646   0.8716   0.8753   0.8837   0.8982   0.8994   0.9131   0.9276
  0.9290   0.9471   0.9521   0.9636   0.9734   0.9805   0.9932   0.9990
  1.0128   1.0138   1.0248   1.0378   1.0517   1.0598   1.0666   1.0763
  1.0909   1.1073   1.1148   1.1260   1.1470   1.1539   1.1719   1.1744
  1.1889   1.1912   1.2278   1.2444   1.2562   1.2667   1.2807   1.2846
  1.2899   1.3264   1.3526   1.3566   1.3769   1.4042   1.4321   1.4621
  1.4696   1.4831   1.4920   1.5157   1.5223   1.5293   1.5552   1.5988
  1.6344   1.6475   1.6769   1.6856   1.7067   1.7272   1.7391   1.7503
  1.7569   1.7654   1.8010   1.8249   1.8492   1.8681   1.8823   1.8898
  1.9002   1.9075   1.9114   1.9192   1.9301   1.9439   1.9591   1.9675
  1.9781   1.9909   2.0075   2.0281   2.0327   2.0497   2.0552   2.0661
  2.0893   2.1182   2.1265   2.1365   2.1737   2.2160   2.2250   2.2386
  2.2693   2.2744   2.2883   2.2984   2.3066   2.3105   2.3184   2.3322
  2.3709   2.3726   2.3964   2.4141   2.4226   2.4346   2.4740   2.4900
  2.5057   2.5217   2.5385   2.5542   2.5607   2.5829   2.6115   2.6238
  2.6253   2.6370   2.6579   2.6678   2.6769   2.6871   2.7107   2.7241
  2.7442   2.7472   2.7584   2.7859   2.8423   2.8507   2.8615   2.8866
  2.8974   2.9201   2.9236   2.9365   2.9607   2.9695   2.9747   3.0042
  3.0592   3.0842   3.1325   3.1413   3.1552   3.1649   3.1798   3.1940
  3.2071   3.2278   3.2349   3.2511   3.2609   3.2690   3.2855   3.2926
  3.2971   3.3113   3.3251   3.3290   3.3394   3.3498   3.3671   3.3808
  3.3905   3.4441   3.4569   3.4698   3.4769   3.5159   3.5231   3.5366
  3.5581   3.5658   3.5825   3.5925   3.5963   3.6343   3.6718   3.6803
  3.7009   3.7211   3.7386   3.7749   3.7888   3.8851   3.9125   3.9249
  3.9483   4.0116   4.0222   4.0423   4.0560   4.0819   4.1259   4.1766
  4.1908   4.2452   4.2480   4.2719   4.3143   4.3545   4.3710   4.4500
  4.5048   4.5493   4.5510   4.5662   4.6164   4.6349   4.6425   4.6688
  4.6764   4.7983   4.8500   4.8794   4.8945   4.9244   4.9345   4.9461
  4.9633   5.0076   5.0273   5.0788   5.1321   5.1385   5.1468   5.1741
  5.1922   5.2000   5.2146   5.2576   5.2628   5.2904   5.3276   5.3573
  5.3842   5.3912   5.4040   5.4147   5.4580   5.4777   5.4883   5.5065
  5.5095   5.5433   5.5664   5.6006   5.6783   5.7263   5.7677   5.7722
  5.8139   5.9075   5.9200   6.1301   6.1394   6.2012   6.2685   6.3637
  6.4984   6.5143   6.6353   6.7386   6.8341   6.9741   7.2302   7.3184
 22.6295  22.6547  23.6375  23.6718  32.3794  32.4544  32.5287  32.8545
 44.3285
 --------------------------------------------------------------
 
          Ground-State Mulliken Net Atomic Charges

     Atom                 Charge (a.u.)
  ----------------------------------------
      1 C                    -0.808085
      2 C                     0.577873
      3 N                    -0.348856
      4 N                    -0.125374
      5 N                    -0.299888
      6 H                     0.261731
      7 H                     0.232216
      8 H                     0.264671
      9 H                     0.151406
     10 H                     0.256743
     11 H                     0.272743
     12 H                     0.318729
     13 H                     0.254307
     14 C                    -0.704110
     15 C                     0.450934
     16 O                    -0.699594
     17 N                    -0.234982
     18 H                     0.207623
     19 H                     0.249414
     20 H                     0.232795
     21 H                     0.259656
     22 H                     0.230048
  ----------------------------------------
  Sum of atomic charges =     1.000000

 -----------------------------------------------------------------
                    Cartesian Multipole Moments
 -----------------------------------------------------------------
    Charge (ESU x 10^10)
                 4.8032
    Dipole Moment (Debye)
         X      -3.7025      Y       6.8295      Z      12.7923
       Tot      14.9664
    Quadrupole Moments (Debye-Ang)
        XX     -45.2399     XY      -1.1703     YY     -45.8676
        XZ       7.4862     YZ      -9.1829     ZZ     -43.1985
    Octopole Moments (Debye-Ang^2)
       XXX       2.9620    XXY      10.6682    XYY     -14.6722
       YYY      41.7174    XXZ      20.6317    XYZ     -29.4053
       YYZ      37.2649    XZZ     -63.9062    YZZ      30.6306
       ZZZ     141.6744
    Hexadecapole Moments (Debye-Ang^3)
      XXXX    -262.7894   XXXY       8.2869   XXYY    -106.1218
      XYYY      -3.4410   YYYY    -365.5441   XXXZ     -77.0307
      XXYZ     -58.4846   XYYZ     -21.8750   YYYZ    -182.9711
      XXZZ    -417.8249   XYZZ      15.6915   YYZZ    -500.6358
      XZZZ       7.2479   YZZZ    -340.1016   ZZZZ   -2376.7022
 -----------------------------------------------------------------
Archival summary:
1\1\nid00563\SP\ProcedureUnspecified\BasisUnspecified\14413(1+,1)\meili\SunSep2609:42:012021SunSep2609:42:012021\0\\#,ProcedureUnspecified,BasisUnspecified,\\1,1\N\H,1,1.02049\C,1,1.32257,2,116.188\N,3,1.31681,1,120.383,2,172.551,0\H,4,1.01219,3,120.253,1,-9.97572,0\H,4,1.0231,3,121.821,1,177.065,0\N,3,1.31759,1,119.985,2,-7.39052,0\H,7,1.00859,3,120.611,1,178.463,0\H,7,1.0141,3,117.353,1,4.37287,0\C,1,1.46687,2,118.536,3,173.022,0\H,10,1.08952,1,112.761,2,178.628,0\H,10,1.09276,1,108.479,2,-61.5687,0\H,10,1.1,1,110.864,2,57.8467,0\H,9,2.26864,7,117.887,3,88.997,0\N,14,1.01595,9,119.064,7,30.8129,0\H,15,1.01603,14,121.829,9,-19.5825,0\C,15,1.31801,14,115.47,9,-177.37,0\O,17,1.23127,15,121.989,14,-15.0782,0\C,17,1.51398,15,116.442,14,165.298,0\H,19,1.08859,17,106.217,15,63.3356,0\H,19,1.09141,17,108.954,15,-53.6995,0\H,19,1.1,17,112.765,15,-175.13,0\\\@

 Total job time:  26624.06s(wall), 15365.77s(cpu) 
 Sun Sep 26 09:42:05 2021

        *************************************************************
        *                                                           *
        *  Thank you very much for using Q-Chem.  Have a nice day.  *
        *                                                           *
        *************************************************************


