
Running Job 1 of 1 SSI-016GLN-101GLN-1_SMD_TZVPD.in
qchem SSI-016GLN-101GLN-1_SMD_TZVPD.in_16047.0 /tmp/qchem16047/ 0
/global/common/cori/software/qchem/5.2/exe/qcprog.exe_s SSI-016GLN-101GLN-1_SMD_TZVPD.in_16047.0 /tmp/qchem16047/
                  Welcome to Q-Chem
     A Quantum Leap Into The Future Of Chemistry


 Q-Chem 5.2, Q-Chem, Inc., Pleasanton, CA (2019)

 License issued to: National Energy Research Scientific Computing Center

 Yihan Shao,  Zhengting Gan,  E. Epifanovsky,  A. T. B. Gilbert,  M. Wormit,  
 J. Kussmann,  A. W. Lange,  A. Behn,  Jia Deng,  Xintian Feng,  D. Ghosh,  
 M. Goldey,  P. R. Horn,  L. D. Jacobson,  I. Kaliman,  T. Kus,  A. Landau,  
 Jie Liu,  E. I. Proynov,  R. M. Richard,  R. P. Steele,  E. J. Sundstrom,  
 H. L. Woodcock III,  P. M. Zimmerman,  D. Zuev,  B. Albrecht,  E. Alguire,  
 S. A. Baeppler,  D. Barton,  Z. Benda,  Y. A. Bernard,  E. J. Berquist,  
 K. B. Bravaya,  H. Burton,  D. Casanova,  Chun-Min Chang,  Yunqing Chen,  
 A. Chien,  K. D. Closser,  M. P. Coons,  S. Coriani,  S. Dasgupta,  
 A. L. Dempwolff,  M. Diedenhofen,  Hainam Do,  R. G. Edgar,  Po-Tung Fang,  
 S. Faraji,  S. Fatehi,  Qingguo Feng,  K. D. Fenk,  J. Fosso-Tande,  
 J. Gayvert,  Qinghui Ge,  A. Ghysels,  G. Gidofalvi,  J. Gomes,  
 J. Gonthier,  A. Gunina,  D. Hait,  M. W. D. Hanson-Heine,  
 P. H. P. Harbach,  A. W. Hauser,  M. F. Herbst,  J. E. Herr,  
 E. G. Hohenstein,  Z. C. Holden,  Kerwin Hui,  B. C. Huynh,  T.-C. Jagau,  
 Hyunjun Ji,  B. Kaduk,  K. Khistyaev,  Jaehoon Kim,  P. Klunzinger,  K. Koh,  
 D. Kosenkov,  L. Koulias,  T. Kowalczyk,  C. M. Krauter,  A. Kunitsa,  
 Ka Un Lao,  A. Laurent,  K. V. Lawler,  Joonho Lee,  D. Lefrancois,  
 S. Lehtola,  D. S. Levine,  Yi-Pei Li,  You-Sheng Lin,  Fenglai Liu,  
 E. Livshits,  A. Luenser,  P. Manohar,  E. Mansoor,  S. F. Manzer,  
 Shan-Ping Mao,  Yuezhi Mao,  N. Mardirossian,  A. V. Marenich,  
 T. Markovich,  L. A. Martinez-Martinez,  S. A. Maurer,  N. J. Mayhall,  
 S. C. McKenzie,  J.-M. Mewes,  P. Morgante,  A. F. Morrison,  
 J. W. Mullinax,  K. Nanda,  T. S. Nguyen-Beck,  R. Olivares-Amaya,  
 J. A. Parkhill,  Zheng Pei,  T. M. Perrine,  F. Plasser,  P. Pokhilko,  
 S. Prager,  A. Prociuk,  E. Ramos,  D. R. Rehn,  F. Rob,  M. Scheurer,  
 M. Schneider,  N. Sergueev,  S. M. Sharada,  S. Sharma,  D. W. Small,  
 T. Stauch,  T. Stein,  Yu-Chuan Su,  A. J. W. Thom,  A. Tkatchenko,  
 T. Tsuchimochi,  N. M. Tubman,  L. Vogt,  M. L. Vidal,  O. Vydrov,  
 M. A. Watson,  J. Wenzel,  M. de Wergifosse,  T. A. Wesolowski,  A. White,  
 J. Witte,  A. Yamada,  Jun Yang,  K. Yao,  S. Yeganeh,  S. R. Yost,  
 Zhi-Qiang You,  A. Zech,  Igor Ying Zhang,  Xing Zhang,  Yan Zhao,  
 Ying Zhu,  B. R. Brooks,  G. K. L. Chan,  C. J. Cramer,  M. S. Gordon,  
 W. J. Hehre,  A. Klamt,  M. W. Schmidt,  C. D. Sherrill,  D. G. Truhlar,  
 A. Aspuru-Guzik,  R. Baer,  A. T. Bell,  N. A. Besley,  Jeng-Da Chai,  
 A. E. DePrince, III,  R. A. DiStasio Jr.,  A. Dreuw,  B. D. Dunietz,  
 T. R. Furlani,  Chao-Ping Hsu,  Yousung Jung,  Jing Kong,  D. S. Lambrecht,  
 WanZhen Liang,  C. Ochsenfeld,  V. A. Rassolov,  L. V. Slipchenko,  
 J. E. Subotnik,  T. Van Voorhis,  J. M. Herbert,  A. I. Krylov,  
 P. M. W. Gill,  M. Head-Gordon

 Contributors to earlier versions of Q-Chem not listed above: 
 R. D. Adamson,  B. Austin,  J. Baker,  G. J. O. Beran,  K. Brandhorst,  
 S. T. Brown,  E. F. C. Byrd,  A. K. Chakraborty,  C.-L. Cheng,  
 Siu Hung Chien,  D. M. Chipman,  D. L. Crittenden,  H. Dachsel,  
 R. J. Doerksen,  A. D. Dutoi,  L. Fusti-Molnar,  W. A. Goddard III,  
 A. Golubeva-Zadorozhnaya,  S. R. Gwaltney,  G. Hawkins,  A. Heyden,  
 S. Hirata,  G. Kedziora,  F. J. Keil,  C. Kelley,  Jihan Kim,  R. A. King,  
 R. Z. Khaliullin,  P. P. Korambath,  W. Kurlancheek,  A. M. Lee,  M. S. Lee,  
 S. V. Levchenko,  Ching Yeh Lin,  D. Liotard,  R. C. Lochan,  I. Lotan,  
 P. E. Maslen,  N. Nair,  D. P. O'Neill,  D. Neuhauser,  E. Neuscamman,  
 C. M. Oana,  R. Olson,  B. Peters,  R. Peverati,  P. A. Pieniazek,  
 Y. M. Rhee,  J. Ritchie,  M. A. Rohrdanz,  E. Rosta,  N. J. Russ,  
 H. F. Schaefer III,  N. E. Schultz,  N. Shenvi,  A. C. Simmonett,  A. Sodt,  
 D. Stuck,  K. S. Thanthiriwatte,  V. Vanovschi,  Tao Wang,  A. Warshel,  
 C. F. Williams,  Q. Wu,  X. Xu,  W. Zhang

 Please cite Q-Chem as follows:
 Y. Shao et al., Mol. Phys. 113, 184-215 (2015)
 DOI: 10.1080/00268976.2014.952696

 Q-Chem 5.2.0 for Intel X86 EM64T Linux

 Parts of Q-Chem use Armadillo 8.300.2 (Tropical Shenanigans).
 http://arma.sourceforge.net/

 Q-Chem begins on Sun Sep 26 03:18:01 2021  

Host: cori01
0

     Scratch files written to /tmp/qchem16047//
 May1019 |scratch|qcdevops|jenkins|workspace|build_RNUM -1
Processing $rem in /global/common/cori/software/qchem/5.2/config/preferences:
	 MEM_TOTAL  96000 
NAlpha2: 64
NElect   64
Mult     1
Symmetry turned off for PCM/SM12/SMD calculation

 Q-Chem warning in module libgen/rem_setup.C, line 2803:

 Neither GIA nor STOLL is specified by user. Use STOLL as the default


Checking the input file for inconsistencies... 	...done.

--------------------------------------------------------------
User input:
--------------------------------------------------------------
$comment
SSI-016GLN-101GLN-1.pdb
$end

$molecule
0 1
--
0 1
C   -3.030037915789    2.132387631239   -0.171043638997
C   -1.808037915789    1.345387631239   -0.590043638997
O   -0.891037915789    1.119387631239    0.200956361003
N   -1.790037915789    0.905387631239   -1.841043638997
H   -3.164037915789    2.969387631239   -0.858043638997
H   -2.857037915789    2.543387631239    0.819956361003
H   -0.978037915789    0.388387631239   -2.144043638997
H   -2.534037915789    1.135387631239   -2.483043638997
H   -3.936077915789    1.508807631239   -0.186252638997
--
0 1
C    2.407962084211   -2.709612368761    0.834956361003
C    1.837962084211   -1.329612368761    0.561956361003
O    1.236962084211   -1.084612368761   -0.484043638997
N    2.022962084211   -0.413612368761    1.503956361003
H    1.865962084211   -3.123612368761    1.684956361003
H    3.458962084211   -2.615612368761    1.109956361003
H    1.615962084211    0.498387631239    1.352956361003
H    2.531962084211   -0.630612368761    2.346956361003
H    2.320632084211   -3.373632368761   -0.037653638997
$end

$rem
JOBTYPE			EDA
EDA2			1
method			wB97X-V
BASIS			def2-TZVPD
XC_GRID			000099000590
NL_GRID			1
UNRESTRICTED		FALSE
MAX_SCF_CYCLES		200
SYMMETRY		FALSE
SYM_IGNORE		TRUE
MEM_STATIC		2000
BASIS_LIN_DEP_THRESH 	6
THRESH 			14
SCF_CONVERGENCE 	8
SCF_PRINT_FRGM 		TRUE
SOLVENT_METHOD          SMD
$end

$SMX
SOLVENT			WATER
$END
--------------------------------------------------------------
 ----------------------------------------------------------------
             Standard Nuclear Orientation (Angstroms)
    I     Atom           X                Y                Z
 ----------------------------------------------------------------
    1      C      -3.0300379158     2.1323876312    -0.1710436390
    2      C      -1.8080379158     1.3453876312    -0.5900436390
    3      O      -0.8910379158     1.1193876312     0.2009563610
    4      N      -1.7900379158     0.9053876312    -1.8410436390
    5      H      -3.1640379158     2.9693876312    -0.8580436390
    6      H      -2.8570379158     2.5433876312     0.8199563610
    7      H      -0.9780379158     0.3883876312    -2.1440436390
    8      H      -2.5340379158     1.1353876312    -2.4830436390
    9      H      -3.9360779158     1.5088076312    -0.1862526390
   10      C       2.4079620842    -2.7096123688     0.8349563610
   11      C       1.8379620842    -1.3296123688     0.5619563610
   12      O       1.2369620842    -1.0846123688    -0.4840436390
   13      N       2.0229620842    -0.4136123688     1.5039563610
   14      H       1.8659620842    -3.1236123688     1.6849563610
   15      H       3.4589620842    -2.6156123688     1.1099563610
   16      H       1.6159620842     0.4983876312     1.3529563610
   17      H       2.5319620842    -0.6306123688     2.3469563610
   18      H       2.3206320842    -3.3736323688    -0.0376536390
 ----------------------------------------------------------------
 Nuclear Repulsion Energy =         356.64875710 hartrees
 There are       32 alpha and       32 beta electrons
 Requested basis set is def2-TZVPD
 There are 156 shells and 392 basis functions

 Total QAlloc Memory Limit  96000 MB
 Mega-Array Size      1956 MB
 MEM_STATIC part      2000 MB
 
 Citation of the SMD model:
 Marenich, A.V.; Cramer, C.J.; Truhlar, D.G.
 J. Phys. Chem. B 2009, 113, 6378-6396.
 iSolventCode=           1
 Solvent: water                                                           
 
 vradii
            1           2           3           4           5           6
    1   1.8500000   1.8500000   1.5200000   1.8900000   1.2000000   1.2000000
            7           8           9          10          11          12
    1   1.2000000   1.2000000   1.2000000   1.8500000   1.8500000   1.5200000
           13          14          15          16          17          18
    1   1.8900000   1.2000000   1.2000000   1.2000000   1.2000000   1.2000000
 Changing PCM_VDW_RADII to SMD_RADIUS
 Discretize the solute cavity surface with Lebedev spheres
	Using 110 Lebedev grid points for each H atom
	Using 194 Lebedev grid points for other atoms
	Atomic van der Waals radii will be scaled by 1.20
 Remove points where switching function is < 1.0e-08
 Keep 1432 surface tesserae and discard 1220 interior tesserae
 Molecular Surface Area = 180.416 Angst**2
 A cutoff of  1.0D-14 yielded  10603 shell pairs
 There are     67377 function pairs (     84456 Cartesian)
 Smallest overlap matrix eigenvalue = 8.12E-06

 Scale SEOQF with 1.000000e-01/1.000000e-01/1.000000e-01

 Standard Electronic Orientation quadrupole field applied
 Nucleus-field energy     =     0.0000000137 hartrees

 -----------------------------------------------------------------------
  General SCF calculation program by
  Eric Jon Sundstrom, Paul Horn, Yuezhi Mao, Dmitri Zuev, Alec White,
  David Stuck, Shaama M.S., Shane Yost, Joonho Lee, David Small,
  Daniel Levine, Susi Lehtola, Hugh Burton, Evgeny Epifanovsky
 -----------------------------------------------------------------------
================================================================
                 ALMO-EDA with the EDA2 driver                  
================================================================
 The second-generation ALMO-EDA (for DFT):                      
 P. R. Horn, Y. Mao and M. Head-Gordon, PCCP, 18, 23067 (2016)  
 Decomposition of the frozen energy:                            
 P. R. Horn, Y. Mao and M. Head-Gordon, JCP, 144, 114107 (2016) 
 FERF model for polarization:                                   
 P. R. Horn and M. Head-Gordon, JCP, 143, 114111 (2015)         
Using eda2 option set 1
Option set summary: Frozen orbital wavefunction, initial wavefunction decomposition, and nDQ polarization.
--------------------------------
Printing EDA Options
--------------------------------
eda_child_super_basis      0
fragmo_guess_mode          0
child_mp                   1
child_mp_orders            232
cls_elec                   1
cls_disp                   0
scfmi_mode                 1
scfmi_occs                 0
scfmi_virts                0
frz_relax                  0
frz_relax_method           0
dc_pen_start               0
dc_pen_conv                0
dc_pen_increment           0
dc_pen_steps               0
dc_pen_thresh_factor       0
dc_pen_pre_newton_thresh   0
frz_ortho_decomp           1
frz_ortho_decomp_conv      6
frgm_method                2
scfmi_freeze_ss            0
separate_rehyb             0
plot_diff_den              0
eda_nocv                   0
eda_vct_relax              1
disp_free_x                0
disp_free_c                0
eda_bsse                   0
eda_pct_a                  0
eda_covp                   0
--------------------------------
Attempting to make child job directory: /tmp/qchem16047//Frg1/
Attempting to make child job directory: /tmp/qchem16047//Frg2/
Creating input file /tmp/qchem16047/Frg1.input
using default PutDataFrgm: nothing
calling putenv with: QCSCRATCH=/tmp/qchem16047/ 
calling putenv with: QCLOCALSCR=/tmp/qchem16047/ 
Spawning Job For Fragment 0
                  Welcome to Q-Chem
     A Quantum Leap Into The Future Of Chemistry


 Q-Chem 5.2, Q-Chem, Inc., Pleasanton, CA (2019)

 License issued to: National Energy Research Scientific Computing Center

 Yihan Shao,  Zhengting Gan,  E. Epifanovsky,  A. T. B. Gilbert,  M. Wormit,  
 J. Kussmann,  A. W. Lange,  A. Behn,  Jia Deng,  Xintian Feng,  D. Ghosh,  
 M. Goldey,  P. R. Horn,  L. D. Jacobson,  I. Kaliman,  T. Kus,  A. Landau,  
 Jie Liu,  E. I. Proynov,  R. M. Richard,  R. P. Steele,  E. J. Sundstrom,  
 H. L. Woodcock III,  P. M. Zimmerman,  D. Zuev,  B. Albrecht,  E. Alguire,  
 S. A. Baeppler,  D. Barton,  Z. Benda,  Y. A. Bernard,  E. J. Berquist,  
 K. B. Bravaya,  H. Burton,  D. Casanova,  Chun-Min Chang,  Yunqing Chen,  
 A. Chien,  K. D. Closser,  M. P. Coons,  S. Coriani,  S. Dasgupta,  
 A. L. Dempwolff,  M. Diedenhofen,  Hainam Do,  R. G. Edgar,  Po-Tung Fang,  
 S. Faraji,  S. Fatehi,  Qingguo Feng,  K. D. Fenk,  J. Fosso-Tande,  
 J. Gayvert,  Qinghui Ge,  A. Ghysels,  G. Gidofalvi,  J. Gomes,  
 J. Gonthier,  A. Gunina,  D. Hait,  M. W. D. Hanson-Heine,  
 P. H. P. Harbach,  A. W. Hauser,  M. F. Herbst,  J. E. Herr,  
 E. G. Hohenstein,  Z. C. Holden,  Kerwin Hui,  B. C. Huynh,  T.-C. Jagau,  
 Hyunjun Ji,  B. Kaduk,  K. Khistyaev,  Jaehoon Kim,  P. Klunzinger,  K. Koh,  
 D. Kosenkov,  L. Koulias,  T. Kowalczyk,  C. M. Krauter,  A. Kunitsa,  
 Ka Un Lao,  A. Laurent,  K. V. Lawler,  Joonho Lee,  D. Lefrancois,  
 S. Lehtola,  D. S. Levine,  Yi-Pei Li,  You-Sheng Lin,  Fenglai Liu,  
 E. Livshits,  A. Luenser,  P. Manohar,  E. Mansoor,  S. F. Manzer,  
 Shan-Ping Mao,  Yuezhi Mao,  N. Mardirossian,  A. V. Marenich,  
 T. Markovich,  L. A. Martinez-Martinez,  S. A. Maurer,  N. J. Mayhall,  
 S. C. McKenzie,  J.-M. Mewes,  P. Morgante,  A. F. Morrison,  
 J. W. Mullinax,  K. Nanda,  T. S. Nguyen-Beck,  R. Olivares-Amaya,  
 J. A. Parkhill,  Zheng Pei,  T. M. Perrine,  F. Plasser,  P. Pokhilko,  
 S. Prager,  A. Prociuk,  E. Ramos,  D. R. Rehn,  F. Rob,  M. Scheurer,  
 M. Schneider,  N. Sergueev,  S. M. Sharada,  S. Sharma,  D. W. Small,  
 T. Stauch,  T. Stein,  Yu-Chuan Su,  A. J. W. Thom,  A. Tkatchenko,  
 T. Tsuchimochi,  N. M. Tubman,  L. Vogt,  M. L. Vidal,  O. Vydrov,  
 M. A. Watson,  J. Wenzel,  M. de Wergifosse,  T. A. Wesolowski,  A. White,  
 J. Witte,  A. Yamada,  Jun Yang,  K. Yao,  S. Yeganeh,  S. R. Yost,  
 Zhi-Qiang You,  A. Zech,  Igor Ying Zhang,  Xing Zhang,  Yan Zhao,  
 Ying Zhu,  B. R. Brooks,  G. K. L. Chan,  C. J. Cramer,  M. S. Gordon,  
 W. J. Hehre,  A. Klamt,  M. W. Schmidt,  C. D. Sherrill,  D. G. Truhlar,  
 A. Aspuru-Guzik,  R. Baer,  A. T. Bell,  N. A. Besley,  Jeng-Da Chai,  
 A. E. DePrince, III,  R. A. DiStasio Jr.,  A. Dreuw,  B. D. Dunietz,  
 T. R. Furlani,  Chao-Ping Hsu,  Yousung Jung,  Jing Kong,  D. S. Lambrecht,  
 WanZhen Liang,  C. Ochsenfeld,  V. A. Rassolov,  L. V. Slipchenko,  
 J. E. Subotnik,  T. Van Voorhis,  J. M. Herbert,  A. I. Krylov,  
 P. M. W. Gill,  M. Head-Gordon

 Contributors to earlier versions of Q-Chem not listed above: 
 R. D. Adamson,  B. Austin,  J. Baker,  G. J. O. Beran,  K. Brandhorst,  
 S. T. Brown,  E. F. C. Byrd,  A. K. Chakraborty,  C.-L. Cheng,  
 Siu Hung Chien,  D. M. Chipman,  D. L. Crittenden,  H. Dachsel,  
 R. J. Doerksen,  A. D. Dutoi,  L. Fusti-Molnar,  W. A. Goddard III,  
 A. Golubeva-Zadorozhnaya,  S. R. Gwaltney,  G. Hawkins,  A. Heyden,  
 S. Hirata,  G. Kedziora,  F. J. Keil,  C. Kelley,  Jihan Kim,  R. A. King,  
 R. Z. Khaliullin,  P. P. Korambath,  W. Kurlancheek,  A. M. Lee,  M. S. Lee,  
 S. V. Levchenko,  Ching Yeh Lin,  D. Liotard,  R. C. Lochan,  I. Lotan,  
 P. E. Maslen,  N. Nair,  D. P. O'Neill,  D. Neuhauser,  E. Neuscamman,  
 C. M. Oana,  R. Olson,  B. Peters,  R. Peverati,  P. A. Pieniazek,  
 Y. M. Rhee,  J. Ritchie,  M. A. Rohrdanz,  E. Rosta,  N. J. Russ,  
 H. F. Schaefer III,  N. E. Schultz,  N. Shenvi,  A. C. Simmonett,  A. Sodt,  
 D. Stuck,  K. S. Thanthiriwatte,  V. Vanovschi,  Tao Wang,  A. Warshel,  
 C. F. Williams,  Q. Wu,  X. Xu,  W. Zhang

 Please cite Q-Chem as follows:
 Y. Shao et al., Mol. Phys. 113, 184-215 (2015)
 DOI: 10.1080/00268976.2014.952696

 Q-Chem 5.2.0 for Intel X86 EM64T Linux

 Parts of Q-Chem use Armadillo 8.300.2 (Tropical Shenanigans).
 http://arma.sourceforge.net/

 Q-Chem begins on Sun Sep 26 03:18:07 2021  

Host: cori01
0

     Scratch files written to /tmp/qchem16047//Frg1//
 May1019 |scratch|qcdevops|jenkins|workspace|build_RNUM -1
Processing $rem in /global/common/cori/software/qchem/5.2/config/preferences:
	 MEM_TOTAL  96000 
NAlpha2: 32
NElect   32
Mult     1
Symmetry turned off for PCM/SM12/SMD calculation

Checking the input file for inconsistencies... 	...done.

--------------------------------------------------------------
User input:
--------------------------------------------------------------
$molecule
0 1
 6	-3.0300379158	2.1323876312	-0.1710436390
 6	-1.8080379158	1.3453876312	-0.5900436390
 8	-0.8910379158	1.1193876312	0.2009563610
 7	-1.7900379158	0.9053876312	-1.8410436390
 1	-3.1640379158	2.9693876312	-0.8580436390
 1	-2.8570379158	2.5433876312	0.8199563610
 1	-0.9780379158	0.3883876312	-2.1440436390
 1	-2.5340379158	1.1353876312	-2.4830436390
 1	-3.9360779158	1.5088076312	-0.1862526390
$end
$rem
EDA2		1
METHOD		WB97X-V
BASIS		DEF2-TZVPD
XC_GRID		000099000590
NL_GRID		1
UNRESTRICTED		FALSE
MAX_SCF_CYCLES		200
SYMMETRY		FALSE
SYM_IGNORE		TRUE
BASIS_LIN_DEP_THRESH		6
THRESH		14
SCF_CONVERGENCE		8
SCF_PRINT_FRGM		TRUE
SOLVENT_METHOD		SMD
!required keywords
JOBTYPE		SP
SYM_IGNORE		TRUE
SUBSYSTEM		TRUE
GEN_SCFMAN		TRUE
CHILD_INSTRUCTION		2
SYM_IGNORE		TRUE
SCFMI		0
RI_K 0		
PARI_K 0		
MIN_PARI_K 0		
IARI_K 0		
OCC_RI_K 0		
PURECART		1111
MEM_STATIC		2000
MEM_TOTAL		96000
GUI		0
CHILD_MP		1
CHILD_MP_ORDERS		232
FRZ_RELAX		0
FRZ_RELAX_METHOD		0
EDA_CLS_ELEC		1
EDA_CLS_DISP		0
FRZ_ORTHO_DECOMP		1
EDA2		FALSE
FRGM_METHOD		FALSE
CIS_N_ROOTS  0
LOCAL_CIS    0
CIS_RLX_DNS  1
$end
$smx
SOLVENT			WATER
$end
--------------------------------------------------------------
 ----------------------------------------------------------------
             Standard Nuclear Orientation (Angstroms)
    I     Atom           X                Y                Z
 ----------------------------------------------------------------
    1      C      -3.0300379158     2.1323876312    -0.1710436390
    2      C      -1.8080379158     1.3453876312    -0.5900436390
    3      O      -0.8910379158     1.1193876312     0.2009563610
    4      N      -1.7900379158     0.9053876312    -1.8410436390
    5      H      -3.1640379158     2.9693876312    -0.8580436390
    6      H      -2.8570379158     2.5433876312     0.8199563610
    7      H      -0.9780379158     0.3883876312    -2.1440436390
    8      H      -2.5340379158     1.1353876312    -2.4830436390
    9      H      -3.9360779158     1.5088076312    -0.1862526390
 ----------------------------------------------------------------
 Nuclear Repulsion Energy =         122.31804518 hartrees
 There are       16 alpha and       16 beta electrons
 Requested basis set is def2-TZVPD
 There are 78 shells and 196 basis functions

 Total QAlloc Memory Limit  96000 MB
 Mega-Array Size      1956 MB
 MEM_STATIC part      2000 MB
 
 Citation of the SMD model:
 Marenich, A.V.; Cramer, C.J.; Truhlar, D.G.
 J. Phys. Chem. B 2009, 113, 6378-6396.
 iSolventCode=           1
 Solvent: water                                                           
 
 vradii
            1           2           3           4           5           6
    1   1.8500000   1.8500000   1.5200000   1.8900000   1.2000000   1.2000000
            7           8           9
    1   1.2000000   1.2000000   1.2000000
 Changing PCM_VDW_RADII to SMD_RADIUS
 Discretize the solute cavity surface with Lebedev spheres
	Using 110 Lebedev grid points for each H atom
	Using 194 Lebedev grid points for other atoms
	Atomic van der Waals radii will be scaled by 1.20
 Remove points where switching function is < 1.0e-08
 Keep 718 surface tesserae and discard 608 interior tesserae
 Molecular Surface Area = 90.116 Angst**2

                       Distance Matrix (Angstroms)
             C (  1)   C (  2)   O (  3)   N (  4)   H (  5)   H (  6)
   C (  2)  1.512684
   O (  3)  2.395803  1.231928
   N (  4)  2.414959  1.326245  2.241375
   H (  5)  1.091098  2.132589  3.116169  2.667257
   H (  6)  1.086706  2.126900  2.505213  3.301886  1.758240
   H (  7)  3.338408  2.004910  2.457835  1.009179  3.618557  4.118247
   H (  8)  2.566197  2.038290  3.146992  1.009257  2.530036  3.605080
   H (  9)  1.099996  2.172167  3.094163  2.776317  1.783436  1.801982
             H (  7)   H (  8)
   H (  8)  1.758996
   H (  9)  3.719985  2.716691
 
 A cutoff of  1.0D-14 yielded   3053 shell pairs
 There are     19543 function pairs (     24701 Cartesian)
 Smallest overlap matrix eigenvalue = 9.77E-06

 Scale SEOQF with 1.000000e-01/1.000000e-01/1.000000e-01

 Standard Electronic Orientation quadrupole field applied
 Nucleus-field energy     =     0.0000000062 hartrees
 Guess from superposition of atomic densities
 Warning:  Energy on first SCF cycle will be non-variational
 SAD guess density has 31.604610 electrons

 -----------------------------------------------------------------------
  General SCF calculation program by
  Eric Jon Sundstrom, Paul Horn, Yuezhi Mao, Dmitri Zuev, Alec White,
  David Stuck, Shaama M.S., Shane Yost, Joonho Lee, David Small,
  Daniel Levine, Susi Lehtola, Hugh Burton, Evgeny Epifanovsky
 -----------------------------------------------------------------------
 Exchange:     0.1670 Hartree-Fock + 1.0000 wB97X-V + LR-HF
 Correlation:  1.0000 wB97X-V
 Using Euler-Maclaurin-Lebedev (99,590) quadrature formula
 Nonlocal Correlation:  VV10 with C = 0.0100 and b = 6.00 and scale = 1.00000
 Grid used for NLC:  SG-1 standard quadrature
Energy prior to optimization (guess energy) = -208.705195494276
Begin Timing: Total SCF Calculation
begin iterations for algorithm: DIIS         
the SCF tolerance is set to 1.00e-08
    1    -208.7051954943      1.26e-02     00000 
    2    -208.3249752565      1.54e-02     00000 
    3    -209.2366104689      2.37e-03     00000 
    4    -209.2554423234      7.72e-04     00000 
    5    -209.2585431719      2.01e-04     00000 
    6    -209.2588210181      6.73e-05     00000 
    7    -209.2588627000      2.08e-05     00000 
    8    -209.2588679607      6.03e-06     00000 
    9    -209.2588687489      2.05e-06     00000 
   10    -209.2588688011      3.52e-07     00000 
   11    -209.2588688023      1.49e-07     00000 
   12    -209.2588688025      2.01e-08     00000 
   13    -209.2588688025      4.63e-09     00000 Convergence criterion met
Timing for Total SCF: 359.00s (wall), 673.32s (cpu)
(3)  G-ENP(liq) elect-nuc-pol free energy of system     -209.258868803 a.u.
(4)  G-CDS(liq) cavity-dispersion-solvent structure 
     free energy                                                3.4923 kcal/mol
(6)  G-S(liq) free energy of system                     -209.253303506 a.u.
E_pcm = -0.0295491129
E_cds = 0.0055652965
Multipole orders to be included
        2
        3
computing dipole RHS
computing quadrupole RHS
total number of RHS in solve_reponses: 8
RHS batch sizes
        8
Beginning Block Conjugate Gradient Iterations. Batch Number: 0
computing hessian-vector products by finite difference
              1      6.31e-01     00000 Conjugate Gradient Iteration
computing hessian-vector products by finite difference
              2      2.09e-01     00000 Conjugate Gradient Iteration
computing hessian-vector products by finite difference
              3      5.87e-02     00000 Conjugate Gradient Iteration
computing hessian-vector products by finite difference
              4      1.49e-02     00000 Conjugate Gradient Iteration
computing hessian-vector products by finite difference
              5      2.02e-03     00000 Conjugate Gradient Iteration
computing hessian-vector products by finite difference
              6      4.63e-04     00000 Conjugate Gradient Iteration
computing hessian-vector products by finite difference
              7      6.24e-05     00000 Conjugate Gradient Iteration
computing hessian-vector products by finite difference
              8      7.37e-06     00000 Conjugate Gradient Iteration
computing hessian-vector products by finite difference
              9      1.05e-06     00000 Conjugate Gradient Iteration
computing hessian-vector products by finite difference
             10      1.11e-07     00000 Conjugate Gradient Iteration
computing hessian-vector products by finite difference
             11      1.17e-08     00000 Conjugate Gradient Iteration
computing hessian-vector products by finite difference
             12      3.19e-09     00000 CG Converged
batch 0 complete
Done Calculating Responses
TESTING ORTHOGONALIZATION OF MULTIPOLE BASIS
Multipole virts passed orthogonality test
Virts Per Order
        48
        80
 
 --------------------------------------------------------------
 
                    Orbital Energies (a.u.)
 --------------------------------------------------------------
 
 Alpha MOs
 -- Occupied --
-19.1843 -14.4260 -10.3776 -10.2615  -1.1755  -1.0414  -0.8631  -0.7069
 -0.6519  -0.5912  -0.5645  -0.5198  -0.4983  -0.4776  -0.3835  -0.3756
 -- Virtual --
  0.0640   0.0961   0.0964   0.1035   0.1289   0.1338   0.1398   0.1488
  0.1724   0.1920   0.2079   0.2121   0.2339   0.2458   0.2471   0.2579
  0.2591   0.2817   0.3125   0.3168   0.3304   0.3375   0.3458   0.3561
  0.3604   0.3755   0.3826   0.3845   0.3941   0.4038   0.4175   0.4261
  0.4274   0.4564   0.4585   0.4785   0.4837   0.4889   0.4924   0.4988
  0.5304   0.5368   0.5393   0.5710   0.5793   0.5882   0.6325   0.6399
  0.6519   0.6543   0.6660   0.6794   0.7067   0.7135   0.7273   0.7581
  0.7827   0.7896   0.8034   0.8113   0.8153   0.8406   0.8575   0.8761
  0.9238   0.9564   0.9762   0.9950   1.0101   1.0382   1.0660   1.1064
  1.1263   1.1795   1.2274   1.2569   1.2908   1.3108   1.3273   1.4010
  1.4806   1.5011   1.5139   1.6108   1.6847   1.7302   1.7564   1.8054
  1.8369   1.8729   1.8839   1.9260   1.9313   1.9385   2.0056   2.0263
  2.0643   2.0886   2.1478   2.2017   2.2643   2.2759   2.3057   2.3218
  2.3529   2.4066   2.4459   2.4950   2.5277   2.5758   2.6209   2.6361
  2.6872   2.7329   2.7572   2.8123   2.8758   2.9280   2.9432   2.9868
  3.0362   3.1216   3.1474   3.1616   3.1992   3.2321   3.2745   3.2824
  3.3127   3.3244   3.3602   3.4266   3.4792   3.5122   3.5545   3.5725
  3.6138   3.6610   3.7436   3.7636   3.8728   3.9311   4.0365   4.0429
  4.1002   4.1820   4.3233   4.3752   4.5609   4.5991   4.6223   4.6360
  4.8128   4.8928   4.9038   4.9279   5.1569   5.1742   5.2627   5.3542
  5.3784   5.3920   5.4218   5.4857   5.5333   5.7595   5.9076   6.1496
  6.2491   6.5166   6.6266   6.7280   6.8178   6.9672   7.2278   7.3134
 22.6171  23.5747  32.4199  44.2923
 --------------------------------------------------------------
 
          Ground-State Mulliken Net Atomic Charges

     Atom                 Charge (a.u.)
  ----------------------------------------
      1 C                    -0.647389
      2 C                     0.458437
      3 O                    -0.695660
      4 N                    -0.309399
      5 H                     0.241686
      6 H                     0.219339
      7 H                     0.257380
      8 H                     0.236087
      9 H                     0.239519
  ----------------------------------------
  Sum of atomic charges =     0.000000

 -----------------------------------------------------------------
                    Cartesian Multipole Moments
 -----------------------------------------------------------------
    Charge (ESU x 10^10)
                 0.0000
    Dipole Moment (Debye)
         X      -3.7143      Y       0.5705      Z      -4.6590
       Tot       5.9856
    Quadrupole Moments (Debye-Ang)
        XX     -11.4448     XY      -7.0067     YY     -22.2860
        XZ       8.0543     YZ      -4.2679     ZZ     -16.2458
    Octopole Moments (Debye-Ang^2)
       XXX     103.7897    XXY     -12.1010    XYY      34.9051
       YYY     -97.0105    XXZ      -4.2828    XYZ      10.4894
       YYZ      10.1303    XZZ      30.8021    YZZ     -28.1986
       ZZZ      22.1325
    Hexadecapole Moments (Debye-Ang^3)
      XXXX    -575.0242   XXXY     168.1670   XXYY    -138.5482
      XYYY     202.2707   YYYY    -346.0436   XXXZ     -35.5283
      XXYZ     -13.2895   XYYZ     -15.3114   YYYZ      38.5425
      XXZZ    -102.4751   XYZZ      55.1539   YYZZ     -85.0257
      XZZZ     -40.6408   YZZZ      30.5635   ZZZZ    -127.4028
 -----------------------------------------------------------------
Archival summary:
1\1\nid00560\SP\ProcedureUnspecified\BasisUnspecified\1125\meili\SunSep2605:01:072021SunSep2605:01:072021\0\\#,ProcedureUnspecified,BasisUnspecified,\\0,1\C\O,1,1.23193\N,1,1.32624,2,122.323\H,3,1.00918,1,117.651,2,-1.52088,0\H,3,1.00926,1,120.958,2,-177.398,0\C,1,1.51268,2,121.259,3,179.226,0\H,6,1.08671,1,108.709,2,8.33806,0\H,6,1.0911,1,108.9,2,125.388,0\H,6,1.1,1,111.508,2,-114.337,0\\\@

 Total job time:  6181.35s(wall), 11686.53s(cpu) 
 Sun Sep 26 05:01:07 2021

        *************************************************************
        *                                                           *
        *  Thank you very much for using Q-Chem.  Have a nice day.  *
        *                                                           *
        *************************************************************


Done Job For Fragment 0
calling putenv with: QCSCRATCH=/global/cscratch1/sd/meili 
calling putenv with: QCLOCALSCR=/tmp 
calling putenv with: QCTHREADS=32 
Creating input file /tmp/qchem16047/Frg2.input
using default PutDataFrgm: nothing
calling putenv with: QCSCRATCH=/tmp/qchem16047/ 
calling putenv with: QCLOCALSCR=/tmp/qchem16047/ 
Spawning Job For Fragment 1
                  Welcome to Q-Chem
     A Quantum Leap Into The Future Of Chemistry


 Q-Chem 5.2, Q-Chem, Inc., Pleasanton, CA (2019)

 License issued to: National Energy Research Scientific Computing Center

 Yihan Shao,  Zhengting Gan,  E. Epifanovsky,  A. T. B. Gilbert,  M. Wormit,  
 J. Kussmann,  A. W. Lange,  A. Behn,  Jia Deng,  Xintian Feng,  D. Ghosh,  
 M. Goldey,  P. R. Horn,  L. D. Jacobson,  I. Kaliman,  T. Kus,  A. Landau,  
 Jie Liu,  E. I. Proynov,  R. M. Richard,  R. P. Steele,  E. J. Sundstrom,  
 H. L. Woodcock III,  P. M. Zimmerman,  D. Zuev,  B. Albrecht,  E. Alguire,  
 S. A. Baeppler,  D. Barton,  Z. Benda,  Y. A. Bernard,  E. J. Berquist,  
 K. B. Bravaya,  H. Burton,  D. Casanova,  Chun-Min Chang,  Yunqing Chen,  
 A. Chien,  K. D. Closser,  M. P. Coons,  S. Coriani,  S. Dasgupta,  
 A. L. Dempwolff,  M. Diedenhofen,  Hainam Do,  R. G. Edgar,  Po-Tung Fang,  
 S. Faraji,  S. Fatehi,  Qingguo Feng,  K. D. Fenk,  J. Fosso-Tande,  
 J. Gayvert,  Qinghui Ge,  A. Ghysels,  G. Gidofalvi,  J. Gomes,  
 J. Gonthier,  A. Gunina,  D. Hait,  M. W. D. Hanson-Heine,  
 P. H. P. Harbach,  A. W. Hauser,  M. F. Herbst,  J. E. Herr,  
 E. G. Hohenstein,  Z. C. Holden,  Kerwin Hui,  B. C. Huynh,  T.-C. Jagau,  
 Hyunjun Ji,  B. Kaduk,  K. Khistyaev,  Jaehoon Kim,  P. Klunzinger,  K. Koh,  
 D. Kosenkov,  L. Koulias,  T. Kowalczyk,  C. M. Krauter,  A. Kunitsa,  
 Ka Un Lao,  A. Laurent,  K. V. Lawler,  Joonho Lee,  D. Lefrancois,  
 S. Lehtola,  D. S. Levine,  Yi-Pei Li,  You-Sheng Lin,  Fenglai Liu,  
 E. Livshits,  A. Luenser,  P. Manohar,  E. Mansoor,  S. F. Manzer,  
 Shan-Ping Mao,  Yuezhi Mao,  N. Mardirossian,  A. V. Marenich,  
 T. Markovich,  L. A. Martinez-Martinez,  S. A. Maurer,  N. J. Mayhall,  
 S. C. McKenzie,  J.-M. Mewes,  P. Morgante,  A. F. Morrison,  
 J. W. Mullinax,  K. Nanda,  T. S. Nguyen-Beck,  R. Olivares-Amaya,  
 J. A. Parkhill,  Zheng Pei,  T. M. Perrine,  F. Plasser,  P. Pokhilko,  
 S. Prager,  A. Prociuk,  E. Ramos,  D. R. Rehn,  F. Rob,  M. Scheurer,  
 M. Schneider,  N. Sergueev,  S. M. Sharada,  S. Sharma,  D. W. Small,  
 T. Stauch,  T. Stein,  Yu-Chuan Su,  A. J. W. Thom,  A. Tkatchenko,  
 T. Tsuchimochi,  N. M. Tubman,  L. Vogt,  M. L. Vidal,  O. Vydrov,  
 M. A. Watson,  J. Wenzel,  M. de Wergifosse,  T. A. Wesolowski,  A. White,  
 J. Witte,  A. Yamada,  Jun Yang,  K. Yao,  S. Yeganeh,  S. R. Yost,  
 Zhi-Qiang You,  A. Zech,  Igor Ying Zhang,  Xing Zhang,  Yan Zhao,  
 Ying Zhu,  B. R. Brooks,  G. K. L. Chan,  C. J. Cramer,  M. S. Gordon,  
 W. J. Hehre,  A. Klamt,  M. W. Schmidt,  C. D. Sherrill,  D. G. Truhlar,  
 A. Aspuru-Guzik,  R. Baer,  A. T. Bell,  N. A. Besley,  Jeng-Da Chai,  
 A. E. DePrince, III,  R. A. DiStasio Jr.,  A. Dreuw,  B. D. Dunietz,  
 T. R. Furlani,  Chao-Ping Hsu,  Yousung Jung,  Jing Kong,  D. S. Lambrecht,  
 WanZhen Liang,  C. Ochsenfeld,  V. A. Rassolov,  L. V. Slipchenko,  
 J. E. Subotnik,  T. Van Voorhis,  J. M. Herbert,  A. I. Krylov,  
 P. M. W. Gill,  M. Head-Gordon

 Contributors to earlier versions of Q-Chem not listed above: 
 R. D. Adamson,  B. Austin,  J. Baker,  G. J. O. Beran,  K. Brandhorst,  
 S. T. Brown,  E. F. C. Byrd,  A. K. Chakraborty,  C.-L. Cheng,  
 Siu Hung Chien,  D. M. Chipman,  D. L. Crittenden,  H. Dachsel,  
 R. J. Doerksen,  A. D. Dutoi,  L. Fusti-Molnar,  W. A. Goddard III,  
 A. Golubeva-Zadorozhnaya,  S. R. Gwaltney,  G. Hawkins,  A. Heyden,  
 S. Hirata,  G. Kedziora,  F. J. Keil,  C. Kelley,  Jihan Kim,  R. A. King,  
 R. Z. Khaliullin,  P. P. Korambath,  W. Kurlancheek,  A. M. Lee,  M. S. Lee,  
 S. V. Levchenko,  Ching Yeh Lin,  D. Liotard,  R. C. Lochan,  I. Lotan,  
 P. E. Maslen,  N. Nair,  D. P. O'Neill,  D. Neuhauser,  E. Neuscamman,  
 C. M. Oana,  R. Olson,  B. Peters,  R. Peverati,  P. A. Pieniazek,  
 Y. M. Rhee,  J. Ritchie,  M. A. Rohrdanz,  E. Rosta,  N. J. Russ,  
 H. F. Schaefer III,  N. E. Schultz,  N. Shenvi,  A. C. Simmonett,  A. Sodt,  
 D. Stuck,  K. S. Thanthiriwatte,  V. Vanovschi,  Tao Wang,  A. Warshel,  
 C. F. Williams,  Q. Wu,  X. Xu,  W. Zhang

 Please cite Q-Chem as follows:
 Y. Shao et al., Mol. Phys. 113, 184-215 (2015)
 DOI: 10.1080/00268976.2014.952696

 Q-Chem 5.2.0 for Intel X86 EM64T Linux

 Parts of Q-Chem use Armadillo 8.300.2 (Tropical Shenanigans).
 http://arma.sourceforge.net/

 Q-Chem begins on Sun Sep 26 05:01:09 2021  

Host: cori01
0

     Scratch files written to /tmp/qchem16047//Frg2//
 May1019 |scratch|qcdevops|jenkins|workspace|build_RNUM -1
Processing $rem in /global/common/cori/software/qchem/5.2/config/preferences:
	 MEM_TOTAL  96000 
NAlpha2: 32
NElect   32
Mult     1
Symmetry turned off for PCM/SM12/SMD calculation

Checking the input file for inconsistencies... 	...done.

--------------------------------------------------------------
User input:
--------------------------------------------------------------
$molecule
0 1
 6	2.4079620842	-2.7096123688	0.8349563610
 6	1.8379620842	-1.3296123688	0.5619563610
 8	1.2369620842	-1.0846123688	-0.4840436390
 7	2.0229620842	-0.4136123688	1.5039563610
 1	1.8659620842	-3.1236123688	1.6849563610
 1	3.4589620842	-2.6156123688	1.1099563610
 1	1.6159620842	0.4983876312	1.3529563610
 1	2.5319620842	-0.6306123688	2.3469563610
 1	2.3206320842	-3.3736323688	-0.0376536390
$end
$rem
EDA2		1
METHOD		WB97X-V
BASIS		DEF2-TZVPD
XC_GRID		000099000590
NL_GRID		1
UNRESTRICTED		FALSE
MAX_SCF_CYCLES		200
SYMMETRY		FALSE
SYM_IGNORE		TRUE
BASIS_LIN_DEP_THRESH		6
THRESH		14
SCF_CONVERGENCE		8
SCF_PRINT_FRGM		TRUE
SOLVENT_METHOD		SMD
!required keywords
JOBTYPE		SP
SYM_IGNORE		TRUE
SUBSYSTEM		TRUE
GEN_SCFMAN		TRUE
CHILD_INSTRUCTION		2
SYM_IGNORE		TRUE
SCFMI		0
RI_K 0		
PARI_K 0		
MIN_PARI_K 0		
IARI_K 0		
OCC_RI_K 0		
PURECART		1111
MEM_STATIC		2000
MEM_TOTAL		96000
GUI		0
CHILD_MP		1
CHILD_MP_ORDERS		232
FRZ_RELAX		0
FRZ_RELAX_METHOD		0
EDA_CLS_ELEC		1
EDA_CLS_DISP		0
FRZ_ORTHO_DECOMP		1
EDA2		FALSE
FRGM_METHOD		FALSE
CIS_N_ROOTS  0
LOCAL_CIS    0
CIS_RLX_DNS  1
$end
$smx
SOLVENT			WATER
$end
--------------------------------------------------------------
 ----------------------------------------------------------------
             Standard Nuclear Orientation (Angstroms)
    I     Atom           X                Y                Z
 ----------------------------------------------------------------
    1      C       2.4079620842    -2.7096123688     0.8349563610
    2      C       1.8379620842    -1.3296123688     0.5619563610
    3      O       1.2369620842    -1.0846123688    -0.4840436390
    4      N       2.0229620842    -0.4136123688     1.5039563610
    5      H       1.8659620842    -3.1236123688     1.6849563610
    6      H       3.4589620842    -2.6156123688     1.1099563610
    7      H       1.6159620842     0.4983876312     1.3529563610
    8      H       2.5319620842    -0.6306123688     2.3469563610
    9      H       2.3206320842    -3.3736323688    -0.0376536390
 ----------------------------------------------------------------
 Nuclear Repulsion Energy =         122.22383439 hartrees
 There are       16 alpha and       16 beta electrons
 Requested basis set is def2-TZVPD
 There are 78 shells and 196 basis functions

 Total QAlloc Memory Limit  96000 MB
 Mega-Array Size      1956 MB
 MEM_STATIC part      2000 MB
 
 Citation of the SMD model:
 Marenich, A.V.; Cramer, C.J.; Truhlar, D.G.
 J. Phys. Chem. B 2009, 113, 6378-6396.
 iSolventCode=           1
 Solvent: water                                                           
 
 vradii
            1           2           3           4           5           6
    1   1.8500000   1.8500000   1.5200000   1.8900000   1.2000000   1.2000000
            7           8           9
    1   1.2000000   1.2000000   1.2000000
 Changing PCM_VDW_RADII to SMD_RADIUS
 Discretize the solute cavity surface with Lebedev spheres
	Using 110 Lebedev grid points for each H atom
	Using 194 Lebedev grid points for other atoms
	Atomic van der Waals radii will be scaled by 1.20
 Remove points where switching function is < 1.0e-08
 Keep 714 surface tesserae and discard 612 interior tesserae
 Molecular Surface Area = 90.364 Angst**2

                       Distance Matrix (Angstroms)
             C (  1)   C (  2)   O (  3)   N (  4)   H (  5)   H (  6)
   C (  2)  1.517837
   O (  3)  2.398255  1.230992
   N (  4)  2.422272  1.326893  2.240576
   H (  5)  1.089798  2.116683  3.042651  2.720572
   H (  6)  1.090441  2.140500  3.134020  2.658220  1.768145
   H (  7)  3.344675  2.004133  2.454404  1.010047  3.645766  3.626664
   H (  8)  2.573667  2.038740  3.146061  1.008374  2.663991  2.515894
   H (  9)  1.099999  2.184152  2.571618  3.350655  1.799061  1.785329
             H (  7)   H (  8)
   H (  8)  1.761174
   H (  9)  4.174074  3.640767
 
 A cutoff of  1.0D-14 yielded   3054 shell pairs
 There are     19544 function pairs (     24702 Cartesian)
 Smallest overlap matrix eigenvalue = 1.00E-05

 Scale SEOQF with 1.000000e-01/1.000000e-01/1.000000e-01

 Standard Electronic Orientation quadrupole field applied
 Nucleus-field energy     =     0.0000000074 hartrees
 Guess from superposition of atomic densities
 Warning:  Energy on first SCF cycle will be non-variational
 SAD guess density has 31.604610 electrons

 -----------------------------------------------------------------------
  General SCF calculation program by
  Eric Jon Sundstrom, Paul Horn, Yuezhi Mao, Dmitri Zuev, Alec White,
  David Stuck, Shaama M.S., Shane Yost, Joonho Lee, David Small,
  Daniel Levine, Susi Lehtola, Hugh Burton, Evgeny Epifanovsky
 -----------------------------------------------------------------------
 Exchange:     0.1670 Hartree-Fock + 1.0000 wB97X-V + LR-HF
 Correlation:  1.0000 wB97X-V
 Using Euler-Maclaurin-Lebedev (99,590) quadrature formula
 Nonlocal Correlation:  VV10 with C = 0.0100 and b = 6.00 and scale = 1.00000
 Grid used for NLC:  SG-1 standard quadrature
Energy prior to optimization (guess energy) = -208.704386666315
Begin Timing: Total SCF Calculation
begin iterations for algorithm: DIIS         
the SCF tolerance is set to 1.00e-08
    1    -208.7043866663      1.26e-02     00000 
    2    -208.3238892290      1.54e-02     00000 
    3    -209.2366032495      2.36e-03     00000 
    4    -209.2553019159      7.74e-04     00000 
    5    -209.2584057176      2.00e-04     00000 
    6    -209.2586825024      6.72e-05     00000 
    7    -209.2587239053      2.06e-05     00000 
    8    -209.2587291244      5.99e-06     00000 
    9    -209.2587299032      2.03e-06     00000 
   10    -209.2587299546      3.24e-07     00000 
   11    -209.2587299558      1.42e-07     00000 
   12    -209.2587299559      2.09e-08     00000 
   13    -209.2587299559      4.69e-09     00000 Convergence criterion met
Timing for Total SCF: 357.00s (wall), 681.17s (cpu)
(3)  G-ENP(liq) elect-nuc-pol free energy of system     -209.258729956 a.u.
(4)  G-CDS(liq) cavity-dispersion-solvent structure 
     free energy                                                3.5103 kcal/mol
(6)  G-S(liq) free energy of system                     -209.253135896 a.u.
E_pcm = -0.0298437341
E_cds = 0.0055940602
Multipole orders to be included
        2
        3
computing dipole RHS
computing quadrupole RHS
total number of RHS in solve_reponses: 8
RHS batch sizes
        8
Beginning Block Conjugate Gradient Iterations. Batch Number: 0
computing hessian-vector products by finite difference
              1      6.79e-01     00000 Conjugate Gradient Iteration
computing hessian-vector products by finite difference
              2      2.14e-01     00000 Conjugate Gradient Iteration
computing hessian-vector products by finite difference
              3      5.79e-02     00000 Conjugate Gradient Iteration
computing hessian-vector products by finite difference
              4      1.47e-02     00000 Conjugate Gradient Iteration
computing hessian-vector products by finite difference
              5      2.05e-03     00000 Conjugate Gradient Iteration
computing hessian-vector products by finite difference
              6      4.79e-04     00000 Conjugate Gradient Iteration
computing hessian-vector products by finite difference
              7      6.48e-05     00000 Conjugate Gradient Iteration
computing hessian-vector products by finite difference
              8      7.36e-06     00000 Conjugate Gradient Iteration
computing hessian-vector products by finite difference
              9      1.07e-06     00000 Conjugate Gradient Iteration
computing hessian-vector products by finite difference
             10      1.20e-07     00000 Conjugate Gradient Iteration
computing hessian-vector products by finite difference
             11      2.38e-08     00000 Conjugate Gradient Iteration
computing hessian-vector products by finite difference
             12      2.93e-09     00000 CG Converged
batch 0 complete
Done Calculating Responses
TESTING ORTHOGONALIZATION OF MULTIPOLE BASIS
Multipole virts passed orthogonality test
Virts Per Order
        48
        80
 
 --------------------------------------------------------------
 
                    Orbital Energies (a.u.)
 --------------------------------------------------------------
 
 Alpha MOs
 -- Occupied --
-19.1840 -14.4261 -10.3779 -10.2625  -1.1756  -1.0413  -0.8625  -0.7064
 -0.6521  -0.5903  -0.5650  -0.5189  -0.5004  -0.4775  -0.3834  -0.3745
 -- Virtual --
  0.0639   0.0959   0.0974   0.1032   0.1296   0.1335   0.1400   0.1480
  0.1726   0.1926   0.2075   0.2114   0.2332   0.2454   0.2475   0.2576
  0.2596   0.2822   0.3096   0.3151   0.3327   0.3371   0.3451   0.3551
  0.3604   0.3743   0.3822   0.3855   0.3934   0.4026   0.4176   0.4264
  0.4268   0.4562   0.4587   0.4760   0.4879   0.4883   0.4923   0.4996
  0.5275   0.5348   0.5376   0.5728   0.5795   0.5890   0.6328   0.6402
  0.6519   0.6550   0.6642   0.6838   0.7067   0.7120   0.7277   0.7635
  0.7793   0.7867   0.8077   0.8110   0.8146   0.8389   0.8529   0.8770
  0.9247   0.9578   0.9747   0.9951   1.0064   1.0401   1.0642   1.1050
  1.1241   1.1779   1.2275   1.2626   1.2882   1.3089   1.3270   1.3998
  1.4795   1.4945   1.5098   1.6080   1.6870   1.7317   1.7567   1.8055
  1.8400   1.8744   1.8815   1.9298   1.9320   1.9381   2.0030   2.0247
  2.0623   2.0883   2.1476   2.1979   2.2533   2.2823   2.3118   2.3217
  2.3557   2.4131   2.4454   2.4853   2.5333   2.5686   2.6219   2.6334
  2.6830   2.7213   2.7593   2.8281   2.8755   2.9161   2.9436   2.9865
  3.0339   3.1315   3.1543   3.1638   3.1985   3.2288   3.2735   3.2775
  3.3194   3.3215   3.3577   3.4275   3.4646   3.5105   3.5522   3.5651
  3.6103   3.6690   3.7420   3.7607   3.8632   3.9318   4.0299   4.0482
  4.0954   4.1906   4.3224   4.3834   4.5697   4.5821   4.6292   4.6325
  4.7890   4.8924   4.9015   4.9265   5.1517   5.1746   5.2618   5.3525
  5.3815   5.3850   5.4231   5.4865   5.5323   5.7601   5.9064   6.1502
  6.2509   6.5183   6.6271   6.7266   6.8168   6.9664   7.2263   7.3141
 22.6100  23.5737  32.4200  44.2931
 --------------------------------------------------------------
 
          Ground-State Mulliken Net Atomic Charges

     Atom                 Charge (a.u.)
  ----------------------------------------
      1 C                    -0.649333
      2 C                     0.460960
      3 O                    -0.694378
      4 N                    -0.312048
      5 H                     0.227720
      6 H                     0.244360
      7 H                     0.258153
      8 H                     0.234040
      9 H                     0.230526
  ----------------------------------------
  Sum of atomic charges =     0.000000

 -----------------------------------------------------------------
                    Cartesian Multipole Moments
 -----------------------------------------------------------------
    Charge (ESU x 10^10)
                -0.0000
    Dipole Moment (Debye)
         X       2.6452      Y      -0.0394      Z       5.3789
       Tot       5.9942
    Quadrupole Moments (Debye-Ang)
        XX     -15.6152     XY      -4.0262     YY     -20.0321
        XZ      10.5983     YZ      -4.5377     ZZ     -18.9243
    Octopole Moments (Debye-Ang^2)
       XXX    -116.1313    XXY      20.7719    XYY     -33.9354
       YYY      94.4446    XXZ       7.4534    XYZ      -9.3910
       YYZ      -6.9600    XZZ     -30.6201    YZZ      32.0132
       ZZZ     -31.1265
    Hexadecapole Moments (Debye-Ang^3)
      XXXX    -533.1864   XXXY     176.8705   XXYY    -145.5469
      XYYY     192.4325   YYYY    -435.3444   XXXZ     -53.8849
      XXYZ      -1.8029   XYYZ     -21.8271   YYYZ      51.5832
      XXZZ     -85.1999   XYZZ      62.6686   YYZZ     -98.0185
      XZZZ     -65.9974   YZZZ      51.3962   ZZZZ    -138.5322
 -----------------------------------------------------------------
Archival summary:
1\1\nid00560\SP\ProcedureUnspecified\BasisUnspecified\1125\meili\SunSep2606:45:292021SunSep2606:45:292021\0\\#,ProcedureUnspecified,BasisUnspecified,\\0,1\C\O,1,1.23099\N,1,1.32689,2,122.27\H,3,1.00837,1,121.019,2,-178.943,0\H,3,1.01005,1,117.452,2,2.50391,0\C,1,1.51784,2,121.14,3,-179.975,0\H,6,1.0898,1,107.392,2,-114.674,0\H,6,1.09044,1,109.204,2,127.998,0\H,6,1.1,1,112.107,2,6.86081,0\\\@

 Total job time:  6262.23s(wall), 12099.08s(cpu) 
 Sun Sep 26 06:45:31 2021

        *************************************************************
        *                                                           *
        *  Thank you very much for using Q-Chem.  Have a nice day.  *
        *                                                           *
        *************************************************************


Done Job For Fragment 1
calling putenv with: QCSCRATCH=/global/cscratch1/sd/meili 
calling putenv with: QCLOCALSCR=/tmp 
calling putenv with: QCTHREADS=32 
Doing General SCFMI
 Exchange:     0.1670 Hartree-Fock + 1.0000 wB97X-V + LR-HF
 Correlation:  1.0000 wB97X-V
 Using Euler-Maclaurin-Lebedev (99,590) quadrature formula
 Nonlocal Correlation:  VV10 with C = 0.0100 and b = 6.00 and scale = 1.00000
 Grid used for NLC:  SG-1 standard quadrature
performing fock build before subrot guess so that all methods have access
Printing subrot_rss_gen Method Specification:
Occupied Subspace Method is 0
Virtual Subspace Method is 0
Energy of the unrelaxed supersystem initial determinant -418.461299150347
performing fock build before subrot guess so that all methods have access
Printing subrot_rss_gen Method Specification:
Occupied Subspace Method is 0
Virtual Subspace Method is 0
Energy of the unrelaxed supersystem initial determinant w/ solvent -418.517535052635
write pseudocanon occs and virts to disk
write pseudocanon orbital energies to disk
Tolerance of ortho_decomp_scf: 1.00e-06
GDM subspace size: 20
Beginning the Orthogonal Decomposition of the Initial Supersystem Wavefunction
    1    -418.4409710220      5.13e-02     ortho_decomp Preconditoned Steepest Descent
    2    -418.4434369235      8.15e-04     ortho_decomp BFGS Step
    3    -418.4434406348      5.10e-05     ortho_decomp BFGS Step
    4    -418.4434406394      1.40e-06     ortho_decomp BFGS Step
    5    -418.4434406394      3.00e-08     ortho_decomp 00000 Convergence criterion met
 Hartree-Fock
 Hartree-Fock
 Hartree-Fock
Doing General SCFMI
 Exchange:     0.1670 Hartree-Fock + 1.0000 wB97X-V + LR-HF
 Correlation:  1.0000 wB97X-V
 Using Euler-Maclaurin-Lebedev (99,590) quadrature formula
 Nonlocal Correlation:  VV10 with C = 0.0100 and b = 6.00 and scale = 1.00000
 Grid used for NLC:  SG-1 standard quadrature
performing fock build at end of subrot_r(subrot) constructor so that all methods have access
<S^2> of initial wavefunction before polarization iterations 0.0000000000
Beginning iterations for the determination of the polarized wavefunction
Energy prior to optimization (guess energy) = -418.517535052636
Begin Timing: Total SCF Calculation
begin iterations for algorithm: DIIS         
the SCF tolerance is set to 1.00e-08
    1    -418.5175350526      4.61e-05     00000 
    2    -418.5175851375      4.27e-05     00000 
    3    -418.5176112148      8.92e-06     00000 
    4    -418.5176149679      3.84e-06     00000 
    5    -418.5176155773      1.32e-06     00000 
    6    -418.5176157184      4.89e-07     00000 
    7    -418.5176157295      1.81e-07     00000 
    8    -418.5176157310      4.42e-08     00000 
    9    -418.5176157312      2.22e-08     00000 
   10    -418.5176157312      8.78e-09     00000 Convergence criterion met
write pseudocanon occs and virts to disk
write pseudocanon orbital energies to disk
Timing for Total SCF: 1454.00s (wall), 2891.98s (cpu)
<S^2> of polarized wavefunction after polarization iterations 0.0000000000
relaxing scfmi constraint to allow all rotations in the entire AO span
Doing General SCFMI
 Exchange:     0.1670 Hartree-Fock + 1.0000 wB97X-V + LR-HF
 Correlation:  1.0000 wB97X-V
 Using Euler-Maclaurin-Lebedev (99,590) quadrature formula
 Nonlocal Correlation:  VV10 with C = 0.0100 and b = 6.00 and scale = 1.00000
 Grid used for NLC:  SG-1 standard quadrature
performing fock build at end of subrot_r(subrot) constructor so that all methods have access
<S^2> of polarized wavefunction before ct-allowed iterations 0.0000000000
Beginning iterations for the determination of the CT-Allowed wavefunction
Energy prior to optimization (guess energy) = -418.517615731173
Begin Timing: Total SCF Calculation
begin iterations for algorithm: DIIS         
the SCF tolerance is set to 1.00e-08
    1    -418.5176157312      6.41e-05     00000 
    2    -418.5178942372      6.17e-06     00000 
    3    -418.5179019128      1.44e-06     00000 
    4    -418.5179021179      1.43e-06     00000 
    5    -418.5179022264      1.39e-07     00000 
    6    -418.5179022295      4.38e-08     00000 
    7    -418.5179022298      2.12e-08     00000 
    8    -418.5179022298      5.24e-09     00000 Convergence criterion met
write pseudocanon occs and virts to disk
write pseudocanon orbital energies to disk
Timing for Total SCF: 1145.00s (wall), 2278.56s (cpu)
<S^2> of ct_allowed wavefunction after ct-allowed iterations 0.0000000000

================================
        Results of EDA2         
================================
Basic EDA Quantities
--------------------
Fragment Energies (Ha):
1 -209.2533035060
2 -209.2531358957
--------------------
  E_prp (kJ/mol) = -0.0000
  E_sol (kJ/mol) = 5.1204
  E_frz (kJ/mol) = -8.1214
  E_pol (kJ/mol) = -0.2118
  E_vct (kJ/mol) = -0.7522
  E_int (kJ/mol) = -3.9650
--------------------


Initial Wavefunction Decomposition
--------------------
  --------------------
  Orthogonal Fragment Subspace Decomposition:
  --------------------
     E_elec   (ELEC)   (kJ/mol) = -30.2963
     E_pauli  (PAULI)  (kJ/mol) = 31.0704
     E_disp   (DISP)   (kJ/mol) = -8.8955
     --------------------
     Terms summing to E_pauli:
     --------------------
        E_kep_pauli       (kJ/mol) = 38.7667
        E_disp_free_pauli (kJ/mol) = -7.6963
  --------------------
  Classical Frozen Decomposition:
  --------------------
     E_cls_elec  (CLS ELEC)  (kJ/mol) = -9.4952
     E_cls_pauli (CLS PAULI) (kJ/mol) = 1.3739
    [E_mod_pauli (MOD PAULI) (kJ/mol) = 10.2693 (CLS PAULI - DISP from orthogonal decomposition) ]
  --------------------
--------------------

Simplified EDA Summary (kJ/mol)
--------------------
 PREPARATION     -0.0000
 SOLVATION       5.1204
 FROZEN          0.7741      (does not include dispersion)
[PAULI           31.0704]     (if this is negligible, then frozen describes electrostatics)
 DISPERSION      -8.8955
 POLARIZATION    -0.2118
 CHARGE TRANSFER -0.7522
 TOTAL           -3.9650     (PRP + SOL + FRZ + DISP + POL + CT)
--------------------
 
 --------------------------------------------------------------
 
                    Orbital Energies (a.u.)
 --------------------------------------------------------------
 
 Alpha MOs
 -- Occupied --
-19.1828 -19.1822 -14.4255 -14.4253 -10.3770 -10.3769 -10.2620 -10.2611
 -1.1753  -1.1737  -1.0409  -1.0403  -0.8629  -0.8618  -0.7069  -0.7052
 -0.6526  -0.6507  -0.5926  -0.5876  -0.5649  -0.5632  -0.5209  -0.5163
 -0.5000  -0.4979  -0.4781  -0.4758  -0.3848  -0.3827  -0.3808  -0.3643
 -- Virtual --
  0.0593   0.0780   0.0879   0.0927   0.1023   0.1067   0.1186   0.1209
  0.1252   0.1320   0.1428   0.1467   0.1532   0.1542   0.1743   0.1770
  0.1870   0.1947   0.1988   0.2117   0.2151   0.2198   0.2236   0.2388
  0.2468   0.2499   0.2547   0.2627   0.2640   0.2702   0.2775   0.2829
  0.2923   0.3030   0.3055   0.3130   0.3221   0.3271   0.3291   0.3311
  0.3431   0.3486   0.3514   0.3546   0.3576   0.3621   0.3673   0.3698
  0.3755   0.3776   0.3789   0.3871   0.3946   0.3973   0.4054   0.4126
  0.4140   0.4153   0.4217   0.4302   0.4313   0.4374   0.4441   0.4616
  0.4631   0.4694   0.4725   0.4775   0.4780   0.4831   0.4899   0.4921
  0.5012   0.5102   0.5120   0.5175   0.5250   0.5311   0.5362   0.5391
  0.5461   0.5473   0.5557   0.5598   0.5707   0.5870   0.5979   0.6117
  0.6179   0.6222   0.6309   0.6388   0.6435   0.6512   0.6548   0.6730
  0.6787   0.6842   0.6919   0.6989   0.7043   0.7110   0.7298   0.7383
  0.7481   0.7515   0.7653   0.7705   0.7862   0.7902   0.7919   0.8010
  0.8069   0.8100   0.8158   0.8170   0.8220   0.8268   0.8425   0.8474
  0.8579   0.8696   0.8812   0.8834   0.9018   0.9132   0.9190   0.9584
  0.9639   0.9760   0.9871   1.0018   1.0107   1.0133   1.0251   1.0472
  1.0546   1.0589   1.0714   1.0844   1.0868   1.1219   1.1351   1.1628
  1.1916   1.2015   1.2304   1.2554   1.2635   1.2826   1.2925   1.3099
  1.3173   1.3227   1.3263   1.3452   1.3531   1.3560   1.4242   1.4409
  1.4954   1.5105   1.5243   1.5315   1.5377   1.5530   1.6606   1.6775
  1.6948   1.7195   1.7373   1.7434   1.7809   1.7859   1.8281   1.8474
  1.8619   1.8828   1.8921   1.8976   1.9016   1.9199   1.9370   1.9400
  1.9571   1.9687   1.9744   1.9787   2.0285   2.0377   2.0458   2.0638
  2.0754   2.0861   2.1305   2.1443   2.1907   2.2048   2.2187   2.2435
  2.2674   2.2707   2.2904   2.2994   2.3240   2.3312   2.3451   2.3561
  2.3775   2.4021   2.4556   2.4679   2.4705   2.4997   2.5105   2.5285
  2.5404   2.5716   2.5863   2.5915   2.6313   2.6409   2.6454   2.6586
  2.6945   2.7022   2.7349   2.7385   2.7700   2.7884   2.8206   2.8473
  2.8867   2.8926   2.9266   2.9523   2.9549   2.9679   3.0013   3.0060
  3.0442   3.0639   3.1442   3.1520   3.1677   3.1691   3.1747   3.2048
  3.2153   3.2242   3.2359   3.2527   3.2828   3.2844   3.2955   3.3060
  3.3284   3.3325   3.3499   3.3624   3.3778   3.3845   3.4334   3.4431
  3.4808   3.4959   3.5209   3.5333   3.5564   3.5805   3.5905   3.6133
  3.6214   3.6331   3.6694   3.6778   3.7584   3.7617   3.7706   3.7772
  3.8713   3.8784   3.9403   3.9616   4.0436   4.0513   4.0547   4.0651
  4.1027   4.1096   4.1926   4.2027   4.3425   4.3611   4.3856   4.4057
  4.5677   4.5800   4.5909   4.6177   4.6344   4.6366   4.6469   4.6540
  4.8156   4.8538   4.8988   4.9087   4.9244   4.9294   4.9379   4.9497
  5.1591   5.1754   5.1802   5.1849   5.2687   5.2724   5.3584   5.3669
  5.3824   5.3909   5.3990   5.4091   5.4236   5.4396   5.5062   5.5083
  5.5426   5.5489   5.7618   5.7633   5.9113   5.9131   6.1521   6.1651
  6.2640   6.2761   6.5553   6.5788   6.6502   6.6583   6.7505   6.7671
  6.8213   6.8249   6.9721   6.9851   7.2370   7.2660   7.3348   7.3503
 22.6189  22.6241  23.5860  23.5939  32.4564  32.4627  44.3197  44.3222
 --------------------------------------------------------------
 
          Ground-State Mulliken Net Atomic Charges

     Atom                 Charge (a.u.)
  ----------------------------------------
      1 C                    -0.738834
      2 C                     0.458204
      3 O                    -0.655978
      4 N                    -0.269635
      5 H                     0.263679
      6 H                     0.220665
      7 H                     0.229409
      8 H                     0.232003
      9 H                     0.251635
     10 C                    -0.733918
     11 C                     0.491632
     12 O                    -0.669041
     13 N                    -0.285973
     14 H                     0.242479
     15 H                     0.272934
     16 H                     0.238001
     17 H                     0.224319
     18 H                     0.228417
  ----------------------------------------
  Sum of atomic charges =     0.000000

 -----------------------------------------------------------------
                    Cartesian Multipole Moments
 -----------------------------------------------------------------
    Charge (ESU x 10^10)
                 0.0000
    Dipole Moment (Debye)
         X      -1.0707      Y       0.5488      Z       0.7005
       Tot       1.3922
    Quadrupole Moments (Debye-Ang)
        XX     -27.3035     XY     -10.8533     YY     -42.5214
        XZ      18.6204     YZ      -8.8099     ZZ     -35.2547
    Octopole Moments (Debye-Ang^2)
       XXX     -12.3616    XXY       8.6925    XYY       0.8958
       YYY      -2.3793    XXZ       3.0968    XYZ       1.1260
       YYZ       3.1131    XZZ       0.1399    YZZ       3.8489
       ZZZ      -9.0551
    Hexadecapole Moments (Debye-Ang^3)
      XXXX   -1111.1329   XXXY     346.5127   XXYY    -285.3562
      XYYY     396.0599   YYYY    -783.3456   XXXZ     -89.9055
      XXYZ     -14.9261   XYYZ     -37.3361   YYYZ      90.3287
      XXZZ    -188.1946   XYZZ     118.1232   YYZZ    -183.4357
      XZZZ    -106.8830   YZZZ      82.0369   ZZZZ    -266.4643
 -----------------------------------------------------------------
Archival summary:
1\1\nid00560\SP\ProcedureUnspecified\BasisUnspecified\22410\meili\SunSep2608:09:362021SunSep2608:09:362021\0\\#,ProcedureUnspecified,BasisUnspecified,\\0,1\O\C,1,1.23193\N,2,1.32624,1,122.323\H,3,1.00918,2,117.651,1,-1.52088,0\H,3,1.00926,2,120.958,1,-177.398,0\C,2,1.51268,1,121.259,3,179.226,0\H,6,1.08671,2,108.709,1,8.33806,0\H,6,1.0911,2,108.9,1,125.388,0\H,6,1.1,2,111.508,1,-114.337,0\H,1,2.82804,2,164.091,3,21.9445,0\N,10,1.01005,1,128.052,2,-81.6907,0\H,11,1.00837,10,121.513,1,-139.846,0\C,11,1.32689,10,117.452,1,38.6995,0\O,13,1.23099,11,122.27,10,2.50391,0\C,13,1.51784,11,116.59,10,-177.52,0\H,15,1.0898,13,107.392,11,65.3496,0\H,15,1.09044,13,109.204,11,-51.9786,0\H,15,1.1,13,112.107,11,-173.115,0\\\@

 Total job time:  17499.29s(wall), 9946.68s(cpu) 
 Sun Sep 26 08:09:40 2021

        *************************************************************
        *                                                           *
        *  Thank you very much for using Q-Chem.  Have a nice day.  *
        *                                                           *
        *************************************************************


