
Running Job 1 of 1 SSI-047TYR-111PHE-1_PCM_TZVPD.in
qchem SSI-047TYR-111PHE-1_PCM_TZVPD.in_15929.0 /tmp/qchem15929/ 0
/global/common/cori/software/qchem/5.2/exe/qcprog.exe_s SSI-047TYR-111PHE-1_PCM_TZVPD.in_15929.0 /tmp/qchem15929/
                  Welcome to Q-Chem
     A Quantum Leap Into The Future Of Chemistry


 Q-Chem 5.2, Q-Chem, Inc., Pleasanton, CA (2019)

 License issued to: National Energy Research Scientific Computing Center

 Yihan Shao,  Zhengting Gan,  E. Epifanovsky,  A. T. B. Gilbert,  M. Wormit,  
 J. Kussmann,  A. W. Lange,  A. Behn,  Jia Deng,  Xintian Feng,  D. Ghosh,  
 M. Goldey,  P. R. Horn,  L. D. Jacobson,  I. Kaliman,  T. Kus,  A. Landau,  
 Jie Liu,  E. I. Proynov,  R. M. Richard,  R. P. Steele,  E. J. Sundstrom,  
 H. L. Woodcock III,  P. M. Zimmerman,  D. Zuev,  B. Albrecht,  E. Alguire,  
 S. A. Baeppler,  D. Barton,  Z. Benda,  Y. A. Bernard,  E. J. Berquist,  
 K. B. Bravaya,  H. Burton,  D. Casanova,  Chun-Min Chang,  Yunqing Chen,  
 A. Chien,  K. D. Closser,  M. P. Coons,  S. Coriani,  S. Dasgupta,  
 A. L. Dempwolff,  M. Diedenhofen,  Hainam Do,  R. G. Edgar,  Po-Tung Fang,  
 S. Faraji,  S. Fatehi,  Qingguo Feng,  K. D. Fenk,  J. Fosso-Tande,  
 J. Gayvert,  Qinghui Ge,  A. Ghysels,  G. Gidofalvi,  J. Gomes,  
 J. Gonthier,  A. Gunina,  D. Hait,  M. W. D. Hanson-Heine,  
 P. H. P. Harbach,  A. W. Hauser,  M. F. Herbst,  J. E. Herr,  
 E. G. Hohenstein,  Z. C. Holden,  Kerwin Hui,  B. C. Huynh,  T.-C. Jagau,  
 Hyunjun Ji,  B. Kaduk,  K. Khistyaev,  Jaehoon Kim,  P. Klunzinger,  K. Koh,  
 D. Kosenkov,  L. Koulias,  T. Kowalczyk,  C. M. Krauter,  A. Kunitsa,  
 Ka Un Lao,  A. Laurent,  K. V. Lawler,  Joonho Lee,  D. Lefrancois,  
 S. Lehtola,  D. S. Levine,  Yi-Pei Li,  You-Sheng Lin,  Fenglai Liu,  
 E. Livshits,  A. Luenser,  P. Manohar,  E. Mansoor,  S. F. Manzer,  
 Shan-Ping Mao,  Yuezhi Mao,  N. Mardirossian,  A. V. Marenich,  
 T. Markovich,  L. A. Martinez-Martinez,  S. A. Maurer,  N. J. Mayhall,  
 S. C. McKenzie,  J.-M. Mewes,  P. Morgante,  A. F. Morrison,  
 J. W. Mullinax,  K. Nanda,  T. S. Nguyen-Beck,  R. Olivares-Amaya,  
 J. A. Parkhill,  Zheng Pei,  T. M. Perrine,  F. Plasser,  P. Pokhilko,  
 S. Prager,  A. Prociuk,  E. Ramos,  D. R. Rehn,  F. Rob,  M. Scheurer,  
 M. Schneider,  N. Sergueev,  S. M. Sharada,  S. Sharma,  D. W. Small,  
 T. Stauch,  T. Stein,  Yu-Chuan Su,  A. J. W. Thom,  A. Tkatchenko,  
 T. Tsuchimochi,  N. M. Tubman,  L. Vogt,  M. L. Vidal,  O. Vydrov,  
 M. A. Watson,  J. Wenzel,  M. de Wergifosse,  T. A. Wesolowski,  A. White,  
 J. Witte,  A. Yamada,  Jun Yang,  K. Yao,  S. Yeganeh,  S. R. Yost,  
 Zhi-Qiang You,  A. Zech,  Igor Ying Zhang,  Xing Zhang,  Yan Zhao,  
 Ying Zhu,  B. R. Brooks,  G. K. L. Chan,  C. J. Cramer,  M. S. Gordon,  
 W. J. Hehre,  A. Klamt,  M. W. Schmidt,  C. D. Sherrill,  D. G. Truhlar,  
 A. Aspuru-Guzik,  R. Baer,  A. T. Bell,  N. A. Besley,  Jeng-Da Chai,  
 A. E. DePrince, III,  R. A. DiStasio Jr.,  A. Dreuw,  B. D. Dunietz,  
 T. R. Furlani,  Chao-Ping Hsu,  Yousung Jung,  Jing Kong,  D. S. Lambrecht,  
 WanZhen Liang,  C. Ochsenfeld,  V. A. Rassolov,  L. V. Slipchenko,  
 J. E. Subotnik,  T. Van Voorhis,  J. M. Herbert,  A. I. Krylov,  
 P. M. W. Gill,  M. Head-Gordon

 Contributors to earlier versions of Q-Chem not listed above: 
 R. D. Adamson,  B. Austin,  J. Baker,  G. J. O. Beran,  K. Brandhorst,  
 S. T. Brown,  E. F. C. Byrd,  A. K. Chakraborty,  C.-L. Cheng,  
 Siu Hung Chien,  D. M. Chipman,  D. L. Crittenden,  H. Dachsel,  
 R. J. Doerksen,  A. D. Dutoi,  L. Fusti-Molnar,  W. A. Goddard III,  
 A. Golubeva-Zadorozhnaya,  S. R. Gwaltney,  G. Hawkins,  A. Heyden,  
 S. Hirata,  G. Kedziora,  F. J. Keil,  C. Kelley,  Jihan Kim,  R. A. King,  
 R. Z. Khaliullin,  P. P. Korambath,  W. Kurlancheek,  A. M. Lee,  M. S. Lee,  
 S. V. Levchenko,  Ching Yeh Lin,  D. Liotard,  R. C. Lochan,  I. Lotan,  
 P. E. Maslen,  N. Nair,  D. P. O'Neill,  D. Neuhauser,  E. Neuscamman,  
 C. M. Oana,  R. Olson,  B. Peters,  R. Peverati,  P. A. Pieniazek,  
 Y. M. Rhee,  J. Ritchie,  M. A. Rohrdanz,  E. Rosta,  N. J. Russ,  
 H. F. Schaefer III,  N. E. Schultz,  N. Shenvi,  A. C. Simmonett,  A. Sodt,  
 D. Stuck,  K. S. Thanthiriwatte,  V. Vanovschi,  Tao Wang,  A. Warshel,  
 C. F. Williams,  Q. Wu,  X. Xu,  W. Zhang

 Please cite Q-Chem as follows:
 Y. Shao et al., Mol. Phys. 113, 184-215 (2015)
 DOI: 10.1080/00268976.2014.952696

 Q-Chem 5.2.0 for Intel X86 EM64T Linux

 Parts of Q-Chem use Armadillo 8.300.2 (Tropical Shenanigans).
 http://arma.sourceforge.net/

 Q-Chem begins on Sun Sep 26 08:17:19 2021  

Host: cori01
0

     Scratch files written to /tmp/qchem15929//
 May1019 |scratch|qcdevops|jenkins|workspace|build_RNUM -1
Processing $rem in /global/common/cori/software/qchem/5.2/config/preferences:
	 MEM_TOTAL  96000 
NAlpha2: 108
NElect   108
Mult     1
Symmetry turned off for PCM/SM12/SMD calculation

 Q-Chem warning in module libgen/rem_setup.C, line 2803:

 Neither GIA nor STOLL is specified by user. Use STOLL as the default


Checking the input file for inconsistencies... 	...done.

--------------------------------------------------------------
User input:
--------------------------------------------------------------
$comment
SSI-047TYR-111PHE-1.pdb
$end

$molecule
0 1
--
0 1
C    0.101230068268    1.361006216763    4.573079394481
C    0.912230068268    2.137006216763    0.925079394481
C    0.380230068268    2.235006216763    2.205079394481
C    1.764230068268    1.088006216763    0.603079394481
C    0.699230068268    1.295006216763    3.185079394481
C    2.083230068268    0.135006216763    1.573079394481
C    1.552230068268    0.254006216763    2.852079394481
O    2.280230068268    0.979006216763   -0.658920605519
H    0.656230068268    2.871006216763    0.177079394481
H   -0.304769931732    3.042006216763    2.426079394481
H    1.835230068268    1.587006216763   -1.271920605519
H    2.728230068268   -0.692993783237    1.322079394481
H    0.636230068268    0.674006216763    5.232079394481
H   -0.916769931732    0.997006216763    4.491079394481
H    1.790230068268   -0.501993783237    3.588079394481
H    0.088941068268    2.357896216763    5.037909394481
--
0 1
C   -0.410769931732   -1.343993783237   -4.395920605519
C   -1.299769931732   -0.447993783237   -0.831920605519
C   -2.229769931732   -1.422993783237   -0.520920605519
C   -0.709769931732   -0.421993783237   -2.085920605519
C   -1.039769931732   -1.380993783237   -3.032920605519
C   -2.570769931732   -2.378993783237   -1.465920605519
C   -1.981769931732   -2.351993783237   -2.718920605519
H   -1.033769931732    0.294006216763   -0.092920605519
H   -2.708769931732   -1.407993783237    0.446079394481
H    0.023230068268    0.331006216763   -2.315920605519
H   -3.300769931732   -3.139993783237   -1.225920605519
H   -0.325769931732   -2.360993783237   -4.783920605519
H    0.604230068268   -0.952993783237   -4.306920605519
H   -2.249769931732   -3.104993783237   -3.446920605519
H   -0.969919931732   -0.718463783237   -5.107300605519
$end

$rem
JOBTYPE			EDA
EDA2			1
method			wB97X-V
BASIS			def2-TZVPD
XC_GRID			000099000590
NL_GRID			1
UNRESTRICTED		FALSE
MAX_SCF_CYCLES		200
SYMMETRY		FALSE
SYM_IGNORE		TRUE
MEM_STATIC		2000
BASIS_LIN_DEP_THRESH 	6
THRESH 			14
SCF_CONVERGENCE 	8
SCF_PRINT_FRGM 		TRUE
SOLVENT_METHOD          PCM
$end

$PCM
THEORY                  CPCM
METHOD                  SWIG
SOLVER                  INVERSION
RADII                   UFF
HPOINTS                 302
HEAVYPOINTS             302
PRINTLEVEL              0
$END

$SOLVENT
DIELECTRIC              78.390000 ! water
$END
--------------------------------------------------------------
 ----------------------------------------------------------------
             Standard Nuclear Orientation (Angstroms)
    I     Atom           X                Y                Z
 ----------------------------------------------------------------
    1      C       0.1012300683     1.3610062168     4.5730793945
    2      C       0.9122300683     2.1370062168     0.9250793945
    3      C       0.3802300683     2.2350062168     2.2050793945
    4      C       1.7642300683     1.0880062168     0.6030793945
    5      C       0.6992300683     1.2950062168     3.1850793945
    6      C       2.0832300683     0.1350062168     1.5730793945
    7      C       1.5522300683     0.2540062168     2.8520793945
    8      O       2.2802300683     0.9790062168    -0.6589206055
    9      H       0.6562300683     2.8710062168     0.1770793945
   10      H      -0.3047699317     3.0420062168     2.4260793945
   11      H       1.8352300683     1.5870062168    -1.2719206055
   12      H       2.7282300683    -0.6929937832     1.3220793945
   13      H       0.6362300683     0.6740062168     5.2320793945
   14      H      -0.9167699317     0.9970062168     4.4910793945
   15      H       1.7902300683    -0.5019937832     3.5880793945
   16      H       0.0889410683     2.3578962168     5.0379093945
   17      C      -0.4107699317    -1.3439937832    -4.3959206055
   18      C      -1.2997699317    -0.4479937832    -0.8319206055
   19      C      -2.2297699317    -1.4229937832    -0.5209206055
   20      C      -0.7097699317    -0.4219937832    -2.0859206055
   21      C      -1.0397699317    -1.3809937832    -3.0329206055
   22      C      -2.5707699317    -2.3789937832    -1.4659206055
   23      C      -1.9817699317    -2.3519937832    -2.7189206055
   24      H      -1.0337699317     0.2940062168    -0.0929206055
   25      H      -2.7087699317    -1.4079937832     0.4460793945
   26      H       0.0232300683     0.3310062168    -2.3159206055
   27      H      -3.3007699317    -3.1399937832    -1.2259206055
   28      H      -0.3257699317    -2.3609937832    -4.7839206055
   29      H       0.6042300683    -0.9529937832    -4.3069206055
   30      H      -2.2497699317    -3.1049937832    -3.4469206055
   31      H      -0.9699199317    -0.7184637832    -5.1073006055
 ----------------------------------------------------------------
 Nuclear Repulsion Energy =         884.04671880 hartrees
 There are       54 alpha and       54 beta electrons
 Requested basis set is def2-TZVPD
 There are 276 shells and 702 basis functions

 Total QAlloc Memory Limit  96000 MB
 Mega-Array Size      1956 MB
 MEM_STATIC part      2000 MB
 Discretize the solute cavity surface with Lebedev spheres
	Using 302 Lebedev grid points for each H atom
	Using 302 Lebedev grid points for other atoms
	Atomic van der Waals radii will be scaled by 1.20
 Remove points where switching function is < 1.0e-08
 Keep 3431 surface tesserae and discard 5931 interior tesserae
 Molecular Surface Area = 335.704 Angst**2
 A cutoff of  1.0D-14 yielded  31856 shell pairs
 There are    206494 function pairs (    260670 Cartesian)
 Smallest overlap matrix eigenvalue = 4.15E-07
 Linear dependence detected in AO basis
 Tighter screening thresholds may be required for diffuse basis sets
 Use S2THRESH > 14 and THRESH = 14 in case of SCF convergence issues
 Number of orthogonalized atomic orbitals = 699
 Maximum deviation from orthogonality = 2.556E-10

 Scale SEOQF with 1.000000e-01/1.000000e-01/1.000000e-02

 Standard Electronic Orientation quadrupole field applied
 Nucleus-field energy     =     0.0000000198 hartrees

 -----------------------------------------------------------------------
  General SCF calculation program by
  Eric Jon Sundstrom, Paul Horn, Yuezhi Mao, Dmitri Zuev, Alec White,
  David Stuck, Shaama M.S., Shane Yost, Joonho Lee, David Small,
  Daniel Levine, Susi Lehtola, Hugh Burton, Evgeny Epifanovsky
 -----------------------------------------------------------------------
================================================================
                 ALMO-EDA with the EDA2 driver                  
================================================================
 The second-generation ALMO-EDA (for DFT):                      
 P. R. Horn, Y. Mao and M. Head-Gordon, PCCP, 18, 23067 (2016)  
 Decomposition of the frozen energy:                            
 P. R. Horn, Y. Mao and M. Head-Gordon, JCP, 144, 114107 (2016) 
 FERF model for polarization:                                   
 P. R. Horn and M. Head-Gordon, JCP, 143, 114111 (2015)         
Using eda2 option set 1
Option set summary: Frozen orbital wavefunction, initial wavefunction decomposition, and nDQ polarization.
--------------------------------
Printing EDA Options
--------------------------------
eda_child_super_basis      0
fragmo_guess_mode          0
child_mp                   1
child_mp_orders            232
cls_elec                   1
cls_disp                   0
scfmi_mode                 1
scfmi_occs                 0
scfmi_virts                0
frz_relax                  0
frz_relax_method           0
dc_pen_start               0
dc_pen_conv                0
dc_pen_increment           0
dc_pen_steps               0
dc_pen_thresh_factor       0
dc_pen_pre_newton_thresh   0
frz_ortho_decomp           1
frz_ortho_decomp_conv      6
frgm_method                2
scfmi_freeze_ss            0
separate_rehyb             0
plot_diff_den              0
eda_nocv                   0
eda_vct_relax              1
disp_free_x                0
disp_free_c                0
eda_bsse                   0
eda_pct_a                  0
eda_covp                   0
--------------------------------
Attempting to make child job directory: /tmp/qchem15929//Frg1/
Attempting to make child job directory: /tmp/qchem15929//Frg2/
Creating input file /tmp/qchem15929/Frg1.input
using default PutDataFrgm: nothing
calling putenv with: QCSCRATCH=/tmp/qchem15929/ 
calling putenv with: QCLOCALSCR=/tmp/qchem15929/ 
Spawning Job For Fragment 0
                  Welcome to Q-Chem
     A Quantum Leap Into The Future Of Chemistry


 Q-Chem 5.2, Q-Chem, Inc., Pleasanton, CA (2019)

 License issued to: National Energy Research Scientific Computing Center

 Yihan Shao,  Zhengting Gan,  E. Epifanovsky,  A. T. B. Gilbert,  M. Wormit,  
 J. Kussmann,  A. W. Lange,  A. Behn,  Jia Deng,  Xintian Feng,  D. Ghosh,  
 M. Goldey,  P. R. Horn,  L. D. Jacobson,  I. Kaliman,  T. Kus,  A. Landau,  
 Jie Liu,  E. I. Proynov,  R. M. Richard,  R. P. Steele,  E. J. Sundstrom,  
 H. L. Woodcock III,  P. M. Zimmerman,  D. Zuev,  B. Albrecht,  E. Alguire,  
 S. A. Baeppler,  D. Barton,  Z. Benda,  Y. A. Bernard,  E. J. Berquist,  
 K. B. Bravaya,  H. Burton,  D. Casanova,  Chun-Min Chang,  Yunqing Chen,  
 A. Chien,  K. D. Closser,  M. P. Coons,  S. Coriani,  S. Dasgupta,  
 A. L. Dempwolff,  M. Diedenhofen,  Hainam Do,  R. G. Edgar,  Po-Tung Fang,  
 S. Faraji,  S. Fatehi,  Qingguo Feng,  K. D. Fenk,  J. Fosso-Tande,  
 J. Gayvert,  Qinghui Ge,  A. Ghysels,  G. Gidofalvi,  J. Gomes,  
 J. Gonthier,  A. Gunina,  D. Hait,  M. W. D. Hanson-Heine,  
 P. H. P. Harbach,  A. W. Hauser,  M. F. Herbst,  J. E. Herr,  
 E. G. Hohenstein,  Z. C. Holden,  Kerwin Hui,  B. C. Huynh,  T.-C. Jagau,  
 Hyunjun Ji,  B. Kaduk,  K. Khistyaev,  Jaehoon Kim,  P. Klunzinger,  K. Koh,  
 D. Kosenkov,  L. Koulias,  T. Kowalczyk,  C. M. Krauter,  A. Kunitsa,  
 Ka Un Lao,  A. Laurent,  K. V. Lawler,  Joonho Lee,  D. Lefrancois,  
 S. Lehtola,  D. S. Levine,  Yi-Pei Li,  You-Sheng Lin,  Fenglai Liu,  
 E. Livshits,  A. Luenser,  P. Manohar,  E. Mansoor,  S. F. Manzer,  
 Shan-Ping Mao,  Yuezhi Mao,  N. Mardirossian,  A. V. Marenich,  
 T. Markovich,  L. A. Martinez-Martinez,  S. A. Maurer,  N. J. Mayhall,  
 S. C. McKenzie,  J.-M. Mewes,  P. Morgante,  A. F. Morrison,  
 J. W. Mullinax,  K. Nanda,  T. S. Nguyen-Beck,  R. Olivares-Amaya,  
 J. A. Parkhill,  Zheng Pei,  T. M. Perrine,  F. Plasser,  P. Pokhilko,  
 S. Prager,  A. Prociuk,  E. Ramos,  D. R. Rehn,  F. Rob,  M. Scheurer,  
 M. Schneider,  N. Sergueev,  S. M. Sharada,  S. Sharma,  D. W. Small,  
 T. Stauch,  T. Stein,  Yu-Chuan Su,  A. J. W. Thom,  A. Tkatchenko,  
 T. Tsuchimochi,  N. M. Tubman,  L. Vogt,  M. L. Vidal,  O. Vydrov,  
 M. A. Watson,  J. Wenzel,  M. de Wergifosse,  T. A. Wesolowski,  A. White,  
 J. Witte,  A. Yamada,  Jun Yang,  K. Yao,  S. Yeganeh,  S. R. Yost,  
 Zhi-Qiang You,  A. Zech,  Igor Ying Zhang,  Xing Zhang,  Yan Zhao,  
 Ying Zhu,  B. R. Brooks,  G. K. L. Chan,  C. J. Cramer,  M. S. Gordon,  
 W. J. Hehre,  A. Klamt,  M. W. Schmidt,  C. D. Sherrill,  D. G. Truhlar,  
 A. Aspuru-Guzik,  R. Baer,  A. T. Bell,  N. A. Besley,  Jeng-Da Chai,  
 A. E. DePrince, III,  R. A. DiStasio Jr.,  A. Dreuw,  B. D. Dunietz,  
 T. R. Furlani,  Chao-Ping Hsu,  Yousung Jung,  Jing Kong,  D. S. Lambrecht,  
 WanZhen Liang,  C. Ochsenfeld,  V. A. Rassolov,  L. V. Slipchenko,  
 J. E. Subotnik,  T. Van Voorhis,  J. M. Herbert,  A. I. Krylov,  
 P. M. W. Gill,  M. Head-Gordon

 Contributors to earlier versions of Q-Chem not listed above: 
 R. D. Adamson,  B. Austin,  J. Baker,  G. J. O. Beran,  K. Brandhorst,  
 S. T. Brown,  E. F. C. Byrd,  A. K. Chakraborty,  C.-L. Cheng,  
 Siu Hung Chien,  D. M. Chipman,  D. L. Crittenden,  H. Dachsel,  
 R. J. Doerksen,  A. D. Dutoi,  L. Fusti-Molnar,  W. A. Goddard III,  
 A. Golubeva-Zadorozhnaya,  S. R. Gwaltney,  G. Hawkins,  A. Heyden,  
 S. Hirata,  G. Kedziora,  F. J. Keil,  C. Kelley,  Jihan Kim,  R. A. King,  
 R. Z. Khaliullin,  P. P. Korambath,  W. Kurlancheek,  A. M. Lee,  M. S. Lee,  
 S. V. Levchenko,  Ching Yeh Lin,  D. Liotard,  R. C. Lochan,  I. Lotan,  
 P. E. Maslen,  N. Nair,  D. P. O'Neill,  D. Neuhauser,  E. Neuscamman,  
 C. M. Oana,  R. Olson,  B. Peters,  R. Peverati,  P. A. Pieniazek,  
 Y. M. Rhee,  J. Ritchie,  M. A. Rohrdanz,  E. Rosta,  N. J. Russ,  
 H. F. Schaefer III,  N. E. Schultz,  N. Shenvi,  A. C. Simmonett,  A. Sodt,  
 D. Stuck,  K. S. Thanthiriwatte,  V. Vanovschi,  Tao Wang,  A. Warshel,  
 C. F. Williams,  Q. Wu,  X. Xu,  W. Zhang

 Please cite Q-Chem as follows:
 Y. Shao et al., Mol. Phys. 113, 184-215 (2015)
 DOI: 10.1080/00268976.2014.952696

 Q-Chem 5.2.0 for Intel X86 EM64T Linux

 Parts of Q-Chem use Armadillo 8.300.2 (Tropical Shenanigans).
 http://arma.sourceforge.net/

 Q-Chem begins on Sun Sep 26 08:17:27 2021  

Host: cori01
0

     Scratch files written to /tmp/qchem15929//Frg1//
 May1019 |scratch|qcdevops|jenkins|workspace|build_RNUM -1
Processing $rem in /global/common/cori/software/qchem/5.2/config/preferences:
	 MEM_TOTAL  96000 
NAlpha2: 58
NElect   58
Mult     1
Symmetry turned off for PCM/SM12/SMD calculation

Checking the input file for inconsistencies... 	...done.

--------------------------------------------------------------
User input:
--------------------------------------------------------------
$molecule
0 1
 6	0.1012300683	1.3610062168	4.5730793945
 6	0.9122300683	2.1370062168	0.9250793945
 6	0.3802300683	2.2350062168	2.2050793945
 6	1.7642300683	1.0880062168	0.6030793945
 6	0.6992300683	1.2950062168	3.1850793945
 6	2.0832300683	0.1350062168	1.5730793945
 6	1.5522300683	0.2540062168	2.8520793945
 8	2.2802300683	0.9790062168	-0.6589206055
 1	0.6562300683	2.8710062168	0.1770793945
 1	-0.3047699317	3.0420062168	2.4260793945
 1	1.8352300683	1.5870062168	-1.2719206055
 1	2.7282300683	-0.6929937832	1.3220793945
 1	0.6362300683	0.6740062168	5.2320793945
 1	-0.9167699317	0.9970062168	4.4910793945
 1	1.7902300683	-0.5019937832	3.5880793945
 1	0.0889410683	2.3578962168	5.0379093945
$end
$rem
EDA2		1
METHOD		WB97X-V
BASIS		DEF2-TZVPD
XC_GRID		000099000590
NL_GRID		1
UNRESTRICTED		FALSE
MAX_SCF_CYCLES		200
SYMMETRY		FALSE
SYM_IGNORE		TRUE
BASIS_LIN_DEP_THRESH		6
THRESH		14
SCF_CONVERGENCE		8
SCF_PRINT_FRGM		TRUE
SOLVENT_METHOD		PCM
!required keywords
JOBTYPE		SP
SYM_IGNORE		TRUE
SUBSYSTEM		TRUE
GEN_SCFMAN		TRUE
CHILD_INSTRUCTION		2
SYM_IGNORE		TRUE
SCFMI		0
RI_K 0		
PARI_K 0		
MIN_PARI_K 0		
IARI_K 0		
OCC_RI_K 0		
PURECART		1111
MEM_STATIC		2000
MEM_TOTAL		96000
GUI		0
CHILD_MP		1
CHILD_MP_ORDERS		232
FRZ_RELAX		0
FRZ_RELAX_METHOD		0
EDA_CLS_ELEC		1
EDA_CLS_DISP		0
FRZ_ORTHO_DECOMP		1
EDA2		FALSE
FRGM_METHOD		FALSE
CIS_N_ROOTS  0
LOCAL_CIS    0
CIS_RLX_DNS  1
$end
$pcm
THEORY                  CPCM
METHOD                  SWIG
SOLVER                  INVERSION
RADII                   UFF
HPOINTS                 302
HEAVYPOINTS             302
PRINTLEVEL              0
$end
$solvent
DIELECTRIC              78.390000 ! water
$end
--------------------------------------------------------------
 ----------------------------------------------------------------
             Standard Nuclear Orientation (Angstroms)
    I     Atom           X                Y                Z
 ----------------------------------------------------------------
    1      C       0.1012300683     1.3610062168     4.5730793945
    2      C       0.9122300683     2.1370062168     0.9250793945
    3      C       0.3802300683     2.2350062168     2.2050793945
    4      C       1.7642300683     1.0880062168     0.6030793945
    5      C       0.6992300683     1.2950062168     3.1850793945
    6      C       2.0832300683     0.1350062168     1.5730793945
    7      C       1.5522300683     0.2540062168     2.8520793945
    8      O       2.2802300683     0.9790062168    -0.6589206055
    9      H       0.6562300683     2.8710062168     0.1770793945
   10      H      -0.3047699317     3.0420062168     2.4260793945
   11      H       1.8352300683     1.5870062168    -1.2719206055
   12      H       2.7282300683    -0.6929937832     1.3220793945
   13      H       0.6362300683     0.6740062168     5.2320793945
   14      H      -0.9167699317     0.9970062168     4.4910793945
   15      H       1.7902300683    -0.5019937832     3.5880793945
   16      H       0.0889410683     2.3578962168     5.0379093945
 ----------------------------------------------------------------
 Nuclear Repulsion Energy =         343.04786011 hartrees
 There are       29 alpha and       29 beta electrons
 Requested basis set is def2-TZVPD
 There are 145 shells and 371 basis functions

 Total QAlloc Memory Limit  96000 MB
 Mega-Array Size      1956 MB
 MEM_STATIC part      2000 MB
 Discretize the solute cavity surface with Lebedev spheres
	Using 302 Lebedev grid points for each H atom
	Using 302 Lebedev grid points for other atoms
	Atomic van der Waals radii will be scaled by 1.20
 Remove points where switching function is < 1.0e-08
 Keep 1862 surface tesserae and discard 2970 interior tesserae
 Molecular Surface Area = 190.346 Angst**2
 A cutoff of  1.0D-14 yielded  10045 shell pairs
 There are     67089 function pairs (     85791 Cartesian)
 Smallest overlap matrix eigenvalue = 5.39E-07
 Linear dependence detected in AO basis
 Tighter screening thresholds may be required for diffuse basis sets
 Use S2THRESH > 14 and THRESH = 14 in case of SCF convergence issues
 Number of orthogonalized atomic orbitals = 370
 Maximum deviation from orthogonality = 2.976E-10

 Scale SEOQF with 1.000000e-01/1.000000e-01/1.000000e-02

 Standard Electronic Orientation quadrupole field applied
 Nucleus-field energy     =     0.0000000090 hartrees
 Guess from superposition of atomic densities
 Warning:  Energy on first SCF cycle will be non-variational
 SAD guess density has 57.738434 electrons

 -----------------------------------------------------------------------
  General SCF calculation program by
  Eric Jon Sundstrom, Paul Horn, Yuezhi Mao, Dmitri Zuev, Alec White,
  David Stuck, Shaama M.S., Shane Yost, Joonho Lee, David Small,
  Daniel Levine, Susi Lehtola, Hugh Burton, Evgeny Epifanovsky
 -----------------------------------------------------------------------
 Exchange:     0.1670 Hartree-Fock + 1.0000 wB97X-V + LR-HF
 Correlation:  1.0000 wB97X-V
 Using Euler-Maclaurin-Lebedev (99,590) quadrature formula
 Nonlocal Correlation:  VV10 with C = 0.0100 and b = 6.00 and scale = 1.00000
 Grid used for NLC:  SG-1 standard quadrature
Energy prior to optimization (guess energy) = -346.495592025091
Begin Timing: Total SCF Calculation
begin iterations for algorithm: DIIS         
the SCF tolerance is set to 1.00e-08
    1    -346.4955920251      5.17e-03     00000 
    2    -346.4276540299      5.62e-03     00000 
    3    -346.8116308449      5.37e-04     00000 
    4    -346.8157901900      1.82e-04     00000 
    5    -346.8164044751      2.52e-05     00000 
    6    -346.8164242773      1.25e-05     00000 
    7    -346.8164275679      3.98e-06     00000 
    8    -346.8164280007      1.26e-06     00000 
    9    -346.8164280591      5.68e-07     00000 
   10    -346.8164280698      1.45e-07     00000 
   11    -346.8164280718      6.51e-08     00000 
   12    -346.8164280720      3.35e-08     00000 
   13    -346.8164280721      7.26e-09     00000 Convergence criterion met
Timing for Total SCF: 2148.00s (wall), 4268.54s (cpu)

************** Final PCM Free Energy Summary **************
 G_electrostatic  =      -0.00562111 hartree =      -3.52730088 kcal/mol
 G_cavitation     =       0.00000000 hartree =       0.00000000 kcal/mol
 G_dispersion     =       0.00000000 hartree =       0.00000000 kcal/mol
 G_repulsion      =       0.00000000 hartree =       0.00000000 kcal/mol
 --------------------------------------------------
 Non-electrostatic Free Energy =       0.00000000 hartree =       0.00000000 kcal/mol
 Total                         =      -0.00562111 hartree =      -3.52730088 kcal/mol
 --------------------------------------------------
 SCF Energy (H0 + V/2)                       =    -346.81642807 
 Solute Internal Energy (H0)                 =    -346.81080696 
 Total Free Energy (H0 + V/2 + non-elec)     =    -346.81642807 hartree
                                             = -217630.59331365 kcal/mol
***********************************************************

E_pcm = -0.0056211118
Multipole orders to be included
        2
        3
computing dipole RHS
computing quadrupole RHS
total number of RHS in solve_reponses: 8
RHS batch sizes
        8
Beginning Block Conjugate Gradient Iterations. Batch Number: 0
computing hessian-vector products by finite difference
              1      6.03e-01     00000 Conjugate Gradient Iteration
computing hessian-vector products by finite difference
              2      1.89e-01     00000 Conjugate Gradient Iteration
computing hessian-vector products by finite difference
              3      4.82e-02     00000 Conjugate Gradient Iteration
computing hessian-vector products by finite difference
              4      1.51e-02     00000 Conjugate Gradient Iteration
computing hessian-vector products by finite difference
              5      4.32e-03     00000 Conjugate Gradient Iteration
computing hessian-vector products by finite difference
              6      1.42e-03     00000 Conjugate Gradient Iteration
computing hessian-vector products by finite difference
              7      3.54e-04     00000 Conjugate Gradient Iteration
computing hessian-vector products by finite difference
              8      6.92e-05     00000 Conjugate Gradient Iteration
computing hessian-vector products by finite difference
              9      1.29e-05     00000 Conjugate Gradient Iteration
computing hessian-vector products by finite difference
             10      1.73e-06     00000 Conjugate Gradient Iteration
computing hessian-vector products by finite difference
             11      2.52e-07     00000 Conjugate Gradient Iteration
computing hessian-vector products by finite difference
             12      4.32e-08     00000 Conjugate Gradient Iteration
computing hessian-vector products by finite difference
             13      1.01e-08     00000 Conjugate Gradient Iteration
computing hessian-vector products by finite difference
             14      3.22e-09     00000 CG Converged
batch 0 complete
Done Calculating Responses
TESTING ORTHOGONALIZATION OF MULTIPOLE BASIS
Multipole virts passed orthogonality test
Virts Per Order
           87
          145
 
 --------------------------------------------------------------
 
                    Orbital Energies (a.u.)
 --------------------------------------------------------------
 
 Alpha MOs
 -- Occupied --
-19.2457 -10.3355 -10.2766 -10.2744 -10.2730 -10.2718 -10.2715 -10.2617
 -1.1924  -0.9967  -0.9016  -0.8850  -0.8107  -0.7481  -0.7152  -0.6655
 -0.6031  -0.5810  -0.5523  -0.5407  -0.5344  -0.5227  -0.5084  -0.4782
 -0.4562  -0.4464  -0.4384  -0.3536  -0.3139
 -- Virtual --
  0.0575   0.0596   0.0681   0.0786   0.0830   0.0941   0.1083   0.1100
  0.1139   0.1312   0.1440   0.1515   0.1545   0.1688   0.1781   0.1909
  0.1991   0.2011   0.2162   0.2279   0.2297   0.2402   0.2473   0.2523
  0.2627   0.2656   0.2691   0.2739   0.2805   0.2922   0.2951   0.3023
  0.3046   0.3088   0.3145   0.3225   0.3323   0.3408   0.3433   0.3488
  0.3540   0.3587   0.3609   0.3708   0.3724   0.3786   0.3821   0.3899
  0.3942   0.3949   0.3970   0.4077   0.4122   0.4221   0.4249   0.4325
  0.4350   0.4554   0.4580   0.4603   0.4693   0.4733   0.4757   0.4805
  0.4886   0.4922   0.4973   0.5029   0.5078   0.5114   0.5251   0.5344
  0.5386   0.5470   0.5520   0.5570   0.5618   0.5704   0.5774   0.5926
  0.5991   0.6088   0.6132   0.6287   0.6351   0.6562   0.6667   0.6704
  0.6751   0.6821   0.6911   0.6957   0.7005   0.7029   0.7135   0.7280
  0.7322   0.7402   0.7433   0.7503   0.7567   0.7760   0.7810   0.7827
  0.7871   0.7934   0.7945   0.8019   0.8037   0.8099   0.8252   0.8371
  0.8453   0.8477   0.8542   0.8595   0.8674   0.8735   0.8826   0.8886
  0.8959   0.9199   0.9295   0.9462   0.9559   0.9723   0.9985   0.9998
  1.0160   1.0372   1.0460   1.0488   1.0529   1.0675   1.0717   1.0865
  1.0967   1.1203   1.1387   1.1617   1.1982   1.2305   1.2616   1.2933
  1.3017   1.3101   1.3286   1.3546   1.3590   1.3894   1.3946   1.4304
  1.4494   1.4648   1.4755   1.4811   1.5295   1.5614   1.5985   1.6193
  1.6283   1.6418   1.6712   1.6857   1.7010   1.7190   1.7772   1.8008
  1.8207   1.8215   1.8392   1.8513   1.8729   1.8797   1.9154   1.9270
  1.9361   1.9587   1.9787   1.9856   1.9984   2.0281   2.0365   2.0502
  2.0599   2.0677   2.0881   2.1103   2.1173   2.1565   2.1969   2.2056
  2.2133   2.2413   2.2582   2.2870   2.2920   2.3044   2.3481   2.3634
  2.4013   2.4058   2.4390   2.4564   2.4840   2.4977   2.5146   2.5593
  2.5813   2.6077   2.6204   2.6357   2.6612   2.6645   2.6942   2.7364
  2.7556   2.7645   2.7719   2.7986   2.8282   2.8310   2.8570   2.8744
  2.8998   2.9108   2.9390   2.9479   2.9593   2.9725   2.9787   3.0096
  3.0143   3.0258   3.0571   3.0823   3.0948   3.1342   3.1517   3.1562
  3.1869   3.2002   3.2161   3.2197   3.2405   3.2591   3.2814   3.2922
  3.3191   3.3550   3.3745   3.3837   3.3971   3.4168   3.4363   3.4550
  3.4602   3.4700   3.4890   3.5054   3.5157   3.5258   3.5342   3.5422
  3.5560   3.5712   3.5769   3.5907   3.6030   3.6304   3.6453   3.6770
  3.6953   3.7007   3.7442   3.7511   3.7969   3.8255   3.8448   3.9033
  3.9355   3.9481   3.9664   3.9928   4.0391   4.0910   4.1349   4.1525
  4.2515   4.2697   4.2864   4.3052   4.3151   4.3311   4.3494   4.3700
  4.3842   4.3954   4.4318   4.4605   4.4930   4.5504   4.6039   4.6184
  4.7294   4.7573   4.7777   4.8149   4.8554   4.9237   5.0194   5.0677
  5.0821   5.1270   5.1541   5.3071   5.3266   5.4168   5.4392   5.5362
  5.5926   5.6666   5.7185   5.7595   5.9445   6.1890   6.4721   6.5470
  6.6631   6.8738   6.9967   7.2979   7.4401  22.6640  22.6731  22.9431
 22.9993  23.0432  23.1829  23.5101  44.4115
 --------------------------------------------------------------
 
          Ground-State Mulliken Net Atomic Charges

     Atom                 Charge (a.u.)
  ----------------------------------------
      1 C                    -1.048193
      2 C                    -0.370365
      3 C                    -0.601426
      4 C                     0.790871
      5 C                     0.558654
      6 C                    -0.738510
      7 C                    -0.394977
      8 O                    -0.493736
      9 H                     0.276392
     10 H                     0.337329
     11 H                     0.303599
     12 H                     0.328641
     13 H                     0.270207
     14 H                     0.218657
     15 H                     0.291245
     16 H                     0.271613
  ----------------------------------------
  Sum of atomic charges =     0.000000

 -----------------------------------------------------------------
                    Cartesian Multipole Moments
 -----------------------------------------------------------------
    Charge (ESU x 10^10)
                -0.0000
    Dipole Moment (Debye)
         X      -1.4315      Y       1.1421      Z       0.0168
       Tot       1.8314
    Quadrupole Moments (Debye-Ang)
        XX     -53.9807     XY      -2.9327     YY     -42.7829
        XZ      -1.2214     YZ      -3.1101     ZZ     -41.3307
    Octopole Moments (Debye-Ang^2)
       XXX    -189.9004    XXY     -68.7531    XYY     -58.6029
       YYY    -157.7927    XXZ     -96.8055    XYZ     -13.4289
       YYZ     -97.6534    XZZ     -55.8343    YZZ     -52.1682
       ZZZ    -264.0640
    Hexadecapole Moments (Debye-Ang^3)
      XXXX    -714.1312   XXXY    -173.8527   XXYY    -225.3538
      XYYY    -151.4728   YYYY    -614.6567   XXXZ    -200.9693
      XXYZ    -138.4231   XYYZ     -89.8126   YYYZ    -336.0145
      XXZZ    -449.3525   XYZZ     -66.8138   YYZZ    -414.3738
      XZZZ    -196.4084   YZZZ    -332.5287   ZZZZ   -1861.4008
 -----------------------------------------------------------------
Archival summary:
1\1\nid00524\SP\ProcedureUnspecified\BasisUnspecified\178\meili\SunSep2619:35:512021SunSep2619:35:512021\0\\#,ProcedureUnspecified,BasisUnspecified,\\0,1\C\O,1,1.36776\H,2,0.971318,1,111.074\C,1,1.38924,2,120.358,3,-11.4755,0\H,4,1.07879,1,119.906,2,-0.0719799,0\C,4,1.38961,1,120.102,2,179.345,0\H,6,1.08135,4,118.908,1,-178.136,0\C,6,1.39491,4,120.801,1,0.550928,0\C,8,1.38643,6,118.551,4,-0.442558,0\H,9,1.08161,8,119.786,6,-178.23,0\C,9,1.38995,8,121.355,6,-0.14172,0\H,11,1.07917,9,120.533,8,-178.615,0\C,8,1.51278,6,121.655,4,-178.266,0\H,13,1.08423,8,106.685,6,76.359,0\H,13,1.09201,8,109.426,6,-168.07,0\H,13,1.1,8,115.574,6,-45.0007,0\\\@

 Total job time:  40708.82s(wall), 80696.11s(cpu) 
 Sun Sep 26 19:35:55 2021

        *************************************************************
        *                                                           *
        *  Thank you very much for using Q-Chem.  Have a nice day.  *
        *                                                           *
        *************************************************************


Done Job For Fragment 0
calling putenv with: QCSCRATCH=/global/cscratch1/sd/meili 
calling putenv with: QCLOCALSCR=/tmp 
calling putenv with: QCTHREADS=32 
Creating input file /tmp/qchem15929/Frg2.input
using default PutDataFrgm: nothing
calling putenv with: QCSCRATCH=/tmp/qchem15929/ 
calling putenv with: QCLOCALSCR=/tmp/qchem15929/ 
Spawning Job For Fragment 1
                  Welcome to Q-Chem
     A Quantum Leap Into The Future Of Chemistry


 Q-Chem 5.2, Q-Chem, Inc., Pleasanton, CA (2019)

 License issued to: National Energy Research Scientific Computing Center

 Yihan Shao,  Zhengting Gan,  E. Epifanovsky,  A. T. B. Gilbert,  M. Wormit,  
 J. Kussmann,  A. W. Lange,  A. Behn,  Jia Deng,  Xintian Feng,  D. Ghosh,  
 M. Goldey,  P. R. Horn,  L. D. Jacobson,  I. Kaliman,  T. Kus,  A. Landau,  
 Jie Liu,  E. I. Proynov,  R. M. Richard,  R. P. Steele,  E. J. Sundstrom,  
 H. L. Woodcock III,  P. M. Zimmerman,  D. Zuev,  B. Albrecht,  E. Alguire,  
 S. A. Baeppler,  D. Barton,  Z. Benda,  Y. A. Bernard,  E. J. Berquist,  
 K. B. Bravaya,  H. Burton,  D. Casanova,  Chun-Min Chang,  Yunqing Chen,  
 A. Chien,  K. D. Closser,  M. P. Coons,  S. Coriani,  S. Dasgupta,  
 A. L. Dempwolff,  M. Diedenhofen,  Hainam Do,  R. G. Edgar,  Po-Tung Fang,  
 S. Faraji,  S. Fatehi,  Qingguo Feng,  K. D. Fenk,  J. Fosso-Tande,  
 J. Gayvert,  Qinghui Ge,  A. Ghysels,  G. Gidofalvi,  J. Gomes,  
 J. Gonthier,  A. Gunina,  D. Hait,  M. W. D. Hanson-Heine,  
 P. H. P. Harbach,  A. W. Hauser,  M. F. Herbst,  J. E. Herr,  
 E. G. Hohenstein,  Z. C. Holden,  Kerwin Hui,  B. C. Huynh,  T.-C. Jagau,  
 Hyunjun Ji,  B. Kaduk,  K. Khistyaev,  Jaehoon Kim,  P. Klunzinger,  K. Koh,  
 D. Kosenkov,  L. Koulias,  T. Kowalczyk,  C. M. Krauter,  A. Kunitsa,  
 Ka Un Lao,  A. Laurent,  K. V. Lawler,  Joonho Lee,  D. Lefrancois,  
 S. Lehtola,  D. S. Levine,  Yi-Pei Li,  You-Sheng Lin,  Fenglai Liu,  
 E. Livshits,  A. Luenser,  P. Manohar,  E. Mansoor,  S. F. Manzer,  
 Shan-Ping Mao,  Yuezhi Mao,  N. Mardirossian,  A. V. Marenich,  
 T. Markovich,  L. A. Martinez-Martinez,  S. A. Maurer,  N. J. Mayhall,  
 S. C. McKenzie,  J.-M. Mewes,  P. Morgante,  A. F. Morrison,  
 J. W. Mullinax,  K. Nanda,  T. S. Nguyen-Beck,  R. Olivares-Amaya,  
 J. A. Parkhill,  Zheng Pei,  T. M. Perrine,  F. Plasser,  P. Pokhilko,  
 S. Prager,  A. Prociuk,  E. Ramos,  D. R. Rehn,  F. Rob,  M. Scheurer,  
 M. Schneider,  N. Sergueev,  S. M. Sharada,  S. Sharma,  D. W. Small,  
 T. Stauch,  T. Stein,  Yu-Chuan Su,  A. J. W. Thom,  A. Tkatchenko,  
 T. Tsuchimochi,  N. M. Tubman,  L. Vogt,  M. L. Vidal,  O. Vydrov,  
 M. A. Watson,  J. Wenzel,  M. de Wergifosse,  T. A. Wesolowski,  A. White,  
 J. Witte,  A. Yamada,  Jun Yang,  K. Yao,  S. Yeganeh,  S. R. Yost,  
 Zhi-Qiang You,  A. Zech,  Igor Ying Zhang,  Xing Zhang,  Yan Zhao,  
 Ying Zhu,  B. R. Brooks,  G. K. L. Chan,  C. J. Cramer,  M. S. Gordon,  
 W. J. Hehre,  A. Klamt,  M. W. Schmidt,  C. D. Sherrill,  D. G. Truhlar,  
 A. Aspuru-Guzik,  R. Baer,  A. T. Bell,  N. A. Besley,  Jeng-Da Chai,  
 A. E. DePrince, III,  R. A. DiStasio Jr.,  A. Dreuw,  B. D. Dunietz,  
 T. R. Furlani,  Chao-Ping Hsu,  Yousung Jung,  Jing Kong,  D. S. Lambrecht,  
 WanZhen Liang,  C. Ochsenfeld,  V. A. Rassolov,  L. V. Slipchenko,  
 J. E. Subotnik,  T. Van Voorhis,  J. M. Herbert,  A. I. Krylov,  
 P. M. W. Gill,  M. Head-Gordon

 Contributors to earlier versions of Q-Chem not listed above: 
 R. D. Adamson,  B. Austin,  J. Baker,  G. J. O. Beran,  K. Brandhorst,  
 S. T. Brown,  E. F. C. Byrd,  A. K. Chakraborty,  C.-L. Cheng,  
 Siu Hung Chien,  D. M. Chipman,  D. L. Crittenden,  H. Dachsel,  
 R. J. Doerksen,  A. D. Dutoi,  L. Fusti-Molnar,  W. A. Goddard III,  
 A. Golubeva-Zadorozhnaya,  S. R. Gwaltney,  G. Hawkins,  A. Heyden,  
 S. Hirata,  G. Kedziora,  F. J. Keil,  C. Kelley,  Jihan Kim,  R. A. King,  
 R. Z. Khaliullin,  P. P. Korambath,  W. Kurlancheek,  A. M. Lee,  M. S. Lee,  
 S. V. Levchenko,  Ching Yeh Lin,  D. Liotard,  R. C. Lochan,  I. Lotan,  
 P. E. Maslen,  N. Nair,  D. P. O'Neill,  D. Neuhauser,  E. Neuscamman,  
 C. M. Oana,  R. Olson,  B. Peters,  R. Peverati,  P. A. Pieniazek,  
 Y. M. Rhee,  J. Ritchie,  M. A. Rohrdanz,  E. Rosta,  N. J. Russ,  
 H. F. Schaefer III,  N. E. Schultz,  N. Shenvi,  A. C. Simmonett,  A. Sodt,  
 D. Stuck,  K. S. Thanthiriwatte,  V. Vanovschi,  Tao Wang,  A. Warshel,  
 C. F. Williams,  Q. Wu,  X. Xu,  W. Zhang

 Please cite Q-Chem as follows:
 Y. Shao et al., Mol. Phys. 113, 184-215 (2015)
 DOI: 10.1080/00268976.2014.952696

 Q-Chem 5.2.0 for Intel X86 EM64T Linux

 Parts of Q-Chem use Armadillo 8.300.2 (Tropical Shenanigans).
 http://arma.sourceforge.net/

 Q-Chem begins on Sun Sep 26 19:36:01 2021  

Host: cori01
0

     Scratch files written to /tmp/qchem15929//Frg2//
 May1019 |scratch|qcdevops|jenkins|workspace|build_RNUM -1
Processing $rem in /global/common/cori/software/qchem/5.2/config/preferences:
	 MEM_TOTAL  96000 
NAlpha2: 50
NElect   50
Mult     1
Symmetry turned off for PCM/SM12/SMD calculation

Checking the input file for inconsistencies... 	...done.

--------------------------------------------------------------
User input:
--------------------------------------------------------------
$molecule
0 1
 6	-0.4107699317	-1.3439937832	-4.3959206055
 6	-1.2997699317	-0.4479937832	-0.8319206055
 6	-2.2297699317	-1.4229937832	-0.5209206055
 6	-0.7097699317	-0.4219937832	-2.0859206055
 6	-1.0397699317	-1.3809937832	-3.0329206055
 6	-2.5707699317	-2.3789937832	-1.4659206055
 6	-1.9817699317	-2.3519937832	-2.7189206055
 1	-1.0337699317	0.2940062168	-0.0929206055
 1	-2.7087699317	-1.4079937832	0.4460793945
 1	0.0232300683	0.3310062168	-2.3159206055
 1	-3.3007699317	-3.1399937832	-1.2259206055
 1	-0.3257699317	-2.3609937832	-4.7839206055
 1	0.6042300683	-0.9529937832	-4.3069206055
 1	-2.2497699317	-3.1049937832	-3.4469206055
 1	-0.9699199317	-0.7184637832	-5.1073006055
$end
$rem
EDA2		1
METHOD		WB97X-V
BASIS		DEF2-TZVPD
XC_GRID		000099000590
NL_GRID		1
UNRESTRICTED		FALSE
MAX_SCF_CYCLES		200
SYMMETRY		FALSE
SYM_IGNORE		TRUE
BASIS_LIN_DEP_THRESH		6
THRESH		14
SCF_CONVERGENCE		8
SCF_PRINT_FRGM		TRUE
SOLVENT_METHOD		PCM
!required keywords
JOBTYPE		SP
SYM_IGNORE		TRUE
SUBSYSTEM		TRUE
GEN_SCFMAN		TRUE
CHILD_INSTRUCTION		2
SYM_IGNORE		TRUE
SCFMI		0
RI_K 0		
PARI_K 0		
MIN_PARI_K 0		
IARI_K 0		
OCC_RI_K 0		
PURECART		1111
MEM_STATIC		2000
MEM_TOTAL		96000
GUI		0
CHILD_MP		1
CHILD_MP_ORDERS		232
FRZ_RELAX		0
FRZ_RELAX_METHOD		0
EDA_CLS_ELEC		1
EDA_CLS_DISP		0
FRZ_ORTHO_DECOMP		1
EDA2		FALSE
FRGM_METHOD		FALSE
CIS_N_ROOTS  0
LOCAL_CIS    0
CIS_RLX_DNS  1
$end
$pcm
THEORY                  CPCM
METHOD                  SWIG
SOLVER                  INVERSION
RADII                   UFF
HPOINTS                 302
HEAVYPOINTS             302
PRINTLEVEL              0
$end
$solvent
DIELECTRIC              78.390000 ! water
$end
--------------------------------------------------------------
 ----------------------------------------------------------------
             Standard Nuclear Orientation (Angstroms)
    I     Atom           X                Y                Z
 ----------------------------------------------------------------
    1      C      -0.4107699317    -1.3439937832    -4.3959206055
    2      C      -1.2997699317    -0.4479937832    -0.8319206055
    3      C      -2.2297699317    -1.4229937832    -0.5209206055
    4      C      -0.7097699317    -0.4219937832    -2.0859206055
    5      C      -1.0397699317    -1.3809937832    -3.0329206055
    6      C      -2.5707699317    -2.3789937832    -1.4659206055
    7      C      -1.9817699317    -2.3519937832    -2.7189206055
    8      H      -1.0337699317     0.2940062168    -0.0929206055
    9      H      -2.7087699317    -1.4079937832     0.4460793945
   10      H       0.0232300683     0.3310062168    -2.3159206055
   11      H      -3.3007699317    -3.1399937832    -1.2259206055
   12      H      -0.3257699317    -2.3609937832    -4.7839206055
   13      H       0.6042300683    -0.9529937832    -4.3069206055
   14      H      -2.2497699317    -3.1049937832    -3.4469206055
   15      H      -0.9699199317    -0.7184637832    -5.1073006055
 ----------------------------------------------------------------
 Nuclear Repulsion Energy =         270.87410942 hartrees
 There are       25 alpha and       25 beta electrons
 Requested basis set is def2-TZVPD
 There are 131 shells and 331 basis functions

 Total QAlloc Memory Limit  96000 MB
 Mega-Array Size      1956 MB
 MEM_STATIC part      2000 MB
 Discretize the solute cavity surface with Lebedev spheres
	Using 302 Lebedev grid points for each H atom
	Using 302 Lebedev grid points for other atoms
	Atomic van der Waals radii will be scaled by 1.20
 Remove points where switching function is < 1.0e-08
 Keep 1796 surface tesserae and discard 2734 interior tesserae
 Molecular Surface Area = 177.694 Angst**2

                       Distance Matrix (Angstroms)
             C (  1)   C (  2)   C (  3)   C (  4)   C (  5)   C (  6)
   C (  2)  3.780904
   C (  3)  4.281428  1.382840
   C (  4)  2.505112  1.386107  2.400339
   C (  5)  1.501592  2.404681  2.779929  1.387584
   C (  6)  3.784406  2.397115  1.386810  2.770843  2.407375
   C (  7)  2.509270  2.766064  2.399114  2.396575  1.388813  1.384796
   H (  8)  4.646179  1.080482  2.135811  2.142354  3.383676  3.375267
   H (  9)  5.360025  2.130766  1.079238  3.373310  3.858721  2.148867
   H ( 10)  2.705620  2.135281  3.372618  1.075731  2.138925  3.846484
   H ( 11)  4.650443  3.377292  2.142931  3.852325  3.386953  1.081490
   H ( 12)  1.091814  4.497394  4.762166  3.344605  2.129835  4.006179
   H ( 13)  1.091342  3.994479  4.752500  2.634653  2.123440  4.492814
   H ( 14)  2.717286  3.847125  3.375056  3.379706  2.146549  2.134122
   H ( 15)  1.099999  4.296607  4.808167  3.047017  2.178733  4.310421
             C (  7)   H (  8)   H (  9)   H ( 10)   H ( 11)   H ( 12)
   H (  8)  3.846543
   H (  9)  3.381847  2.448050
   H ( 10)  3.373562  2.461777  4.256359
   H ( 11)  2.142371  4.267943  2.479087  4.927973
   H ( 12)  2.647006  5.436522  5.825787  3.668745  4.702853
   H ( 13)  3.341608  4.689973  5.811541  2.439323  5.433650  1.753537
   H ( 14)  1.081118  4.927593  4.271527  4.272211  2.457370  2.458227
   H ( 15)  3.065391  5.115973  5.859956  3.143173  5.134372  1.793714
             H ( 13)   H ( 14)
   H ( 14)  3.676414
   H ( 15)  1.781449  3.176540
 
 A cutoff of  1.0D-14 yielded   8363 shell pairs
 There are     54511 function pairs (     69466 Cartesian)
 Smallest overlap matrix eigenvalue = 5.26E-07
 Linear dependence detected in AO basis
 Tighter screening thresholds may be required for diffuse basis sets
 Use S2THRESH > 14 and THRESH = 14 in case of SCF convergence issues
 Number of orthogonalized atomic orbitals = 330
 Maximum deviation from orthogonality = 1.738E-10

 Scale SEOQF with 1.000000e-01/1.000000e-01/1.000000e-02

 Standard Electronic Orientation quadrupole field applied
 Nucleus-field energy     =     0.0000000107 hartrees
 Guess from superposition of atomic densities
 Warning:  Energy on first SCF cycle will be non-variational
 SAD guess density has 49.913408 electrons

 -----------------------------------------------------------------------
  General SCF calculation program by
  Eric Jon Sundstrom, Paul Horn, Yuezhi Mao, Dmitri Zuev, Alec White,
  David Stuck, Shaama M.S., Shane Yost, Joonho Lee, David Small,
  Daniel Levine, Susi Lehtola, Hugh Burton, Evgeny Epifanovsky
 -----------------------------------------------------------------------
 Exchange:     0.1670 Hartree-Fock + 1.0000 wB97X-V + LR-HF
 Correlation:  1.0000 wB97X-V
 Using Euler-Maclaurin-Lebedev (99,590) quadrature formula
 Nonlocal Correlation:  VV10 with C = 0.0100 and b = 6.00 and scale = 1.00000
 Grid used for NLC:  SG-1 standard quadrature
Energy prior to optimization (guess energy) = -271.518289981394
Begin Timing: Total SCF Calculation
begin iterations for algorithm: DIIS         
the SCF tolerance is set to 1.00e-08
    1    -271.5182899814      2.00e-03     00000 
    2    -271.5580354476      1.29e-03     00000 
    3    -271.5810984311      1.40e-04     00000 
    4    -271.5815104693      4.97e-05     00000 
    5    -271.5815463792      1.63e-05     00000 
    6    -271.5815509508      4.13e-06     00000 
    7    -271.5815512813      1.91e-06     00000 
    8    -271.5815513431      3.47e-07     00000 
    9    -271.5815513462      6.23e-08     00000 
   10    -271.5815513463      3.19e-08     00000 
   11    -271.5815513464      5.95e-09     00000 Convergence criterion met
Timing for Total SCF: 1355.00s (wall), 2680.31s (cpu)

************** Final PCM Free Energy Summary **************
 G_electrostatic  =      -0.00238615 hartree =      -1.49733439 kcal/mol
 G_cavitation     =       0.00000000 hartree =       0.00000000 kcal/mol
 G_dispersion     =       0.00000000 hartree =       0.00000000 kcal/mol
 G_repulsion      =       0.00000000 hartree =       0.00000000 kcal/mol
 --------------------------------------------------
 Non-electrostatic Free Energy =       0.00000000 hartree =       0.00000000 kcal/mol
 Total                         =      -0.00238615 hartree =      -1.49733439 kcal/mol
 --------------------------------------------------
 SCF Energy (H0 + V/2)                       =    -271.58155135 
 Solute Internal Energy (H0)                 =    -271.57916519 
 Total Free Energy (H0 + V/2 + non-elec)     =    -271.58155135 hartree
                                             = -170419.99561871 kcal/mol
***********************************************************

E_pcm = -0.0023861543
Multipole orders to be included
        2
        3
computing dipole RHS
computing quadrupole RHS
total number of RHS in solve_reponses: 8
RHS batch sizes
        8
Beginning Block Conjugate Gradient Iterations. Batch Number: 0
computing hessian-vector products by finite difference
              1      5.72e-01     00000 Conjugate Gradient Iteration
computing hessian-vector products by finite difference
              2      1.83e-01     00000 Conjugate Gradient Iteration
computing hessian-vector products by finite difference
              3      4.22e-02     00000 Conjugate Gradient Iteration
computing hessian-vector products by finite difference
              4      9.73e-03     00000 Conjugate Gradient Iteration
computing hessian-vector products by finite difference
              5      2.22e-03     00000 Conjugate Gradient Iteration
computing hessian-vector products by finite difference
              6      6.02e-04     00000 Conjugate Gradient Iteration
computing hessian-vector products by finite difference
              7      1.63e-04     00000 Conjugate Gradient Iteration
computing hessian-vector products by finite difference
              8      2.57e-05     00000 Conjugate Gradient Iteration
computing hessian-vector products by finite difference
              9      3.91e-06     00000 Conjugate Gradient Iteration
computing hessian-vector products by finite difference
             10      1.23e-06     00000 Conjugate Gradient Iteration
computing hessian-vector products by finite difference
             11      2.92e-07     00000 Conjugate Gradient Iteration
computing hessian-vector products by finite difference
             12      4.95e-08     00000 Conjugate Gradient Iteration
computing hessian-vector products by finite difference
             13      9.09e-09     00000 CG Converged
batch 0 complete
Done Calculating Responses
TESTING ORTHOGONALIZATION OF MULTIPOLE BASIS
Multipole virts passed orthogonality test
Virts Per Order
           75
          125
 
 --------------------------------------------------------------
 
                    Orbital Energies (a.u.)
 --------------------------------------------------------------
 
 Alpha MOs
 -- Occupied --
-10.2799 -10.2717 -10.2708 -10.2681 -10.2680 -10.2673 -10.2621  -1.0005
 -0.9086  -0.8810  -0.8139  -0.7315  -0.7067  -0.6318  -0.5756  -0.5666
 -0.5373  -0.5314  -0.5145  -0.4872  -0.4754  -0.4417  -0.4408  -0.3505
 -0.3389
 -- Virtual --
  0.0632   0.0646   0.0688   0.0790   0.0845   0.1045   0.1105   0.1137
  0.1356   0.1520   0.1658   0.1667   0.1876   0.1890   0.1948   0.2013
  0.2219   0.2246   0.2341   0.2412   0.2483   0.2582   0.2605   0.2698
  0.2796   0.2808   0.2833   0.2925   0.2936   0.3014   0.3046   0.3108
  0.3213   0.3241   0.3325   0.3339   0.3492   0.3540   0.3666   0.3728
  0.3793   0.3819   0.3832   0.3888   0.3891   0.4013   0.4048   0.4091
  0.4093   0.4286   0.4292   0.4368   0.4424   0.4489   0.4516   0.4529
  0.4625   0.4697   0.4744   0.4814   0.4934   0.4958   0.5126   0.5175
  0.5177   0.5268   0.5353   0.5369   0.5408   0.5478   0.5489   0.5660
  0.5845   0.5892   0.5960   0.5965   0.6028   0.6230   0.6425   0.6449
  0.6618   0.6728   0.6843   0.6849   0.6865   0.6984   0.7207   0.7244
  0.7289   0.7303   0.7431   0.7606   0.7643   0.7658   0.7765   0.7870
  0.7895   0.7970   0.8009   0.8027   0.8083   0.8228   0.8259   0.8334
  0.8359   0.8373   0.8401   0.8500   0.8604   0.8758   0.8877   0.8958
  0.9087   0.9162   0.9347   0.9500   0.9515   1.0144   1.0212   1.0424
  1.0446   1.0603   1.0719   1.0789   1.0894   1.0941   1.1067   1.1449
  1.1691   1.1801   1.2500   1.2786   1.2967   1.3196   1.3500   1.3510
  1.3820   1.4365   1.4515   1.4606   1.4688   1.4879   1.5277   1.5424
  1.5997   1.6020   1.6209   1.6227   1.6693   1.6834   1.7357   1.7782
  1.7944   1.7962   1.8071   1.8107   1.8371   1.8702   1.8834   1.9131
  1.9206   1.9300   1.9556   1.9578   1.9839   1.9978   2.0118   2.0283
  2.0314   2.0452   2.0712   2.0963   2.1145   2.1246   2.1711   2.1776
  2.1946   2.2350   2.2403   2.2658   2.2872   2.3150   2.3951   2.4060
  2.4113   2.4115   2.4831   2.5070   2.5381   2.5577   2.5676   2.6066
  2.6143   2.6249   2.6679   2.6721   2.7017   2.7143   2.7604   2.7752
  2.7935   2.8176   2.8256   2.8519   2.8639   2.9051   2.9070   2.9177
  2.9415   2.9466   2.9623   2.9771   2.9926   3.0153   3.0205   3.0557
  3.0613   3.0902   3.1030   3.1404   3.1824   3.1866   3.2031   3.2243
  3.2275   3.2389   3.2927   3.3131   3.3306   3.3588   3.3677   3.3812
  3.4010   3.4475   3.4498   3.4517   3.4590   3.4727   3.4984   3.5065
  3.5101   3.5326   3.5413   3.5454   3.5676   3.5791   3.5952   3.6081
  3.6157   3.6370   3.6574   3.6966   3.7188   3.7575   3.7859   3.8183
  3.8366   3.8915   3.9115   3.9706   3.9728   3.9991   4.0436   4.0637
  4.1172   4.2030   4.2752   4.2892   4.3068   4.3263   4.3303   4.3311
  4.3638   4.3832   4.4000   4.4149   4.4518   4.4581   4.4882   4.5386
  4.6049   4.6399   4.7650   4.7687   4.8431   4.9009   4.9042   4.9531
  5.0380   5.0562   5.1771   5.2724   5.3941   5.4027   5.5122   5.5335
  5.6850   5.8536  22.5712  22.6700  22.9069  22.9205  23.0401  23.1052
 23.4541
 --------------------------------------------------------------
 
          Ground-State Mulliken Net Atomic Charges

     Atom                 Charge (a.u.)
  ----------------------------------------
      1 C                    -1.042476
      2 C                    -0.485263
      3 C                    -0.476272
      4 C                    -0.376738
      5 C                     0.894090
      6 C                    -0.500699
      7 C                    -0.366351
      8 H                     0.308215
      9 H                     0.331052
     10 H                     0.325609
     11 H                     0.309554
     12 H                     0.274409
     13 H                     0.273437
     14 H                     0.320928
     15 H                     0.210504
  ----------------------------------------
  Sum of atomic charges =     0.000000

 -----------------------------------------------------------------
                    Cartesian Multipole Moments
 -----------------------------------------------------------------
    Charge (ESU x 10^10)
                 0.0000
    Dipole Moment (Debye)
         X       0.1803      Y       0.0415      Z      -0.4309
       Tot       0.4690
    Quadrupole Moments (Debye-Ang)
        XX     -42.9768     XY       3.0896     YY     -41.1942
        XZ      -1.7884     YZ       2.0990     ZZ     -37.2411
    Octopole Moments (Debye-Ang^2)
       XXX     185.2727    XXY      48.7485    XYY      49.7827
       YYY     171.0804    XXZ     100.3828    XYZ      -5.3917
       YYZ      85.3200    XZZ      59.8648    YZZ      47.3759
       ZZZ     256.7275
    Hexadecapole Moments (Debye-Ang^3)
      XXXX    -769.3080   XXXY    -279.3653   XXYY    -204.6848
      XYYY    -271.0883   YYYY    -694.6519   XXXZ    -336.1121
      XXYZ    -128.9622   XYYZ     -79.0040   YYYZ    -381.7152
      XXZZ    -431.4640   XYZZ     -84.5260   YYZZ    -378.1351
      XZZZ    -293.2948   YZZZ    -365.1597   ZZZZ   -1682.2668
 -----------------------------------------------------------------
Archival summary:
1\1\nid00524\SP\ProcedureUnspecified\BasisUnspecified\78\meili\MonSep2703:42:362021MonSep2703:42:362021\0\\#,ProcedureUnspecified,BasisUnspecified,\\0,1\C\C,1,1.38758\H,2,1.07573,1,119.994\C,2,1.38611,1,120.215,3,-178.555,0\H,4,1.08048,2,120.073,1,179.388,0\C,4,1.38284,2,120.196,1,-0.570192,0\H,6,1.07924,4,119.354,2,-177.66,0\C,6,1.38681,4,119.878,2,0.131219,0\H,8,1.08149,6,119.988,4,-179.759,0\C,8,1.3848,6,119.904,4,-0.178231,0\H,10,1.08112,8,119.359,6,179.643,0\C,1,1.50159,2,120.188,3,-2.07124,0\H,12,1.09134,1,108.929,2,32.7617,0\H,12,1.09181,1,109.404,2,149.26,0\H,12,1.1,1,112.837,2,-88.1357,0\\\@

 Total job time:  29198.37s(wall), 57944.87s(cpu) 
 Mon Sep 27 03:42:40 2021

        *************************************************************
        *                                                           *
        *  Thank you very much for using Q-Chem.  Have a nice day.  *
        *                                                           *
        *************************************************************


Done Job For Fragment 1
calling putenv with: QCSCRATCH=/global/cscratch1/sd/meili 
calling putenv with: QCLOCALSCR=/tmp 
calling putenv with: QCTHREADS=32 
Doing General SCFMI
 Exchange:     0.1670 Hartree-Fock + 1.0000 wB97X-V + LR-HF
 Correlation:  1.0000 wB97X-V
 Using Euler-Maclaurin-Lebedev (99,590) quadrature formula
 Nonlocal Correlation:  VV10 with C = 0.0100 and b = 6.00 and scale = 1.00000
 Grid used for NLC:  SG-1 standard quadrature
performing fock build before subrot guess so that all methods have access
Printing subrot_rss_gen Method Specification:
Occupied Subspace Method is 0
Virtual Subspace Method is 0
Energy of the unrelaxed supersystem initial determinant -618.391490103124
performing fock build before subrot guess so that all methods have access
Printing subrot_rss_gen Method Specification:
Occupied Subspace Method is 0
Virtual Subspace Method is 0
Energy of the unrelaxed supersystem initial determinant w/ solvent -618.399961382841
write pseudocanon occs and virts to disk
write pseudocanon orbital energies to disk
Tolerance of ortho_decomp_scf: 1.00e-06
GDM subspace size: 20
Beginning the Orthogonal Decomposition of the Initial Supersystem Wavefunction
    1    -618.3780509176      1.60e-02     ortho_decomp Preconditoned Steepest Descent
    2    -618.3793727196      4.41e-04     ortho_decomp BFGS Step
    3    -618.3793772079      2.79e-05     ortho_decomp BFGS Step
    4    -618.3793772130      1.05e-06     ortho_decomp BFGS Step
    5    -618.3793772130      3.90e-08     ortho_decomp 00000 Convergence criterion met
 Hartree-Fock
 Hartree-Fock
 Hartree-Fock
Doing General SCFMI
 Exchange:     0.1670 Hartree-Fock + 1.0000 wB97X-V + LR-HF
 Correlation:  1.0000 wB97X-V
 Using Euler-Maclaurin-Lebedev (99,590) quadrature formula
 Nonlocal Correlation:  VV10 with C = 0.0100 and b = 6.00 and scale = 1.00000
 Grid used for NLC:  SG-1 standard quadrature
performing fock build at end of subrot_r(subrot) constructor so that all methods have access
<S^2> of initial wavefunction before polarization iterations 0.0000000000
Beginning iterations for the determination of the polarized wavefunction
Energy prior to optimization (guess energy) = -618.399961382841
Begin Timing: Total SCF Calculation
begin iterations for algorithm: DIIS         
the SCF tolerance is set to 1.00e-08
    1    -618.3999613828      3.77e-05     00000 
    2    -618.4001460941      1.63e-05     00000 
    3    -618.4001649333      9.71e-06     00000 
    4    -618.4001718156      2.77e-06     00000 
    5    -618.4001725595      1.19e-06     00000 
    6    -618.4001727257      4.77e-07     00000 
    7    -618.4001727485      1.79e-07     00000 
    8    -618.4001727514      7.70e-08     00000 
    9    -618.4001727519      2.22e-08     00000 
   10    -618.4001727519      9.55e-09     00000 Convergence criterion met
write pseudocanon occs and virts to disk
write pseudocanon orbital energies to disk
Timing for Total SCF: 9647.00s (wall), 19210.03s (cpu)
<S^2> of polarized wavefunction after polarization iterations 0.0000000000
relaxing scfmi constraint to allow all rotations in the entire AO span
Doing General SCFMI
 Exchange:     0.1670 Hartree-Fock + 1.0000 wB97X-V + LR-HF
 Correlation:  1.0000 wB97X-V
 Using Euler-Maclaurin-Lebedev (99,590) quadrature formula
 Nonlocal Correlation:  VV10 with C = 0.0100 and b = 6.00 and scale = 1.00000
 Grid used for NLC:  SG-1 standard quadrature
performing fock build at end of subrot_r(subrot) constructor so that all methods have access
<S^2> of polarized wavefunction before ct-allowed iterations 0.0000000000
Beginning iterations for the determination of the CT-Allowed wavefunction
Energy prior to optimization (guess energy) = -618.400172751933
Begin Timing: Total SCF Calculation
begin iterations for algorithm: DIIS         
the SCF tolerance is set to 1.00e-08
    1    -618.4001727519      5.20e-05     00000 
    2    -618.4007830423      5.00e-06     00000 
    3    -618.4007998691      8.42e-07     00000 
    4    -618.4008004118      4.33e-07     00000 
    5    -618.4008004613      1.00e-07     00000 
    6    -618.4008004663      3.75e-08     00000 
    7    -618.4008004668      9.12e-09     00000 Convergence criterion met
write pseudocanon occs and virts to disk
write pseudocanon orbital energies to disk
Timing for Total SCF: 6781.00s (wall), 13497.25s (cpu)
<S^2> of ct_allowed wavefunction after ct-allowed iterations 0.0000000000

================================
        Results of EDA2         
================================
Basic EDA Quantities
--------------------
Fragment Energies (Ha):
1 -346.8164280721
2 -271.5815513464
--------------------
  E_prp (kJ/mol) = 0.0000
  E_sol (kJ/mol) = -1.2183
  E_frz (kJ/mol) = -3.9854
  E_pol (kJ/mol) = -0.5550
  E_vct (kJ/mol) = -1.6481
  E_int (kJ/mol) = -7.4068
--------------------


Initial Wavefunction Decomposition
--------------------
  --------------------
  Orthogonal Fragment Subspace Decomposition:
  --------------------
     E_elec   (ELEC)   (kJ/mol) = -11.2630
     E_pauli  (PAULI)  (kJ/mol) = 21.3050
     E_disp   (DISP)   (kJ/mol) = -14.0274
     --------------------
     Terms summing to E_pauli:
     --------------------
        E_kep_pauli       (kJ/mol) = 27.8173
        E_disp_free_pauli (kJ/mol) = -6.5123
  --------------------
  Classical Frozen Decomposition:
  --------------------
     E_cls_elec  (CLS ELEC)  (kJ/mol) = -1.5246
     E_cls_pauli (CLS PAULI) (kJ/mol) = -2.4608
    [E_mod_pauli (MOD PAULI) (kJ/mol) = 11.5666 (CLS PAULI - DISP from orthogonal decomposition) ]
  --------------------
--------------------

Simplified EDA Summary (kJ/mol)
--------------------
 PREPARATION     0.0000
 SOLVATION       -1.2183
 FROZEN          10.0420      (does not include dispersion)
[PAULI           21.3050]     (if this is negligible, then frozen describes electrostatics)
 DISPERSION      -14.0274
 POLARIZATION    -0.5550
 CHARGE TRANSFER -1.6481
 TOTAL           -7.4068     (PRP + SOL + FRZ + DISP + POL + CT)
--------------------
 
 --------------------------------------------------------------
 
                    Orbital Energies (a.u.)
 --------------------------------------------------------------
 
 Alpha MOs
 -- Occupied --
-19.2473 -10.3364 -10.2800 -10.2776 -10.2754 -10.2740 -10.2728 -10.2724
-10.2715 -10.2699 -10.2678 -10.2678 -10.2677 -10.2622 -10.2621  -1.1940
 -1.0003  -0.9977  -0.9085  -0.9025  -0.8861  -0.8809  -0.8139  -0.8115
 -0.7492  -0.7314  -0.7163  -0.7067  -0.6668  -0.6321  -0.6041  -0.5818
 -0.5755  -0.5669  -0.5536  -0.5437  -0.5373  -0.5353  -0.5312  -0.5212
 -0.5144  -0.5091  -0.4873  -0.4789  -0.4751  -0.4570  -0.4494  -0.4417
 -0.4408  -0.4372  -0.3548  -0.3499  -0.3387  -0.3146
 -- Virtual --
  0.0528   0.0568   0.0622   0.0633   0.0670   0.0710   0.0768   0.0804
  0.0836   0.0938   0.0994   0.1034   0.1043   0.1137   0.1199   0.1276
  0.1316   0.1348   0.1393   0.1503   0.1549   0.1569   0.1643   0.1664
  0.1741   0.1772   0.1810   0.1885   0.1925   0.1962   0.2038   0.2108
  0.2154   0.2201   0.2210   0.2315   0.2322   0.2372   0.2379   0.2430
  0.2436   0.2509   0.2535   0.2552   0.2592   0.2623   0.2666   0.2720
  0.2760   0.2765   0.2796   0.2816   0.2886   0.2955   0.2959   0.2992
  0.3014   0.3027   0.3042   0.3106   0.3139   0.3170   0.3215   0.3264
  0.3297   0.3312   0.3344   0.3374   0.3405   0.3432   0.3480   0.3488
  0.3522   0.3546   0.3591   0.3600   0.3653   0.3664   0.3704   0.3752
  0.3781   0.3807   0.3829   0.3839   0.3868   0.3924   0.3959   0.3970
  0.3982   0.4014   0.4053   0.4071   0.4105   0.4147   0.4194   0.4226
  0.4264   0.4275   0.4309   0.4346   0.4415   0.4425   0.4458   0.4494
  0.4534   0.4558   0.4588   0.4604   0.4648   0.4655   0.4683   0.4708
  0.4803   0.4809   0.4824   0.4882   0.4908   0.4921   0.4967   0.4980
  0.5031   0.5060   0.5073   0.5094   0.5140   0.5161   0.5203   0.5256
  0.5305   0.5321   0.5376   0.5390   0.5408   0.5436   0.5469   0.5526
  0.5611   0.5644   0.5680   0.5715   0.5748   0.5804   0.5827   0.5851
  0.5926   0.5960   0.6012   0.6037   0.6132   0.6162   0.6208   0.6231
  0.6275   0.6340   0.6390   0.6426   0.6493   0.6572   0.6579   0.6674
  0.6676   0.6736   0.6805   0.6867   0.6887   0.6912   0.6951   0.6974
  0.7064   0.7097   0.7138   0.7168   0.7190   0.7252   0.7285   0.7321
  0.7369   0.7421   0.7442   0.7480   0.7509   0.7540   0.7616   0.7640
  0.7664   0.7748   0.7751   0.7771   0.7808   0.7824   0.7832   0.7884
  0.7906   0.7933   0.7980   0.8006   0.8065   0.8108   0.8139   0.8175
  0.8199   0.8242   0.8288   0.8297   0.8320   0.8374   0.8385   0.8446
  0.8472   0.8520   0.8569   0.8607   0.8623   0.8646   0.8732   0.8781
  0.8792   0.8857   0.8894   0.8938   0.8986   0.8997   0.9056   0.9111
  0.9157   0.9213   0.9282   0.9310   0.9418   0.9469   0.9532   0.9616
  0.9669   0.9688   0.9717   0.9812   0.9939   0.9981   1.0035   1.0148
  1.0252   1.0261   1.0338   1.0399   1.0481   1.0579   1.0690   1.0732
  1.0758   1.0815   1.0887   1.0901   1.0948   1.1043   1.1127   1.1152
  1.1195   1.1307   1.1406   1.1526   1.1598   1.1623   1.1681   1.1764
  1.1916   1.2071   1.2089   1.2278   1.2411   1.2601   1.2733   1.2768
  1.2998   1.3073   1.3182   1.3333   1.3370   1.3466   1.3665   1.3696
  1.3829   1.3896   1.4019   1.4151   1.4167   1.4249   1.4380   1.4630
  1.4713   1.4754   1.4788   1.4903   1.4940   1.5004   1.5104   1.5210
  1.5326   1.5435   1.5486   1.5639   1.5751   1.6039   1.6179   1.6294
  1.6333   1.6381   1.6537   1.6630   1.6730   1.6851   1.6972   1.7073
  1.7154   1.7371   1.7579   1.7869   1.7967   1.7975   1.8052   1.8172
  1.8261   1.8300   1.8395   1.8484   1.8640   1.8769   1.8943   1.9049
  1.9069   1.9115   1.9249   1.9275   1.9404   1.9453   1.9533   1.9648
  1.9688   1.9715   1.9871   1.9944   1.9953   2.0078   2.0144   2.0201
  2.0311   2.0350   2.0461   2.0549   2.0615   2.0644   2.0714   2.0890
  2.0941   2.1024   2.1112   2.1193   2.1269   2.1450   2.1476   2.1533
  2.1699   2.1828   2.1877   2.2004   2.2164   2.2230   2.2309   2.2402
  2.2532   2.2557   2.2769   2.2789   2.2918   2.3113   2.3182   2.3267
  2.3403   2.3493   2.3520   2.3672   2.3932   2.4080   2.4173   2.4218
  2.4297   2.4441   2.4471   2.4660   2.4708   2.4916   2.5094   2.5139
  2.5256   2.5607   2.5623   2.5727   2.5846   2.5918   2.6035   2.6159
  2.6239   2.6271   2.6340   2.6484   2.6545   2.6717   2.6889   2.6975
  2.7025   2.7050   2.7224   2.7413   2.7434   2.7642   2.7689   2.7816
  2.7856   2.7919   2.8049   2.8167   2.8275   2.8367   2.8440   2.8492
  2.8667   2.8680   2.8758   2.9068   2.9156   2.9201   2.9249   2.9379
  2.9390   2.9596   2.9617   2.9654   2.9703   2.9741   2.9852   2.9945
  3.0019   3.0056   3.0169   3.0280   3.0312   3.0471   3.0485   3.0606
  3.0709   3.0763   3.0929   3.0989   3.1113   3.1221   3.1324   3.1497
  3.1613   3.1742   3.1998   3.2068   3.2079   3.2154   3.2193   3.2343
  3.2354   3.2428   3.2525   3.2622   3.2683   3.2847   3.2970   3.3047
  3.3100   3.3192   3.3335   3.3477   3.3620   3.3701   3.3787   3.3811
  3.3974   3.4075   3.4128   3.4209   3.4268   3.4406   3.4531   3.4598
  3.4618   3.4655   3.4744   3.4817   3.4848   3.4926   3.5003   3.5092
  3.5132   3.5200   3.5252   3.5295   3.5421   3.5467   3.5497   3.5540
  3.5630   3.5686   3.5729   3.5788   3.5822   3.5863   3.5921   3.6008
  3.6076   3.6155   3.6217   3.6306   3.6481   3.6566   3.6606   3.6667
  3.6815   3.6916   3.7062   3.7113   3.7173   3.7317   3.7358   3.7569
  3.7692   3.8060   3.8127   3.8242   3.8429   3.8468   3.8588   3.9029
  3.9074   3.9255   3.9423   3.9608   3.9745   3.9809   3.9898   4.0016
  4.0108   4.0483   4.0554   4.0797   4.1067   4.1366   4.1537   4.1700
  4.2236   4.2593   4.2794   4.2889   4.3018   4.3120   4.3143   4.3152
  4.3264   4.3339   4.3363   4.3466   4.3517   4.3577   4.3734   4.3802
  4.3901   4.3957   4.4050   4.4114   4.4316   4.4383   4.4605   4.4640
  4.4803   4.4983   4.5068   4.5518   4.5587   4.6089   4.6232   4.6292
  4.6452   4.7410   4.7658   4.7744   4.7799   4.7831   4.8215   4.8483
  4.8605   4.9066   4.9273   4.9343   4.9736   5.0301   5.0544   5.0698
  5.0716   5.0963   5.1353   5.1651   5.1945   5.2897   5.3107   5.3306
  5.4009   5.4071   5.4280   5.4423   5.5191   5.5396   5.5447   5.6049
  5.6736   5.7090   5.7307   5.7536   5.8443   5.9615   6.2094   6.4710
  6.5767   6.6961   6.9121   7.0222   7.3155   7.4603  22.6297  22.6786
 22.6874  22.7275  22.9378  22.9445  22.9774  23.0331  23.0569  23.0729
 23.1403  23.1989  23.4763  23.5193  44.4906
 --------------------------------------------------------------
 
          Ground-State Mulliken Net Atomic Charges

     Atom                 Charge (a.u.)
  ----------------------------------------
      1 C                    -1.098593
      2 C                    -0.282279
      3 C                    -0.515156
      4 C                     0.628995
      5 C                     0.550207
      6 C                    -0.721534
      7 C                    -0.399154
      8 O                    -0.520312
      9 H                     0.300988
     10 H                     0.321462
     11 H                     0.312276
     12 H                     0.331568
     13 H                     0.274497
     14 H                     0.215930
     15 H                     0.311143
     16 H                     0.274888
     17 C                    -1.071733
     18 C                    -0.184649
     19 C                    -0.584853
     20 C                    -0.329419
     21 C                     0.634213
     22 C                    -0.465655
     23 C                    -0.404337
     24 H                     0.366325
     25 H                     0.353032
     26 H                     0.266165
     27 H                     0.322285
     28 H                     0.284734
     29 H                     0.269440
     30 H                     0.343791
     31 H                     0.215734
  ----------------------------------------
  Sum of atomic charges =     0.000000

 -----------------------------------------------------------------
                    Cartesian Multipole Moments
 -----------------------------------------------------------------
    Charge (ESU x 10^10)
                -0.0000
    Dipole Moment (Debye)
         X      -1.1952      Y       1.1664      Z      -0.2681
       Tot       1.6914
    Quadrupole Moments (Debye-Ang)
        XX     -96.8815     XY       0.1296     YY     -83.9948
        XZ      -2.8992     YZ      -0.8446     ZZ     -78.4154
    Octopole Moments (Debye-Ang^2)
       XXX      -4.0493    XXY     -19.9155    XYY      -8.6953
       YYY      13.5775    XXZ       3.9125    XYZ     -18.7386
       YYZ     -11.9245    XZZ       4.3363    YZZ      -4.5700
       ZZZ      -5.5943
    Hexadecapole Moments (Debye-Ang^3)
      XXXX   -1483.0685   XXXY    -453.3925   XXYY    -430.2246
      XYYY    -422.7541   YYYY   -1308.9041   XXXZ    -536.8098
      XXYZ    -267.3667   XYYZ    -168.7837   YYYZ    -716.9702
      XXZZ    -880.4249   XYZZ    -151.4501   YYZZ    -791.8799
      XZZZ    -488.8040   YZZZ    -695.7845   ZZZZ   -3538.5456
 -----------------------------------------------------------------
Archival summary:
1\1\nid00524\SP\ProcedureUnspecified\BasisUnspecified\11416\meili\MonSep2712:30:212021MonSep2712:30:212021\0\\#,ProcedureUnspecified,BasisUnspecified,\\0,1\O\H,1,0.971318\C,1,1.36776,2,111.074\C,3,1.38924,1,120.358,2,-11.4755,0\H,4,1.07879,3,119.906,1,-0.0719799,0\C,4,1.38961,3,120.102,1,179.345,0\H,6,1.08135,4,118.908,3,-178.136,0\C,6,1.39491,4,120.801,3,0.550928,0\C,8,1.38643,6,118.551,4,-0.442558,0\H,9,1.08161,8,119.786,6,-178.23,0\C,9,1.38995,8,121.355,6,-0.14172,0\H,11,1.07917,9,120.533,8,-178.615,0\C,8,1.51278,6,121.655,4,-178.266,0\H,13,1.08423,8,106.685,6,76.359,0\H,13,1.09201,8,109.426,6,-168.07,0\H,13,1.1,8,115.574,6,-45.0007,0\H,2,2.43943,1,106.745,3,-93.3415,0\C,17,1.07573,2,140.809,1,36.8501,0\C,18,1.38611,17,119.775,2,35.5531,0\H,19,1.08048,18,120.073,17,0.829953,0\C,19,1.38284,18,120.196,17,-179.128,0\H,21,1.07924,19,119.354,18,-177.66,0\C,21,1.38681,19,119.878,18,0.131219,0\H,23,1.08149,21,119.988,19,-179.759,0\C,23,1.3848,21,119.904,19,-0.178231,0\H,25,1.08112,23,119.359,21,179.643,0\C,18,1.38758,17,119.994,2,-143.008,0\C,27,1.50159,18,120.188,17,-2.07124,0\H,28,1.09134,27,108.929,18,32.7617,0\H,28,1.09181,27,109.404,18,149.26,0\H,28,1.1,27,112.837,18,-88.1357,0\\\@

 Total job time:  101586.01s(wall), 63074.99s(cpu) 
 Mon Sep 27 12:30:25 2021

        *************************************************************
        *                                                           *
        *  Thank you very much for using Q-Chem.  Have a nice day.  *
        *                                                           *
        *************************************************************


