
Running Job 1 of 1 SSI-105TYR-149HIE-1_PCM_TZVPD.in
qchem SSI-105TYR-149HIE-1_PCM_TZVPD.in_63389.0 /tmp/qchem63389/ 0
/global/common/cori/software/qchem/5.2/exe/qcprog.exe_s SSI-105TYR-149HIE-1_PCM_TZVPD.in_63389.0 /tmp/qchem63389/
                  Welcome to Q-Chem
     A Quantum Leap Into The Future Of Chemistry


 Q-Chem 5.2, Q-Chem, Inc., Pleasanton, CA (2019)

 License issued to: National Energy Research Scientific Computing Center

 Yihan Shao,  Zhengting Gan,  E. Epifanovsky,  A. T. B. Gilbert,  M. Wormit,  
 J. Kussmann,  A. W. Lange,  A. Behn,  Jia Deng,  Xintian Feng,  D. Ghosh,  
 M. Goldey,  P. R. Horn,  L. D. Jacobson,  I. Kaliman,  T. Kus,  A. Landau,  
 Jie Liu,  E. I. Proynov,  R. M. Richard,  R. P. Steele,  E. J. Sundstrom,  
 H. L. Woodcock III,  P. M. Zimmerman,  D. Zuev,  B. Albrecht,  E. Alguire,  
 S. A. Baeppler,  D. Barton,  Z. Benda,  Y. A. Bernard,  E. J. Berquist,  
 K. B. Bravaya,  H. Burton,  D. Casanova,  Chun-Min Chang,  Yunqing Chen,  
 A. Chien,  K. D. Closser,  M. P. Coons,  S. Coriani,  S. Dasgupta,  
 A. L. Dempwolff,  M. Diedenhofen,  Hainam Do,  R. G. Edgar,  Po-Tung Fang,  
 S. Faraji,  S. Fatehi,  Qingguo Feng,  K. D. Fenk,  J. Fosso-Tande,  
 J. Gayvert,  Qinghui Ge,  A. Ghysels,  G. Gidofalvi,  J. Gomes,  
 J. Gonthier,  A. Gunina,  D. Hait,  M. W. D. Hanson-Heine,  
 P. H. P. Harbach,  A. W. Hauser,  M. F. Herbst,  J. E. Herr,  
 E. G. Hohenstein,  Z. C. Holden,  Kerwin Hui,  B. C. Huynh,  T.-C. Jagau,  
 Hyunjun Ji,  B. Kaduk,  K. Khistyaev,  Jaehoon Kim,  P. Klunzinger,  K. Koh,  
 D. Kosenkov,  L. Koulias,  T. Kowalczyk,  C. M. Krauter,  A. Kunitsa,  
 Ka Un Lao,  A. Laurent,  K. V. Lawler,  Joonho Lee,  D. Lefrancois,  
 S. Lehtola,  D. S. Levine,  Yi-Pei Li,  You-Sheng Lin,  Fenglai Liu,  
 E. Livshits,  A. Luenser,  P. Manohar,  E. Mansoor,  S. F. Manzer,  
 Shan-Ping Mao,  Yuezhi Mao,  N. Mardirossian,  A. V. Marenich,  
 T. Markovich,  L. A. Martinez-Martinez,  S. A. Maurer,  N. J. Mayhall,  
 S. C. McKenzie,  J.-M. Mewes,  P. Morgante,  A. F. Morrison,  
 J. W. Mullinax,  K. Nanda,  T. S. Nguyen-Beck,  R. Olivares-Amaya,  
 J. A. Parkhill,  Zheng Pei,  T. M. Perrine,  F. Plasser,  P. Pokhilko,  
 S. Prager,  A. Prociuk,  E. Ramos,  D. R. Rehn,  F. Rob,  M. Scheurer,  
 M. Schneider,  N. Sergueev,  S. M. Sharada,  S. Sharma,  D. W. Small,  
 T. Stauch,  T. Stein,  Yu-Chuan Su,  A. J. W. Thom,  A. Tkatchenko,  
 T. Tsuchimochi,  N. M. Tubman,  L. Vogt,  M. L. Vidal,  O. Vydrov,  
 M. A. Watson,  J. Wenzel,  M. de Wergifosse,  T. A. Wesolowski,  A. White,  
 J. Witte,  A. Yamada,  Jun Yang,  K. Yao,  S. Yeganeh,  S. R. Yost,  
 Zhi-Qiang You,  A. Zech,  Igor Ying Zhang,  Xing Zhang,  Yan Zhao,  
 Ying Zhu,  B. R. Brooks,  G. K. L. Chan,  C. J. Cramer,  M. S. Gordon,  
 W. J. Hehre,  A. Klamt,  M. W. Schmidt,  C. D. Sherrill,  D. G. Truhlar,  
 A. Aspuru-Guzik,  R. Baer,  A. T. Bell,  N. A. Besley,  Jeng-Da Chai,  
 A. E. DePrince, III,  R. A. DiStasio Jr.,  A. Dreuw,  B. D. Dunietz,  
 T. R. Furlani,  Chao-Ping Hsu,  Yousung Jung,  Jing Kong,  D. S. Lambrecht,  
 WanZhen Liang,  C. Ochsenfeld,  V. A. Rassolov,  L. V. Slipchenko,  
 J. E. Subotnik,  T. Van Voorhis,  J. M. Herbert,  A. I. Krylov,  
 P. M. W. Gill,  M. Head-Gordon

 Contributors to earlier versions of Q-Chem not listed above: 
 R. D. Adamson,  B. Austin,  J. Baker,  G. J. O. Beran,  K. Brandhorst,  
 S. T. Brown,  E. F. C. Byrd,  A. K. Chakraborty,  C.-L. Cheng,  
 Siu Hung Chien,  D. M. Chipman,  D. L. Crittenden,  H. Dachsel,  
 R. J. Doerksen,  A. D. Dutoi,  L. Fusti-Molnar,  W. A. Goddard III,  
 A. Golubeva-Zadorozhnaya,  S. R. Gwaltney,  G. Hawkins,  A. Heyden,  
 S. Hirata,  G. Kedziora,  F. J. Keil,  C. Kelley,  Jihan Kim,  R. A. King,  
 R. Z. Khaliullin,  P. P. Korambath,  W. Kurlancheek,  A. M. Lee,  M. S. Lee,  
 S. V. Levchenko,  Ching Yeh Lin,  D. Liotard,  R. C. Lochan,  I. Lotan,  
 P. E. Maslen,  N. Nair,  D. P. O'Neill,  D. Neuhauser,  E. Neuscamman,  
 C. M. Oana,  R. Olson,  B. Peters,  R. Peverati,  P. A. Pieniazek,  
 Y. M. Rhee,  J. Ritchie,  M. A. Rohrdanz,  E. Rosta,  N. J. Russ,  
 H. F. Schaefer III,  N. E. Schultz,  N. Shenvi,  A. C. Simmonett,  A. Sodt,  
 D. Stuck,  K. S. Thanthiriwatte,  V. Vanovschi,  Tao Wang,  A. Warshel,  
 C. F. Williams,  Q. Wu,  X. Xu,  W. Zhang

 Please cite Q-Chem as follows:
 Y. Shao et al., Mol. Phys. 113, 184-215 (2015)
 DOI: 10.1080/00268976.2014.952696

 Q-Chem 5.2.0 for Intel X86 EM64T Linux

 Parts of Q-Chem use Armadillo 8.300.2 (Tropical Shenanigans).
 http://arma.sourceforge.net/

 Q-Chem begins on Sun Sep 26 13:12:21 2021  

Host: cori01
0

     Scratch files written to /tmp/qchem63389//
 May1019 |scratch|qcdevops|jenkins|workspace|build_RNUM -1
Processing $rem in /global/common/cori/software/qchem/5.2/config/preferences:
	 MEM_TOTAL  96000 
NAlpha2: 102
NElect   102
Mult     1
Symmetry turned off for PCM/SM12/SMD calculation

 Q-Chem warning in module libgen/rem_setup.C, line 2803:

 Neither GIA nor STOLL is specified by user. Use STOLL as the default


Checking the input file for inconsistencies... 	...done.

--------------------------------------------------------------
User input:
--------------------------------------------------------------
$comment
SSI-105TYR-149HIE-1.pdb
$end

$molecule
0 1
--
0 1
C   -0.983635813936   -3.354787230805   -0.386124040912
C   -0.281635813936   -1.550787230805   -2.017124040912
C    0.039364186064   -2.390787230805   -0.946124040912
C    0.645364186064   -0.624787230805   -2.501124040912
C    1.903364186064   -0.528787230805   -1.907124040912
C    1.307364186064   -2.284787230805   -0.364124040912
C    2.237364186064   -1.359787230805   -0.839124040912
O    2.791364186064    0.391212769195   -2.362124040912
H   -1.267635813936   -1.586787230805   -2.462124040912
H    0.385364186064    0.018212769195   -3.324124040912
H   -1.903635813936   -2.802787230805   -0.217124040912
H   -0.639635813936   -3.699787230805    0.589875959088
H    1.569364186064   -2.900787230805    0.482875959088
H    2.426364186064    0.911212769195   -3.082124040912
H    3.213364186064   -1.275787230805   -0.385124040912
H   -1.212155813936   -4.235097230805   -1.004854040912
--
0 1
C   -2.408635813936    2.557212769195    3.667875959088
C   -0.764635813936    0.780212769195    0.961875959088
C   -1.615635813936    2.143212769195    2.464875959088
C   -0.992635813936    2.897212769195    1.522875959088
N   -1.460635813936    0.823212769195    2.093875959088
N   -0.470635813936    2.022212769195    0.594875959088
H   -0.488635813936   -0.116787230805    0.422875959088
H    0.048364186064    2.272212769195   -0.239124040912
H   -0.948635813936    3.977212769195    1.488875959088
H   -1.997635813936    3.484212769195    4.064875959088
H   -2.288635813936    1.788212769195    4.431875959088
H   -3.480655813936    2.676002769195    3.451885959088
$end

$rem
JOBTYPE			EDA
EDA2			1
method			wB97X-V
BASIS			def2-TZVPD
XC_GRID			000099000590
NL_GRID			1
UNRESTRICTED		FALSE
MAX_SCF_CYCLES		200
SYMMETRY		FALSE
SYM_IGNORE		TRUE
MEM_STATIC		2000
BASIS_LIN_DEP_THRESH 	6
THRESH 			14
SCF_CONVERGENCE 	8
SCF_PRINT_FRGM 		TRUE
SOLVENT_METHOD          PCM
$end

$PCM
THEORY                  CPCM
METHOD                  SWIG
SOLVER                  INVERSION
RADII                   UFF
HPOINTS                 302
HEAVYPOINTS             302
PRINTLEVEL              0
$END

$SOLVENT
DIELECTRIC              78.390000 ! water
$END
--------------------------------------------------------------
 ----------------------------------------------------------------
             Standard Nuclear Orientation (Angstroms)
    I     Atom           X                Y                Z
 ----------------------------------------------------------------
    1      C      -0.9836358139    -3.3547872308    -0.3861240409
    2      C      -0.2816358139    -1.5507872308    -2.0171240409
    3      C       0.0393641861    -2.3907872308    -0.9461240409
    4      C       0.6453641861    -0.6247872308    -2.5011240409
    5      C       1.9033641861    -0.5287872308    -1.9071240409
    6      C       1.3073641861    -2.2847872308    -0.3641240409
    7      C       2.2373641861    -1.3597872308    -0.8391240409
    8      O       2.7913641861     0.3912127692    -2.3621240409
    9      H      -1.2676358139    -1.5867872308    -2.4621240409
   10      H       0.3853641861     0.0182127692    -3.3241240409
   11      H      -1.9036358139    -2.8027872308    -0.2171240409
   12      H      -0.6396358139    -3.6997872308     0.5898759591
   13      H       1.5693641861    -2.9007872308     0.4828759591
   14      H       2.4263641861     0.9112127692    -3.0821240409
   15      H       3.2133641861    -1.2757872308    -0.3851240409
   16      H      -1.2121558139    -4.2350972308    -1.0048540409
   17      C      -2.4086358139     2.5572127692     3.6678759591
   18      C      -0.7646358139     0.7802127692     0.9618759591
   19      C      -1.6156358139     2.1432127692     2.4648759591
   20      C      -0.9926358139     2.8972127692     1.5228759591
   21      N      -1.4606358139     0.8232127692     2.0938759591
   22      N      -0.4706358139     2.0222127692     0.5948759591
   23      H      -0.4886358139    -0.1167872308     0.4228759591
   24      H       0.0483641861     2.2722127692    -0.2391240409
   25      H      -0.9486358139     3.9772127692     1.4888759591
   26      H      -1.9976358139     3.4842127692     4.0648759591
   27      H      -2.2886358139     1.7882127692     4.4318759591
   28      H      -3.4806558139     2.6760027692     3.4518859591
 ----------------------------------------------------------------
 Nuclear Repulsion Energy =         816.15432400 hartrees
 There are       51 alpha and       51 beta electrons
 Requested basis set is def2-TZVPD
 There are 253 shells and 647 basis functions

 Total QAlloc Memory Limit  96000 MB
 Mega-Array Size      1956 MB
 MEM_STATIC part      2000 MB
 Discretize the solute cavity surface with Lebedev spheres
	Using 302 Lebedev grid points for each H atom
	Using 302 Lebedev grid points for other atoms
	Atomic van der Waals radii will be scaled by 1.20
 Remove points where switching function is < 1.0e-08
 Keep 3198 surface tesserae and discard 5258 interior tesserae
 Molecular Surface Area = 317.771 Angst**2
 A cutoff of  1.0D-14 yielded  27182 shell pairs
 There are    178562 function pairs (    226205 Cartesian)
 Smallest overlap matrix eigenvalue = 5.17E-07
 Linear dependence detected in AO basis
 Tighter screening thresholds may be required for diffuse basis sets
 Use S2THRESH > 14 and THRESH = 14 in case of SCF convergence issues
 Number of orthogonalized atomic orbitals = 646
 Maximum deviation from orthogonality = 2.449E-10

 Scale SEOQF with 1.000000e-01/1.000000e-01/1.000000e-01

 Standard Electronic Orientation quadrupole field applied
 Nucleus-field energy     =    -0.0000000028 hartrees

 -----------------------------------------------------------------------
  General SCF calculation program by
  Eric Jon Sundstrom, Paul Horn, Yuezhi Mao, Dmitri Zuev, Alec White,
  David Stuck, Shaama M.S., Shane Yost, Joonho Lee, David Small,
  Daniel Levine, Susi Lehtola, Hugh Burton, Evgeny Epifanovsky
 -----------------------------------------------------------------------
================================================================
                 ALMO-EDA with the EDA2 driver                  
================================================================
 The second-generation ALMO-EDA (for DFT):                      
 P. R. Horn, Y. Mao and M. Head-Gordon, PCCP, 18, 23067 (2016)  
 Decomposition of the frozen energy:                            
 P. R. Horn, Y. Mao and M. Head-Gordon, JCP, 144, 114107 (2016) 
 FERF model for polarization:                                   
 P. R. Horn and M. Head-Gordon, JCP, 143, 114111 (2015)         
Using eda2 option set 1
Option set summary: Frozen orbital wavefunction, initial wavefunction decomposition, and nDQ polarization.
--------------------------------
Printing EDA Options
--------------------------------
eda_child_super_basis      0
fragmo_guess_mode          0
child_mp                   1
child_mp_orders            232
cls_elec                   1
cls_disp                   0
scfmi_mode                 1
scfmi_occs                 0
scfmi_virts                0
frz_relax                  0
frz_relax_method           0
dc_pen_start               0
dc_pen_conv                0
dc_pen_increment           0
dc_pen_steps               0
dc_pen_thresh_factor       0
dc_pen_pre_newton_thresh   0
frz_ortho_decomp           1
frz_ortho_decomp_conv      6
frgm_method                2
scfmi_freeze_ss            0
separate_rehyb             0
plot_diff_den              0
eda_nocv                   0
eda_vct_relax              1
disp_free_x                0
disp_free_c                0
eda_bsse                   0
eda_pct_a                  0
eda_covp                   0
--------------------------------
Attempting to make child job directory: /tmp/qchem63389//Frg1/
Attempting to make child job directory: /tmp/qchem63389//Frg2/
Creating input file /tmp/qchem63389/Frg1.input
using default PutDataFrgm: nothing
calling putenv with: QCSCRATCH=/tmp/qchem63389/ 
calling putenv with: QCLOCALSCR=/tmp/qchem63389/ 
Spawning Job For Fragment 0
                  Welcome to Q-Chem
     A Quantum Leap Into The Future Of Chemistry


 Q-Chem 5.2, Q-Chem, Inc., Pleasanton, CA (2019)

 License issued to: National Energy Research Scientific Computing Center

 Yihan Shao,  Zhengting Gan,  E. Epifanovsky,  A. T. B. Gilbert,  M. Wormit,  
 J. Kussmann,  A. W. Lange,  A. Behn,  Jia Deng,  Xintian Feng,  D. Ghosh,  
 M. Goldey,  P. R. Horn,  L. D. Jacobson,  I. Kaliman,  T. Kus,  A. Landau,  
 Jie Liu,  E. I. Proynov,  R. M. Richard,  R. P. Steele,  E. J. Sundstrom,  
 H. L. Woodcock III,  P. M. Zimmerman,  D. Zuev,  B. Albrecht,  E. Alguire,  
 S. A. Baeppler,  D. Barton,  Z. Benda,  Y. A. Bernard,  E. J. Berquist,  
 K. B. Bravaya,  H. Burton,  D. Casanova,  Chun-Min Chang,  Yunqing Chen,  
 A. Chien,  K. D. Closser,  M. P. Coons,  S. Coriani,  S. Dasgupta,  
 A. L. Dempwolff,  M. Diedenhofen,  Hainam Do,  R. G. Edgar,  Po-Tung Fang,  
 S. Faraji,  S. Fatehi,  Qingguo Feng,  K. D. Fenk,  J. Fosso-Tande,  
 J. Gayvert,  Qinghui Ge,  A. Ghysels,  G. Gidofalvi,  J. Gomes,  
 J. Gonthier,  A. Gunina,  D. Hait,  M. W. D. Hanson-Heine,  
 P. H. P. Harbach,  A. W. Hauser,  M. F. Herbst,  J. E. Herr,  
 E. G. Hohenstein,  Z. C. Holden,  Kerwin Hui,  B. C. Huynh,  T.-C. Jagau,  
 Hyunjun Ji,  B. Kaduk,  K. Khistyaev,  Jaehoon Kim,  P. Klunzinger,  K. Koh,  
 D. Kosenkov,  L. Koulias,  T. Kowalczyk,  C. M. Krauter,  A. Kunitsa,  
 Ka Un Lao,  A. Laurent,  K. V. Lawler,  Joonho Lee,  D. Lefrancois,  
 S. Lehtola,  D. S. Levine,  Yi-Pei Li,  You-Sheng Lin,  Fenglai Liu,  
 E. Livshits,  A. Luenser,  P. Manohar,  E. Mansoor,  S. F. Manzer,  
 Shan-Ping Mao,  Yuezhi Mao,  N. Mardirossian,  A. V. Marenich,  
 T. Markovich,  L. A. Martinez-Martinez,  S. A. Maurer,  N. J. Mayhall,  
 S. C. McKenzie,  J.-M. Mewes,  P. Morgante,  A. F. Morrison,  
 J. W. Mullinax,  K. Nanda,  T. S. Nguyen-Beck,  R. Olivares-Amaya,  
 J. A. Parkhill,  Zheng Pei,  T. M. Perrine,  F. Plasser,  P. Pokhilko,  
 S. Prager,  A. Prociuk,  E. Ramos,  D. R. Rehn,  F. Rob,  M. Scheurer,  
 M. Schneider,  N. Sergueev,  S. M. Sharada,  S. Sharma,  D. W. Small,  
 T. Stauch,  T. Stein,  Yu-Chuan Su,  A. J. W. Thom,  A. Tkatchenko,  
 T. Tsuchimochi,  N. M. Tubman,  L. Vogt,  M. L. Vidal,  O. Vydrov,  
 M. A. Watson,  J. Wenzel,  M. de Wergifosse,  T. A. Wesolowski,  A. White,  
 J. Witte,  A. Yamada,  Jun Yang,  K. Yao,  S. Yeganeh,  S. R. Yost,  
 Zhi-Qiang You,  A. Zech,  Igor Ying Zhang,  Xing Zhang,  Yan Zhao,  
 Ying Zhu,  B. R. Brooks,  G. K. L. Chan,  C. J. Cramer,  M. S. Gordon,  
 W. J. Hehre,  A. Klamt,  M. W. Schmidt,  C. D. Sherrill,  D. G. Truhlar,  
 A. Aspuru-Guzik,  R. Baer,  A. T. Bell,  N. A. Besley,  Jeng-Da Chai,  
 A. E. DePrince, III,  R. A. DiStasio Jr.,  A. Dreuw,  B. D. Dunietz,  
 T. R. Furlani,  Chao-Ping Hsu,  Yousung Jung,  Jing Kong,  D. S. Lambrecht,  
 WanZhen Liang,  C. Ochsenfeld,  V. A. Rassolov,  L. V. Slipchenko,  
 J. E. Subotnik,  T. Van Voorhis,  J. M. Herbert,  A. I. Krylov,  
 P. M. W. Gill,  M. Head-Gordon

 Contributors to earlier versions of Q-Chem not listed above: 
 R. D. Adamson,  B. Austin,  J. Baker,  G. J. O. Beran,  K. Brandhorst,  
 S. T. Brown,  E. F. C. Byrd,  A. K. Chakraborty,  C.-L. Cheng,  
 Siu Hung Chien,  D. M. Chipman,  D. L. Crittenden,  H. Dachsel,  
 R. J. Doerksen,  A. D. Dutoi,  L. Fusti-Molnar,  W. A. Goddard III,  
 A. Golubeva-Zadorozhnaya,  S. R. Gwaltney,  G. Hawkins,  A. Heyden,  
 S. Hirata,  G. Kedziora,  F. J. Keil,  C. Kelley,  Jihan Kim,  R. A. King,  
 R. Z. Khaliullin,  P. P. Korambath,  W. Kurlancheek,  A. M. Lee,  M. S. Lee,  
 S. V. Levchenko,  Ching Yeh Lin,  D. Liotard,  R. C. Lochan,  I. Lotan,  
 P. E. Maslen,  N. Nair,  D. P. O'Neill,  D. Neuhauser,  E. Neuscamman,  
 C. M. Oana,  R. Olson,  B. Peters,  R. Peverati,  P. A. Pieniazek,  
 Y. M. Rhee,  J. Ritchie,  M. A. Rohrdanz,  E. Rosta,  N. J. Russ,  
 H. F. Schaefer III,  N. E. Schultz,  N. Shenvi,  A. C. Simmonett,  A. Sodt,  
 D. Stuck,  K. S. Thanthiriwatte,  V. Vanovschi,  Tao Wang,  A. Warshel,  
 C. F. Williams,  Q. Wu,  X. Xu,  W. Zhang

 Please cite Q-Chem as follows:
 Y. Shao et al., Mol. Phys. 113, 184-215 (2015)
 DOI: 10.1080/00268976.2014.952696

 Q-Chem 5.2.0 for Intel X86 EM64T Linux

 Parts of Q-Chem use Armadillo 8.300.2 (Tropical Shenanigans).
 http://arma.sourceforge.net/

 Q-Chem begins on Sun Sep 26 13:12:28 2021  

Host: cori01
0

     Scratch files written to /tmp/qchem63389//Frg1//
 May1019 |scratch|qcdevops|jenkins|workspace|build_RNUM -1
Processing $rem in /global/common/cori/software/qchem/5.2/config/preferences:
	 MEM_TOTAL  96000 
NAlpha2: 58
NElect   58
Mult     1
Symmetry turned off for PCM/SM12/SMD calculation

Checking the input file for inconsistencies... 	...done.

--------------------------------------------------------------
User input:
--------------------------------------------------------------
$molecule
0 1
 6	-0.9836358139	-3.3547872308	-0.3861240409
 6	-0.2816358139	-1.5507872308	-2.0171240409
 6	0.0393641861	-2.3907872308	-0.9461240409
 6	0.6453641861	-0.6247872308	-2.5011240409
 6	1.9033641861	-0.5287872308	-1.9071240409
 6	1.3073641861	-2.2847872308	-0.3641240409
 6	2.2373641861	-1.3597872308	-0.8391240409
 8	2.7913641861	0.3912127692	-2.3621240409
 1	-1.2676358139	-1.5867872308	-2.4621240409
 1	0.3853641861	0.0182127692	-3.3241240409
 1	-1.9036358139	-2.8027872308	-0.2171240409
 1	-0.6396358139	-3.6997872308	0.5898759591
 1	1.5693641861	-2.9007872308	0.4828759591
 1	2.4263641861	0.9112127692	-3.0821240409
 1	3.2133641861	-1.2757872308	-0.3851240409
 1	-1.2121558139	-4.2350972308	-1.0048540409
$end
$rem
EDA2		1
METHOD		WB97X-V
BASIS		DEF2-TZVPD
XC_GRID		000099000590
NL_GRID		1
UNRESTRICTED		FALSE
MAX_SCF_CYCLES		200
SYMMETRY		FALSE
SYM_IGNORE		TRUE
BASIS_LIN_DEP_THRESH		6
THRESH		14
SCF_CONVERGENCE		8
SCF_PRINT_FRGM		TRUE
SOLVENT_METHOD		PCM
!required keywords
JOBTYPE		SP
SYM_IGNORE		TRUE
SUBSYSTEM		TRUE
GEN_SCFMAN		TRUE
CHILD_INSTRUCTION		2
SYM_IGNORE		TRUE
SCFMI		0
RI_K 0		
PARI_K 0		
MIN_PARI_K 0		
IARI_K 0		
OCC_RI_K 0		
PURECART		1111
MEM_STATIC		2000
MEM_TOTAL		96000
GUI		0
CHILD_MP		1
CHILD_MP_ORDERS		232
FRZ_RELAX		0
FRZ_RELAX_METHOD		0
EDA_CLS_ELEC		1
EDA_CLS_DISP		0
FRZ_ORTHO_DECOMP		1
EDA2		FALSE
FRGM_METHOD		FALSE
CIS_N_ROOTS  0
LOCAL_CIS    0
CIS_RLX_DNS  1
$end
$pcm
THEORY                  CPCM
METHOD                  SWIG
SOLVER                  INVERSION
RADII                   UFF
HPOINTS                 302
HEAVYPOINTS             302
PRINTLEVEL              0
$end
$solvent
DIELECTRIC              78.390000 ! water
$end
--------------------------------------------------------------
 ----------------------------------------------------------------
             Standard Nuclear Orientation (Angstroms)
    I     Atom           X                Y                Z
 ----------------------------------------------------------------
    1      C      -0.9836358139    -3.3547872308    -0.3861240409
    2      C      -0.2816358139    -1.5507872308    -2.0171240409
    3      C       0.0393641861    -2.3907872308    -0.9461240409
    4      C       0.6453641861    -0.6247872308    -2.5011240409
    5      C       1.9033641861    -0.5287872308    -1.9071240409
    6      C       1.3073641861    -2.2847872308    -0.3641240409
    7      C       2.2373641861    -1.3597872308    -0.8391240409
    8      O       2.7913641861     0.3912127692    -2.3621240409
    9      H      -1.2676358139    -1.5867872308    -2.4621240409
   10      H       0.3853641861     0.0182127692    -3.3241240409
   11      H      -1.9036358139    -2.8027872308    -0.2171240409
   12      H      -0.6396358139    -3.6997872308     0.5898759591
   13      H       1.5693641861    -2.9007872308     0.4828759591
   14      H       2.4263641861     0.9112127692    -3.0821240409
   15      H       3.2133641861    -1.2757872308    -0.3851240409
   16      H      -1.2121558139    -4.2350972308    -1.0048540409
 ----------------------------------------------------------------
 Nuclear Repulsion Energy =         342.68832013 hartrees
 There are       29 alpha and       29 beta electrons
 Requested basis set is def2-TZVPD
 There are 145 shells and 371 basis functions

 Total QAlloc Memory Limit  96000 MB
 Mega-Array Size      1956 MB
 MEM_STATIC part      2000 MB
 Discretize the solute cavity surface with Lebedev spheres
	Using 302 Lebedev grid points for each H atom
	Using 302 Lebedev grid points for other atoms
	Atomic van der Waals radii will be scaled by 1.20
 Remove points where switching function is < 1.0e-08
 Keep 1859 surface tesserae and discard 2973 interior tesserae
 Molecular Surface Area = 190.444 Angst**2
 A cutoff of  1.0D-14 yielded  10043 shell pairs
 There are     67079 function pairs (     85778 Cartesian)
 Smallest overlap matrix eigenvalue = 5.72E-07
 Linear dependence detected in AO basis
 Tighter screening thresholds may be required for diffuse basis sets
 Use S2THRESH > 14 and THRESH = 14 in case of SCF convergence issues
 Number of orthogonalized atomic orbitals = 370
 Maximum deviation from orthogonality = 2.637E-10

 Scale SEOQF with 1.000000e-01/1.000000e-01/1.000000e-01

 Standard Electronic Orientation quadrupole field applied
 Nucleus-field energy     =     0.0000000032 hartrees
 Guess from superposition of atomic densities
 Warning:  Energy on first SCF cycle will be non-variational
 SAD guess density has 57.738434 electrons

 -----------------------------------------------------------------------
  General SCF calculation program by
  Eric Jon Sundstrom, Paul Horn, Yuezhi Mao, Dmitri Zuev, Alec White,
  David Stuck, Shaama M.S., Shane Yost, Joonho Lee, David Small,
  Daniel Levine, Susi Lehtola, Hugh Burton, Evgeny Epifanovsky
 -----------------------------------------------------------------------
 Exchange:     0.1670 Hartree-Fock + 1.0000 wB97X-V + LR-HF
 Correlation:  1.0000 wB97X-V
 Using Euler-Maclaurin-Lebedev (99,590) quadrature formula
 Nonlocal Correlation:  VV10 with C = 0.0100 and b = 6.00 and scale = 1.00000
 Grid used for NLC:  SG-1 standard quadrature
Energy prior to optimization (guess energy) = -346.498163201296
Begin Timing: Total SCF Calculation
begin iterations for algorithm: DIIS         
the SCF tolerance is set to 1.00e-08
    1    -346.4981632013      5.16e-03     00000 
    2    -346.4358358860      5.58e-03     00000 
    3    -346.8115901691      5.30e-04     00000 
    4    -346.8156535545      1.80e-04     00000 
    5    -346.8162559145      2.47e-05     00000 
    6    -346.8162751980      1.25e-05     00000 
    7    -346.8162784500      3.90e-06     00000 
    8    -346.8162788857      1.29e-06     00000 
    9    -346.8162789497      5.87e-07     00000 
   10    -346.8162789621      1.57e-07     00000 
   11    -346.8162789646      6.87e-08     00000 
   12    -346.8162789649      3.49e-08     00000 
   13    -346.8162789650      7.64e-09     00000 Convergence criterion met
Timing for Total SCF: 2208.00s (wall), 4385.62s (cpu)

************** Final PCM Free Energy Summary **************
 G_electrostatic  =      -0.00561091 hartree =      -3.52089842 kcal/mol
 G_cavitation     =       0.00000000 hartree =       0.00000000 kcal/mol
 G_dispersion     =       0.00000000 hartree =       0.00000000 kcal/mol
 G_repulsion      =       0.00000000 hartree =       0.00000000 kcal/mol
 --------------------------------------------------
 Non-electrostatic Free Energy =       0.00000000 hartree =       0.00000000 kcal/mol
 Total                         =      -0.00561091 hartree =      -3.52089842 kcal/mol
 --------------------------------------------------
 SCF Energy (H0 + V/2)                       =    -346.81627896 
 Solute Internal Energy (H0)                 =    -346.81066806 
 Total Free Energy (H0 + V/2 + non-elec)     =    -346.81627896 hartree
                                             = -217630.49974751 kcal/mol
***********************************************************

E_pcm = -0.0056109088
Multipole orders to be included
        2
        3
computing dipole RHS
computing quadrupole RHS
total number of RHS in solve_reponses: 8
RHS batch sizes
        8
Beginning Block Conjugate Gradient Iterations. Batch Number: 0
computing hessian-vector products by finite difference
              1      6.06e-01     00000 Conjugate Gradient Iteration
computing hessian-vector products by finite difference
              2      1.91e-01     00000 Conjugate Gradient Iteration
computing hessian-vector products by finite difference
              3      4.70e-02     00000 Conjugate Gradient Iteration
computing hessian-vector products by finite difference
              4      1.37e-02     00000 Conjugate Gradient Iteration
computing hessian-vector products by finite difference
              5      4.09e-03     00000 Conjugate Gradient Iteration
computing hessian-vector products by finite difference
              6      1.40e-03     00000 Conjugate Gradient Iteration
computing hessian-vector products by finite difference
              7      3.41e-04     00000 Conjugate Gradient Iteration
computing hessian-vector products by finite difference
              8      6.36e-05     00000 Conjugate Gradient Iteration
computing hessian-vector products by finite difference
              9      1.14e-05     00000 Conjugate Gradient Iteration
computing hessian-vector products by finite difference
             10      1.61e-06     00000 Conjugate Gradient Iteration
computing hessian-vector products by finite difference
             11      2.60e-07     00000 Conjugate Gradient Iteration
computing hessian-vector products by finite difference
             12      4.19e-08     00000 Conjugate Gradient Iteration
computing hessian-vector products by finite difference
             13      9.55e-09     00000 CG Converged
batch 0 complete
Done Calculating Responses
TESTING ORTHOGONALIZATION OF MULTIPOLE BASIS
Multipole virts passed orthogonality test
Virts Per Order
           87
          145
 
 --------------------------------------------------------------
 
                    Orbital Energies (a.u.)
 --------------------------------------------------------------
 
 Alpha MOs
 -- Occupied --
-19.2457 -10.3363 -10.2781 -10.2759 -10.2758 -10.2726 -10.2718 -10.2614
 -1.1987  -0.9940  -0.9007  -0.8841  -0.8108  -0.7494  -0.7156  -0.6676
 -0.6030  -0.5821  -0.5516  -0.5410  -0.5346  -0.5219  -0.5106  -0.4774
 -0.4565  -0.4436  -0.4411  -0.3527  -0.3128
 -- Virtual --
  0.0578   0.0583   0.0683   0.0775   0.0831   0.0941   0.1086   0.1101
  0.1134   0.1311   0.1439   0.1510   0.1562   0.1696   0.1768   0.1916
  0.1998   0.2024   0.2133   0.2238   0.2348   0.2391   0.2481   0.2536
  0.2623   0.2670   0.2720   0.2772   0.2786   0.2938   0.2949   0.3030
  0.3049   0.3062   0.3103   0.3257   0.3324   0.3385   0.3439   0.3485
  0.3543   0.3551   0.3632   0.3718   0.3745   0.3787   0.3813   0.3917
  0.3946   0.3964   0.3981   0.4049   0.4123   0.4181   0.4257   0.4323
  0.4328   0.4514   0.4552   0.4609   0.4718   0.4743   0.4797   0.4849
  0.4859   0.4893   0.4977   0.5016   0.5114   0.5144   0.5313   0.5338
  0.5425   0.5457   0.5484   0.5504   0.5590   0.5686   0.5741   0.5905
  0.6033   0.6068   0.6133   0.6279   0.6391   0.6569   0.6634   0.6702
  0.6758   0.6837   0.6896   0.6970   0.6989   0.7049   0.7178   0.7288
  0.7322   0.7367   0.7463   0.7478   0.7584   0.7649   0.7797   0.7822
  0.7881   0.7904   0.7966   0.7994   0.8062   0.8162   0.8269   0.8297
  0.8407   0.8491   0.8549   0.8568   0.8645   0.8747   0.8791   0.8861
  0.9033   0.9079   0.9298   0.9439   0.9595   0.9840   0.9871   1.0122
  1.0217   1.0358   1.0395   1.0476   1.0541   1.0693   1.0717   1.0890
  1.0976   1.1184   1.1275   1.1660   1.1951   1.2365   1.2763   1.2962
  1.3055   1.3138   1.3288   1.3551   1.3731   1.3764   1.3956   1.4335
  1.4496   1.4634   1.4687   1.4851   1.5256   1.5624   1.6080   1.6243
  1.6338   1.6408   1.6729   1.6821   1.7044   1.7273   1.7622   1.7981
  1.8123   1.8289   1.8335   1.8583   1.8665   1.8770   1.9149   1.9180
  1.9342   1.9529   1.9780   1.9854   1.9883   2.0257   2.0383   2.0486
  2.0558   2.0710   2.0845   2.1086   2.1194   2.1574   2.1973   2.2042
  2.2157   2.2364   2.2708   2.2823   2.3080   2.3178   2.3358   2.3668
  2.3968   2.4000   2.4276   2.4642   2.4816   2.4930   2.5236   2.5496
  2.5738   2.6102   2.6268   2.6360   2.6467   2.6698   2.6873   2.7384
  2.7584   2.7627   2.7756   2.7945   2.8085   2.8303   2.8624   2.8662
  2.9054   2.9136   2.9339   2.9456   2.9667   2.9756   2.9772   3.0009
  3.0198   3.0381   3.0566   3.0742   3.0985   3.1227   3.1460   3.1631
  3.1831   3.1981   3.2105   3.2181   3.2400   3.2587   3.2887   3.2931
  3.3105   3.3556   3.3778   3.3856   3.3965   3.4097   3.4444   3.4541
  3.4578   3.4731   3.4871   3.5134   3.5181   3.5227   3.5380   3.5436
  3.5493   3.5626   3.5745   3.5846   3.5984   3.6314   3.6432   3.6689
  3.6967   3.6997   3.7351   3.7521   3.7897   3.8158   3.8461   3.8989
  3.9287   3.9495   3.9740   3.9891   4.0386   4.0791   4.1398   4.1583
  4.2458   4.2666   4.2885   4.3118   4.3147   4.3318   4.3400   4.3519
  4.3696   4.3850   4.4219   4.4585   4.4944   4.5275   4.5751   4.6136
  4.7292   4.7345   4.7880   4.8066   4.8475   4.9235   5.0227   5.0562
  5.0850   5.1232   5.1532   5.2910   5.3337   5.3957   5.4386   5.5332
  5.6185   5.6444   5.7082   5.7634   5.9545   6.2172   6.4938   6.6024
  6.6282   6.8749   7.0176   7.2993   7.4607  22.6693  22.6800  22.9285
 22.9856  23.0202  23.1717  23.4966  44.4184
 --------------------------------------------------------------
 
          Ground-State Mulliken Net Atomic Charges

     Atom                 Charge (a.u.)
  ----------------------------------------
      1 C                    -1.004938
      2 C                    -0.636987
      3 C                     0.567257
      4 C                    -0.351080
      5 C                     0.811381
      6 C                    -0.424659
      7 C                    -0.753663
      8 O                    -0.482043
      9 H                     0.334445
     10 H                     0.281398
     11 H                     0.248939
     12 H                     0.266911
     13 H                     0.297638
     14 H                     0.289758
     15 H                     0.331734
     16 H                     0.223909
  ----------------------------------------
  Sum of atomic charges =     0.000000

 -----------------------------------------------------------------
                    Cartesian Multipole Moments
 -----------------------------------------------------------------
    Charge (ESU x 10^10)
                -0.0000
    Dipole Moment (Debye)
         X      -1.5016      Y       0.2779      Z      -0.8714
       Tot       1.7582
    Quadrupole Moments (Debye-Ang)
        XX     -51.5873     XY       2.3599     YY     -45.9466
        XZ       2.9436     YZ      -6.0810     ZZ     -40.9388
    Octopole Moments (Debye-Ang^2)
       XXX    -146.9549    XXY      70.7466    XYY     -45.7755
       YYY     215.7697    XXZ      76.4538    XYZ     -14.2236
       YYZ      71.1372    XZZ     -40.0457    YZZ      91.5725
       ZZZ     168.5248
    Hexadecapole Moments (Debye-Ang^3)
      XXXX    -857.7044   XXXY      15.2222   XXYY    -319.9190
      XYYY      46.3449   YYYY   -1123.6020   XXXZ     279.4773
      XXYZ     -73.6215   XYYZ      87.5015   YYYZ    -195.3402
      XXZZ    -276.8007   XYZZ      47.9354   YYZZ    -331.8082
      XZZZ     188.9602   YZZZ    -237.4272   ZZZZ    -731.8650
 -----------------------------------------------------------------
Archival summary:
1\1\nid00531\SP\ProcedureUnspecified\BasisUnspecified\178\meili\MonSep2700:11:362021MonSep2700:11:362021\0\\#,ProcedureUnspecified,BasisUnspecified,\\0,1\C\O,1,1.35719\H,2,0.960221,1,111.701\C,1,1.39382,2,120.281,3,-178.417,0\H,4,1.0797,1,119.5,2,-0.858244,0\C,1,1.39449,2,119.611,3,0.6017,0\H,6,1.07628,1,120.167,2,0.8119,0\C,4,1.39504,1,119.767,2,178.819,0\H,8,1.07959,4,118.926,1,-178.157,0\C,6,1.3968,1,119.784,2,-178.635,0\H,10,1.08237,6,118.957,1,177.579,0\C,10,1.39846,6,120.746,1,-0.371144,0\C,12,1.51308,10,120.726,6,177.524,0\H,13,1.08612,12,107.847,10,-48.9709,0\H,13,1.09084,12,108.628,10,-164.345,0\H,13,1.1,12,116.241,10,73.1364,0\\\@

 Total job time:  39550.25s(wall), 78501.30s(cpu) 
 Mon Sep 27 00:11:38 2021

        *************************************************************
        *                                                           *
        *  Thank you very much for using Q-Chem.  Have a nice day.  *
        *                                                           *
        *************************************************************


Done Job For Fragment 0
calling putenv with: QCSCRATCH=/global/cscratch1/sd/meili 
calling putenv with: QCLOCALSCR=/tmp 
calling putenv with: QCTHREADS=32 
Creating input file /tmp/qchem63389/Frg2.input
using default PutDataFrgm: nothing
calling putenv with: QCSCRATCH=/tmp/qchem63389/ 
calling putenv with: QCLOCALSCR=/tmp/qchem63389/ 
Spawning Job For Fragment 1
                  Welcome to Q-Chem
     A Quantum Leap Into The Future Of Chemistry


 Q-Chem 5.2, Q-Chem, Inc., Pleasanton, CA (2019)

 License issued to: National Energy Research Scientific Computing Center

 Yihan Shao,  Zhengting Gan,  E. Epifanovsky,  A. T. B. Gilbert,  M. Wormit,  
 J. Kussmann,  A. W. Lange,  A. Behn,  Jia Deng,  Xintian Feng,  D. Ghosh,  
 M. Goldey,  P. R. Horn,  L. D. Jacobson,  I. Kaliman,  T. Kus,  A. Landau,  
 Jie Liu,  E. I. Proynov,  R. M. Richard,  R. P. Steele,  E. J. Sundstrom,  
 H. L. Woodcock III,  P. M. Zimmerman,  D. Zuev,  B. Albrecht,  E. Alguire,  
 S. A. Baeppler,  D. Barton,  Z. Benda,  Y. A. Bernard,  E. J. Berquist,  
 K. B. Bravaya,  H. Burton,  D. Casanova,  Chun-Min Chang,  Yunqing Chen,  
 A. Chien,  K. D. Closser,  M. P. Coons,  S. Coriani,  S. Dasgupta,  
 A. L. Dempwolff,  M. Diedenhofen,  Hainam Do,  R. G. Edgar,  Po-Tung Fang,  
 S. Faraji,  S. Fatehi,  Qingguo Feng,  K. D. Fenk,  J. Fosso-Tande,  
 J. Gayvert,  Qinghui Ge,  A. Ghysels,  G. Gidofalvi,  J. Gomes,  
 J. Gonthier,  A. Gunina,  D. Hait,  M. W. D. Hanson-Heine,  
 P. H. P. Harbach,  A. W. Hauser,  M. F. Herbst,  J. E. Herr,  
 E. G. Hohenstein,  Z. C. Holden,  Kerwin Hui,  B. C. Huynh,  T.-C. Jagau,  
 Hyunjun Ji,  B. Kaduk,  K. Khistyaev,  Jaehoon Kim,  P. Klunzinger,  K. Koh,  
 D. Kosenkov,  L. Koulias,  T. Kowalczyk,  C. M. Krauter,  A. Kunitsa,  
 Ka Un Lao,  A. Laurent,  K. V. Lawler,  Joonho Lee,  D. Lefrancois,  
 S. Lehtola,  D. S. Levine,  Yi-Pei Li,  You-Sheng Lin,  Fenglai Liu,  
 E. Livshits,  A. Luenser,  P. Manohar,  E. Mansoor,  S. F. Manzer,  
 Shan-Ping Mao,  Yuezhi Mao,  N. Mardirossian,  A. V. Marenich,  
 T. Markovich,  L. A. Martinez-Martinez,  S. A. Maurer,  N. J. Mayhall,  
 S. C. McKenzie,  J.-M. Mewes,  P. Morgante,  A. F. Morrison,  
 J. W. Mullinax,  K. Nanda,  T. S. Nguyen-Beck,  R. Olivares-Amaya,  
 J. A. Parkhill,  Zheng Pei,  T. M. Perrine,  F. Plasser,  P. Pokhilko,  
 S. Prager,  A. Prociuk,  E. Ramos,  D. R. Rehn,  F. Rob,  M. Scheurer,  
 M. Schneider,  N. Sergueev,  S. M. Sharada,  S. Sharma,  D. W. Small,  
 T. Stauch,  T. Stein,  Yu-Chuan Su,  A. J. W. Thom,  A. Tkatchenko,  
 T. Tsuchimochi,  N. M. Tubman,  L. Vogt,  M. L. Vidal,  O. Vydrov,  
 M. A. Watson,  J. Wenzel,  M. de Wergifosse,  T. A. Wesolowski,  A. White,  
 J. Witte,  A. Yamada,  Jun Yang,  K. Yao,  S. Yeganeh,  S. R. Yost,  
 Zhi-Qiang You,  A. Zech,  Igor Ying Zhang,  Xing Zhang,  Yan Zhao,  
 Ying Zhu,  B. R. Brooks,  G. K. L. Chan,  C. J. Cramer,  M. S. Gordon,  
 W. J. Hehre,  A. Klamt,  M. W. Schmidt,  C. D. Sherrill,  D. G. Truhlar,  
 A. Aspuru-Guzik,  R. Baer,  A. T. Bell,  N. A. Besley,  Jeng-Da Chai,  
 A. E. DePrince, III,  R. A. DiStasio Jr.,  A. Dreuw,  B. D. Dunietz,  
 T. R. Furlani,  Chao-Ping Hsu,  Yousung Jung,  Jing Kong,  D. S. Lambrecht,  
 WanZhen Liang,  C. Ochsenfeld,  V. A. Rassolov,  L. V. Slipchenko,  
 J. E. Subotnik,  T. Van Voorhis,  J. M. Herbert,  A. I. Krylov,  
 P. M. W. Gill,  M. Head-Gordon

 Contributors to earlier versions of Q-Chem not listed above: 
 R. D. Adamson,  B. Austin,  J. Baker,  G. J. O. Beran,  K. Brandhorst,  
 S. T. Brown,  E. F. C. Byrd,  A. K. Chakraborty,  C.-L. Cheng,  
 Siu Hung Chien,  D. M. Chipman,  D. L. Crittenden,  H. Dachsel,  
 R. J. Doerksen,  A. D. Dutoi,  L. Fusti-Molnar,  W. A. Goddard III,  
 A. Golubeva-Zadorozhnaya,  S. R. Gwaltney,  G. Hawkins,  A. Heyden,  
 S. Hirata,  G. Kedziora,  F. J. Keil,  C. Kelley,  Jihan Kim,  R. A. King,  
 R. Z. Khaliullin,  P. P. Korambath,  W. Kurlancheek,  A. M. Lee,  M. S. Lee,  
 S. V. Levchenko,  Ching Yeh Lin,  D. Liotard,  R. C. Lochan,  I. Lotan,  
 P. E. Maslen,  N. Nair,  D. P. O'Neill,  D. Neuhauser,  E. Neuscamman,  
 C. M. Oana,  R. Olson,  B. Peters,  R. Peverati,  P. A. Pieniazek,  
 Y. M. Rhee,  J. Ritchie,  M. A. Rohrdanz,  E. Rosta,  N. J. Russ,  
 H. F. Schaefer III,  N. E. Schultz,  N. Shenvi,  A. C. Simmonett,  A. Sodt,  
 D. Stuck,  K. S. Thanthiriwatte,  V. Vanovschi,  Tao Wang,  A. Warshel,  
 C. F. Williams,  Q. Wu,  X. Xu,  W. Zhang

 Please cite Q-Chem as follows:
 Y. Shao et al., Mol. Phys. 113, 184-215 (2015)
 DOI: 10.1080/00268976.2014.952696

 Q-Chem 5.2.0 for Intel X86 EM64T Linux

 Parts of Q-Chem use Armadillo 8.300.2 (Tropical Shenanigans).
 http://arma.sourceforge.net/

 Q-Chem begins on Mon Sep 27 00:11:41 2021  

Host: cori01
0

     Scratch files written to /tmp/qchem63389//Frg2//
 May1019 |scratch|qcdevops|jenkins|workspace|build_RNUM -1
Processing $rem in /global/common/cori/software/qchem/5.2/config/preferences:
	 MEM_TOTAL  96000 
NAlpha2: 44
NElect   44
Mult     1
Symmetry turned off for PCM/SM12/SMD calculation

Checking the input file for inconsistencies... 	...done.

--------------------------------------------------------------
User input:
--------------------------------------------------------------
$molecule
0 1
 6	-2.4086358139	2.5572127692	3.6678759591
 6	-0.7646358139	0.7802127692	0.9618759591
 6	-1.6156358139	2.1432127692	2.4648759591
 6	-0.9926358139	2.8972127692	1.5228759591
 7	-1.4606358139	0.8232127692	2.0938759591
 7	-0.4706358139	2.0222127692	0.5948759591
 1	-0.4886358139	-0.1167872308	0.4228759591
 1	0.0483641861	2.2722127692	-0.2391240409
 1	-0.9486358139	3.9772127692	1.4888759591
 1	-1.9976358139	3.4842127692	4.0648759591
 1	-2.2886358139	1.7882127692	4.4318759591
 1	-3.4806558139	2.6760027692	3.4518859591
$end
$rem
EDA2		1
METHOD		WB97X-V
BASIS		DEF2-TZVPD
XC_GRID		000099000590
NL_GRID		1
UNRESTRICTED		FALSE
MAX_SCF_CYCLES		200
SYMMETRY		FALSE
SYM_IGNORE		TRUE
BASIS_LIN_DEP_THRESH		6
THRESH		14
SCF_CONVERGENCE		8
SCF_PRINT_FRGM		TRUE
SOLVENT_METHOD		PCM
!required keywords
JOBTYPE		SP
SYM_IGNORE		TRUE
SUBSYSTEM		TRUE
GEN_SCFMAN		TRUE
CHILD_INSTRUCTION		2
SYM_IGNORE		TRUE
SCFMI		0
RI_K 0		
PARI_K 0		
MIN_PARI_K 0		
IARI_K 0		
OCC_RI_K 0		
PURECART		1111
MEM_STATIC		2000
MEM_TOTAL		96000
GUI		0
CHILD_MP		1
CHILD_MP_ORDERS		232
FRZ_RELAX		0
FRZ_RELAX_METHOD		0
EDA_CLS_ELEC		1
EDA_CLS_DISP		0
FRZ_ORTHO_DECOMP		1
EDA2		FALSE
FRGM_METHOD		FALSE
CIS_N_ROOTS  0
LOCAL_CIS    0
CIS_RLX_DNS  1
$end
$pcm
THEORY                  CPCM
METHOD                  SWIG
SOLVER                  INVERSION
RADII                   UFF
HPOINTS                 302
HEAVYPOINTS             302
PRINTLEVEL              0
$end
$solvent
DIELECTRIC              78.390000 ! water
$end
--------------------------------------------------------------
 ----------------------------------------------------------------
             Standard Nuclear Orientation (Angstroms)
    I     Atom           X                Y                Z
 ----------------------------------------------------------------
    1      C      -2.4086358139     2.5572127692     3.6678759591
    2      C      -0.7646358139     0.7802127692     0.9618759591
    3      C      -1.6156358139     2.1432127692     2.4648759591
    4      C      -0.9926358139     2.8972127692     1.5228759591
    5      N      -1.4606358139     0.8232127692     2.0938759591
    6      N      -0.4706358139     2.0222127692     0.5948759591
    7      H      -0.4886358139    -0.1167872308     0.4228759591
    8      H       0.0483641861     2.2722127692    -0.2391240409
    9      H      -0.9486358139     3.9772127692     1.4888759591
   10      H      -1.9976358139     3.4842127692     4.0648759591
   11      H      -2.2886358139     1.7882127692     4.4318759591
   12      H      -3.4806558139     2.6760027692     3.4518859591
 ----------------------------------------------------------------
 Nuclear Repulsion Energy =         224.68253592 hartrees
 There are       22 alpha and       22 beta electrons
 Requested basis set is def2-TZVPD
 There are 108 shells and 276 basis functions

 Total QAlloc Memory Limit  96000 MB
 Mega-Array Size      1956 MB
 MEM_STATIC part      2000 MB
 Discretize the solute cavity surface with Lebedev spheres
	Using 302 Lebedev grid points for each H atom
	Using 302 Lebedev grid points for other atoms
	Atomic van der Waals radii will be scaled by 1.20
 Remove points where switching function is < 1.0e-08
 Keep 1533 surface tesserae and discard 2091 interior tesserae
 Molecular Surface Area = 157.218 Angst**2

                       Distance Matrix (Angstroms)
             C (  1)   C (  2)   C (  3)   C (  4)   N (  5)   N (  6)
   C (  2)  3.630826
   C (  3)  1.499151  2.200222
   C (  4)  2.592620  2.201907  1.357943
   N (  5)  2.526447  1.329545  1.379879  2.201486
   N (  6)  3.672247  1.328040  2.196034  1.378148  2.159792
   H (  7)  4.622413  1.082269  3.247690  3.247801  2.149564  2.145980
   H (  8)  4.624146  2.080729  3.177602  2.139848  3.133619  1.013616
   H (  9)  2.982623  3.245365  2.181976  1.081431  3.252059  2.202214
   H ( 10)  1.088972  4.296570  2.122311  2.795775  3.354718  4.063259
   H ( 11)  1.090622  3.921676  2.109038  3.372207  2.661401  4.252346
   H ( 12)  1.099995  4.143783  2.176317  3.155987  3.059004  4.201210
             H (  7)   H (  8)   H (  9)   H ( 10)   H ( 11)
   H (  8)  2.536520
   H (  9)  4.255443  2.624313
   H ( 10)  5.339330  4.917263  2.824752
   H ( 11)  4.789687  5.245385  3.904942  1.759485
   H ( 12)  5.091833  5.122556  3.457988  1.796749  1.780299
 
 A cutoff of  1.0D-14 yielded   5736 shell pairs
 There are     38170 function pairs (     48949 Cartesian)
 Smallest overlap matrix eigenvalue = 1.80E-06

 Scale SEOQF with 1.000000e-01/1.000000e-01/1.000000e-01

 Standard Electronic Orientation quadrupole field applied
 Nucleus-field energy     =    -0.0000000060 hartrees
 Guess from superposition of atomic densities
 Warning:  Energy on first SCF cycle will be non-variational
 SAD guess density has 43.559167 electrons

 -----------------------------------------------------------------------
  General SCF calculation program by
  Eric Jon Sundstrom, Paul Horn, Yuezhi Mao, Dmitri Zuev, Alec White,
  David Stuck, Shaama M.S., Shane Yost, Joonho Lee, David Small,
  Daniel Levine, Susi Lehtola, Hugh Burton, Evgeny Epifanovsky
 -----------------------------------------------------------------------
 Exchange:     0.1670 Hartree-Fock + 1.0000 wB97X-V + LR-HF
 Correlation:  1.0000 wB97X-V
 Using Euler-Maclaurin-Lebedev (99,590) quadrature formula
 Nonlocal Correlation:  VV10 with C = 0.0100 and b = 6.00 and scale = 1.00000
 Grid used for NLC:  SG-1 standard quadrature
Energy prior to optimization (guess energy) = -265.143146311585
Begin Timing: Total SCF Calculation
begin iterations for algorithm: DIIS         
the SCF tolerance is set to 1.00e-08
    1    -265.1431463116      7.22e-03     00000 
    2    -265.0963442149      7.42e-03     00000 
    3    -265.5593240049      7.30e-04     00000 
    4    -265.5629432754      4.20e-04     00000 
    5    -265.5643951527      8.50e-05     00000 
    6    -265.5644803147      3.03e-05     00000 
    7    -265.5644932199      9.32e-06     00000 
    8    -265.5644946158      3.14e-06     00000 
    9    -265.5644947995      1.29e-06     00000 
   10    -265.5644948408      3.57e-07     00000 
   11    -265.5644948453      8.43e-08     00000 
   12    -265.5644948455      5.13e-08     00000 
   13    -265.5644948456      1.02e-08     00000 
   14    -265.5644948456      3.57e-09     00000 Convergence criterion met
Timing for Total SCF: 947.00s (wall), 1879.49s (cpu)

************** Final PCM Free Energy Summary **************
 G_electrostatic  =      -0.01065703 hartree =      -6.68738775 kcal/mol
 G_cavitation     =       0.00000000 hartree =       0.00000000 kcal/mol
 G_dispersion     =       0.00000000 hartree =       0.00000000 kcal/mol
 G_repulsion      =       0.00000000 hartree =       0.00000000 kcal/mol
 --------------------------------------------------
 Non-electrostatic Free Energy =       0.00000000 hartree =       0.00000000 kcal/mol
 Total                         =      -0.01065703 hartree =      -6.68738775 kcal/mol
 --------------------------------------------------
 SCF Energy (H0 + V/2)                       =    -265.56449485 
 Solute Internal Energy (H0)                 =    -265.55383781 
 Total Free Energy (H0 + V/2 + non-elec)     =    -265.56449485 hartree
                                             = -166644.23567692 kcal/mol
***********************************************************

E_pcm = -0.0106570308
Multipole orders to be included
        2
        3
computing dipole RHS
computing quadrupole RHS
total number of RHS in solve_reponses: 8
RHS batch sizes
        8
Beginning Block Conjugate Gradient Iterations. Batch Number: 0
computing hessian-vector products by finite difference
              1      5.80e-01     00000 Conjugate Gradient Iteration
computing hessian-vector products by finite difference
              2      1.99e-01     00000 Conjugate Gradient Iteration
computing hessian-vector products by finite difference
              3      4.67e-02     00000 Conjugate Gradient Iteration
computing hessian-vector products by finite difference
              4      1.26e-02     00000 Conjugate Gradient Iteration
computing hessian-vector products by finite difference
              5      2.57e-03     00000 Conjugate Gradient Iteration
computing hessian-vector products by finite difference
              6      5.06e-04     00000 Conjugate Gradient Iteration
computing hessian-vector products by finite difference
              7      1.04e-04     00000 Conjugate Gradient Iteration
computing hessian-vector products by finite difference
              8      1.72e-05     00000 Conjugate Gradient Iteration
computing hessian-vector products by finite difference
              9      2.78e-06     00000 Conjugate Gradient Iteration
computing hessian-vector products by finite difference
             10      3.70e-07     00000 Conjugate Gradient Iteration
computing hessian-vector products by finite difference
             11      5.26e-08     00000 Conjugate Gradient Iteration
computing hessian-vector products by finite difference
             12      1.17e-08     00000 Conjugate Gradient Iteration
computing hessian-vector products by finite difference
             13      3.94e-09     00000 CG Converged
batch 0 complete
Done Calculating Responses
TESTING ORTHOGONALIZATION OF MULTIPOLE BASIS
Multipole virts passed orthogonality test
Virts Per Order
           66
          110
 
 --------------------------------------------------------------
 
                    Orbital Energies (a.u.)
 --------------------------------------------------------------
 
 Alpha MOs
 -- Occupied --
-14.4674 -14.3877 -10.3228 -10.2897 -10.2868 -10.2644  -1.1571  -0.9980
 -0.9004  -0.8295  -0.7300  -0.6879  -0.6707  -0.5667  -0.5603  -0.5450
 -0.5163  -0.5003  -0.4822  -0.3793  -0.3754  -0.3256
 -- Virtual --
  0.0642   0.0819   0.0928   0.1013   0.1138   0.1242   0.1315   0.1425
  0.1656   0.1696   0.1736   0.1823   0.1943   0.2002   0.2217   0.2404
  0.2415   0.2480   0.2558   0.2573   0.2644   0.2871   0.2938   0.3021
  0.3078   0.3110   0.3184   0.3223   0.3276   0.3365   0.3446   0.3523
  0.3540   0.3642   0.3748   0.3792   0.3903   0.3912   0.4084   0.4144
  0.4161   0.4228   0.4296   0.4489   0.4577   0.4655   0.4684   0.4793
  0.4842   0.4892   0.4947   0.5156   0.5207   0.5401   0.5509   0.5588
  0.5645   0.5789   0.5807   0.5898   0.6050   0.6090   0.6154   0.6282
  0.6509   0.6574   0.6638   0.6790   0.6930   0.6986   0.7022   0.7233
  0.7294   0.7378   0.7673   0.7721   0.7796   0.7830   0.7869   0.7925
  0.8021   0.8166   0.8220   0.8367   0.8677   0.8750   0.8783   0.8886
  0.9142   0.9329   0.9564   0.9847   0.9992   1.0048   1.0150   1.0392
  1.0655   1.0756   1.0898   1.0990   1.1318   1.1645   1.1740   1.2085
  1.2277   1.2366   1.2734   1.3170   1.3371   1.3567   1.3764   1.4255
  1.4499   1.4606   1.5212   1.5473   1.6079   1.6340   1.6507   1.6760
  1.6943   1.7402   1.7995   1.8259   1.8385   1.8531   1.8708   1.8750
  1.9050   1.9372   1.9421   1.9504   1.9655   1.9872   2.0001   2.0099
  2.0265   2.0579   2.0893   2.1255   2.1793   2.2319   2.2460   2.2622
  2.3011   2.3204   2.3891   2.3967   2.4210   2.4507   2.4639   2.5035
  2.5368   2.5713   2.5864   2.6267   2.6329   2.6555   2.6841   2.7144
  2.7515   2.7659   2.7993   2.8252   2.8549   2.8921   2.9121   2.9869
  3.0044   3.0287   3.0482   3.0658   3.0883   3.1094   3.1365   3.1692
  3.1773   3.2104   3.2271   3.2389   3.2667   3.2855   3.3204   3.3317
  3.3547   3.3570   3.3825   3.4020   3.4054   3.4231   3.4722   3.4861
  3.5008   3.5356   3.5688   3.5995   3.6173   3.6607   3.6892   3.7164
  3.7380   3.7837   3.8225   3.8626   3.8889   3.9400   3.9619   4.0365
  4.0803   4.1121   4.1234   4.2367   4.2924   4.3721   4.4272   4.4711
  4.5001   4.5724   4.6031   4.7486   4.7672   4.8152   4.8325   4.8655
  4.9213   4.9588   5.0160   5.0375   5.0470   5.0870   5.1570   5.1927
  5.2343   5.3012   5.3743   5.4445   5.4839   5.5309   5.5787   5.6005
  5.6664   5.6960   5.7466   5.7899   5.8712   6.0312   6.2295   6.2824
 22.6149  22.8627  23.1184  23.3844  32.6437  32.7714
 --------------------------------------------------------------
 
          Ground-State Mulliken Net Atomic Charges

     Atom                 Charge (a.u.)
  ----------------------------------------
      1 C                    -0.754796
      2 C                    -0.235537
      3 C                     0.562205
      4 C                    -0.536249
      5 N                    -0.487941
      6 N                     0.095472
      7 H                     0.293076
      8 H                     0.169175
      9 H                     0.256253
     10 H                     0.236223
     11 H                     0.216076
     12 H                     0.186041
  ----------------------------------------
  Sum of atomic charges =     0.000000

 -----------------------------------------------------------------
                    Cartesian Multipole Moments
 -----------------------------------------------------------------
    Charge (ESU x 10^10)
                 0.0000
    Dipole Moment (Debye)
         X       1.9349      Y       2.6325      Z      -3.0884
       Tot       4.4958
    Quadrupole Moments (Debye-Ang)
        XX     -40.1210     XY      -1.3039     YY     -25.9501
        XZ       2.3317     YZ       1.8177     ZZ     -41.2070
    Octopole Moments (Debye-Ang^2)
       XXX     149.9005    XXY     -66.8807    XYY      41.3456
       YYY    -169.6035    XXZ     -74.4810    XYZ      -9.0820
       YYZ     -59.6866    XZZ      50.5018    YZZ     -58.5047
       ZZZ    -219.1795
    Hexadecapole Moments (Debye-Ang^3)
      XXXX    -536.5533   XXXY     284.9763   XXYY    -250.8896
      XYYY     267.2340   YYYY    -859.9238   XXXZ     367.5505
      XXYZ    -130.5253   XYYZ      93.7137   YYYZ    -390.3094
      XXZZ    -281.1433   XYZZ      70.0334   YYZZ    -320.9018
      XZZZ     360.7855   YZZZ    -406.5445   ZZZZ   -1143.3750
 -----------------------------------------------------------------
Archival summary:
1\1\nid00531\SP\ProcedureUnspecified\BasisUnspecified\246\meili\MonSep2704:39:132021MonSep2704:39:132021\0\\#,ProcedureUnspecified,BasisUnspecified,\\0,1\N\C,1,1.32954\H,2,1.08227,1,125.756\N,2,1.32804,1,108.719,3,179.573,0\H,4,1.01362,2,124.847,1,-179.467,0\C,4,1.37815,2,108.895,1,0.107215,0\H,6,1.08143,4,126.69,2,-177.95,0\C,6,1.35794,4,106.759,2,-0.0966103,0\C,8,1.49915,6,130.241,4,-176.785,0\H,9,1.08897,8,109.147,6,-32.9959,0\H,9,1.09062,8,108.012,6,-149.772,0\H,9,1.1,8,112.816,6,90.0359,0\\\@

 Total job time:  16054.53s(wall), 31829.91s(cpu) 
 Mon Sep 27 04:39:16 2021

        *************************************************************
        *                                                           *
        *  Thank you very much for using Q-Chem.  Have a nice day.  *
        *                                                           *
        *************************************************************


Done Job For Fragment 1
calling putenv with: QCSCRATCH=/global/cscratch1/sd/meili 
calling putenv with: QCLOCALSCR=/tmp 
calling putenv with: QCTHREADS=32 
Doing General SCFMI
 Exchange:     0.1670 Hartree-Fock + 1.0000 wB97X-V + LR-HF
 Correlation:  1.0000 wB97X-V
 Using Euler-Maclaurin-Lebedev (99,590) quadrature formula
 Nonlocal Correlation:  VV10 with C = 0.0100 and b = 6.00 and scale = 1.00000
 Grid used for NLC:  SG-1 standard quadrature
performing fock build before subrot guess so that all methods have access
Printing subrot_rss_gen Method Specification:
Occupied Subspace Method is 0
Virtual Subspace Method is 0
Energy of the unrelaxed supersystem initial determinant -612.369063515224
performing fock build before subrot guess so that all methods have access
Printing subrot_rss_gen Method Specification:
Occupied Subspace Method is 0
Virtual Subspace Method is 0
Energy of the unrelaxed supersystem initial determinant w/ solvent -612.384052434444
write pseudocanon occs and virts to disk
write pseudocanon orbital energies to disk
Tolerance of ortho_decomp_scf: 1.00e-06
GDM subspace size: 20
Beginning the Orthogonal Decomposition of the Initial Supersystem Wavefunction
    1    -612.3537754739      1.65e-02     ortho_decomp Preconditoned Steepest Descent
    2    -612.3548695012      3.56e-04     ortho_decomp BFGS Step
    3    -612.3548720547      2.57e-05     ortho_decomp BFGS Step
    4    -612.3548720604      1.07e-06     ortho_decomp BFGS Step
    5    -612.3548720604      3.30e-08     ortho_decomp 00000 Convergence criterion met
 Hartree-Fock
 Hartree-Fock
 Hartree-Fock
Doing General SCFMI
 Exchange:     0.1670 Hartree-Fock + 1.0000 wB97X-V + LR-HF
 Correlation:  1.0000 wB97X-V
 Using Euler-Maclaurin-Lebedev (99,590) quadrature formula
 Nonlocal Correlation:  VV10 with C = 0.0100 and b = 6.00 and scale = 1.00000
 Grid used for NLC:  SG-1 standard quadrature
performing fock build at end of subrot_r(subrot) constructor so that all methods have access
<S^2> of initial wavefunction before polarization iterations 0.0000000000
Beginning iterations for the determination of the polarized wavefunction
Energy prior to optimization (guess energy) = -612.384052434444
Begin Timing: Total SCF Calculation
begin iterations for algorithm: DIIS         
the SCF tolerance is set to 1.00e-08
    1    -612.3840524344      5.55e-05     00000 
    2    -612.3844153882      2.27e-05     00000 
    3    -612.3844523736      1.10e-05     00000 
    4    -612.3844623783      4.56e-06     00000 
    5    -612.3844640449      1.59e-06     00000 
    6    -612.3844643361      7.55e-07     00000 
    7    -612.3844643795      2.89e-07     00000 
    8    -612.3844643852      1.66e-07     00000 
    9    -612.3844643865      7.06e-08     00000 
   10    -612.3844643867      3.48e-08     00000 
   11    -612.3844643867      1.50e-08     00000 
   12    -612.3844643867      6.24e-09     00000 Convergence criterion met
write pseudocanon occs and virts to disk
write pseudocanon orbital energies to disk
Timing for Total SCF: 9471.00s (wall), 18844.17s (cpu)
<S^2> of polarized wavefunction after polarization iterations 0.0000000000
relaxing scfmi constraint to allow all rotations in the entire AO span
Doing General SCFMI
 Exchange:     0.1670 Hartree-Fock + 1.0000 wB97X-V + LR-HF
 Correlation:  1.0000 wB97X-V
 Using Euler-Maclaurin-Lebedev (99,590) quadrature formula
 Nonlocal Correlation:  VV10 with C = 0.0100 and b = 6.00 and scale = 1.00000
 Grid used for NLC:  SG-1 standard quadrature
performing fock build at end of subrot_r(subrot) constructor so that all methods have access
<S^2> of polarized wavefunction before ct-allowed iterations 0.0000000000
Beginning iterations for the determination of the CT-Allowed wavefunction
Energy prior to optimization (guess energy) = -612.384464386718
Begin Timing: Total SCF Calculation
begin iterations for algorithm: DIIS         
the SCF tolerance is set to 1.00e-08
    1    -612.3844643867      6.43e-05     00000 
    2    -612.3853024661      6.77e-06     00000 
    3    -612.3853283661      1.39e-06     00000 
    4    -612.3853292743      9.52e-07     00000 
    5    -612.3853294706      1.75e-07     00000 
    6    -612.3853294822      9.67e-08     00000 
    7    -612.3853294848      2.30e-08     00000 
    8    -612.3853294850      1.11e-08     00000 
    9    -612.3853294851      2.69e-09     00000 Convergence criterion met
write pseudocanon occs and virts to disk
write pseudocanon orbital energies to disk
Timing for Total SCF: 6894.00s (wall), 13718.33s (cpu)
<S^2> of ct_allowed wavefunction after ct-allowed iterations 0.0000000000

================================
        Results of EDA2         
================================
Basic EDA Quantities
--------------------
Fragment Energies (Ha):
1 -346.8162789650
2 -265.5644948456
--------------------
  E_prp (kJ/mol) = 0.0000
  E_sol (kJ/mol) = 3.3581
  E_frz (kJ/mol) = -11.9662
  E_pol (kJ/mol) = -1.0816
  E_vct (kJ/mol) = -2.2713
  E_int (kJ/mol) = -11.9611
--------------------


Initial Wavefunction Decomposition
--------------------
  --------------------
  Orthogonal Fragment Subspace Decomposition:
  --------------------
     E_elec   (ELEC)   (kJ/mol) = -17.8086
     E_pauli  (PAULI)  (kJ/mol) = 19.3065
     E_disp   (DISP)   (kJ/mol) = -13.4642
     --------------------
     Terms summing to E_pauli:
     --------------------
        E_kep_pauli       (kJ/mol) = 25.2939
        E_disp_free_pauli (kJ/mol) = -5.9874
  --------------------
  Classical Frozen Decomposition:
  --------------------
     E_cls_elec  (CLS ELEC)  (kJ/mol) = -9.9117
     E_cls_pauli (CLS PAULI) (kJ/mol) = -2.0546
    [E_mod_pauli (MOD PAULI) (kJ/mol) = 11.4096 (CLS PAULI - DISP from orthogonal decomposition) ]
  --------------------
--------------------

Simplified EDA Summary (kJ/mol)
--------------------
 PREPARATION     0.0000
 SOLVATION       3.3581
 FROZEN          1.4979      (does not include dispersion)
[PAULI           19.3065]     (if this is negligible, then frozen describes electrostatics)
 DISPERSION      -13.4642
 POLARIZATION    -1.0816
 CHARGE TRANSFER -2.2713
 TOTAL           -11.9611     (PRP + SOL + FRZ + DISP + POL + CT)
--------------------
 
 --------------------------------------------------------------
 
                    Orbital Energies (a.u.)
 --------------------------------------------------------------
 
 Alpha MOs
 -- Occupied --
-19.2479 -14.4664 -14.3867 -10.3398 -10.3203 -10.2890 -10.2861 -10.2812
-10.2791 -10.2789 -10.2760 -10.2751 -10.2641 -10.2631  -1.2010  -1.1560
 -0.9977  -0.9970  -0.9037  -0.8995  -0.8873  -0.8288  -0.8132  -0.7523
 -0.7289  -0.7182  -0.6868  -0.6704  -0.6698  -0.6058  -0.5846  -0.5658
 -0.5617  -0.5542  -0.5475  -0.5385  -0.5374  -0.5238  -0.5158  -0.5127
 -0.4996  -0.4818  -0.4794  -0.4591  -0.4455  -0.4436  -0.3785  -0.3744
 -0.3568  -0.3243  -0.3163
 -- Virtual --
  0.0522   0.0536   0.0643   0.0680   0.0748   0.0796   0.0887   0.0924
  0.1008   0.1036   0.1082   0.1117   0.1152   0.1273   0.1279   0.1337
  0.1401   0.1441   0.1503   0.1524   0.1603   0.1680   0.1696   0.1722
  0.1794   0.1887   0.1920   0.1964   0.2020   0.2043   0.2148   0.2203
  0.2227   0.2305   0.2331   0.2353   0.2402   0.2443   0.2484   0.2499
  0.2563   0.2609   0.2644   0.2700   0.2715   0.2782   0.2848   0.2884
  0.2919   0.2936   0.2990   0.2995   0.3020   0.3056   0.3079   0.3145
  0.3196   0.3237   0.3254   0.3277   0.3307   0.3347   0.3357   0.3419
  0.3433   0.3466   0.3483   0.3524   0.3533   0.3594   0.3624   0.3651
  0.3694   0.3762   0.3768   0.3809   0.3845   0.3856   0.3878   0.3913
  0.3928   0.3979   0.4015   0.4075   0.4109   0.4131   0.4198   0.4226
  0.4252   0.4305   0.4322   0.4392   0.4421   0.4507   0.4532   0.4556
  0.4588   0.4620   0.4634   0.4697   0.4715   0.4730   0.4781   0.4847
  0.4869   0.4907   0.4923   0.4941   0.4950   0.4989   0.5015   0.5036
  0.5139   0.5183   0.5190   0.5228   0.5302   0.5391   0.5438   0.5494
  0.5504   0.5535   0.5572   0.5616   0.5648   0.5719   0.5755   0.5785
  0.5796   0.5856   0.5922   0.5936   0.5974   0.6033   0.6085   0.6162
  0.6171   0.6195   0.6250   0.6282   0.6349   0.6411   0.6459   0.6520
  0.6586   0.6642   0.6697   0.6721   0.6765   0.6780   0.6867   0.6934
  0.6973   0.6983   0.7010   0.7052   0.7105   0.7158   0.7226   0.7258
  0.7323   0.7357   0.7402   0.7413   0.7470   0.7495   0.7575   0.7628
  0.7635   0.7710   0.7724   0.7792   0.7828   0.7863   0.7892   0.7916
  0.7950   0.7976   0.8047   0.8057   0.8063   0.8142   0.8178   0.8192
  0.8226   0.8247   0.8298   0.8396   0.8433   0.8470   0.8502   0.8589
  0.8624   0.8681   0.8704   0.8743   0.8809   0.8870   0.8879   0.8975
  0.9021   0.9084   0.9094   0.9184   0.9217   0.9387   0.9445   0.9500
  0.9529   0.9572   0.9687   0.9840   1.0019   1.0052   1.0132   1.0222
  1.0258   1.0299   1.0410   1.0420   1.0529   1.0614   1.0687   1.0759
  1.0774   1.0907   1.0933   1.1090   1.1107   1.1195   1.1321   1.1346
  1.1425   1.1452   1.1506   1.1615   1.1733   1.1819   1.1911   1.2078
  1.2132   1.2296   1.2391   1.2481   1.2540   1.2705   1.2862   1.3060
  1.3118   1.3228   1.3266   1.3387   1.3434   1.3537   1.3664   1.3706
  1.3829   1.3968   1.4048   1.4226   1.4389   1.4421   1.4601   1.4793
  1.4844   1.4879   1.4991   1.5034   1.5247   1.5340   1.5410   1.5590
  1.5711   1.5888   1.6178   1.6346   1.6377   1.6478   1.6504   1.6702
  1.6869   1.6990   1.7109   1.7252   1.7405   1.7432   1.7506   1.7899
  1.8011   1.8301   1.8321   1.8502   1.8555   1.8582   1.8628   1.8832
  1.8940   1.8970   1.9020   1.9063   1.9205   1.9327   1.9435   1.9480
  1.9542   1.9603   1.9641   1.9681   1.9808   1.9912   1.9985   2.0030
  2.0224   2.0294   2.0302   2.0465   2.0518   2.0624   2.0745   2.0773
  2.0886   2.0951   2.1079   2.1262   2.1328   2.1428   2.1562   2.1704
  2.1944   2.2005   2.2251   2.2340   2.2407   2.2556   2.2625   2.2664
  2.2774   2.2918   2.2977   2.3251   2.3345   2.3419   2.3489   2.3520
  2.3713   2.3852   2.3968   2.4128   2.4170   2.4396   2.4540   2.4680
  2.4770   2.4834   2.5049   2.5266   2.5291   2.5413   2.5576   2.5696
  2.5799   2.5894   2.5902   2.6067   2.6259   2.6350   2.6401   2.6471
  2.6705   2.6754   2.6955   2.7049   2.7206   2.7303   2.7423   2.7603
  2.7732   2.7824   2.7881   2.7926   2.8057   2.8243   2.8306   2.8349
  2.8538   2.8630   2.8680   2.8756   2.8899   2.9123   2.9250   2.9326
  2.9419   2.9596   2.9732   2.9816   2.9999   3.0043   3.0172   3.0234
  3.0309   3.0461   3.0503   3.0655   3.0662   3.0849   3.1034   3.1172
  3.1258   3.1319   3.1383   3.1476   3.1630   3.1804   3.1859   3.1902
  3.2035   3.2220   3.2262   3.2289   3.2409   3.2520   3.2601   3.2688
  3.2741   3.2872   3.3004   3.3058   3.3148   3.3292   3.3339   3.3574
  3.3614   3.3700   3.3787   3.3896   3.4001   3.4030   3.4132   3.4152
  3.4257   3.4361   3.4518   3.4551   3.4578   3.4692   3.4865   3.4893
  3.5011   3.5103   3.5250   3.5293   3.5360   3.5392   3.5469   3.5522
  3.5588   3.5690   3.5795   3.5809   3.5838   3.6056   3.6159   3.6195
  3.6303   3.6438   3.6529   3.6699   3.6959   3.7010   3.7121   3.7208
  3.7229   3.7375   3.7469   3.7654   3.7799   3.7944   3.8177   3.8278
  3.8538   3.8564   3.8817   3.9054   3.9203   3.9359   3.9569   3.9584
  3.9794   3.9854   4.0139   4.0448   4.0670   4.0866   4.1102   4.1251
  4.1416   4.1487   4.1638   4.2574   4.2613   4.2780   4.2996   4.3077
  4.3199   4.3303   4.3403   4.3538   4.3561   4.3763   4.3818   4.3932
  4.4269   4.4454   4.4605   4.4908   4.4964   4.5161   4.5330   4.5809
  4.6051   4.6249   4.6273   4.7295   4.7496   4.7630   4.7732   4.7948
  4.8142   4.8252   4.8436   4.8571   4.8865   4.9288   4.9385   4.9738
  5.0217   5.0340   5.0536   5.0573   5.0693   5.0941   5.1035   5.1282
  5.1587   5.1713   5.2278   5.2453   5.2977   5.3154   5.3338   5.3967
  5.3987   5.4401   5.4820   5.5043   5.5334   5.5463   5.6043   5.6208
  5.6248   5.6443   5.7041   5.7141   5.7303   5.7643   5.8123   5.8223
  5.9251   5.9593   6.0528   6.2175   6.2557   6.3126   6.4922   6.6045
  6.6442   6.8844   7.0251   7.3037   7.4635  22.6199  22.6880  22.8272
 22.9051  22.9549  23.0251  23.0388  23.1852  23.2039  23.4253  23.4982
 32.7289  32.8356  44.4490
 --------------------------------------------------------------
 
          Ground-State Mulliken Net Atomic Charges

     Atom                 Charge (a.u.)
  ----------------------------------------
      1 C                    -1.114442
      2 C                    -0.379858
      3 C                     0.698263
      4 C                    -0.440960
      5 C                     0.701873
      6 C                    -0.395950
      7 C                    -0.759593
      8 O                    -0.495195
      9 H                     0.298505
     10 H                     0.266103
     11 H                     0.254842
     12 H                     0.275728
     13 H                     0.267057
     14 H                     0.302832
     15 H                     0.320358
     16 H                     0.242950
     17 C                    -0.822875
     18 C                    -0.763832
     19 C                     0.549977
     20 C                    -0.553101
     21 N                    -0.447977
     22 N                     0.186462
     23 H                     0.729889
     24 H                     0.170538
     25 H                     0.255931
     26 H                     0.237768
     27 H                     0.225285
     28 H                     0.189425
  ----------------------------------------
  Sum of atomic charges =     0.000000

 -----------------------------------------------------------------
                    Cartesian Multipole Moments
 -----------------------------------------------------------------
    Charge (ESU x 10^10)
                -0.0000
    Dipole Moment (Debye)
         X       0.6011      Y       2.6880      Z      -4.1656
       Tot       4.9939
    Quadrupole Moments (Debye-Ang)
        XX     -91.3121     XY       0.9948     YY     -71.5050
        XZ       5.1671     YZ      -4.1524     ZZ     -81.7880
    Octopole Moments (Debye-Ang^2)
       XXX       4.6433    XXY       2.9030    XYY      -3.9618
       YYY      43.0136    XXZ       0.8882    XYZ     -23.1062
       YYZ      10.4705    XZZ      11.3928    YZZ      32.0751
       ZZZ     -53.2129
    Hexadecapole Moments (Debye-Ang^3)
      XXXX   -1390.0486   XXXY     299.5896   XXYY    -569.1174
      XYYY     314.4797   YYYY   -1976.5011   XXXZ     645.8552
      XXYZ    -204.1318   XYYZ     181.6393   YYYZ    -585.2087
      XXZZ    -556.7281   XYZZ     118.5345   YYZZ    -652.0145
      XZZZ     549.2860   YZZZ    -643.5319   ZZZZ   -1871.2794
 -----------------------------------------------------------------
Archival summary:
1\1\nid00531\SP\ProcedureUnspecified\BasisUnspecified\121114\meili\MonSep2712:38:202021MonSep2712:38:202021\0\\#,ProcedureUnspecified,BasisUnspecified,\\0,1\N\H,1,1.01362\C,1,1.32804,2,124.847\H,3,1.08227,1,125.523,2,0.107765,0\N,3,1.32954,1,108.719,2,-179.467,0\C,1,1.37815,2,126.256,3,-179.5,0\H,6,1.08143,1,126.69,2,1.61598,0\C,6,1.35794,1,106.759,2,179.47,0\C,8,1.49915,6,130.241,1,-176.785,0\H,9,1.08897,8,109.147,6,-32.9959,0\H,9,1.09062,8,108.012,6,-149.772,0\H,9,1.1,8,112.816,6,90.0359,0\C,4,2.70629,3,176.476,1,-117.249,0\C,13,1.39846,4,80.6718,3,77.4514,0\H,14,1.08237,13,120.264,4,-99.4466,0\C,14,1.3968,13,120.746,4,78.4767,0\H,16,1.07628,14,120.046,13,-179.819,0\C,16,1.39449,14,119.784,13,-0.371144,0\O,18,1.35719,16,119.611,14,-178.635,0\H,19,0.960221,18,111.701,16,0.6017,0\C,18,1.39382,16,120.1,14,0.385289,0\H,21,1.0797,18,119.5,16,-179.872,0\C,21,1.39504,18,119.767,16,-0.195399,0\H,23,1.07959,21,118.926,18,-178.157,0\C,13,1.51308,4,102.487,3,-42.1494,0\H,25,1.08612,13,107.847,4,37.503,0\H,25,1.09084,13,108.628,4,-77.8713,0\H,25,1.1,13,116.241,4,159.61,0\\\@

 Total job time:  84359.77s(wall), 57264.16s(cpu) 
 Mon Sep 27 12:38:21 2021

        *************************************************************
        *                                                           *
        *  Thank you very much for using Q-Chem.  Have a nice day.  *
        *                                                           *
        *************************************************************


