
Running Job 1 of 1 SSI-125TYR-164HIE-1_PCM_TZVPD.in
qchem SSI-125TYR-164HIE-1_PCM_TZVPD.in_46214.0 /tmp/qchem46214/ 0
/global/common/cori/software/qchem/5.2/exe/qcprog.exe_s SSI-125TYR-164HIE-1_PCM_TZVPD.in_46214.0 /tmp/qchem46214/
                  Welcome to Q-Chem
     A Quantum Leap Into The Future Of Chemistry


 Q-Chem 5.2, Q-Chem, Inc., Pleasanton, CA (2019)

 License issued to: National Energy Research Scientific Computing Center

 Yihan Shao,  Zhengting Gan,  E. Epifanovsky,  A. T. B. Gilbert,  M. Wormit,  
 J. Kussmann,  A. W. Lange,  A. Behn,  Jia Deng,  Xintian Feng,  D. Ghosh,  
 M. Goldey,  P. R. Horn,  L. D. Jacobson,  I. Kaliman,  T. Kus,  A. Landau,  
 Jie Liu,  E. I. Proynov,  R. M. Richard,  R. P. Steele,  E. J. Sundstrom,  
 H. L. Woodcock III,  P. M. Zimmerman,  D. Zuev,  B. Albrecht,  E. Alguire,  
 S. A. Baeppler,  D. Barton,  Z. Benda,  Y. A. Bernard,  E. J. Berquist,  
 K. B. Bravaya,  H. Burton,  D. Casanova,  Chun-Min Chang,  Yunqing Chen,  
 A. Chien,  K. D. Closser,  M. P. Coons,  S. Coriani,  S. Dasgupta,  
 A. L. Dempwolff,  M. Diedenhofen,  Hainam Do,  R. G. Edgar,  Po-Tung Fang,  
 S. Faraji,  S. Fatehi,  Qingguo Feng,  K. D. Fenk,  J. Fosso-Tande,  
 J. Gayvert,  Qinghui Ge,  A. Ghysels,  G. Gidofalvi,  J. Gomes,  
 J. Gonthier,  A. Gunina,  D. Hait,  M. W. D. Hanson-Heine,  
 P. H. P. Harbach,  A. W. Hauser,  M. F. Herbst,  J. E. Herr,  
 E. G. Hohenstein,  Z. C. Holden,  Kerwin Hui,  B. C. Huynh,  T.-C. Jagau,  
 Hyunjun Ji,  B. Kaduk,  K. Khistyaev,  Jaehoon Kim,  P. Klunzinger,  K. Koh,  
 D. Kosenkov,  L. Koulias,  T. Kowalczyk,  C. M. Krauter,  A. Kunitsa,  
 Ka Un Lao,  A. Laurent,  K. V. Lawler,  Joonho Lee,  D. Lefrancois,  
 S. Lehtola,  D. S. Levine,  Yi-Pei Li,  You-Sheng Lin,  Fenglai Liu,  
 E. Livshits,  A. Luenser,  P. Manohar,  E. Mansoor,  S. F. Manzer,  
 Shan-Ping Mao,  Yuezhi Mao,  N. Mardirossian,  A. V. Marenich,  
 T. Markovich,  L. A. Martinez-Martinez,  S. A. Maurer,  N. J. Mayhall,  
 S. C. McKenzie,  J.-M. Mewes,  P. Morgante,  A. F. Morrison,  
 J. W. Mullinax,  K. Nanda,  T. S. Nguyen-Beck,  R. Olivares-Amaya,  
 J. A. Parkhill,  Zheng Pei,  T. M. Perrine,  F. Plasser,  P. Pokhilko,  
 S. Prager,  A. Prociuk,  E. Ramos,  D. R. Rehn,  F. Rob,  M. Scheurer,  
 M. Schneider,  N. Sergueev,  S. M. Sharada,  S. Sharma,  D. W. Small,  
 T. Stauch,  T. Stein,  Yu-Chuan Su,  A. J. W. Thom,  A. Tkatchenko,  
 T. Tsuchimochi,  N. M. Tubman,  L. Vogt,  M. L. Vidal,  O. Vydrov,  
 M. A. Watson,  J. Wenzel,  M. de Wergifosse,  T. A. Wesolowski,  A. White,  
 J. Witte,  A. Yamada,  Jun Yang,  K. Yao,  S. Yeganeh,  S. R. Yost,  
 Zhi-Qiang You,  A. Zech,  Igor Ying Zhang,  Xing Zhang,  Yan Zhao,  
 Ying Zhu,  B. R. Brooks,  G. K. L. Chan,  C. J. Cramer,  M. S. Gordon,  
 W. J. Hehre,  A. Klamt,  M. W. Schmidt,  C. D. Sherrill,  D. G. Truhlar,  
 A. Aspuru-Guzik,  R. Baer,  A. T. Bell,  N. A. Besley,  Jeng-Da Chai,  
 A. E. DePrince, III,  R. A. DiStasio Jr.,  A. Dreuw,  B. D. Dunietz,  
 T. R. Furlani,  Chao-Ping Hsu,  Yousung Jung,  Jing Kong,  D. S. Lambrecht,  
 WanZhen Liang,  C. Ochsenfeld,  V. A. Rassolov,  L. V. Slipchenko,  
 J. E. Subotnik,  T. Van Voorhis,  J. M. Herbert,  A. I. Krylov,  
 P. M. W. Gill,  M. Head-Gordon

 Contributors to earlier versions of Q-Chem not listed above: 
 R. D. Adamson,  B. Austin,  J. Baker,  G. J. O. Beran,  K. Brandhorst,  
 S. T. Brown,  E. F. C. Byrd,  A. K. Chakraborty,  C.-L. Cheng,  
 Siu Hung Chien,  D. M. Chipman,  D. L. Crittenden,  H. Dachsel,  
 R. J. Doerksen,  A. D. Dutoi,  L. Fusti-Molnar,  W. A. Goddard III,  
 A. Golubeva-Zadorozhnaya,  S. R. Gwaltney,  G. Hawkins,  A. Heyden,  
 S. Hirata,  G. Kedziora,  F. J. Keil,  C. Kelley,  Jihan Kim,  R. A. King,  
 R. Z. Khaliullin,  P. P. Korambath,  W. Kurlancheek,  A. M. Lee,  M. S. Lee,  
 S. V. Levchenko,  Ching Yeh Lin,  D. Liotard,  R. C. Lochan,  I. Lotan,  
 P. E. Maslen,  N. Nair,  D. P. O'Neill,  D. Neuhauser,  E. Neuscamman,  
 C. M. Oana,  R. Olson,  B. Peters,  R. Peverati,  P. A. Pieniazek,  
 Y. M. Rhee,  J. Ritchie,  M. A. Rohrdanz,  E. Rosta,  N. J. Russ,  
 H. F. Schaefer III,  N. E. Schultz,  N. Shenvi,  A. C. Simmonett,  A. Sodt,  
 D. Stuck,  K. S. Thanthiriwatte,  V. Vanovschi,  Tao Wang,  A. Warshel,  
 C. F. Williams,  Q. Wu,  X. Xu,  W. Zhang

 Please cite Q-Chem as follows:
 Y. Shao et al., Mol. Phys. 113, 184-215 (2015)
 DOI: 10.1080/00268976.2014.952696

 Q-Chem 5.2.0 for Intel X86 EM64T Linux

 Parts of Q-Chem use Armadillo 8.300.2 (Tropical Shenanigans).
 http://arma.sourceforge.net/

 Q-Chem begins on Sun Sep 26 14:09:27 2021  

Host: cori01
0

     Scratch files written to /tmp/qchem46214//
 May1019 |scratch|qcdevops|jenkins|workspace|build_RNUM -1
Processing $rem in /global/common/cori/software/qchem/5.2/config/preferences:
	 MEM_TOTAL  96000 
NAlpha2: 102
NElect   102
Mult     1
Symmetry turned off for PCM/SM12/SMD calculation

 Q-Chem warning in module libgen/rem_setup.C, line 2803:

 Neither GIA nor STOLL is specified by user. Use STOLL as the default


Checking the input file for inconsistencies... 	...done.

--------------------------------------------------------------
User input:
--------------------------------------------------------------
$comment
SSI-125TYR-164HIE-1.pdb
$end

$molecule
0 1
--
0 1
C   -2.076555945605   -2.379070989893   -1.855379100155
C   -1.942555945605    0.920929010107    0.076620899845
C   -1.924555945605    0.440929010107    1.380620899845
C   -1.932555945605    0.000929010107   -0.963379100155
C   -1.963555945605   -1.383070989893   -0.725379100155
C   -1.937555945605   -0.926070989893    1.634620899845
C   -1.971555945605   -1.842070989893    0.582620899845
O   -1.939555945605    1.340929010107    2.423620899845
H   -1.935555945605    1.983929010107   -0.117379100155
H   -1.920555945605    0.373929010107   -1.979379100155
H   -1.886555945605   -1.293070989893    2.641620899845
H   -1.897555945605    0.897929010107    3.288620899845
H   -1.737555945605   -3.359070989893   -1.514379100155
H   -1.429555945605   -2.067070989893   -2.676379100155
H   -1.988555945605   -2.904070989893    0.795620899845
H   -3.114945945605   -2.461570989893   -2.208857100155
--
0 1
C    1.512444054395   -0.183070989893   -2.227379100155
C    1.709444054395    0.635929010107    0.226620899845
C    2.189444054395    0.366929010107   -1.014379100155
C    3.865444054395    1.072929010107    0.216620899845
N    2.767444054395    1.103929010107    0.969620899845
N    3.542444054395    0.634929010107   -0.993379100155
H    0.684444054395    0.523929010107    0.547620899845
H    2.714444054395    1.478929010107    1.910620899845
H    0.458444054395   -0.334070989893   -2.011379100155
H    1.944444054395   -1.158070989893   -2.450379100155
H    4.849444054395    1.404929010107    0.519620899845
H    1.618694054395    0.463859010107   -3.110667100155
$end

$rem
JOBTYPE			EDA
EDA2			1
method			wB97X-V
BASIS			def2-TZVPD
XC_GRID			000099000590
NL_GRID			1
UNRESTRICTED		FALSE
MAX_SCF_CYCLES		200
SYMMETRY		FALSE
SYM_IGNORE		TRUE
MEM_STATIC		2000
BASIS_LIN_DEP_THRESH 	6
THRESH 			14
SCF_CONVERGENCE 	8
SCF_PRINT_FRGM 		TRUE
SOLVENT_METHOD          PCM
$end

$PCM
THEORY                  CPCM
METHOD                  SWIG
SOLVER                  INVERSION
RADII                   UFF
HPOINTS                 302
HEAVYPOINTS             302
PRINTLEVEL              0
$END

$SOLVENT
DIELECTRIC              78.390000 ! water
$END
--------------------------------------------------------------
 ----------------------------------------------------------------
             Standard Nuclear Orientation (Angstroms)
    I     Atom           X                Y                Z
 ----------------------------------------------------------------
    1      C      -2.0765559456    -2.3790709899    -1.8553791002
    2      C      -1.9425559456     0.9209290101     0.0766208998
    3      C      -1.9245559456     0.4409290101     1.3806208998
    4      C      -1.9325559456     0.0009290101    -0.9633791002
    5      C      -1.9635559456    -1.3830709899    -0.7253791002
    6      C      -1.9375559456    -0.9260709899     1.6346208998
    7      C      -1.9715559456    -1.8420709899     0.5826208998
    8      O      -1.9395559456     1.3409290101     2.4236208998
    9      H      -1.9355559456     1.9839290101    -0.1173791002
   10      H      -1.9205559456     0.3739290101    -1.9793791002
   11      H      -1.8865559456    -1.2930709899     2.6416208998
   12      H      -1.8975559456     0.8979290101     3.2886208998
   13      H      -1.7375559456    -3.3590709899    -1.5143791002
   14      H      -1.4295559456    -2.0670709899    -2.6763791002
   15      H      -1.9885559456    -2.9040709899     0.7956208998
   16      H      -3.1149459456    -2.4615709899    -2.2088571002
   17      C       1.5124440544    -0.1830709899    -2.2273791002
   18      C       1.7094440544     0.6359290101     0.2266208998
   19      C       2.1894440544     0.3669290101    -1.0143791002
   20      C       3.8654440544     1.0729290101     0.2166208998
   21      N       2.7674440544     1.1039290101     0.9696208998
   22      N       3.5424440544     0.6349290101    -0.9933791002
   23      H       0.6844440544     0.5239290101     0.5476208998
   24      H       2.7144440544     1.4789290101     1.9106208998
   25      H       0.4584440544    -0.3340709899    -2.0113791002
   26      H       1.9444440544    -1.1580709899    -2.4503791002
   27      H       4.8494440544     1.4049290101     0.5196208998
   28      H       1.6186940544     0.4638590101    -3.1106671002
 ----------------------------------------------------------------
 Nuclear Repulsion Energy =         832.57249855 hartrees
 There are       51 alpha and       51 beta electrons
 Requested basis set is def2-TZVPD
 There are 253 shells and 647 basis functions

 Total QAlloc Memory Limit  96000 MB
 Mega-Array Size      1956 MB
 MEM_STATIC part      2000 MB
 Discretize the solute cavity surface with Lebedev spheres
	Using 302 Lebedev grid points for each H atom
	Using 302 Lebedev grid points for other atoms
	Atomic van der Waals radii will be scaled by 1.20
 Remove points where switching function is < 1.0e-08
 Keep 3077 surface tesserae and discard 5379 interior tesserae
 Molecular Surface Area = 306.099 Angst**2
 A cutoff of  1.0D-14 yielded  27924 shell pairs
 There are    183164 function pairs (    232193 Cartesian)
 Smallest overlap matrix eigenvalue = 4.76E-07
 Linear dependence detected in AO basis
 Tighter screening thresholds may be required for diffuse basis sets
 Use S2THRESH > 14 and THRESH = 14 in case of SCF convergence issues
 Number of orthogonalized atomic orbitals = 644
 Maximum deviation from orthogonality = 2.043E-10

 Scale SEOQF with 1.000000e-01/1.000000e-01/1.000000e-01

 Standard Electronic Orientation quadrupole field applied
 Nucleus-field energy     =     0.0000000077 hartrees

 -----------------------------------------------------------------------
  General SCF calculation program by
  Eric Jon Sundstrom, Paul Horn, Yuezhi Mao, Dmitri Zuev, Alec White,
  David Stuck, Shaama M.S., Shane Yost, Joonho Lee, David Small,
  Daniel Levine, Susi Lehtola, Hugh Burton, Evgeny Epifanovsky
 -----------------------------------------------------------------------
================================================================
                 ALMO-EDA with the EDA2 driver                  
================================================================
 The second-generation ALMO-EDA (for DFT):                      
 P. R. Horn, Y. Mao and M. Head-Gordon, PCCP, 18, 23067 (2016)  
 Decomposition of the frozen energy:                            
 P. R. Horn, Y. Mao and M. Head-Gordon, JCP, 144, 114107 (2016) 
 FERF model for polarization:                                   
 P. R. Horn and M. Head-Gordon, JCP, 143, 114111 (2015)         
Using eda2 option set 1
Option set summary: Frozen orbital wavefunction, initial wavefunction decomposition, and nDQ polarization.
--------------------------------
Printing EDA Options
--------------------------------
eda_child_super_basis      0
fragmo_guess_mode          0
child_mp                   1
child_mp_orders            232
cls_elec                   1
cls_disp                   0
scfmi_mode                 1
scfmi_occs                 0
scfmi_virts                0
frz_relax                  0
frz_relax_method           0
dc_pen_start               0
dc_pen_conv                0
dc_pen_increment           0
dc_pen_steps               0
dc_pen_thresh_factor       0
dc_pen_pre_newton_thresh   0
frz_ortho_decomp           1
frz_ortho_decomp_conv      6
frgm_method                2
scfmi_freeze_ss            0
separate_rehyb             0
plot_diff_den              0
eda_nocv                   0
eda_vct_relax              1
disp_free_x                0
disp_free_c                0
eda_bsse                   0
eda_pct_a                  0
eda_covp                   0
--------------------------------
Attempting to make child job directory: /tmp/qchem46214//Frg1/
Attempting to make child job directory: /tmp/qchem46214//Frg2/
Creating input file /tmp/qchem46214/Frg1.input
using default PutDataFrgm: nothing
calling putenv with: QCSCRATCH=/tmp/qchem46214/ 
calling putenv with: QCLOCALSCR=/tmp/qchem46214/ 
Spawning Job For Fragment 0
                  Welcome to Q-Chem
     A Quantum Leap Into The Future Of Chemistry


 Q-Chem 5.2, Q-Chem, Inc., Pleasanton, CA (2019)

 License issued to: National Energy Research Scientific Computing Center

 Yihan Shao,  Zhengting Gan,  E. Epifanovsky,  A. T. B. Gilbert,  M. Wormit,  
 J. Kussmann,  A. W. Lange,  A. Behn,  Jia Deng,  Xintian Feng,  D. Ghosh,  
 M. Goldey,  P. R. Horn,  L. D. Jacobson,  I. Kaliman,  T. Kus,  A. Landau,  
 Jie Liu,  E. I. Proynov,  R. M. Richard,  R. P. Steele,  E. J. Sundstrom,  
 H. L. Woodcock III,  P. M. Zimmerman,  D. Zuev,  B. Albrecht,  E. Alguire,  
 S. A. Baeppler,  D. Barton,  Z. Benda,  Y. A. Bernard,  E. J. Berquist,  
 K. B. Bravaya,  H. Burton,  D. Casanova,  Chun-Min Chang,  Yunqing Chen,  
 A. Chien,  K. D. Closser,  M. P. Coons,  S. Coriani,  S. Dasgupta,  
 A. L. Dempwolff,  M. Diedenhofen,  Hainam Do,  R. G. Edgar,  Po-Tung Fang,  
 S. Faraji,  S. Fatehi,  Qingguo Feng,  K. D. Fenk,  J. Fosso-Tande,  
 J. Gayvert,  Qinghui Ge,  A. Ghysels,  G. Gidofalvi,  J. Gomes,  
 J. Gonthier,  A. Gunina,  D. Hait,  M. W. D. Hanson-Heine,  
 P. H. P. Harbach,  A. W. Hauser,  M. F. Herbst,  J. E. Herr,  
 E. G. Hohenstein,  Z. C. Holden,  Kerwin Hui,  B. C. Huynh,  T.-C. Jagau,  
 Hyunjun Ji,  B. Kaduk,  K. Khistyaev,  Jaehoon Kim,  P. Klunzinger,  K. Koh,  
 D. Kosenkov,  L. Koulias,  T. Kowalczyk,  C. M. Krauter,  A. Kunitsa,  
 Ka Un Lao,  A. Laurent,  K. V. Lawler,  Joonho Lee,  D. Lefrancois,  
 S. Lehtola,  D. S. Levine,  Yi-Pei Li,  You-Sheng Lin,  Fenglai Liu,  
 E. Livshits,  A. Luenser,  P. Manohar,  E. Mansoor,  S. F. Manzer,  
 Shan-Ping Mao,  Yuezhi Mao,  N. Mardirossian,  A. V. Marenich,  
 T. Markovich,  L. A. Martinez-Martinez,  S. A. Maurer,  N. J. Mayhall,  
 S. C. McKenzie,  J.-M. Mewes,  P. Morgante,  A. F. Morrison,  
 J. W. Mullinax,  K. Nanda,  T. S. Nguyen-Beck,  R. Olivares-Amaya,  
 J. A. Parkhill,  Zheng Pei,  T. M. Perrine,  F. Plasser,  P. Pokhilko,  
 S. Prager,  A. Prociuk,  E. Ramos,  D. R. Rehn,  F. Rob,  M. Scheurer,  
 M. Schneider,  N. Sergueev,  S. M. Sharada,  S. Sharma,  D. W. Small,  
 T. Stauch,  T. Stein,  Yu-Chuan Su,  A. J. W. Thom,  A. Tkatchenko,  
 T. Tsuchimochi,  N. M. Tubman,  L. Vogt,  M. L. Vidal,  O. Vydrov,  
 M. A. Watson,  J. Wenzel,  M. de Wergifosse,  T. A. Wesolowski,  A. White,  
 J. Witte,  A. Yamada,  Jun Yang,  K. Yao,  S. Yeganeh,  S. R. Yost,  
 Zhi-Qiang You,  A. Zech,  Igor Ying Zhang,  Xing Zhang,  Yan Zhao,  
 Ying Zhu,  B. R. Brooks,  G. K. L. Chan,  C. J. Cramer,  M. S. Gordon,  
 W. J. Hehre,  A. Klamt,  M. W. Schmidt,  C. D. Sherrill,  D. G. Truhlar,  
 A. Aspuru-Guzik,  R. Baer,  A. T. Bell,  N. A. Besley,  Jeng-Da Chai,  
 A. E. DePrince, III,  R. A. DiStasio Jr.,  A. Dreuw,  B. D. Dunietz,  
 T. R. Furlani,  Chao-Ping Hsu,  Yousung Jung,  Jing Kong,  D. S. Lambrecht,  
 WanZhen Liang,  C. Ochsenfeld,  V. A. Rassolov,  L. V. Slipchenko,  
 J. E. Subotnik,  T. Van Voorhis,  J. M. Herbert,  A. I. Krylov,  
 P. M. W. Gill,  M. Head-Gordon

 Contributors to earlier versions of Q-Chem not listed above: 
 R. D. Adamson,  B. Austin,  J. Baker,  G. J. O. Beran,  K. Brandhorst,  
 S. T. Brown,  E. F. C. Byrd,  A. K. Chakraborty,  C.-L. Cheng,  
 Siu Hung Chien,  D. M. Chipman,  D. L. Crittenden,  H. Dachsel,  
 R. J. Doerksen,  A. D. Dutoi,  L. Fusti-Molnar,  W. A. Goddard III,  
 A. Golubeva-Zadorozhnaya,  S. R. Gwaltney,  G. Hawkins,  A. Heyden,  
 S. Hirata,  G. Kedziora,  F. J. Keil,  C. Kelley,  Jihan Kim,  R. A. King,  
 R. Z. Khaliullin,  P. P. Korambath,  W. Kurlancheek,  A. M. Lee,  M. S. Lee,  
 S. V. Levchenko,  Ching Yeh Lin,  D. Liotard,  R. C. Lochan,  I. Lotan,  
 P. E. Maslen,  N. Nair,  D. P. O'Neill,  D. Neuhauser,  E. Neuscamman,  
 C. M. Oana,  R. Olson,  B. Peters,  R. Peverati,  P. A. Pieniazek,  
 Y. M. Rhee,  J. Ritchie,  M. A. Rohrdanz,  E. Rosta,  N. J. Russ,  
 H. F. Schaefer III,  N. E. Schultz,  N. Shenvi,  A. C. Simmonett,  A. Sodt,  
 D. Stuck,  K. S. Thanthiriwatte,  V. Vanovschi,  Tao Wang,  A. Warshel,  
 C. F. Williams,  Q. Wu,  X. Xu,  W. Zhang

 Please cite Q-Chem as follows:
 Y. Shao et al., Mol. Phys. 113, 184-215 (2015)
 DOI: 10.1080/00268976.2014.952696

 Q-Chem 5.2.0 for Intel X86 EM64T Linux

 Parts of Q-Chem use Armadillo 8.300.2 (Tropical Shenanigans).
 http://arma.sourceforge.net/

 Q-Chem begins on Sun Sep 26 14:09:34 2021  

Host: cori01
0

     Scratch files written to /tmp/qchem46214//Frg1//
 May1019 |scratch|qcdevops|jenkins|workspace|build_RNUM -1
Processing $rem in /global/common/cori/software/qchem/5.2/config/preferences:
	 MEM_TOTAL  96000 
NAlpha2: 58
NElect   58
Mult     1
Symmetry turned off for PCM/SM12/SMD calculation

Checking the input file for inconsistencies... 	...done.

--------------------------------------------------------------
User input:
--------------------------------------------------------------
$molecule
0 1
 6	-2.0765559456	-2.3790709899	-1.8553791002
 6	-1.9425559456	0.9209290101	0.0766208998
 6	-1.9245559456	0.4409290101	1.3806208998
 6	-1.9325559456	0.0009290101	-0.9633791002
 6	-1.9635559456	-1.3830709899	-0.7253791002
 6	-1.9375559456	-0.9260709899	1.6346208998
 6	-1.9715559456	-1.8420709899	0.5826208998
 8	-1.9395559456	1.3409290101	2.4236208998
 1	-1.9355559456	1.9839290101	-0.1173791002
 1	-1.9205559456	0.3739290101	-1.9793791002
 1	-1.8865559456	-1.2930709899	2.6416208998
 1	-1.8975559456	0.8979290101	3.2886208998
 1	-1.7375559456	-3.3590709899	-1.5143791002
 1	-1.4295559456	-2.0670709899	-2.6763791002
 1	-1.9885559456	-2.9040709899	0.7956208998
 1	-3.1149459456	-2.4615709899	-2.2088571002
$end
$rem
EDA2		1
METHOD		WB97X-V
BASIS		DEF2-TZVPD
XC_GRID		000099000590
NL_GRID		1
UNRESTRICTED		FALSE
MAX_SCF_CYCLES		200
SYMMETRY		FALSE
SYM_IGNORE		TRUE
BASIS_LIN_DEP_THRESH		6
THRESH		14
SCF_CONVERGENCE		8
SCF_PRINT_FRGM		TRUE
SOLVENT_METHOD		PCM
!required keywords
JOBTYPE		SP
SYM_IGNORE		TRUE
SUBSYSTEM		TRUE
GEN_SCFMAN		TRUE
CHILD_INSTRUCTION		2
SYM_IGNORE		TRUE
SCFMI		0
RI_K 0		
PARI_K 0		
MIN_PARI_K 0		
IARI_K 0		
OCC_RI_K 0		
PURECART		1111
MEM_STATIC		2000
MEM_TOTAL		96000
GUI		0
CHILD_MP		1
CHILD_MP_ORDERS		232
FRZ_RELAX		0
FRZ_RELAX_METHOD		0
EDA_CLS_ELEC		1
EDA_CLS_DISP		0
FRZ_ORTHO_DECOMP		1
EDA2		FALSE
FRGM_METHOD		FALSE
CIS_N_ROOTS  0
LOCAL_CIS    0
CIS_RLX_DNS  1
$end
$pcm
THEORY                  CPCM
METHOD                  SWIG
SOLVER                  INVERSION
RADII                   UFF
HPOINTS                 302
HEAVYPOINTS             302
PRINTLEVEL              0
$end
$solvent
DIELECTRIC              78.390000 ! water
$end
--------------------------------------------------------------
 ----------------------------------------------------------------
             Standard Nuclear Orientation (Angstroms)
    I     Atom           X                Y                Z
 ----------------------------------------------------------------
    1      C      -2.0765559456    -2.3790709899    -1.8553791002
    2      C      -1.9425559456     0.9209290101     0.0766208998
    3      C      -1.9245559456     0.4409290101     1.3806208998
    4      C      -1.9325559456     0.0009290101    -0.9633791002
    5      C      -1.9635559456    -1.3830709899    -0.7253791002
    6      C      -1.9375559456    -0.9260709899     1.6346208998
    7      C      -1.9715559456    -1.8420709899     0.5826208998
    8      O      -1.9395559456     1.3409290101     2.4236208998
    9      H      -1.9355559456     1.9839290101    -0.1173791002
   10      H      -1.9205559456     0.3739290101    -1.9793791002
   11      H      -1.8865559456    -1.2930709899     2.6416208998
   12      H      -1.8975559456     0.8979290101     3.2886208998
   13      H      -1.7375559456    -3.3590709899    -1.5143791002
   14      H      -1.4295559456    -2.0670709899    -2.6763791002
   15      H      -1.9885559456    -2.9040709899     0.7956208998
   16      H      -3.1149459456    -2.4615709899    -2.2088571002
 ----------------------------------------------------------------
 Nuclear Repulsion Energy =         342.79796692 hartrees
 There are       29 alpha and       29 beta electrons
 Requested basis set is def2-TZVPD
 There are 145 shells and 371 basis functions

 Total QAlloc Memory Limit  96000 MB
 Mega-Array Size      1956 MB
 MEM_STATIC part      2000 MB
 Discretize the solute cavity surface with Lebedev spheres
	Using 302 Lebedev grid points for each H atom
	Using 302 Lebedev grid points for other atoms
	Atomic van der Waals radii will be scaled by 1.20
 Remove points where switching function is < 1.0e-08
 Keep 1877 surface tesserae and discard 2955 interior tesserae
 Molecular Surface Area = 190.773 Angst**2
 A cutoff of  1.0D-14 yielded  10044 shell pairs
 There are     67108 function pairs (     85819 Cartesian)
 Smallest overlap matrix eigenvalue = 5.57E-07
 Linear dependence detected in AO basis
 Tighter screening thresholds may be required for diffuse basis sets
 Use S2THRESH > 14 and THRESH = 14 in case of SCF convergence issues
 Number of orthogonalized atomic orbitals = 370
 Maximum deviation from orthogonality = 2.473E-10

 Scale SEOQF with 1.000000e-01/1.000000e-01/1.000000e-01

 Standard Electronic Orientation quadrupole field applied
 Nucleus-field energy     =     0.0000000019 hartrees
 Guess from superposition of atomic densities
 Warning:  Energy on first SCF cycle will be non-variational
 SAD guess density has 57.738434 electrons

 -----------------------------------------------------------------------
  General SCF calculation program by
  Eric Jon Sundstrom, Paul Horn, Yuezhi Mao, Dmitri Zuev, Alec White,
  David Stuck, Shaama M.S., Shane Yost, Joonho Lee, David Small,
  Daniel Levine, Susi Lehtola, Hugh Burton, Evgeny Epifanovsky
 -----------------------------------------------------------------------
 Exchange:     0.1670 Hartree-Fock + 1.0000 wB97X-V + LR-HF
 Correlation:  1.0000 wB97X-V
 Using Euler-Maclaurin-Lebedev (99,590) quadrature formula
 Nonlocal Correlation:  VV10 with C = 0.0100 and b = 6.00 and scale = 1.00000
 Grid used for NLC:  SG-1 standard quadrature
Energy prior to optimization (guess energy) = -346.492693240891
Begin Timing: Total SCF Calculation
begin iterations for algorithm: DIIS         
the SCF tolerance is set to 1.00e-08
    1    -346.4926932409      5.19e-03     00000 
    2    -346.4155925670      5.70e-03     00000 
    3    -346.8115480405      5.46e-04     00000 
    4    -346.8158466854      1.84e-04     00000 
    5    -346.8164756813      2.55e-05     00000 
    6    -346.8164958707      1.28e-05     00000 
    7    -346.8164993087      4.07e-06     00000 
    8    -346.8164997447      1.22e-06     00000 
    9    -346.8164997954      5.43e-07     00000 
   10    -346.8164998035      1.17e-07     00000 
   11    -346.8164998045      5.48e-08     00000 
   12    -346.8164998046      2.80e-08     00000 
   13    -346.8164998047      5.88e-09     00000 Convergence criterion met
Timing for Total SCF: 2132.00s (wall), 4234.00s (cpu)

************** Final PCM Free Energy Summary **************
 G_electrostatic  =      -0.00558612 hartree =      -3.50534360 kcal/mol
 G_cavitation     =       0.00000000 hartree =       0.00000000 kcal/mol
 G_dispersion     =       0.00000000 hartree =       0.00000000 kcal/mol
 G_repulsion      =       0.00000000 hartree =       0.00000000 kcal/mol
 --------------------------------------------------
 Non-electrostatic Free Energy =       0.00000000 hartree =       0.00000000 kcal/mol
 Total                         =      -0.00558612 hartree =      -3.50534360 kcal/mol
 --------------------------------------------------
 SCF Energy (H0 + V/2)                       =    -346.81649980 
 Solute Internal Energy (H0)                 =    -346.81091368 
 Total Free Energy (H0 + V/2 + non-elec)     =    -346.81649980 hartree
                                             = -217630.63832650 kcal/mol
***********************************************************

E_pcm = -0.0055861206
Multipole orders to be included
        2
        3
computing dipole RHS
computing quadrupole RHS
total number of RHS in solve_reponses: 8
RHS batch sizes
        8
Beginning Block Conjugate Gradient Iterations. Batch Number: 0
computing hessian-vector products by finite difference
              1      6.18e-01     00000 Conjugate Gradient Iteration
computing hessian-vector products by finite difference
              2      2.00e-01     00000 Conjugate Gradient Iteration
computing hessian-vector products by finite difference
              3      5.02e-02     00000 Conjugate Gradient Iteration
computing hessian-vector products by finite difference
              4      1.39e-02     00000 Conjugate Gradient Iteration
computing hessian-vector products by finite difference
              5      3.66e-03     00000 Conjugate Gradient Iteration
computing hessian-vector products by finite difference
              6      1.31e-03     00000 Conjugate Gradient Iteration
computing hessian-vector products by finite difference
              7      3.37e-04     00000 Conjugate Gradient Iteration
computing hessian-vector products by finite difference
              8      6.58e-05     00000 Conjugate Gradient Iteration
computing hessian-vector products by finite difference
              9      1.23e-05     00000 Conjugate Gradient Iteration
computing hessian-vector products by finite difference
             10      1.68e-06     00000 Conjugate Gradient Iteration
computing hessian-vector products by finite difference
             11      2.33e-07     00000 Conjugate Gradient Iteration
computing hessian-vector products by finite difference
             12      4.60e-08     00000 Conjugate Gradient Iteration
computing hessian-vector products by finite difference
             13      7.89e-09     00000 CG Converged
batch 0 complete
Done Calculating Responses
TESTING ORTHOGONALIZATION OF MULTIPOLE BASIS
Multipole virts passed orthogonality test
Virts Per Order
           87
          145
 
 --------------------------------------------------------------
 
                    Orbital Energies (a.u.)
 --------------------------------------------------------------
 
 Alpha MOs
 -- Occupied --
-19.2443 -10.3359 -10.2769 -10.2759 -10.2740 -10.2728 -10.2713 -10.2619
 -1.1875  -0.9963  -0.9023  -0.8851  -0.8098  -0.7481  -0.7142  -0.6640
 -0.6025  -0.5813  -0.5492  -0.5405  -0.5359  -0.5202  -0.5097  -0.4790
 -0.4531  -0.4442  -0.4420  -0.3540  -0.3139
 -- Virtual --
  0.0578   0.0585   0.0682   0.0773   0.0830   0.0943   0.1087   0.1092
  0.1143   0.1314   0.1447   0.1503   0.1532   0.1722   0.1742   0.1922
  0.1972   0.2051   0.2152   0.2230   0.2344   0.2393   0.2479   0.2509
  0.2626   0.2647   0.2699   0.2732   0.2818   0.2934   0.2962   0.3014
  0.3046   0.3084   0.3144   0.3223   0.3338   0.3379   0.3427   0.3466
  0.3531   0.3560   0.3605   0.3731   0.3735   0.3767   0.3834   0.3903
  0.3913   0.3933   0.3997   0.4092   0.4104   0.4201   0.4245   0.4319
  0.4338   0.4515   0.4563   0.4602   0.4676   0.4690   0.4771   0.4816
  0.4837   0.4926   0.4956   0.5051   0.5114   0.5156   0.5261   0.5338
  0.5400   0.5458   0.5473   0.5575   0.5597   0.5666   0.5809   0.5941
  0.5973   0.6037   0.6196   0.6294   0.6391   0.6570   0.6614   0.6709
  0.6790   0.6825   0.6863   0.6869   0.7019   0.7038   0.7136   0.7255
  0.7273   0.7383   0.7436   0.7522   0.7570   0.7729   0.7811   0.7856
  0.7882   0.7893   0.7956   0.8019   0.8066   0.8157   0.8252   0.8346
  0.8383   0.8447   0.8507   0.8568   0.8645   0.8710   0.8826   0.8922
  0.8997   0.9120   0.9263   0.9500   0.9667   0.9778   0.9892   1.0013
  1.0269   1.0335   1.0417   1.0452   1.0497   1.0697   1.0707   1.0847
  1.0986   1.1218   1.1454   1.1737   1.1983   1.2373   1.2467   1.2894
  1.3078   1.3128   1.3278   1.3515   1.3599   1.3868   1.3922   1.4385
  1.4557   1.4642   1.4755   1.4835   1.5287   1.5617   1.6058   1.6147
  1.6255   1.6353   1.6798   1.6859   1.6983   1.7162   1.7899   1.7940
  1.8160   1.8259   1.8313   1.8552   1.8658   1.8796   1.9159   1.9232
  1.9417   1.9530   1.9710   1.9841   2.0033   2.0248   2.0338   2.0469
  2.0547   2.0767   2.0874   2.0960   2.1152   2.1566   2.1909   2.2047
  2.2137   2.2379   2.2569   2.2747   2.2936   2.3159   2.3490   2.3675
  2.3954   2.4103   2.4271   2.4481   2.4897   2.4995   2.5187   2.5611
  2.5765   2.6073   2.6120   2.6355   2.6435   2.6653   2.6872   2.7365
  2.7477   2.7591   2.7763   2.8067   2.8213   2.8322   2.8627   2.8767
  2.9013   2.9201   2.9348   2.9481   2.9590   2.9677   2.9745   2.9981
  3.0119   3.0428   3.0646   3.0774   3.1032   3.1351   3.1476   3.1669
  3.1705   3.1947   3.2144   3.2375   3.2569   3.2618   3.2733   3.2913
  3.3130   3.3529   3.3794   3.3859   3.3937   3.4176   3.4392   3.4526
  3.4678   3.4724   3.4908   3.5081   3.5128   3.5284   3.5355   3.5451
  3.5580   3.5663   3.5774   3.5960   3.6047   3.6145   3.6545   3.6575
  3.6852   3.6991   3.7531   3.7626   3.7793   3.8181   3.8394   3.8906
  3.9306   3.9613   3.9792   3.9854   4.0366   4.0811   4.1242   4.1495
  4.2427   4.2660   4.2945   4.3014   4.3144   4.3278   4.3414   4.3607
  4.3692   4.4004   4.4128   4.4582   4.4884   4.5612   4.6059   4.6142
  4.7336   4.7422   4.7742   4.8041   4.8765   4.9148   5.0214   5.0603
  5.0930   5.1272   5.1540   5.3099   5.3274   5.3856   5.4382   5.5298
  5.5984   5.6397   5.6954   5.7578   5.9215   6.1837   6.4503   6.5735
  6.6280   6.8655   6.9929   7.3055   7.4410  22.6587  22.6667  22.9296
 22.9918  23.0346  23.1700  23.4883  44.4057
 --------------------------------------------------------------
 
          Ground-State Mulliken Net Atomic Charges

     Atom                 Charge (a.u.)
  ----------------------------------------
      1 C                    -1.028134
      2 C                    -0.745301
      3 C                     0.830744
      4 C                    -0.354923
      5 C                     0.611221
      6 C                    -0.438031
      7 C                    -0.669760
      8 O                    -0.491383
      9 H                     0.333811
     10 H                     0.325990
     11 H                     0.279356
     12 H                     0.297953
     13 H                     0.275532
     14 H                     0.270222
     15 H                     0.293283
     16 H                     0.209421
  ----------------------------------------
  Sum of atomic charges =     0.000000

 -----------------------------------------------------------------
                    Cartesian Multipole Moments
 -----------------------------------------------------------------
    Charge (ESU x 10^10)
                -0.0000
    Dipole Moment (Debye)
         X       0.0341      Y      -1.6500      Z       0.5692
       Tot       1.7458
    Quadrupole Moments (Debye-Ang)
        XX     -51.6876     XY       3.4388     YY     -46.4435
        XZ      -0.6155     YZ      -3.2687     ZZ     -37.5739
    Octopole Moments (Debye-Ang^2)
       XXX     303.1702    XXY      19.8094    XYY      91.2169
       YYY      64.0292    XXZ     -14.7544    XYZ       6.0441
       YYZ     -18.5365    XZZ      75.7129    YZZ      20.6068
       ZZZ      -0.4528
    Hexadecapole Moments (Debye-Ang^3)
      XXXX   -1252.3184   XXXY    -149.6205   XXYY    -308.8101
      XYYY    -135.2104   YYYY    -642.6518   XXXZ      83.8853
      XXYZ     -53.8959   XYYZ      34.7023   YYYZ    -160.5363
      XXZZ    -285.2202   XYZZ     -42.3551   YYZZ    -240.8550
      XZZZ      -3.3018   YZZZ    -137.8235   ZZZZ    -533.0545
 -----------------------------------------------------------------
Archival summary:
1\1\nid00564\SP\ProcedureUnspecified\BasisUnspecified\178\meili\MonSep2701:00:562021MonSep2701:00:562021\0\\#,ProcedureUnspecified,BasisUnspecified,\\0,1\C\O,1,1.37771\H,2,0.972748,1,112.038\C,1,1.38965,2,118.987,3,-178.271,0\H,4,1.08058,1,120.542,2,1.99343,0\C,4,1.38856,1,118.286,2,-179.744,0\H,6,1.08237,4,118.347,1,-178.436,0\C,1,1.39046,2,120.255,3,3.90693,0\H,8,1.073,1,120.481,2,-4.51232,0\C,8,1.39532,1,120.524,2,177.66,0\H,10,1.08328,8,119.717,1,-179.56,0\C,10,1.38622,8,119.597,1,1.37511,0\C,12,1.51052,10,119.151,8,-176.695,0\H,13,1.09087,12,109.272,10,-141.759,0\H,13,1.09161,12,109.575,10,-23.7067,0\H,13,1.1,12,111.129,10,96.8629,0\\\@

 Total job time:  39085.12s(wall), 77534.05s(cpu) 
 Mon Sep 27 01:00:59 2021

        *************************************************************
        *                                                           *
        *  Thank you very much for using Q-Chem.  Have a nice day.  *
        *                                                           *
        *************************************************************


Done Job For Fragment 0
calling putenv with: QCSCRATCH=/global/cscratch1/sd/meili 
calling putenv with: QCLOCALSCR=/tmp 
calling putenv with: QCTHREADS=32 
Creating input file /tmp/qchem46214/Frg2.input
using default PutDataFrgm: nothing
calling putenv with: QCSCRATCH=/tmp/qchem46214/ 
calling putenv with: QCLOCALSCR=/tmp/qchem46214/ 
Spawning Job For Fragment 1
                  Welcome to Q-Chem
     A Quantum Leap Into The Future Of Chemistry


 Q-Chem 5.2, Q-Chem, Inc., Pleasanton, CA (2019)

 License issued to: National Energy Research Scientific Computing Center

 Yihan Shao,  Zhengting Gan,  E. Epifanovsky,  A. T. B. Gilbert,  M. Wormit,  
 J. Kussmann,  A. W. Lange,  A. Behn,  Jia Deng,  Xintian Feng,  D. Ghosh,  
 M. Goldey,  P. R. Horn,  L. D. Jacobson,  I. Kaliman,  T. Kus,  A. Landau,  
 Jie Liu,  E. I. Proynov,  R. M. Richard,  R. P. Steele,  E. J. Sundstrom,  
 H. L. Woodcock III,  P. M. Zimmerman,  D. Zuev,  B. Albrecht,  E. Alguire,  
 S. A. Baeppler,  D. Barton,  Z. Benda,  Y. A. Bernard,  E. J. Berquist,  
 K. B. Bravaya,  H. Burton,  D. Casanova,  Chun-Min Chang,  Yunqing Chen,  
 A. Chien,  K. D. Closser,  M. P. Coons,  S. Coriani,  S. Dasgupta,  
 A. L. Dempwolff,  M. Diedenhofen,  Hainam Do,  R. G. Edgar,  Po-Tung Fang,  
 S. Faraji,  S. Fatehi,  Qingguo Feng,  K. D. Fenk,  J. Fosso-Tande,  
 J. Gayvert,  Qinghui Ge,  A. Ghysels,  G. Gidofalvi,  J. Gomes,  
 J. Gonthier,  A. Gunina,  D. Hait,  M. W. D. Hanson-Heine,  
 P. H. P. Harbach,  A. W. Hauser,  M. F. Herbst,  J. E. Herr,  
 E. G. Hohenstein,  Z. C. Holden,  Kerwin Hui,  B. C. Huynh,  T.-C. Jagau,  
 Hyunjun Ji,  B. Kaduk,  K. Khistyaev,  Jaehoon Kim,  P. Klunzinger,  K. Koh,  
 D. Kosenkov,  L. Koulias,  T. Kowalczyk,  C. M. Krauter,  A. Kunitsa,  
 Ka Un Lao,  A. Laurent,  K. V. Lawler,  Joonho Lee,  D. Lefrancois,  
 S. Lehtola,  D. S. Levine,  Yi-Pei Li,  You-Sheng Lin,  Fenglai Liu,  
 E. Livshits,  A. Luenser,  P. Manohar,  E. Mansoor,  S. F. Manzer,  
 Shan-Ping Mao,  Yuezhi Mao,  N. Mardirossian,  A. V. Marenich,  
 T. Markovich,  L. A. Martinez-Martinez,  S. A. Maurer,  N. J. Mayhall,  
 S. C. McKenzie,  J.-M. Mewes,  P. Morgante,  A. F. Morrison,  
 J. W. Mullinax,  K. Nanda,  T. S. Nguyen-Beck,  R. Olivares-Amaya,  
 J. A. Parkhill,  Zheng Pei,  T. M. Perrine,  F. Plasser,  P. Pokhilko,  
 S. Prager,  A. Prociuk,  E. Ramos,  D. R. Rehn,  F. Rob,  M. Scheurer,  
 M. Schneider,  N. Sergueev,  S. M. Sharada,  S. Sharma,  D. W. Small,  
 T. Stauch,  T. Stein,  Yu-Chuan Su,  A. J. W. Thom,  A. Tkatchenko,  
 T. Tsuchimochi,  N. M. Tubman,  L. Vogt,  M. L. Vidal,  O. Vydrov,  
 M. A. Watson,  J. Wenzel,  M. de Wergifosse,  T. A. Wesolowski,  A. White,  
 J. Witte,  A. Yamada,  Jun Yang,  K. Yao,  S. Yeganeh,  S. R. Yost,  
 Zhi-Qiang You,  A. Zech,  Igor Ying Zhang,  Xing Zhang,  Yan Zhao,  
 Ying Zhu,  B. R. Brooks,  G. K. L. Chan,  C. J. Cramer,  M. S. Gordon,  
 W. J. Hehre,  A. Klamt,  M. W. Schmidt,  C. D. Sherrill,  D. G. Truhlar,  
 A. Aspuru-Guzik,  R. Baer,  A. T. Bell,  N. A. Besley,  Jeng-Da Chai,  
 A. E. DePrince, III,  R. A. DiStasio Jr.,  A. Dreuw,  B. D. Dunietz,  
 T. R. Furlani,  Chao-Ping Hsu,  Yousung Jung,  Jing Kong,  D. S. Lambrecht,  
 WanZhen Liang,  C. Ochsenfeld,  V. A. Rassolov,  L. V. Slipchenko,  
 J. E. Subotnik,  T. Van Voorhis,  J. M. Herbert,  A. I. Krylov,  
 P. M. W. Gill,  M. Head-Gordon

 Contributors to earlier versions of Q-Chem not listed above: 
 R. D. Adamson,  B. Austin,  J. Baker,  G. J. O. Beran,  K. Brandhorst,  
 S. T. Brown,  E. F. C. Byrd,  A. K. Chakraborty,  C.-L. Cheng,  
 Siu Hung Chien,  D. M. Chipman,  D. L. Crittenden,  H. Dachsel,  
 R. J. Doerksen,  A. D. Dutoi,  L. Fusti-Molnar,  W. A. Goddard III,  
 A. Golubeva-Zadorozhnaya,  S. R. Gwaltney,  G. Hawkins,  A. Heyden,  
 S. Hirata,  G. Kedziora,  F. J. Keil,  C. Kelley,  Jihan Kim,  R. A. King,  
 R. Z. Khaliullin,  P. P. Korambath,  W. Kurlancheek,  A. M. Lee,  M. S. Lee,  
 S. V. Levchenko,  Ching Yeh Lin,  D. Liotard,  R. C. Lochan,  I. Lotan,  
 P. E. Maslen,  N. Nair,  D. P. O'Neill,  D. Neuhauser,  E. Neuscamman,  
 C. M. Oana,  R. Olson,  B. Peters,  R. Peverati,  P. A. Pieniazek,  
 Y. M. Rhee,  J. Ritchie,  M. A. Rohrdanz,  E. Rosta,  N. J. Russ,  
 H. F. Schaefer III,  N. E. Schultz,  N. Shenvi,  A. C. Simmonett,  A. Sodt,  
 D. Stuck,  K. S. Thanthiriwatte,  V. Vanovschi,  Tao Wang,  A. Warshel,  
 C. F. Williams,  Q. Wu,  X. Xu,  W. Zhang

 Please cite Q-Chem as follows:
 Y. Shao et al., Mol. Phys. 113, 184-215 (2015)
 DOI: 10.1080/00268976.2014.952696

 Q-Chem 5.2.0 for Intel X86 EM64T Linux

 Parts of Q-Chem use Armadillo 8.300.2 (Tropical Shenanigans).
 http://arma.sourceforge.net/

 Q-Chem begins on Mon Sep 27 01:01:02 2021  

Host: cori01
0

     Scratch files written to /tmp/qchem46214//Frg2//
 May1019 |scratch|qcdevops|jenkins|workspace|build_RNUM -1
Processing $rem in /global/common/cori/software/qchem/5.2/config/preferences:
	 MEM_TOTAL  96000 
NAlpha2: 44
NElect   44
Mult     1
Symmetry turned off for PCM/SM12/SMD calculation

Checking the input file for inconsistencies... 	...done.

--------------------------------------------------------------
User input:
--------------------------------------------------------------
$molecule
0 1
 6	1.5124440544	-0.1830709899	-2.2273791002
 6	1.7094440544	0.6359290101	0.2266208998
 6	2.1894440544	0.3669290101	-1.0143791002
 6	3.8654440544	1.0729290101	0.2166208998
 7	2.7674440544	1.1039290101	0.9696208998
 7	3.5424440544	0.6349290101	-0.9933791002
 1	0.6844440544	0.5239290101	0.5476208998
 1	2.7144440544	1.4789290101	1.9106208998
 1	0.4584440544	-0.3340709899	-2.0113791002
 1	1.9444440544	-1.1580709899	-2.4503791002
 1	4.8494440544	1.4049290101	0.5196208998
 1	1.6186940544	0.4638590101	-3.1106671002
$end
$rem
EDA2		1
METHOD		WB97X-V
BASIS		DEF2-TZVPD
XC_GRID		000099000590
NL_GRID		1
UNRESTRICTED		FALSE
MAX_SCF_CYCLES		200
SYMMETRY		FALSE
SYM_IGNORE		TRUE
BASIS_LIN_DEP_THRESH		6
THRESH		14
SCF_CONVERGENCE		8
SCF_PRINT_FRGM		TRUE
SOLVENT_METHOD		PCM
!required keywords
JOBTYPE		SP
SYM_IGNORE		TRUE
SUBSYSTEM		TRUE
GEN_SCFMAN		TRUE
CHILD_INSTRUCTION		2
SYM_IGNORE		TRUE
SCFMI		0
RI_K 0		
PARI_K 0		
MIN_PARI_K 0		
IARI_K 0		
OCC_RI_K 0		
PURECART		1111
MEM_STATIC		2000
MEM_TOTAL		96000
GUI		0
CHILD_MP		1
CHILD_MP_ORDERS		232
FRZ_RELAX		0
FRZ_RELAX_METHOD		0
EDA_CLS_ELEC		1
EDA_CLS_DISP		0
FRZ_ORTHO_DECOMP		1
EDA2		FALSE
FRGM_METHOD		FALSE
CIS_N_ROOTS  0
LOCAL_CIS    0
CIS_RLX_DNS  1
$end
$pcm
THEORY                  CPCM
METHOD                  SWIG
SOLVER                  INVERSION
RADII                   UFF
HPOINTS                 302
HEAVYPOINTS             302
PRINTLEVEL              0
$end
$solvent
DIELECTRIC              78.390000 ! water
$end
--------------------------------------------------------------
 ----------------------------------------------------------------
             Standard Nuclear Orientation (Angstroms)
    I     Atom           X                Y                Z
 ----------------------------------------------------------------
    1      C       1.5124440544    -0.1830709899    -2.2273791002
    2      C       1.7094440544     0.6359290101     0.2266208998
    3      C       2.1894440544     0.3669290101    -1.0143791002
    4      C       3.8654440544     1.0729290101     0.2166208998
    5      N       2.7674440544     1.1039290101     0.9696208998
    6      N       3.5424440544     0.6349290101    -0.9933791002
    7      H       0.6844440544     0.5239290101     0.5476208998
    8      H       2.7144440544     1.4789290101     1.9106208998
    9      H       0.4584440544    -0.3340709899    -2.0113791002
   10      H       1.9444440544    -1.1580709899    -2.4503791002
   11      H       4.8494440544     1.4049290101     0.5196208998
   12      H       1.6186940544     0.4638590101    -3.1106671002
 ----------------------------------------------------------------
 Nuclear Repulsion Energy =         224.89933138 hartrees
 There are       22 alpha and       22 beta electrons
 Requested basis set is def2-TZVPD
 There are 108 shells and 276 basis functions

 Total QAlloc Memory Limit  96000 MB
 Mega-Array Size      1956 MB
 MEM_STATIC part      2000 MB
 Discretize the solute cavity surface with Lebedev spheres
	Using 302 Lebedev grid points for each H atom
	Using 302 Lebedev grid points for other atoms
	Atomic van der Waals radii will be scaled by 1.20
 Remove points where switching function is < 1.0e-08
 Keep 1521 surface tesserae and discard 2103 interior tesserae
 Molecular Surface Area = 157.249 Angst**2

                       Distance Matrix (Angstroms)
             C (  1)   C (  2)   C (  3)   C (  4)   N (  5)   N (  6)
   C (  2)  2.594549
   C (  3)  1.494054  1.357513
   C (  4)  3.617635  2.199865  2.196081
   N (  5)  3.667724  1.374932  2.193971  1.331756
   N (  6)  2.512525  2.201883  1.379447  1.326753  2.161933
   H (  7)  2.980949  1.079912  2.174746  3.244953  2.203037  3.248871
   H (  8)  4.618451  2.134603  3.172979  2.087887  1.014354  3.135464
   H (  9)  1.086450  2.741267  2.117019  4.307120  4.035553  3.389150
   H ( 10)  1.089485  3.231097  2.108968  3.972467  4.182149  2.809146
   H ( 11)  4.604707  3.246045  3.241327  1.081799  2.151238  2.142503
   H ( 12)  1.100002  3.342953  2.174758  4.060751  4.286965  2.865831
             H (  7)   H (  8)   H (  9)   H ( 10)   H ( 11)
   H (  8)  2.625013
   H (  9)  2.708454  4.874278
   H ( 10)  3.661247  5.154124  1.754962
   H ( 11)  4.257249  2.549232  5.358261  4.881485
   H ( 12)  3.776176  5.238737  1.786423  1.781222  4.949985
 
 A cutoff of  1.0D-14 yielded   5738 shell pairs
 There are     38184 function pairs (     48966 Cartesian)
 Smallest overlap matrix eigenvalue = 1.76E-06

 Scale SEOQF with 1.000000e-01/1.000000e-01/1.000000e-01

 Standard Electronic Orientation quadrupole field applied
 Nucleus-field energy     =     0.0000000058 hartrees
 Guess from superposition of atomic densities
 Warning:  Energy on first SCF cycle will be non-variational
 SAD guess density has 43.559167 electrons

 -----------------------------------------------------------------------
  General SCF calculation program by
  Eric Jon Sundstrom, Paul Horn, Yuezhi Mao, Dmitri Zuev, Alec White,
  David Stuck, Shaama M.S., Shane Yost, Joonho Lee, David Small,
  Daniel Levine, Susi Lehtola, Hugh Burton, Evgeny Epifanovsky
 -----------------------------------------------------------------------
 Exchange:     0.1670 Hartree-Fock + 1.0000 wB97X-V + LR-HF
 Correlation:  1.0000 wB97X-V
 Using Euler-Maclaurin-Lebedev (99,590) quadrature formula
 Nonlocal Correlation:  VV10 with C = 0.0100 and b = 6.00 and scale = 1.00000
 Grid used for NLC:  SG-1 standard quadrature
Energy prior to optimization (guess energy) = -265.143387891635
Begin Timing: Total SCF Calculation
begin iterations for algorithm: DIIS         
the SCF tolerance is set to 1.00e-08
    1    -265.1433878916      7.22e-03     00000 
    2    -265.0992277988      7.40e-03     00000 
    3    -265.5597833306      7.29e-04     00000 
    4    -265.5633800964      4.21e-04     00000 
    5    -265.5648393211      8.45e-05     00000 
    6    -265.5649238826      3.00e-05     00000 
    7    -265.5649366386      9.23e-06     00000 
    8    -265.5649380030      3.03e-06     00000 
    9    -265.5649381786      1.30e-06     00000 
   10    -265.5649382182      3.51e-07     00000 
   11    -265.5649382226      8.43e-08     00000 
   12    -265.5649382228      5.07e-08     00000 
   13    -265.5649382228      1.01e-08     00000 
   14    -265.5649382228      3.71e-09     00000 Convergence criterion met
Timing for Total SCF: 968.00s (wall), 1874.73s (cpu)

************** Final PCM Free Energy Summary **************
 G_electrostatic  =      -0.01064313 hartree =      -6.67866368 kcal/mol
 G_cavitation     =       0.00000000 hartree =       0.00000000 kcal/mol
 G_dispersion     =       0.00000000 hartree =       0.00000000 kcal/mol
 G_repulsion      =       0.00000000 hartree =       0.00000000 kcal/mol
 --------------------------------------------------
 Non-electrostatic Free Energy =       0.00000000 hartree =       0.00000000 kcal/mol
 Total                         =      -0.01064313 hartree =      -6.67866368 kcal/mol
 --------------------------------------------------
 SCF Energy (H0 + V/2)                       =    -265.56493822 
 Solute Internal Energy (H0)                 =    -265.55429509 
 Total Free Energy (H0 + V/2 + non-elec)     =    -265.56493822 hartree
                                             = -166644.51390035 kcal/mol
***********************************************************

E_pcm = -0.0106431281
Multipole orders to be included
        2
        3
computing dipole RHS
computing quadrupole RHS
total number of RHS in solve_reponses: 8
RHS batch sizes
        8
Beginning Block Conjugate Gradient Iterations. Batch Number: 0
computing hessian-vector products by finite difference
              1      6.13e-01     00000 Conjugate Gradient Iteration
computing hessian-vector products by finite difference
              2      1.96e-01     00000 Conjugate Gradient Iteration
computing hessian-vector products by finite difference
              3      5.11e-02     00000 Conjugate Gradient Iteration
computing hessian-vector products by finite difference
              4      1.52e-02     00000 Conjugate Gradient Iteration
computing hessian-vector products by finite difference
              5      2.98e-03     00000 Conjugate Gradient Iteration
computing hessian-vector products by finite difference
              6      5.90e-04     00000 Conjugate Gradient Iteration
computing hessian-vector products by finite difference
              7      1.16e-04     00000 Conjugate Gradient Iteration
computing hessian-vector products by finite difference
              8      1.72e-05     00000 Conjugate Gradient Iteration
computing hessian-vector products by finite difference
              9      2.38e-06     00000 Conjugate Gradient Iteration
computing hessian-vector products by finite difference
             10      3.09e-07     00000 Conjugate Gradient Iteration
computing hessian-vector products by finite difference
             11      4.46e-08     00000 Conjugate Gradient Iteration
computing hessian-vector products by finite difference
             12      7.32e-09     00000 CG Converged
batch 0 complete
Done Calculating Responses
TESTING ORTHOGONALIZATION OF MULTIPOLE BASIS
Multipole virts passed orthogonality test
Virts Per Order
           66
          110
 
 --------------------------------------------------------------
 
                    Orbital Energies (a.u.)
 --------------------------------------------------------------
 
 Alpha MOs
 -- Occupied --
-14.4671 -14.3872 -10.3231 -10.2900 -10.2863 -10.2639  -1.1573  -0.9987
 -0.9012  -0.8297  -0.7303  -0.6886  -0.6707  -0.5675  -0.5605  -0.5447
 -0.5142  -0.5031  -0.4832  -0.3790  -0.3758  -0.3259
 -- Virtual --
  0.0638   0.0821   0.0931   0.1025   0.1140   0.1245   0.1305   0.1428
  0.1646   0.1695   0.1753   0.1815   0.1977   0.1989   0.2222   0.2357
  0.2429   0.2450   0.2578   0.2624   0.2672   0.2862   0.2960   0.3020
  0.3082   0.3119   0.3176   0.3223   0.3245   0.3326   0.3441   0.3552
  0.3582   0.3632   0.3760   0.3782   0.3922   0.3987   0.4029   0.4103
  0.4190   0.4207   0.4254   0.4462   0.4548   0.4658   0.4715   0.4783
  0.4865   0.4952   0.4976   0.5118   0.5319   0.5415   0.5462   0.5563
  0.5659   0.5740   0.5879   0.5948   0.6032   0.6094   0.6265   0.6350
  0.6410   0.6487   0.6712   0.6816   0.6886   0.7014   0.7055   0.7119
  0.7255   0.7381   0.7579   0.7703   0.7775   0.7810   0.7921   0.8033
  0.8078   0.8100   0.8233   0.8268   0.8590   0.8656   0.8718   0.8997
  0.9156   0.9389   0.9732   0.9833   0.9953   1.0076   1.0149   1.0276
  1.0670   1.0871   1.1082   1.1176   1.1243   1.1496   1.1816   1.2050
  1.2252   1.2359   1.2778   1.3318   1.3397   1.3490   1.3773   1.4227
  1.4365   1.4572   1.5397   1.5535   1.6063   1.6390   1.6493   1.6696
  1.6976   1.7313   1.7913   1.8241   1.8333   1.8506   1.8545   1.8906
  1.9094   1.9421   1.9485   1.9578   1.9684   1.9816   1.9902   2.0116
  2.0219   2.0670   2.0857   2.1278   2.1715   2.2377   2.2621   2.2830
  2.3089   2.3463   2.3726   2.3916   2.4396   2.4569   2.4608   2.4907
  2.5526   2.5993   2.6043   2.6163   2.6306   2.6563   2.6829   2.7157
  2.7410   2.7669   2.7847   2.8447   2.8601   2.8733   2.9008   2.9882
  3.0168   3.0397   3.0570   3.0667   3.0741   3.1293   3.1328   3.1566
  3.1883   3.1925   3.2112   3.2207   3.2643   3.2926   3.3037   3.3260
  3.3548   3.3659   3.3838   3.4032   3.4104   3.4567   3.4607   3.4925
  3.5153   3.5397   3.5835   3.5915   3.6263   3.6466   3.7108   3.7254
  3.7594   3.7931   3.8109   3.8456   3.8865   3.9437   3.9563   4.0398
  4.0903   4.0972   4.1258   4.2275   4.2922   4.4187   4.4383   4.4953
  4.5393   4.5729   4.6108   4.6937   4.7619   4.7901   4.8643   4.8732
  4.9502   4.9624   5.0138   5.0386   5.0416   5.0804   5.1575   5.1941
  5.2269   5.3004   5.3782   5.4432   5.4894   5.5311   5.5858   5.5994
  5.6670   5.6943   5.7441   5.7875   5.8744   6.0322   6.2382   6.2779
 22.6399  22.8783  23.1221  23.3916  32.6455  32.7797
 --------------------------------------------------------------
 
          Ground-State Mulliken Net Atomic Charges

     Atom                 Charge (a.u.)
  ----------------------------------------
      1 C                    -0.724899
      2 C                    -0.548147
      3 C                     0.568784
      4 C                    -0.233804
      5 N                     0.089124
      6 N                    -0.478490
      7 H                     0.259127
      8 H                     0.175969
      9 H                     0.213845
     10 H                     0.187110
     11 H                     0.285849
     12 H                     0.205532
  ----------------------------------------
  Sum of atomic charges =     0.000000

 -----------------------------------------------------------------
                    Cartesian Multipole Moments
 -----------------------------------------------------------------
    Charge (ESU x 10^10)
                 0.0000
    Dipole Moment (Debye)
         X      -1.7753      Y       1.0228      Z       3.9739
       Tot       4.4710
    Quadrupole Moments (Debye-Ang)
        XX     -43.4862     XY       3.8523     YY     -35.2297
        XZ      15.1775     YZ       5.8761     ZZ     -33.5203
    Octopole Moments (Debye-Ang^2)
       XXX    -299.2356    XXY      -4.0108    XYY     -86.3709
       YYY     -62.1936    XXZ      79.3599    XYZ      18.6437
       YYZ      26.5905    XZZ     -92.1190    YZZ     -15.0291
       ZZZ      68.7262
    Hexadecapole Moments (Debye-Ang^3)
      XXXX   -1699.8372   XXXY    -113.5913   XXYY    -278.5764
      XYYY    -191.1717   YYYY    -171.0023   XXXZ     341.1665
      XXYZ      56.9224   XYYZ      56.0416   YYYZ     -11.1678
      XXZZ    -368.4497   XYZZ     -53.6087   YYZZ     -83.7513
      XZZZ     140.6775   YZZZ      -6.7911   ZZZZ    -374.8686
 -----------------------------------------------------------------
Archival summary:
1\1\nid00564\SP\ProcedureUnspecified\BasisUnspecified\246\meili\MonSep2705:22:002021MonSep2705:22:002021\0\\#,ProcedureUnspecified,BasisUnspecified,\\0,1\N\C,1,1.32675\H,2,1.0818,1,125.324\N,2,1.33176,1,108.822,3,176.681,0\H,4,1.01435,2,125.185,1,-174.082,0\C,4,1.37493,2,108.721,1,1.62026,0\H,6,1.07991,4,127.232,2,179.29,0\C,6,1.35751,4,106.821,2,-2.20113,0\C,8,1.49405,6,130.914,4,178.787,0\H,9,1.08645,8,109.229,6,2.34557,0\H,9,1.08949,8,108.418,6,-114.535,0\H,9,1.1,8,113.058,6,124.634,0\\\@

 Total job time:  15661.27s(wall), 30940.63s(cpu) 
 Mon Sep 27 05:22:03 2021

        *************************************************************
        *                                                           *
        *  Thank you very much for using Q-Chem.  Have a nice day.  *
        *                                                           *
        *************************************************************


Done Job For Fragment 1
calling putenv with: QCSCRATCH=/global/cscratch1/sd/meili 
calling putenv with: QCLOCALSCR=/tmp 
calling putenv with: QCTHREADS=32 
Doing General SCFMI
 Exchange:     0.1670 Hartree-Fock + 1.0000 wB97X-V + LR-HF
 Correlation:  1.0000 wB97X-V
 Using Euler-Maclaurin-Lebedev (99,590) quadrature formula
 Nonlocal Correlation:  VV10 with C = 0.0100 and b = 6.00 and scale = 1.00000
 Grid used for NLC:  SG-1 standard quadrature
performing fock build before subrot guess so that all methods have access
Printing subrot_rss_gen Method Specification:
Occupied Subspace Method is 0
Virtual Subspace Method is 0
Energy of the unrelaxed supersystem initial determinant -612.368334419699
performing fock build before subrot guess so that all methods have access
Printing subrot_rss_gen Method Specification:
Occupied Subspace Method is 0
Virtual Subspace Method is 0
Energy of the unrelaxed supersystem initial determinant w/ solvent -612.383615306529
write pseudocanon occs and virts to disk
write pseudocanon orbital energies to disk
Tolerance of ortho_decomp_scf: 1.00e-06
GDM subspace size: 20
Beginning the Orthogonal Decomposition of the Initial Supersystem Wavefunction
    1    -612.3431283973      2.21e-02     ortho_decomp Preconditoned Steepest Descent
    2    -612.3453049646      5.61e-04     ortho_decomp BFGS Step
    3    -612.3453120918      4.47e-05     ortho_decomp BFGS Step
    4    -612.3453121077      1.97e-06     ortho_decomp BFGS Step
    5    -612.3453121078      7.03e-08     ortho_decomp 00000 Convergence criterion met
 Hartree-Fock
 Hartree-Fock
 Hartree-Fock
Doing General SCFMI
 Exchange:     0.1670 Hartree-Fock + 1.0000 wB97X-V + LR-HF
 Correlation:  1.0000 wB97X-V
 Using Euler-Maclaurin-Lebedev (99,590) quadrature formula
 Nonlocal Correlation:  VV10 with C = 0.0100 and b = 6.00 and scale = 1.00000
 Grid used for NLC:  SG-1 standard quadrature
performing fock build at end of subrot_r(subrot) constructor so that all methods have access
<S^2> of initial wavefunction before polarization iterations 0.0000000000
Beginning iterations for the determination of the polarized wavefunction
Energy prior to optimization (guess energy) = -612.383615306530
Begin Timing: Total SCF Calculation
begin iterations for algorithm: DIIS         
the SCF tolerance is set to 1.00e-08
    1    -612.3836153065      6.15e-05     00000 
    2    -612.3840499448      2.28e-05     00000 
    3    -612.3840866883      1.12e-05     00000 
    4    -612.3840960429      4.29e-06     00000 
    5    -612.3840974533      1.81e-06     00000 
    6    -612.3840977909      8.89e-07     00000 
    7    -612.3840978414      4.53e-07     00000 
    8    -612.3840978512      2.57e-07     00000 
    9    -612.3840978541      1.20e-07     00000 
   10    -612.3840978547      6.35e-08     00000 
   11    -612.3840978548      3.11e-08     00000 
   12    -612.3840978549      1.27e-08     00000 
   13    -612.3840978549      6.45e-09     00000 Convergence criterion met
write pseudocanon occs and virts to disk
write pseudocanon orbital energies to disk
Timing for Total SCF: 10754.00s (wall), 21404.20s (cpu)
<S^2> of polarized wavefunction after polarization iterations 0.0000000000
relaxing scfmi constraint to allow all rotations in the entire AO span
Doing General SCFMI
 Exchange:     0.1670 Hartree-Fock + 1.0000 wB97X-V + LR-HF
 Correlation:  1.0000 wB97X-V
 Using Euler-Maclaurin-Lebedev (99,590) quadrature formula
 Nonlocal Correlation:  VV10 with C = 0.0100 and b = 6.00 and scale = 1.00000
 Grid used for NLC:  SG-1 standard quadrature
performing fock build at end of subrot_r(subrot) constructor so that all methods have access
<S^2> of polarized wavefunction before ct-allowed iterations 0.0000000000
Beginning iterations for the determination of the CT-Allowed wavefunction
Energy prior to optimization (guess energy) = -612.384097854896
Begin Timing: Total SCF Calculation
begin iterations for algorithm: DIIS         
the SCF tolerance is set to 1.00e-08
    1    -612.3840978549      7.98e-05     00000 
    2    -612.3855028487      9.03e-06     00000 
    3    -612.3855490502      1.65e-06     00000 
    4    -612.3855505840      9.46e-07     00000 
    5    -612.3855507848      2.03e-07     00000 
    6    -612.3855508008      1.02e-07     00000 
    7    -612.3855508039      2.71e-08     00000 
    8    -612.3855508044      1.61e-08     00000 
    9    -612.3855508045      5.17e-09     00000 Convergence criterion met
write pseudocanon occs and virts to disk
write pseudocanon orbital energies to disk
Timing for Total SCF: 7050.00s (wall), 14030.15s (cpu)
<S^2> of ct_allowed wavefunction after ct-allowed iterations 0.0000000000

================================
        Results of EDA2         
================================
Basic EDA Quantities
--------------------
Fragment Energies (Ha):
1 -346.8164998047
2 -265.5649382228
--------------------
  E_prp (kJ/mol) = 0.0000
  E_sol (kJ/mol) = 2.4900
  E_frz (kJ/mol) = -8.2065
  E_pol (kJ/mol) = -1.2669
  E_vct (kJ/mol) = -3.8148
  E_int (kJ/mol) = -10.7982
--------------------


Initial Wavefunction Decomposition
--------------------
  --------------------
  Orthogonal Fragment Subspace Decomposition:
  --------------------
     E_elec   (ELEC)   (kJ/mol) = -28.1682
     E_pauli  (PAULI)  (kJ/mol) = 40.5374
     E_disp   (DISP)   (kJ/mol) = -20.5757
     --------------------
     Terms summing to E_pauli:
     --------------------
        E_kep_pauli       (kJ/mol) = 52.2393
        E_disp_free_pauli (kJ/mol) = -11.7019
  --------------------
  Classical Frozen Decomposition:
  --------------------
     E_cls_elec  (CLS ELEC)  (kJ/mol) = -12.8854
     E_cls_pauli (CLS PAULI) (kJ/mol) = 4.6790
    [E_mod_pauli (MOD PAULI) (kJ/mol) = 25.2546 (CLS PAULI - DISP from orthogonal decomposition) ]
  --------------------
--------------------

Simplified EDA Summary (kJ/mol)
--------------------
 PREPARATION     0.0000
 SOLVATION       2.4900
 FROZEN          12.3692      (does not include dispersion)
[PAULI           40.5374]     (if this is negligible, then frozen describes electrostatics)
 DISPERSION      -20.5757
 POLARIZATION    -1.2669
 CHARGE TRANSFER -3.8148
 TOTAL           -10.7982     (PRP + SOL + FRZ + DISP + POL + CT)
--------------------
 
 --------------------------------------------------------------
 
                    Orbital Energies (a.u.)
 --------------------------------------------------------------
 
 Alpha MOs
 -- Occupied --
-19.2463 -14.4657 -14.3862 -10.3384 -10.3219 -10.2870 -10.2846 -10.2797
-10.2786 -10.2767 -10.2754 -10.2739 -10.2636 -10.2616  -1.1894  -1.1559
 -0.9993  -0.9974  -0.9049  -0.8996  -0.8878  -0.8280  -0.8120  -0.7507
 -0.7290  -0.7165  -0.6872  -0.6696  -0.6662  -0.6048  -0.5835  -0.5662
 -0.5614  -0.5516  -0.5500  -0.5386  -0.5371  -0.5200  -0.5131  -0.5112
 -0.5015  -0.4820  -0.4808  -0.4547  -0.4464  -0.4432  -0.3779  -0.3747
 -0.3566  -0.3241  -0.3163
 -- Virtual --
  0.0541   0.0543   0.0644   0.0677   0.0773   0.0795   0.0906   0.0936
  0.1013   0.1029   0.1063   0.1137   0.1211   0.1258   0.1333   0.1353
  0.1425   0.1454   0.1503   0.1631   0.1647   0.1718   0.1745   0.1774
  0.1824   0.1933   0.1958   0.2026   0.2094   0.2140   0.2201   0.2210
  0.2268   0.2298   0.2333   0.2432   0.2471   0.2500   0.2542   0.2598
  0.2633   0.2656   0.2688   0.2759   0.2789   0.2834   0.2845   0.2854
  0.2901   0.2959   0.3019   0.3029   0.3076   0.3094   0.3166   0.3188
  0.3207   0.3259   0.3288   0.3335   0.3353   0.3384   0.3412   0.3418
  0.3491   0.3534   0.3563   0.3590   0.3625   0.3687   0.3708   0.3734
  0.3745   0.3792   0.3848   0.3868   0.3886   0.3938   0.3966   0.4012
  0.4040   0.4094   0.4100   0.4177   0.4202   0.4225   0.4269   0.4311
  0.4352   0.4408   0.4429   0.4445   0.4518   0.4542   0.4584   0.4642
  0.4659   0.4671   0.4703   0.4737   0.4794   0.4808   0.4910   0.4938
  0.4963   0.5005   0.5037   0.5080   0.5129   0.5161   0.5256   0.5268
  0.5344   0.5377   0.5390   0.5443   0.5478   0.5536   0.5590   0.5644
  0.5677   0.5707   0.5729   0.5760   0.5783   0.5863   0.5891   0.5925
  0.6021   0.6035   0.6087   0.6121   0.6158   0.6232   0.6279   0.6338
  0.6362   0.6405   0.6433   0.6459   0.6531   0.6594   0.6618   0.6710
  0.6726   0.6767   0.6856   0.6901   0.6933   0.6982   0.7010   0.7089
  0.7121   0.7178   0.7204   0.7219   0.7310   0.7373   0.7385   0.7434
  0.7441   0.7486   0.7553   0.7575   0.7675   0.7712   0.7740   0.7773
  0.7841   0.7863   0.7897   0.7928   0.7987   0.8007   0.8056   0.8092
  0.8129   0.8177   0.8193   0.8284   0.8302   0.8332   0.8391   0.8412
  0.8436   0.8529   0.8539   0.8552   0.8616   0.8641   0.8666   0.8790
  0.8822   0.8868   0.8915   0.8954   0.8992   0.9116   0.9169   0.9239
  0.9302   0.9453   0.9482   0.9494   0.9582   0.9654   0.9718   0.9787
  0.9891   0.9955   1.0004   1.0068   1.0105   1.0208   1.0313   1.0335
  1.0394   1.0491   1.0561   1.0631   1.0746   1.0764   1.0814   1.0910
  1.0960   1.1012   1.1096   1.1171   1.1256   1.1404   1.1453   1.1600
  1.1681   1.1772   1.1957   1.1996   1.2035   1.2107   1.2226   1.2389
  1.2491   1.2562   1.2642   1.2771   1.2963   1.3086   1.3110   1.3341
  1.3370   1.3463   1.3579   1.3652   1.3761   1.3795   1.3952   1.4229
  1.4303   1.4402   1.4487   1.4511   1.4587   1.4670   1.4732   1.4898
  1.4987   1.5149   1.5241   1.5389   1.5566   1.5662   1.5802   1.6043
  1.6181   1.6393   1.6497   1.6568   1.6593   1.6756   1.6940   1.7077
  1.7113   1.7279   1.7466   1.7647   1.7978   1.8126   1.8204   1.8251
  1.8315   1.8418   1.8512   1.8639   1.8786   1.8888   1.9041   1.9105
  1.9206   1.9282   1.9289   1.9393   1.9537   1.9583   1.9610   1.9739
  1.9756   1.9835   1.9992   2.0044   2.0127   2.0239   2.0347   2.0452
  2.0497   2.0562   2.0639   2.0710   2.0742   2.0822   2.1028   2.1088
  2.1209   2.1217   2.1379   2.1567   2.1710   2.1806   2.1971   2.2089
  2.2220   2.2308   2.2336   2.2687   2.2769   2.2903   2.2948   2.2997
  2.3097   2.3210   2.3317   2.3457   2.3644   2.3739   2.3793   2.3929
  2.4096   2.4184   2.4301   2.4423   2.4712   2.4765   2.4871   2.4886
  2.5128   2.5249   2.5345   2.5438   2.5569   2.5906   2.5980   2.6072
  2.6208   2.6254   2.6320   2.6443   2.6521   2.6649   2.6675   2.6740
  2.6930   2.7080   2.7146   2.7400   2.7476   2.7594   2.7754   2.7894
  2.8039   2.8113   2.8147   2.8285   2.8367   2.8516   2.8696   2.8779
  2.8822   2.8995   2.9263   2.9381   2.9450   2.9476   2.9634   2.9727
  2.9825   2.9881   2.9915   3.0181   3.0223   3.0287   3.0439   3.0518
  3.0674   3.0781   3.0811   3.0869   3.1019   3.1080   3.1219   3.1369
  3.1523   3.1590   3.1734   3.1770   3.1829   3.1968   3.2049   3.2246
  3.2284   3.2369   3.2454   3.2561   3.2644   3.2734   3.2866   3.3062
  3.3076   3.3160   3.3221   3.3292   3.3503   3.3532   3.3662   3.3767
  3.3863   3.3964   3.4004   3.4057   3.4316   3.4365   3.4450   3.4502
  3.4590   3.4633   3.4753   3.4808   3.4912   3.5065   3.5149   3.5159
  3.5243   3.5277   3.5403   3.5466   3.5562   3.5645   3.5748   3.5776
  3.5921   3.6063   3.6095   3.6140   3.6262   3.6332   3.6430   3.6635
  3.6658   3.6675   3.6823   3.6922   3.6960   3.7076   3.7413   3.7542
  3.7620   3.7773   3.7982   3.8102   3.8201   3.8288   3.8339   3.8527
  3.8746   3.9085   3.9257   3.9500   3.9636   3.9853   3.9863   4.0048
  4.0172   4.0484   4.0692   4.1032   4.1076   4.1278   4.1340   4.1541
  4.1746   4.2525   4.2723   4.2785   4.3080   4.3154   4.3231   4.3297
  4.3318   4.3486   4.3684   4.3788   4.4173   4.4244   4.4389   4.4620
  4.4750   4.5012   4.5611   4.5633   4.5747   4.5939   4.6223   4.6289
  4.6433   4.7314   4.7431   4.7640   4.7684   4.7837   4.8110   4.8167
  4.8761   4.8857   4.8969   4.9393   4.9691   5.0004   5.0329   5.0402
  5.0450   5.0495   5.0685   5.0936   5.1104   5.1367   5.1624   5.1797
  5.2195   5.2383   5.3102   5.3146   5.3308   5.3944   5.3960   5.4416
  5.4603   5.5027   5.5330   5.5385   5.5995   5.6013   5.6257   5.6464
  5.6731   5.7010   5.7228   5.7447   5.7890   5.8125   5.8880   5.9292
  6.0503   6.1858   6.2518   6.2993   6.4440   6.5781   6.6598   6.8785
  6.9987   7.3141   7.4512  22.6806  22.6956  22.7948  22.9534  22.9845
 23.0278  23.0936  23.1669  23.1925  23.4264  23.4939  32.7237  32.8277
 44.4678
 --------------------------------------------------------------
 
          Ground-State Mulliken Net Atomic Charges

     Atom                 Charge (a.u.)
  ----------------------------------------
      1 C                    -1.175597
      2 C                    -0.450553
      3 C                     0.607422
      4 C                    -0.241279
      5 C                     0.614070
      6 C                    -0.430787
      7 C                    -0.568709
      8 O                    -0.501625
      9 H                     0.288308
     10 H                     0.258592
     11 H                     0.296819
     12 H                     0.311195
     13 H                     0.279236
     14 H                     0.250248
     15 H                     0.325235
     16 H                     0.236933
     17 C                    -0.339757
     18 C                    -0.709184
     19 C                     0.378175
     20 C                    -0.279943
     21 N                     0.142357
     22 N                    -0.503014
     23 H                     0.430403
     24 H                     0.185654
     25 H                    -0.046518
     26 H                     0.156518
     27 H                     0.273082
     28 H                     0.212719
  ----------------------------------------
  Sum of atomic charges =     0.000000

 -----------------------------------------------------------------
                    Cartesian Multipole Moments
 -----------------------------------------------------------------
    Charge (ESU x 10^10)
                -0.0000
    Dipole Moment (Debye)
         X      -2.0731      Y      -0.7182      Z       4.6149
       Tot       5.1099
    Quadrupole Moments (Debye-Ang)
        XX     -95.1705     XY       7.4143     YY     -81.3684
        XZ      14.6236     YZ       2.5844     ZZ     -71.1042
    Octopole Moments (Debye-Ang^2)
       XXX      -0.2053    XXY      14.8334    XYY       3.5106
       YYY       0.8740    XXZ      65.0269    XYZ      24.4770
       YYZ       8.0239    XZZ     -17.9192    YZZ       5.3189
       ZZZ      69.3333
    Hexadecapole Moments (Debye-Ang^3)
      XXXX   -2956.5404   XXXY    -263.3374   XXYY    -585.9398
      XYYY    -324.8128   YYYY    -810.3016   XXXZ     425.8660
      XXYZ       3.3395   XYYZ      91.1957   YYYZ    -171.1037
      XXZZ    -653.2176   XYZZ     -95.3651   YYZZ    -323.6276
      XZZZ     138.1830   YZZZ    -144.3476   ZZZZ    -908.1992
 -----------------------------------------------------------------
Archival summary:
1\1\nid00564\SP\ProcedureUnspecified\BasisUnspecified\121114\meili\MonSep2713:52:532021MonSep2713:52:532021\0\\#,ProcedureUnspecified,BasisUnspecified,\\0,1\N\H,1,1.01435\C,1,1.33176,2,125.185\H,3,1.0818,1,125.763,2,2.58059,0\N,3,1.32675,1,108.822,2,-174.082,0\C,1,1.37493,2,125.94,3,-174.971,0\H,6,1.07991,1,127.232,2,-5.04793,0\C,6,1.35751,1,106.821,2,173.461,0\C,8,1.49405,6,130.914,1,178.787,0\H,9,1.08645,8,109.229,6,2.34557,0\H,9,1.08949,8,108.418,6,-114.535,0\H,9,1.1,8,113.058,6,124.634,0\H,10,2.48232,9,153.211,8,93.3419,0\C,13,1.08237,10,85.6664,9,-134.095,0\C,14,1.38856,13,118.347,10,105.967,0\H,15,1.08058,14,121.149,13,-0.183936,0\C,15,1.38965,14,118.286,13,-178.436,0\O,17,1.37771,15,118.987,14,-179.744,0\H,18,0.972748,17,112.038,15,-178.271,0\C,17,1.39046,15,120.722,14,-1.93237,0\H,20,1.073,17,120.481,15,177.704,0\C,20,1.39532,17,120.524,15,-0.123288,0\H,22,1.08328,20,119.717,17,-179.56,0\C,22,1.38622,20,119.597,17,1.37511,0\C,24,1.51052,22,119.151,20,-176.695,0\H,25,1.09087,24,109.272,22,-141.759,0\H,25,1.09161,24,109.575,22,-23.7067,0\H,25,1.1,24,111.129,22,96.8629,0\\\@

 Total job time:  85408.02s(wall), 61061.99s(cpu) 
 Mon Sep 27 13:52:55 2021

        *************************************************************
        *                                                           *
        *  Thank you very much for using Q-Chem.  Have a nice day.  *
        *                                                           *
        *************************************************************


