
Running Job 1 of 1 SSI-048PHE-105TYR-1_PCM_TZVPD.in
qchem SSI-048PHE-105TYR-1_PCM_TZVPD.in_32974.0 /tmp/qchem32974/ 0
/global/common/cori/software/qchem/5.2/exe/qcprog.exe_s SSI-048PHE-105TYR-1_PCM_TZVPD.in_32974.0 /tmp/qchem32974/
                  Welcome to Q-Chem
     A Quantum Leap Into The Future Of Chemistry


 Q-Chem 5.2, Q-Chem, Inc., Pleasanton, CA (2019)

 License issued to: National Energy Research Scientific Computing Center

 Yihan Shao,  Zhengting Gan,  E. Epifanovsky,  A. T. B. Gilbert,  M. Wormit,  
 J. Kussmann,  A. W. Lange,  A. Behn,  Jia Deng,  Xintian Feng,  D. Ghosh,  
 M. Goldey,  P. R. Horn,  L. D. Jacobson,  I. Kaliman,  T. Kus,  A. Landau,  
 Jie Liu,  E. I. Proynov,  R. M. Richard,  R. P. Steele,  E. J. Sundstrom,  
 H. L. Woodcock III,  P. M. Zimmerman,  D. Zuev,  B. Albrecht,  E. Alguire,  
 S. A. Baeppler,  D. Barton,  Z. Benda,  Y. A. Bernard,  E. J. Berquist,  
 K. B. Bravaya,  H. Burton,  D. Casanova,  Chun-Min Chang,  Yunqing Chen,  
 A. Chien,  K. D. Closser,  M. P. Coons,  S. Coriani,  S. Dasgupta,  
 A. L. Dempwolff,  M. Diedenhofen,  Hainam Do,  R. G. Edgar,  Po-Tung Fang,  
 S. Faraji,  S. Fatehi,  Qingguo Feng,  K. D. Fenk,  J. Fosso-Tande,  
 J. Gayvert,  Qinghui Ge,  A. Ghysels,  G. Gidofalvi,  J. Gomes,  
 J. Gonthier,  A. Gunina,  D. Hait,  M. W. D. Hanson-Heine,  
 P. H. P. Harbach,  A. W. Hauser,  M. F. Herbst,  J. E. Herr,  
 E. G. Hohenstein,  Z. C. Holden,  Kerwin Hui,  B. C. Huynh,  T.-C. Jagau,  
 Hyunjun Ji,  B. Kaduk,  K. Khistyaev,  Jaehoon Kim,  P. Klunzinger,  K. Koh,  
 D. Kosenkov,  L. Koulias,  T. Kowalczyk,  C. M. Krauter,  A. Kunitsa,  
 Ka Un Lao,  A. Laurent,  K. V. Lawler,  Joonho Lee,  D. Lefrancois,  
 S. Lehtola,  D. S. Levine,  Yi-Pei Li,  You-Sheng Lin,  Fenglai Liu,  
 E. Livshits,  A. Luenser,  P. Manohar,  E. Mansoor,  S. F. Manzer,  
 Shan-Ping Mao,  Yuezhi Mao,  N. Mardirossian,  A. V. Marenich,  
 T. Markovich,  L. A. Martinez-Martinez,  S. A. Maurer,  N. J. Mayhall,  
 S. C. McKenzie,  J.-M. Mewes,  P. Morgante,  A. F. Morrison,  
 J. W. Mullinax,  K. Nanda,  T. S. Nguyen-Beck,  R. Olivares-Amaya,  
 J. A. Parkhill,  Zheng Pei,  T. M. Perrine,  F. Plasser,  P. Pokhilko,  
 S. Prager,  A. Prociuk,  E. Ramos,  D. R. Rehn,  F. Rob,  M. Scheurer,  
 M. Schneider,  N. Sergueev,  S. M. Sharada,  S. Sharma,  D. W. Small,  
 T. Stauch,  T. Stein,  Yu-Chuan Su,  A. J. W. Thom,  A. Tkatchenko,  
 T. Tsuchimochi,  N. M. Tubman,  L. Vogt,  M. L. Vidal,  O. Vydrov,  
 M. A. Watson,  J. Wenzel,  M. de Wergifosse,  T. A. Wesolowski,  A. White,  
 J. Witte,  A. Yamada,  Jun Yang,  K. Yao,  S. Yeganeh,  S. R. Yost,  
 Zhi-Qiang You,  A. Zech,  Igor Ying Zhang,  Xing Zhang,  Yan Zhao,  
 Ying Zhu,  B. R. Brooks,  G. K. L. Chan,  C. J. Cramer,  M. S. Gordon,  
 W. J. Hehre,  A. Klamt,  M. W. Schmidt,  C. D. Sherrill,  D. G. Truhlar,  
 A. Aspuru-Guzik,  R. Baer,  A. T. Bell,  N. A. Besley,  Jeng-Da Chai,  
 A. E. DePrince, III,  R. A. DiStasio Jr.,  A. Dreuw,  B. D. Dunietz,  
 T. R. Furlani,  Chao-Ping Hsu,  Yousung Jung,  Jing Kong,  D. S. Lambrecht,  
 WanZhen Liang,  C. Ochsenfeld,  V. A. Rassolov,  L. V. Slipchenko,  
 J. E. Subotnik,  T. Van Voorhis,  J. M. Herbert,  A. I. Krylov,  
 P. M. W. Gill,  M. Head-Gordon

 Contributors to earlier versions of Q-Chem not listed above: 
 R. D. Adamson,  B. Austin,  J. Baker,  G. J. O. Beran,  K. Brandhorst,  
 S. T. Brown,  E. F. C. Byrd,  A. K. Chakraborty,  C.-L. Cheng,  
 Siu Hung Chien,  D. M. Chipman,  D. L. Crittenden,  H. Dachsel,  
 R. J. Doerksen,  A. D. Dutoi,  L. Fusti-Molnar,  W. A. Goddard III,  
 A. Golubeva-Zadorozhnaya,  S. R. Gwaltney,  G. Hawkins,  A. Heyden,  
 S. Hirata,  G. Kedziora,  F. J. Keil,  C. Kelley,  Jihan Kim,  R. A. King,  
 R. Z. Khaliullin,  P. P. Korambath,  W. Kurlancheek,  A. M. Lee,  M. S. Lee,  
 S. V. Levchenko,  Ching Yeh Lin,  D. Liotard,  R. C. Lochan,  I. Lotan,  
 P. E. Maslen,  N. Nair,  D. P. O'Neill,  D. Neuhauser,  E. Neuscamman,  
 C. M. Oana,  R. Olson,  B. Peters,  R. Peverati,  P. A. Pieniazek,  
 Y. M. Rhee,  J. Ritchie,  M. A. Rohrdanz,  E. Rosta,  N. J. Russ,  
 H. F. Schaefer III,  N. E. Schultz,  N. Shenvi,  A. C. Simmonett,  A. Sodt,  
 D. Stuck,  K. S. Thanthiriwatte,  V. Vanovschi,  Tao Wang,  A. Warshel,  
 C. F. Williams,  Q. Wu,  X. Xu,  W. Zhang

 Please cite Q-Chem as follows:
 Y. Shao et al., Mol. Phys. 113, 184-215 (2015)
 DOI: 10.1080/00268976.2014.952696

 Q-Chem 5.2.0 for Intel X86 EM64T Linux

 Parts of Q-Chem use Armadillo 8.300.2 (Tropical Shenanigans).
 http://arma.sourceforge.net/

 Q-Chem begins on Sun Sep 26 08:21:00 2021  

Host: cori01
0

     Scratch files written to /tmp/qchem32974//
 May1019 |scratch|qcdevops|jenkins|workspace|build_RNUM -1
Processing $rem in /global/common/cori/software/qchem/5.2/config/preferences:
	 MEM_TOTAL  96000 
NAlpha2: 108
NElect   108
Mult     1
Symmetry turned off for PCM/SM12/SMD calculation

 Q-Chem warning in module libgen/rem_setup.C, line 2803:

 Neither GIA nor STOLL is specified by user. Use STOLL as the default


Checking the input file for inconsistencies... 	...done.

--------------------------------------------------------------
User input:
--------------------------------------------------------------
$comment
SSI-048PHE-105TYR-1.pdb
$end

$molecule
0 1
--
0 1
C   -2.585429844470    1.116324746194    2.699918019840
C   -0.329429844470    0.635324746194    1.702918019840
C   -1.103429844470    0.894324746194    2.829918019840
C    1.040570155530    0.439324746194    1.816918019840
C   -0.488429844470    0.965324746194    4.074918019840
C    1.648570155530    0.508324746194    3.062918019840
C    0.881570155530    0.769324746194    4.192918019840
H   -0.792429844470    0.581324746194    0.727918019840
H    1.633570155530    0.240324746194    0.933918019840
H   -3.086429844470    0.684324746194    3.566918019840
H   -2.936429844470    0.582324746194    1.822918019840
H   -1.079429844470    1.169324746194    4.956918019840
H    2.716570155530    0.364324746194    3.151918019840
H    1.349570155530    0.815324746194    5.165918019840
H   -2.863989844470    2.176734746194    2.610888019840
--
0 1
C    0.530570155530   -3.547675253806   -2.232081980160
C   -1.033429844470   -0.088675253806   -2.024081980160
C   -0.036429844470    0.698324746194   -2.590081980160
C   -0.847429844470   -1.462675253806   -1.910081980160
C    0.331570155530   -2.058675253806   -2.351081980160
C    1.142570155530    0.114324746194   -3.038081980160
C    1.320570155530   -1.259675253806   -2.919081980160
O   -0.217429844470    2.043324746194   -2.704081980160
H   -1.944429844470    0.374324746194   -1.674081980160
H   -1.627429844470   -2.072675253806   -1.473081980160
H    1.921570155530    0.718324746194   -3.475081980160
H    0.548570155530    2.503324746194   -3.060081980160
H   -0.181429844470   -3.959675253806   -1.519081980160
H    1.525570155530   -3.719675253806   -1.838081980160
H    2.239570155530   -1.709675253806   -3.272081980160
H    0.407966155530   -4.071985253806   -3.191281980160
$end

$rem
JOBTYPE			EDA
EDA2			1
method			wB97X-V
BASIS			def2-TZVPD
XC_GRID			000099000590
NL_GRID			1
UNRESTRICTED		FALSE
MAX_SCF_CYCLES		200
SYMMETRY		FALSE
SYM_IGNORE		TRUE
MEM_STATIC		2000
BASIS_LIN_DEP_THRESH 	6
THRESH 			14
SCF_CONVERGENCE 	8
SCF_PRINT_FRGM 		TRUE
SOLVENT_METHOD          PCM
$end

$PCM
THEORY                  CPCM
METHOD                  SWIG
SOLVER                  INVERSION
RADII                   UFF
HPOINTS                 302
HEAVYPOINTS             302
PRINTLEVEL              0
$END

$SOLVENT
DIELECTRIC              78.390000 ! water
$END
--------------------------------------------------------------
 ----------------------------------------------------------------
             Standard Nuclear Orientation (Angstroms)
    I     Atom           X                Y                Z
 ----------------------------------------------------------------
    1      C      -2.5854298445     1.1163247462     2.6999180198
    2      C      -0.3294298445     0.6353247462     1.7029180198
    3      C      -1.1034298445     0.8943247462     2.8299180198
    4      C       1.0405701555     0.4393247462     1.8169180198
    5      C      -0.4884298445     0.9653247462     4.0749180198
    6      C       1.6485701555     0.5083247462     3.0629180198
    7      C       0.8815701555     0.7693247462     4.1929180198
    8      H      -0.7924298445     0.5813247462     0.7279180198
    9      H       1.6335701555     0.2403247462     0.9339180198
   10      H      -3.0864298445     0.6843247462     3.5669180198
   11      H      -2.9364298445     0.5823247462     1.8229180198
   12      H      -1.0794298445     1.1693247462     4.9569180198
   13      H       2.7165701555     0.3643247462     3.1519180198
   14      H       1.3495701555     0.8153247462     5.1659180198
   15      H      -2.8639898445     2.1767347462     2.6108880198
   16      C       0.5305701555    -3.5476752538    -2.2320819802
   17      C      -1.0334298445    -0.0886752538    -2.0240819802
   18      C      -0.0364298445     0.6983247462    -2.5900819802
   19      C      -0.8474298445    -1.4626752538    -1.9100819802
   20      C       0.3315701555    -2.0586752538    -2.3510819802
   21      C       1.1425701555     0.1143247462    -3.0380819802
   22      C       1.3205701555    -1.2596752538    -2.9190819802
   23      O      -0.2174298445     2.0433247462    -2.7040819802
   24      H      -1.9444298445     0.3743247462    -1.6740819802
   25      H      -1.6274298445    -2.0726752538    -1.4730819802
   26      H       1.9215701555     0.7183247462    -3.4750819802
   27      H       0.5485701555     2.5033247462    -3.0600819802
   28      H      -0.1814298445    -3.9596752538    -1.5190819802
   29      H       1.5255701555    -3.7196752538    -1.8380819802
   30      H       2.2395701555    -1.7096752538    -3.2720819802
   31      H       0.4079661555    -4.0719852538    -3.1912819802
 ----------------------------------------------------------------
 Nuclear Repulsion Energy =         873.75687977 hartrees
 There are       54 alpha and       54 beta electrons
 Requested basis set is def2-TZVPD
 There are 276 shells and 702 basis functions

 Total QAlloc Memory Limit  96000 MB
 Mega-Array Size      1956 MB
 MEM_STATIC part      2000 MB
 Discretize the solute cavity surface with Lebedev spheres
	Using 302 Lebedev grid points for each H atom
	Using 302 Lebedev grid points for other atoms
	Atomic van der Waals radii will be scaled by 1.20
 Remove points where switching function is < 1.0e-08
 Keep 3581 surface tesserae and discard 5781 interior tesserae
 Molecular Surface Area = 348.675 Angst**2
 A cutoff of  1.0D-14 yielded  31760 shell pairs
 There are    205036 function pairs (    258354 Cartesian)
 Smallest overlap matrix eigenvalue = 4.29E-07
 Linear dependence detected in AO basis
 Tighter screening thresholds may be required for diffuse basis sets
 Use S2THRESH > 14 and THRESH = 14 in case of SCF convergence issues
 Number of orthogonalized atomic orbitals = 698
 Maximum deviation from orthogonality = 3.350E-10

 Scale SEOQF with 1.000000e-01/1.000000e-01/1.000000e-02

 Standard Electronic Orientation quadrupole field applied
 Nucleus-field energy     =     0.0000000151 hartrees

 -----------------------------------------------------------------------
  General SCF calculation program by
  Eric Jon Sundstrom, Paul Horn, Yuezhi Mao, Dmitri Zuev, Alec White,
  David Stuck, Shaama M.S., Shane Yost, Joonho Lee, David Small,
  Daniel Levine, Susi Lehtola, Hugh Burton, Evgeny Epifanovsky
 -----------------------------------------------------------------------
================================================================
                 ALMO-EDA with the EDA2 driver                  
================================================================
 The second-generation ALMO-EDA (for DFT):                      
 P. R. Horn, Y. Mao and M. Head-Gordon, PCCP, 18, 23067 (2016)  
 Decomposition of the frozen energy:                            
 P. R. Horn, Y. Mao and M. Head-Gordon, JCP, 144, 114107 (2016) 
 FERF model for polarization:                                   
 P. R. Horn and M. Head-Gordon, JCP, 143, 114111 (2015)         
Using eda2 option set 1
Option set summary: Frozen orbital wavefunction, initial wavefunction decomposition, and nDQ polarization.
--------------------------------
Printing EDA Options
--------------------------------
eda_child_super_basis      0
fragmo_guess_mode          0
child_mp                   1
child_mp_orders            232
cls_elec                   1
cls_disp                   0
scfmi_mode                 1
scfmi_occs                 0
scfmi_virts                0
frz_relax                  0
frz_relax_method           0
dc_pen_start               0
dc_pen_conv                0
dc_pen_increment           0
dc_pen_steps               0
dc_pen_thresh_factor       0
dc_pen_pre_newton_thresh   0
frz_ortho_decomp           1
frz_ortho_decomp_conv      6
frgm_method                2
scfmi_freeze_ss            0
separate_rehyb             0
plot_diff_den              0
eda_nocv                   0
eda_vct_relax              1
disp_free_x                0
disp_free_c                0
eda_bsse                   0
eda_pct_a                  0
eda_covp                   0
--------------------------------
Attempting to make child job directory: /tmp/qchem32974//Frg1/
Attempting to make child job directory: /tmp/qchem32974//Frg2/
Creating input file /tmp/qchem32974/Frg1.input
using default PutDataFrgm: nothing
calling putenv with: QCSCRATCH=/tmp/qchem32974/ 
calling putenv with: QCLOCALSCR=/tmp/qchem32974/ 
Spawning Job For Fragment 0
                  Welcome to Q-Chem
     A Quantum Leap Into The Future Of Chemistry


 Q-Chem 5.2, Q-Chem, Inc., Pleasanton, CA (2019)

 License issued to: National Energy Research Scientific Computing Center

 Yihan Shao,  Zhengting Gan,  E. Epifanovsky,  A. T. B. Gilbert,  M. Wormit,  
 J. Kussmann,  A. W. Lange,  A. Behn,  Jia Deng,  Xintian Feng,  D. Ghosh,  
 M. Goldey,  P. R. Horn,  L. D. Jacobson,  I. Kaliman,  T. Kus,  A. Landau,  
 Jie Liu,  E. I. Proynov,  R. M. Richard,  R. P. Steele,  E. J. Sundstrom,  
 H. L. Woodcock III,  P. M. Zimmerman,  D. Zuev,  B. Albrecht,  E. Alguire,  
 S. A. Baeppler,  D. Barton,  Z. Benda,  Y. A. Bernard,  E. J. Berquist,  
 K. B. Bravaya,  H. Burton,  D. Casanova,  Chun-Min Chang,  Yunqing Chen,  
 A. Chien,  K. D. Closser,  M. P. Coons,  S. Coriani,  S. Dasgupta,  
 A. L. Dempwolff,  M. Diedenhofen,  Hainam Do,  R. G. Edgar,  Po-Tung Fang,  
 S. Faraji,  S. Fatehi,  Qingguo Feng,  K. D. Fenk,  J. Fosso-Tande,  
 J. Gayvert,  Qinghui Ge,  A. Ghysels,  G. Gidofalvi,  J. Gomes,  
 J. Gonthier,  A. Gunina,  D. Hait,  M. W. D. Hanson-Heine,  
 P. H. P. Harbach,  A. W. Hauser,  M. F. Herbst,  J. E. Herr,  
 E. G. Hohenstein,  Z. C. Holden,  Kerwin Hui,  B. C. Huynh,  T.-C. Jagau,  
 Hyunjun Ji,  B. Kaduk,  K. Khistyaev,  Jaehoon Kim,  P. Klunzinger,  K. Koh,  
 D. Kosenkov,  L. Koulias,  T. Kowalczyk,  C. M. Krauter,  A. Kunitsa,  
 Ka Un Lao,  A. Laurent,  K. V. Lawler,  Joonho Lee,  D. Lefrancois,  
 S. Lehtola,  D. S. Levine,  Yi-Pei Li,  You-Sheng Lin,  Fenglai Liu,  
 E. Livshits,  A. Luenser,  P. Manohar,  E. Mansoor,  S. F. Manzer,  
 Shan-Ping Mao,  Yuezhi Mao,  N. Mardirossian,  A. V. Marenich,  
 T. Markovich,  L. A. Martinez-Martinez,  S. A. Maurer,  N. J. Mayhall,  
 S. C. McKenzie,  J.-M. Mewes,  P. Morgante,  A. F. Morrison,  
 J. W. Mullinax,  K. Nanda,  T. S. Nguyen-Beck,  R. Olivares-Amaya,  
 J. A. Parkhill,  Zheng Pei,  T. M. Perrine,  F. Plasser,  P. Pokhilko,  
 S. Prager,  A. Prociuk,  E. Ramos,  D. R. Rehn,  F. Rob,  M. Scheurer,  
 M. Schneider,  N. Sergueev,  S. M. Sharada,  S. Sharma,  D. W. Small,  
 T. Stauch,  T. Stein,  Yu-Chuan Su,  A. J. W. Thom,  A. Tkatchenko,  
 T. Tsuchimochi,  N. M. Tubman,  L. Vogt,  M. L. Vidal,  O. Vydrov,  
 M. A. Watson,  J. Wenzel,  M. de Wergifosse,  T. A. Wesolowski,  A. White,  
 J. Witte,  A. Yamada,  Jun Yang,  K. Yao,  S. Yeganeh,  S. R. Yost,  
 Zhi-Qiang You,  A. Zech,  Igor Ying Zhang,  Xing Zhang,  Yan Zhao,  
 Ying Zhu,  B. R. Brooks,  G. K. L. Chan,  C. J. Cramer,  M. S. Gordon,  
 W. J. Hehre,  A. Klamt,  M. W. Schmidt,  C. D. Sherrill,  D. G. Truhlar,  
 A. Aspuru-Guzik,  R. Baer,  A. T. Bell,  N. A. Besley,  Jeng-Da Chai,  
 A. E. DePrince, III,  R. A. DiStasio Jr.,  A. Dreuw,  B. D. Dunietz,  
 T. R. Furlani,  Chao-Ping Hsu,  Yousung Jung,  Jing Kong,  D. S. Lambrecht,  
 WanZhen Liang,  C. Ochsenfeld,  V. A. Rassolov,  L. V. Slipchenko,  
 J. E. Subotnik,  T. Van Voorhis,  J. M. Herbert,  A. I. Krylov,  
 P. M. W. Gill,  M. Head-Gordon

 Contributors to earlier versions of Q-Chem not listed above: 
 R. D. Adamson,  B. Austin,  J. Baker,  G. J. O. Beran,  K. Brandhorst,  
 S. T. Brown,  E. F. C. Byrd,  A. K. Chakraborty,  C.-L. Cheng,  
 Siu Hung Chien,  D. M. Chipman,  D. L. Crittenden,  H. Dachsel,  
 R. J. Doerksen,  A. D. Dutoi,  L. Fusti-Molnar,  W. A. Goddard III,  
 A. Golubeva-Zadorozhnaya,  S. R. Gwaltney,  G. Hawkins,  A. Heyden,  
 S. Hirata,  G. Kedziora,  F. J. Keil,  C. Kelley,  Jihan Kim,  R. A. King,  
 R. Z. Khaliullin,  P. P. Korambath,  W. Kurlancheek,  A. M. Lee,  M. S. Lee,  
 S. V. Levchenko,  Ching Yeh Lin,  D. Liotard,  R. C. Lochan,  I. Lotan,  
 P. E. Maslen,  N. Nair,  D. P. O'Neill,  D. Neuhauser,  E. Neuscamman,  
 C. M. Oana,  R. Olson,  B. Peters,  R. Peverati,  P. A. Pieniazek,  
 Y. M. Rhee,  J. Ritchie,  M. A. Rohrdanz,  E. Rosta,  N. J. Russ,  
 H. F. Schaefer III,  N. E. Schultz,  N. Shenvi,  A. C. Simmonett,  A. Sodt,  
 D. Stuck,  K. S. Thanthiriwatte,  V. Vanovschi,  Tao Wang,  A. Warshel,  
 C. F. Williams,  Q. Wu,  X. Xu,  W. Zhang

 Please cite Q-Chem as follows:
 Y. Shao et al., Mol. Phys. 113, 184-215 (2015)
 DOI: 10.1080/00268976.2014.952696

 Q-Chem 5.2.0 for Intel X86 EM64T Linux

 Parts of Q-Chem use Armadillo 8.300.2 (Tropical Shenanigans).
 http://arma.sourceforge.net/

 Q-Chem begins on Sun Sep 26 08:26:22 2021  

Host: cori01
0

     Scratch files written to /tmp/qchem32974//Frg1//
 May1019 |scratch|qcdevops|jenkins|workspace|build_RNUM -1
Processing $rem in /global/common/cori/software/qchem/5.2/config/preferences:
	 MEM_TOTAL  96000 
NAlpha2: 50
NElect   50
Mult     1
Symmetry turned off for PCM/SM12/SMD calculation

Checking the input file for inconsistencies... 	...done.

--------------------------------------------------------------
User input:
--------------------------------------------------------------
$molecule
0 1
 6	-2.5854298445	1.1163247462	2.6999180198
 6	-0.3294298445	0.6353247462	1.7029180198
 6	-1.1034298445	0.8943247462	2.8299180198
 6	1.0405701555	0.4393247462	1.8169180198
 6	-0.4884298445	0.9653247462	4.0749180198
 6	1.6485701555	0.5083247462	3.0629180198
 6	0.8815701555	0.7693247462	4.1929180198
 1	-0.7924298445	0.5813247462	0.7279180198
 1	1.6335701555	0.2403247462	0.9339180198
 1	-3.0864298445	0.6843247462	3.5669180198
 1	-2.9364298445	0.5823247462	1.8229180198
 1	-1.0794298445	1.1693247462	4.9569180198
 1	2.7165701555	0.3643247462	3.1519180198
 1	1.3495701555	0.8153247462	5.1659180198
 1	-2.8639898445	2.1767347462	2.6108880198
$end
$rem
EDA2		1
METHOD		WB97X-V
BASIS		DEF2-TZVPD
XC_GRID		000099000590
NL_GRID		1
UNRESTRICTED		FALSE
MAX_SCF_CYCLES		200
SYMMETRY		FALSE
SYM_IGNORE		TRUE
BASIS_LIN_DEP_THRESH		6
THRESH		14
SCF_CONVERGENCE		8
SCF_PRINT_FRGM		TRUE
SOLVENT_METHOD		PCM
!required keywords
JOBTYPE		SP
SYM_IGNORE		TRUE
SUBSYSTEM		TRUE
GEN_SCFMAN		TRUE
CHILD_INSTRUCTION		2
SYM_IGNORE		TRUE
SCFMI		0
RI_K 0		
PARI_K 0		
MIN_PARI_K 0		
IARI_K 0		
OCC_RI_K 0		
PURECART		1111
MEM_STATIC		2000
MEM_TOTAL		96000
GUI		0
CHILD_MP		1
CHILD_MP_ORDERS		232
FRZ_RELAX		0
FRZ_RELAX_METHOD		0
EDA_CLS_ELEC		1
EDA_CLS_DISP		0
FRZ_ORTHO_DECOMP		1
EDA2		FALSE
FRGM_METHOD		FALSE
CIS_N_ROOTS  0
LOCAL_CIS    0
CIS_RLX_DNS  1
$end
$pcm
THEORY                  CPCM
METHOD                  SWIG
SOLVER                  INVERSION
RADII                   UFF
HPOINTS                 302
HEAVYPOINTS             302
PRINTLEVEL              0
$end
$solvent
DIELECTRIC              78.390000 ! water
$end
--------------------------------------------------------------
 ----------------------------------------------------------------
             Standard Nuclear Orientation (Angstroms)
    I     Atom           X                Y                Z
 ----------------------------------------------------------------
    1      C      -2.5854298445     1.1163247462     2.6999180198
    2      C      -0.3294298445     0.6353247462     1.7029180198
    3      C      -1.1034298445     0.8943247462     2.8299180198
    4      C       1.0405701555     0.4393247462     1.8169180198
    5      C      -0.4884298445     0.9653247462     4.0749180198
    6      C       1.6485701555     0.5083247462     3.0629180198
    7      C       0.8815701555     0.7693247462     4.1929180198
    8      H      -0.7924298445     0.5813247462     0.7279180198
    9      H       1.6335701555     0.2403247462     0.9339180198
   10      H      -3.0864298445     0.6843247462     3.5669180198
   11      H      -2.9364298445     0.5823247462     1.8229180198
   12      H      -1.0794298445     1.1693247462     4.9569180198
   13      H       2.7165701555     0.3643247462     3.1519180198
   14      H       1.3495701555     0.8153247462     5.1659180198
   15      H      -2.8639898445     2.1767347462     2.6108880198
 ----------------------------------------------------------------
 Nuclear Repulsion Energy =         270.31641792 hartrees
 There are       25 alpha and       25 beta electrons
 Requested basis set is def2-TZVPD
 There are 131 shells and 331 basis functions

 Total QAlloc Memory Limit  96000 MB
 Mega-Array Size      1956 MB
 MEM_STATIC part      2000 MB
 Discretize the solute cavity surface with Lebedev spheres
	Using 302 Lebedev grid points for each H atom
	Using 302 Lebedev grid points for other atoms
	Atomic van der Waals radii will be scaled by 1.20
 Remove points where switching function is < 1.0e-08
 Keep 1815 surface tesserae and discard 2715 interior tesserae
 Molecular Surface Area = 177.758 Angst**2

                       Distance Matrix (Angstroms)
             C (  1)   C (  2)   C (  3)   C (  4)   C (  5)   C (  6)
   C (  2)  2.512948
   C (  3)  1.504164  1.391505
   C (  4)  3.792874  1.388637  2.414525
   C (  5)  2.512138  2.400118  1.390428  2.777243
   C (  6)  4.292807  2.403791  2.788689  1.388143  2.408270
   C (  7)  3.790719  2.772107  2.411145  2.404071  1.388971  1.390435
   H (  8)  2.718429  1.080699  2.147811  2.136814  3.382644  3.378762
   H (  9)  4.656833  2.144937  3.393184  1.082099  3.859325  2.145854
   H ( 10)  1.090557  3.328355  2.125925  4.489394  2.662072  4.764999
   H ( 11)  1.085120  2.610298  2.114541  3.979575  3.348268  4.750295
   H ( 12)  2.713834  3.381741  2.144838  3.858355  1.081120  3.386169
   H ( 13)  5.374106  3.383956  3.870011  2.144021  3.388976  1.081333
   H ( 14)  4.653599  3.852767  3.388266  3.384178  2.142668  2.146220
   H ( 15)  1.099996  3.102313  2.189091  4.346789  3.042069  4.832300
             C (  7)   H (  8)   H (  9)   H ( 10)   H ( 11)   H ( 12)
   H (  8)  3.852771
   H (  9)  3.386211  2.458494
   H ( 10)  4.017975  3.651433  5.422935
   H ( 11)  4.497665  2.407439  4.668210  1.753408
   H ( 12)  2.142246  4.279317  4.940439  2.489051  3.689847
   H ( 13)  2.148239  4.270357  2.471394  5.826614  5.811211  4.279681
   H ( 14)  1.080680  4.933433  4.280316  4.717209  5.440564  2.463542
   H ( 15)  4.302655  3.222153  5.175902  1.786270  1.779968  3.115026
             H ( 13)   H ( 14)
   H ( 14)  2.475538
   H ( 15)  5.892384  5.112309
 
 A cutoff of  1.0D-14 yielded   8360 shell pairs
 There are     54502 function pairs (     69456 Cartesian)
 Smallest overlap matrix eigenvalue = 5.41E-07
 Linear dependence detected in AO basis
 Tighter screening thresholds may be required for diffuse basis sets
 Use S2THRESH > 14 and THRESH = 14 in case of SCF convergence issues
 Number of orthogonalized atomic orbitals = 330
 Maximum deviation from orthogonality = 1.260E-10

 Scale SEOQF with 1.000000e-01/1.000000e-01/1.000000e-02

 Standard Electronic Orientation quadrupole field applied
 Nucleus-field energy     =     0.0000000016 hartrees
 Guess from superposition of atomic densities
 Warning:  Energy on first SCF cycle will be non-variational
 SAD guess density has 49.913408 electrons

 -----------------------------------------------------------------------
  General SCF calculation program by
  Eric Jon Sundstrom, Paul Horn, Yuezhi Mao, Dmitri Zuev, Alec White,
  David Stuck, Shaama M.S., Shane Yost, Joonho Lee, David Small,
  Daniel Levine, Susi Lehtola, Hugh Burton, Evgeny Epifanovsky
 -----------------------------------------------------------------------
 Exchange:     0.1670 Hartree-Fock + 1.0000 wB97X-V + LR-HF
 Correlation:  1.0000 wB97X-V
 Using Euler-Maclaurin-Lebedev (99,590) quadrature formula
 Nonlocal Correlation:  VV10 with C = 0.0100 and b = 6.00 and scale = 1.00000
 Grid used for NLC:  SG-1 standard quadrature
Energy prior to optimization (guess energy) = -271.519451318207
Begin Timing: Total SCF Calculation
begin iterations for algorithm: DIIS         
the SCF tolerance is set to 1.00e-08
    1    -271.5194513182      1.98e-03     00000 
    2    -271.5588633974      1.27e-03     00000 
    3    -271.5813691450      1.39e-04     00000 
    4    -271.5817831877      4.95e-05     00000 
    5    -271.5818188270      1.66e-05     00000 
    6    -271.5818235305      4.31e-06     00000 
    7    -271.5818238805      1.97e-06     00000 
    8    -271.5818239468      3.37e-07     00000 
    9    -271.5818239499      6.34e-08     00000 
   10    -271.5818239500      3.26e-08     00000 
   11    -271.5818239501      7.54e-09     00000 Convergence criterion met
Timing for Total SCF: 1255.00s (wall), 2465.33s (cpu)

************** Final PCM Free Energy Summary **************
 G_electrostatic  =      -0.00244456 hartree =      -1.53398734 kcal/mol
 G_cavitation     =       0.00000000 hartree =       0.00000000 kcal/mol
 G_dispersion     =       0.00000000 hartree =       0.00000000 kcal/mol
 G_repulsion      =       0.00000000 hartree =       0.00000000 kcal/mol
 --------------------------------------------------
 Non-electrostatic Free Energy =       0.00000000 hartree =       0.00000000 kcal/mol
 Total                         =      -0.00244456 hartree =      -1.53398734 kcal/mol
 --------------------------------------------------
 SCF Energy (H0 + V/2)                       =    -271.58182395 
 Solute Internal Energy (H0)                 =    -271.57937939 
 Total Free Energy (H0 + V/2 + non-elec)     =    -271.58182395 hartree
                                             = -170420.16668011 kcal/mol
***********************************************************

E_pcm = -0.0024445644
Multipole orders to be included
        2
        3
computing dipole RHS
computing quadrupole RHS
total number of RHS in solve_reponses: 8
RHS batch sizes
        8
Beginning Block Conjugate Gradient Iterations. Batch Number: 0
computing hessian-vector products by finite difference
              1      5.83e-01     00000 Conjugate Gradient Iteration
computing hessian-vector products by finite difference
              2      1.94e-01     00000 Conjugate Gradient Iteration
computing hessian-vector products by finite difference
              3      4.47e-02     00000 Conjugate Gradient Iteration
computing hessian-vector products by finite difference
              4      1.07e-02     00000 Conjugate Gradient Iteration
computing hessian-vector products by finite difference
              5      2.53e-03     00000 Conjugate Gradient Iteration
computing hessian-vector products by finite difference
              6      6.44e-04     00000 Conjugate Gradient Iteration
computing hessian-vector products by finite difference
              7      2.07e-04     00000 Conjugate Gradient Iteration
computing hessian-vector products by finite difference
              8      3.20e-05     00000 Conjugate Gradient Iteration
computing hessian-vector products by finite difference
              9      3.71e-06     00000 Conjugate Gradient Iteration
computing hessian-vector products by finite difference
             10      7.98e-07     00000 Conjugate Gradient Iteration
computing hessian-vector products by finite difference
             11      1.70e-07     00000 Conjugate Gradient Iteration
computing hessian-vector products by finite difference
             12      2.28e-08     00000 Conjugate Gradient Iteration
computing hessian-vector products by finite difference
             13      2.96e-09     00000 CG Converged
batch 0 complete
Done Calculating Responses
TESTING ORTHOGONALIZATION OF MULTIPOLE BASIS
Multipole virts passed orthogonality test
Virts Per Order
           75
          125
 
 --------------------------------------------------------------
 
                    Orbital Energies (a.u.)
 --------------------------------------------------------------
 
 Alpha MOs
 -- Occupied --
-10.2810 -10.2727 -10.2725 -10.2699 -10.2689 -10.2689 -10.2617  -0.9989
 -0.9079  -0.8803  -0.8139  -0.7310  -0.7067  -0.6309  -0.5750  -0.5669
 -0.5366  -0.5310  -0.5143  -0.4885  -0.4744  -0.4418  -0.4411  -0.3501
 -0.3386
 -- Virtual --
  0.0633   0.0639   0.0680   0.0790   0.0845   0.1044   0.1104   0.1136
  0.1355   0.1528   0.1657   0.1674   0.1868   0.1893   0.1946   0.2006
  0.2220   0.2246   0.2335   0.2400   0.2495   0.2579   0.2604   0.2697
  0.2802   0.2807   0.2827   0.2924   0.2930   0.3011   0.3042   0.3102
  0.3210   0.3241   0.3322   0.3345   0.3504   0.3531   0.3655   0.3724
  0.3787   0.3822   0.3830   0.3882   0.3896   0.4013   0.4035   0.4080
  0.4100   0.4279   0.4292   0.4359   0.4416   0.4488   0.4510   0.4520
  0.4625   0.4688   0.4739   0.4810   0.4930   0.4959   0.5122   0.5158
  0.5177   0.5251   0.5337   0.5379   0.5410   0.5469   0.5492   0.5661
  0.5842   0.5880   0.5967   0.5986   0.6005   0.6217   0.6409   0.6432
  0.6604   0.6736   0.6842   0.6855   0.6885   0.6964   0.7217   0.7233
  0.7294   0.7311   0.7437   0.7594   0.7642   0.7650   0.7775   0.7858
  0.7901   0.7945   0.7973   0.8024   0.8077   0.8219   0.8255   0.8323
  0.8344   0.8352   0.8420   0.8512   0.8590   0.8746   0.8883   0.8944
  0.9093   0.9158   0.9338   0.9477   0.9516   1.0107   1.0216   1.0407
  1.0454   1.0606   1.0736   1.0788   1.0894   1.0911   1.1031   1.1428
  1.1652   1.1797   1.2500   1.2757   1.2953   1.3189   1.3489   1.3498
  1.3797   1.4355   1.4514   1.4591   1.4648   1.4858   1.5254   1.5391
  1.5996   1.6028   1.6199   1.6229   1.6656   1.6790   1.7364   1.7791
  1.7917   1.7983   1.8048   1.8161   1.8297   1.8687   1.8848   1.9104
  1.9178   1.9267   1.9502   1.9588   1.9820   1.9961   2.0116   2.0247
  2.0308   2.0455   2.0694   2.0936   2.1133   2.1223   2.1708   2.1763
  2.1945   2.2333   2.2408   2.2671   2.2865   2.3126   2.3946   2.4019
  2.4077   2.4090   2.4837   2.5067   2.5376   2.5538   2.5655   2.6075
  2.6167   2.6250   2.6676   2.6717   2.6966   2.7111   2.7572   2.7706
  2.7898   2.8132   2.8206   2.8480   2.8630   2.9019   2.9088   2.9154
  2.9398   2.9423   2.9611   2.9753   2.9909   3.0149   3.0190   3.0505
  3.0620   3.0881   3.0995   3.1321   3.1811   3.1894   3.2019   3.2232
  3.2292   3.2383   3.2895   3.3064   3.3315   3.3557   3.3652   3.3792
  3.4001   3.4458   3.4469   3.4511   3.4604   3.4752   3.4914   3.5011
  3.5088   3.5279   3.5412   3.5436   3.5638   3.5736   3.5897   3.6062
  3.6182   3.6367   3.6554   3.6923   3.7099   3.7544   3.7821   3.8156
  3.8402   3.8905   3.9106   3.9613   3.9633   3.9950   4.0381   4.0571
  4.1167   4.1998   4.2690   4.2813   4.2982   4.3202   4.3269   4.3320
  4.3558   4.3762   4.3930   4.4043   4.4394   4.4503   4.4806   4.5325
  4.5997   4.6352   4.7609   4.7652   4.8347   4.8942   4.9046   4.9475
  5.0290   5.0512   5.1690   5.2679   5.3779   5.3897   5.5069   5.5330
  5.6772   5.8512  22.5739  22.6718  22.8951  22.9063  23.0239  23.0868
 23.4341
 --------------------------------------------------------------
 
          Ground-State Mulliken Net Atomic Charges

     Atom                 Charge (a.u.)
  ----------------------------------------
      1 C                    -1.044051
      2 C                    -0.369761
      3 C                     0.891856
      4 C                    -0.510273
      5 C                    -0.357101
      6 C                    -0.477813
      7 C                    -0.488787
      8 H                     0.313712
      9 H                     0.309068
     10 H                     0.269812
     11 H                     0.278283
     12 H                     0.328613
     13 H                     0.331007
     14 H                     0.312455
     15 H                     0.212981
  ----------------------------------------
  Sum of atomic charges =     0.000000

 -----------------------------------------------------------------
                    Cartesian Multipole Moments
 -----------------------------------------------------------------
    Charge (ESU x 10^10)
                -0.0000
    Dipole Moment (Debye)
         X      -0.4661      Y       0.0888      Z      -0.0398
       Tot       0.4761
    Quadrupole Moments (Debye-Ang)
        XX     -38.1498     XY      -1.6122     YY     -45.7996
        XZ      -1.2355     YZ       1.1904     ZZ     -38.6281
    Octopole Moments (Debye-Ang^2)
       XXX      28.6182    XXY     -30.4341    XYY       3.6539
       YYY    -103.7388    XXZ    -110.4636    XYZ      -4.1951
       YYZ    -132.2033    XZZ       5.8797    YZZ     -24.1103
       ZZZ    -335.2498
    Hexadecapole Moments (Debye-Ang^3)
      XXXX    -604.8241   XXXY      56.8991   XXYY    -142.6359
      XYYY      50.6647   YYYY    -233.9269   XXXZ      67.0771
      XXYZ     -91.2765   XYYZ       5.9247   YYYZ    -317.1722
      XXZZ    -464.2653   XYZZ       9.0786   YYZZ    -475.5747
      XZZZ      56.7493   YZZZ    -245.2563   ZZZZ   -2226.7937
 -----------------------------------------------------------------
Archival summary:
1\1\nid00507\SP\ProcedureUnspecified\BasisUnspecified\78\meili\SunSep2616:06:562021SunSep2616:06:562021\0\\#,ProcedureUnspecified,BasisUnspecified,\\0,1\C\C,1,1.39043\H,2,1.08112,1,119.89\C,2,1.38897,1,120.34,3,179.702,0\H,4,1.08068,2,119.843,1,-179.315,0\C,4,1.39044,2,120.102,1,0.385238,0\H,6,1.08133,4,120.194,2,179.449,0\C,6,1.38814,4,119.815,2,-0.234336,0\H,8,1.0821,6,120.104,4,179.76,0\C,8,1.38864,6,119.92,4,0.209901,0\H,10,1.0807,8,119.32,6,179.883,0\C,1,1.50416,2,120.374,3,0.743232,0\H,12,1.08512,1,108.416,2,-153.434,0\H,12,1.09056,1,108.993,2,-36.8258,0\H,12,1.1,1,113.502,2,85.1868,0\\\@

 Total job time:  27636.83s(wall), 54610.67s(cpu) 
 Sun Sep 26 16:06:58 2021

        *************************************************************
        *                                                           *
        *  Thank you very much for using Q-Chem.  Have a nice day.  *
        *                                                           *
        *************************************************************


Done Job For Fragment 0
calling putenv with: QCSCRATCH=/global/cscratch1/sd/meili 
calling putenv with: QCLOCALSCR=/tmp 
calling putenv with: QCTHREADS=32 
Creating input file /tmp/qchem32974/Frg2.input
using default PutDataFrgm: nothing
calling putenv with: QCSCRATCH=/tmp/qchem32974/ 
calling putenv with: QCLOCALSCR=/tmp/qchem32974/ 
Spawning Job For Fragment 1
                  Welcome to Q-Chem
     A Quantum Leap Into The Future Of Chemistry


 Q-Chem 5.2, Q-Chem, Inc., Pleasanton, CA (2019)

 License issued to: National Energy Research Scientific Computing Center

 Yihan Shao,  Zhengting Gan,  E. Epifanovsky,  A. T. B. Gilbert,  M. Wormit,  
 J. Kussmann,  A. W. Lange,  A. Behn,  Jia Deng,  Xintian Feng,  D. Ghosh,  
 M. Goldey,  P. R. Horn,  L. D. Jacobson,  I. Kaliman,  T. Kus,  A. Landau,  
 Jie Liu,  E. I. Proynov,  R. M. Richard,  R. P. Steele,  E. J. Sundstrom,  
 H. L. Woodcock III,  P. M. Zimmerman,  D. Zuev,  B. Albrecht,  E. Alguire,  
 S. A. Baeppler,  D. Barton,  Z. Benda,  Y. A. Bernard,  E. J. Berquist,  
 K. B. Bravaya,  H. Burton,  D. Casanova,  Chun-Min Chang,  Yunqing Chen,  
 A. Chien,  K. D. Closser,  M. P. Coons,  S. Coriani,  S. Dasgupta,  
 A. L. Dempwolff,  M. Diedenhofen,  Hainam Do,  R. G. Edgar,  Po-Tung Fang,  
 S. Faraji,  S. Fatehi,  Qingguo Feng,  K. D. Fenk,  J. Fosso-Tande,  
 J. Gayvert,  Qinghui Ge,  A. Ghysels,  G. Gidofalvi,  J. Gomes,  
 J. Gonthier,  A. Gunina,  D. Hait,  M. W. D. Hanson-Heine,  
 P. H. P. Harbach,  A. W. Hauser,  M. F. Herbst,  J. E. Herr,  
 E. G. Hohenstein,  Z. C. Holden,  Kerwin Hui,  B. C. Huynh,  T.-C. Jagau,  
 Hyunjun Ji,  B. Kaduk,  K. Khistyaev,  Jaehoon Kim,  P. Klunzinger,  K. Koh,  
 D. Kosenkov,  L. Koulias,  T. Kowalczyk,  C. M. Krauter,  A. Kunitsa,  
 Ka Un Lao,  A. Laurent,  K. V. Lawler,  Joonho Lee,  D. Lefrancois,  
 S. Lehtola,  D. S. Levine,  Yi-Pei Li,  You-Sheng Lin,  Fenglai Liu,  
 E. Livshits,  A. Luenser,  P. Manohar,  E. Mansoor,  S. F. Manzer,  
 Shan-Ping Mao,  Yuezhi Mao,  N. Mardirossian,  A. V. Marenich,  
 T. Markovich,  L. A. Martinez-Martinez,  S. A. Maurer,  N. J. Mayhall,  
 S. C. McKenzie,  J.-M. Mewes,  P. Morgante,  A. F. Morrison,  
 J. W. Mullinax,  K. Nanda,  T. S. Nguyen-Beck,  R. Olivares-Amaya,  
 J. A. Parkhill,  Zheng Pei,  T. M. Perrine,  F. Plasser,  P. Pokhilko,  
 S. Prager,  A. Prociuk,  E. Ramos,  D. R. Rehn,  F. Rob,  M. Scheurer,  
 M. Schneider,  N. Sergueev,  S. M. Sharada,  S. Sharma,  D. W. Small,  
 T. Stauch,  T. Stein,  Yu-Chuan Su,  A. J. W. Thom,  A. Tkatchenko,  
 T. Tsuchimochi,  N. M. Tubman,  L. Vogt,  M. L. Vidal,  O. Vydrov,  
 M. A. Watson,  J. Wenzel,  M. de Wergifosse,  T. A. Wesolowski,  A. White,  
 J. Witte,  A. Yamada,  Jun Yang,  K. Yao,  S. Yeganeh,  S. R. Yost,  
 Zhi-Qiang You,  A. Zech,  Igor Ying Zhang,  Xing Zhang,  Yan Zhao,  
 Ying Zhu,  B. R. Brooks,  G. K. L. Chan,  C. J. Cramer,  M. S. Gordon,  
 W. J. Hehre,  A. Klamt,  M. W. Schmidt,  C. D. Sherrill,  D. G. Truhlar,  
 A. Aspuru-Guzik,  R. Baer,  A. T. Bell,  N. A. Besley,  Jeng-Da Chai,  
 A. E. DePrince, III,  R. A. DiStasio Jr.,  A. Dreuw,  B. D. Dunietz,  
 T. R. Furlani,  Chao-Ping Hsu,  Yousung Jung,  Jing Kong,  D. S. Lambrecht,  
 WanZhen Liang,  C. Ochsenfeld,  V. A. Rassolov,  L. V. Slipchenko,  
 J. E. Subotnik,  T. Van Voorhis,  J. M. Herbert,  A. I. Krylov,  
 P. M. W. Gill,  M. Head-Gordon

 Contributors to earlier versions of Q-Chem not listed above: 
 R. D. Adamson,  B. Austin,  J. Baker,  G. J. O. Beran,  K. Brandhorst,  
 S. T. Brown,  E. F. C. Byrd,  A. K. Chakraborty,  C.-L. Cheng,  
 Siu Hung Chien,  D. M. Chipman,  D. L. Crittenden,  H. Dachsel,  
 R. J. Doerksen,  A. D. Dutoi,  L. Fusti-Molnar,  W. A. Goddard III,  
 A. Golubeva-Zadorozhnaya,  S. R. Gwaltney,  G. Hawkins,  A. Heyden,  
 S. Hirata,  G. Kedziora,  F. J. Keil,  C. Kelley,  Jihan Kim,  R. A. King,  
 R. Z. Khaliullin,  P. P. Korambath,  W. Kurlancheek,  A. M. Lee,  M. S. Lee,  
 S. V. Levchenko,  Ching Yeh Lin,  D. Liotard,  R. C. Lochan,  I. Lotan,  
 P. E. Maslen,  N. Nair,  D. P. O'Neill,  D. Neuhauser,  E. Neuscamman,  
 C. M. Oana,  R. Olson,  B. Peters,  R. Peverati,  P. A. Pieniazek,  
 Y. M. Rhee,  J. Ritchie,  M. A. Rohrdanz,  E. Rosta,  N. J. Russ,  
 H. F. Schaefer III,  N. E. Schultz,  N. Shenvi,  A. C. Simmonett,  A. Sodt,  
 D. Stuck,  K. S. Thanthiriwatte,  V. Vanovschi,  Tao Wang,  A. Warshel,  
 C. F. Williams,  Q. Wu,  X. Xu,  W. Zhang

 Please cite Q-Chem as follows:
 Y. Shao et al., Mol. Phys. 113, 184-215 (2015)
 DOI: 10.1080/00268976.2014.952696

 Q-Chem 5.2.0 for Intel X86 EM64T Linux

 Parts of Q-Chem use Armadillo 8.300.2 (Tropical Shenanigans).
 http://arma.sourceforge.net/

 Q-Chem begins on Sun Sep 26 16:07:02 2021  

Host: cori01
0

     Scratch files written to /tmp/qchem32974//Frg2//
 May1019 |scratch|qcdevops|jenkins|workspace|build_RNUM -1
Processing $rem in /global/common/cori/software/qchem/5.2/config/preferences:
	 MEM_TOTAL  96000 
NAlpha2: 58
NElect   58
Mult     1
Symmetry turned off for PCM/SM12/SMD calculation

Checking the input file for inconsistencies... 	...done.

--------------------------------------------------------------
User input:
--------------------------------------------------------------
$molecule
0 1
 6	0.5305701555	-3.5476752538	-2.2320819802
 6	-1.0334298445	-0.0886752538	-2.0240819802
 6	-0.0364298445	0.6983247462	-2.5900819802
 6	-0.8474298445	-1.4626752538	-1.9100819802
 6	0.3315701555	-2.0586752538	-2.3510819802
 6	1.1425701555	0.1143247462	-3.0380819802
 6	1.3205701555	-1.2596752538	-2.9190819802
 8	-0.2174298445	2.0433247462	-2.7040819802
 1	-1.9444298445	0.3743247462	-1.6740819802
 1	-1.6274298445	-2.0726752538	-1.4730819802
 1	1.9215701555	0.7183247462	-3.4750819802
 1	0.5485701555	2.5033247462	-3.0600819802
 1	-0.1814298445	-3.9596752538	-1.5190819802
 1	1.5255701555	-3.7196752538	-1.8380819802
 1	2.2395701555	-1.7096752538	-3.2720819802
 1	0.4079661555	-4.0719852538	-3.1912819802
$end
$rem
EDA2		1
METHOD		WB97X-V
BASIS		DEF2-TZVPD
XC_GRID		000099000590
NL_GRID		1
UNRESTRICTED		FALSE
MAX_SCF_CYCLES		200
SYMMETRY		FALSE
SYM_IGNORE		TRUE
BASIS_LIN_DEP_THRESH		6
THRESH		14
SCF_CONVERGENCE		8
SCF_PRINT_FRGM		TRUE
SOLVENT_METHOD		PCM
!required keywords
JOBTYPE		SP
SYM_IGNORE		TRUE
SUBSYSTEM		TRUE
GEN_SCFMAN		TRUE
CHILD_INSTRUCTION		2
SYM_IGNORE		TRUE
SCFMI		0
RI_K 0		
PARI_K 0		
MIN_PARI_K 0		
IARI_K 0		
OCC_RI_K 0		
PURECART		1111
MEM_STATIC		2000
MEM_TOTAL		96000
GUI		0
CHILD_MP		1
CHILD_MP_ORDERS		232
FRZ_RELAX		0
FRZ_RELAX_METHOD		0
EDA_CLS_ELEC		1
EDA_CLS_DISP		0
FRZ_ORTHO_DECOMP		1
EDA2		FALSE
FRGM_METHOD		FALSE
CIS_N_ROOTS  0
LOCAL_CIS    0
CIS_RLX_DNS  1
$end
$pcm
THEORY                  CPCM
METHOD                  SWIG
SOLVER                  INVERSION
RADII                   UFF
HPOINTS                 302
HEAVYPOINTS             302
PRINTLEVEL              0
$end
$solvent
DIELECTRIC              78.390000 ! water
$end
--------------------------------------------------------------
 ----------------------------------------------------------------
             Standard Nuclear Orientation (Angstroms)
    I     Atom           X                Y                Z
 ----------------------------------------------------------------
    1      C       0.5305701555    -3.5476752538    -2.2320819802
    2      C      -1.0334298445    -0.0886752538    -2.0240819802
    3      C      -0.0364298445     0.6983247462    -2.5900819802
    4      C      -0.8474298445    -1.4626752538    -1.9100819802
    5      C       0.3315701555    -2.0586752538    -2.3510819802
    6      C       1.1425701555     0.1143247462    -3.0380819802
    7      C       1.3205701555    -1.2596752538    -2.9190819802
    8      O      -0.2174298445     2.0433247462    -2.7040819802
    9      H      -1.9444298445     0.3743247462    -1.6740819802
   10      H      -1.6274298445    -2.0726752538    -1.4730819802
   11      H       1.9215701555     0.7183247462    -3.4750819802
   12      H       0.5485701555     2.5033247462    -3.0600819802
   13      H      -0.1814298445    -3.9596752538    -1.5190819802
   14      H       1.5255701555    -3.7196752538    -1.8380819802
   15      H       2.2395701555    -1.7096752538    -3.2720819802
   16      H       0.4079661555    -4.0719852538    -3.1912819802
 ----------------------------------------------------------------
 Nuclear Repulsion Energy =         343.47876658 hartrees
 There are       29 alpha and       29 beta electrons
 Requested basis set is def2-TZVPD
 There are 145 shells and 371 basis functions

 Total QAlloc Memory Limit  96000 MB
 Mega-Array Size      1956 MB
 MEM_STATIC part      2000 MB
 Discretize the solute cavity surface with Lebedev spheres
	Using 302 Lebedev grid points for each H atom
	Using 302 Lebedev grid points for other atoms
	Atomic van der Waals radii will be scaled by 1.20
 Remove points where switching function is < 1.0e-08
 Keep 1872 surface tesserae and discard 2960 interior tesserae
 Molecular Surface Area = 189.880 Angst**2
 A cutoff of  1.0D-14 yielded  10046 shell pairs
 There are     67106 function pairs (     85808 Cartesian)
 Smallest overlap matrix eigenvalue = 5.39E-07
 Linear dependence detected in AO basis
 Tighter screening thresholds may be required for diffuse basis sets
 Use S2THRESH > 14 and THRESH = 14 in case of SCF convergence issues
 Number of orthogonalized atomic orbitals = 370
 Maximum deviation from orthogonality = 1.793E-10

 Scale SEOQF with 1.000000e-01/1.000000e-01/1.000000e-01

 Standard Electronic Orientation quadrupole field applied
 Nucleus-field energy     =    -0.0000000219 hartrees
 Guess from superposition of atomic densities
 Warning:  Energy on first SCF cycle will be non-variational
 SAD guess density has 57.738434 electrons

 -----------------------------------------------------------------------
  General SCF calculation program by
  Eric Jon Sundstrom, Paul Horn, Yuezhi Mao, Dmitri Zuev, Alec White,
  David Stuck, Shaama M.S., Shane Yost, Joonho Lee, David Small,
  Daniel Levine, Susi Lehtola, Hugh Burton, Evgeny Epifanovsky
 -----------------------------------------------------------------------
 Exchange:     0.1670 Hartree-Fock + 1.0000 wB97X-V + LR-HF
 Correlation:  1.0000 wB97X-V
 Using Euler-Maclaurin-Lebedev (99,590) quadrature formula
 Nonlocal Correlation:  VV10 with C = 0.0100 and b = 6.00 and scale = 1.00000
 Grid used for NLC:  SG-1 standard quadrature
Energy prior to optimization (guess energy) = -346.497165178067
Begin Timing: Total SCF Calculation
begin iterations for algorithm: DIIS         
the SCF tolerance is set to 1.00e-08
    1    -346.4971651781      5.17e-03     00000 
    2    -346.4347824082      5.59e-03     00000 
    3    -346.8121936248      5.35e-04     00000 
    4    -346.8163038205      1.81e-04     00000 
    5    -346.8169114770      2.50e-05     00000 
    6    -346.8169307278      1.28e-05     00000 
    7    -346.8169340965      3.96e-06     00000 
    8    -346.8169345333      1.28e-06     00000 
    9    -346.8169345946      5.66e-07     00000 
   10    -346.8169346060      1.48e-07     00000 
   11    -346.8169346082      6.45e-08     00000 
   12    -346.8169346085      3.37e-08     00000 
   13    -346.8169346085      7.31e-09     00000 Convergence criterion met
Timing for Total SCF: 2013.00s (wall), 3987.87s (cpu)

************** Final PCM Free Energy Summary **************
 G_electrostatic  =      -0.00559254 hartree =      -3.50937493 kcal/mol
 G_cavitation     =       0.00000000 hartree =       0.00000000 kcal/mol
 G_dispersion     =       0.00000000 hartree =       0.00000000 kcal/mol
 G_repulsion      =       0.00000000 hartree =       0.00000000 kcal/mol
 --------------------------------------------------
 Non-electrostatic Free Energy =       0.00000000 hartree =       0.00000000 kcal/mol
 Total                         =      -0.00559254 hartree =      -3.50937493 kcal/mol
 --------------------------------------------------
 SCF Energy (H0 + V/2)                       =    -346.81693461 
 Solute Internal Energy (H0)                 =    -346.81134206 
 Total Free Energy (H0 + V/2 + non-elec)     =    -346.81693461 hartree
                                             = -217630.91117004 kcal/mol
***********************************************************

E_pcm = -0.0055925450
Multipole orders to be included
        2
        3
computing dipole RHS
computing quadrupole RHS
total number of RHS in solve_reponses: 8
RHS batch sizes
        8
Beginning Block Conjugate Gradient Iterations. Batch Number: 0
computing hessian-vector products by finite difference
              1      6.22e-01     00000 Conjugate Gradient Iteration
computing hessian-vector products by finite difference
              2      1.95e-01     00000 Conjugate Gradient Iteration
computing hessian-vector products by finite difference
              3      4.89e-02     00000 Conjugate Gradient Iteration
computing hessian-vector products by finite difference
              4      1.47e-02     00000 Conjugate Gradient Iteration
computing hessian-vector products by finite difference
              5      4.63e-03     00000 Conjugate Gradient Iteration
computing hessian-vector products by finite difference
              6      1.66e-03     00000 Conjugate Gradient Iteration
computing hessian-vector products by finite difference
              7      4.11e-04     00000 Conjugate Gradient Iteration
computing hessian-vector products by finite difference
              8      8.09e-05     00000 Conjugate Gradient Iteration
computing hessian-vector products by finite difference
              9      1.43e-05     00000 Conjugate Gradient Iteration
computing hessian-vector products by finite difference
             10      1.79e-06     00000 Conjugate Gradient Iteration
computing hessian-vector products by finite difference
             11      3.08e-07     00000 Conjugate Gradient Iteration
computing hessian-vector products by finite difference
             12      6.21e-08     00000 Conjugate Gradient Iteration
computing hessian-vector products by finite difference
             13      9.51e-09     00000 CG Converged
batch 0 complete
Done Calculating Responses
TESTING ORTHOGONALIZATION OF MULTIPOLE BASIS
Multipole virts passed orthogonality test
Virts Per Order
           87
          145
 
 --------------------------------------------------------------
 
                    Orbital Energies (a.u.)
 --------------------------------------------------------------
 
 Alpha MOs
 -- Occupied --
-19.2443 -10.3353 -10.2751 -10.2740 -10.2736 -10.2714 -10.2709 -10.2602
 -1.1949  -0.9964  -0.9025  -0.8848  -0.8113  -0.7488  -0.7157  -0.6680
 -0.6029  -0.5807  -0.5509  -0.5422  -0.5347  -0.5230  -0.5099  -0.4763
 -0.4558  -0.4440  -0.4404  -0.3533  -0.3131
 -- Virtual --
  0.0577   0.0595   0.0682   0.0786   0.0831   0.0942   0.1086   0.1099
  0.1137   0.1312   0.1442   0.1515   0.1543   0.1706   0.1758   0.1918
  0.1992   0.2038   0.2157   0.2239   0.2345   0.2405   0.2486   0.2531
  0.2633   0.2667   0.2718   0.2738   0.2821   0.2949   0.2953   0.3027
  0.3039   0.3081   0.3111   0.3240   0.3322   0.3399   0.3432   0.3497
  0.3541   0.3558   0.3632   0.3729   0.3742   0.3788   0.3810   0.3929
  0.3942   0.3962   0.3976   0.4063   0.4140   0.4188   0.4258   0.4326
  0.4359   0.4553   0.4558   0.4609   0.4715   0.4736   0.4775   0.4831
  0.4869   0.4909   0.4970   0.5022   0.5112   0.5145   0.5289   0.5379
  0.5422   0.5456   0.5478   0.5526   0.5600   0.5717   0.5778   0.5927
  0.6033   0.6050   0.6148   0.6313   0.6367   0.6589   0.6600   0.6729
  0.6794   0.6844   0.6896   0.6940   0.6998   0.7029   0.7176   0.7289
  0.7323   0.7363   0.7460   0.7500   0.7572   0.7704   0.7812   0.7848
  0.7888   0.7915   0.7974   0.7984   0.8063   0.8144   0.8273   0.8361
  0.8449   0.8492   0.8528   0.8567   0.8629   0.8747   0.8839   0.8881
  0.9018   0.9133   0.9315   0.9485   0.9627   0.9842   0.9939   1.0114
  1.0194   1.0392   1.0413   1.0480   1.0564   1.0725   1.0750   1.0863
  1.0994   1.1196   1.1360   1.1716   1.1967   1.2368   1.2771   1.2956
  1.3051   1.3136   1.3302   1.3554   1.3675   1.3818   1.3976   1.4366
  1.4589   1.4671   1.4698   1.4853   1.5312   1.5645   1.6050   1.6247
  1.6318   1.6441   1.6779   1.6839   1.7056   1.7246   1.7726   1.7996
  1.8167   1.8287   1.8313   1.8579   1.8643   1.8818   1.9170   1.9235
  1.9403   1.9535   1.9744   1.9863   1.9954   2.0252   2.0418   2.0488
  2.0561   2.0752   2.0856   2.1052   2.1172   2.1589   2.1964   2.2030
  2.2215   2.2399   2.2692   2.2840   2.3027   2.3220   2.3446   2.3693
  2.4018   2.4069   2.4356   2.4652   2.4865   2.4970   2.5286   2.5550
  2.5779   2.6083   2.6201   2.6415   2.6519   2.6666   2.6844   2.7465
  2.7616   2.7641   2.7771   2.8050   2.8205   2.8341   2.8654   2.8726
  2.9109   2.9199   2.9370   2.9482   2.9689   2.9749   2.9780   3.0128
  3.0171   3.0414   3.0703   3.0764   3.0985   3.1310   3.1520   3.1734
  3.1842   3.1995   3.2139   3.2253   3.2411   3.2615   3.2848   3.2928
  3.3172   3.3592   3.3867   3.3890   3.3980   3.4127   3.4477   3.4566
  3.4634   3.4755   3.4916   3.5116   3.5256   3.5286   3.5412   3.5450
  3.5515   3.5674   3.5762   3.5924   3.6011   3.6330   3.6480   3.6727
  3.6944   3.7066   3.7386   3.7565   3.8006   3.8258   3.8533   3.9048
  3.9372   3.9621   3.9823   3.9978   4.0417   4.0877   4.1479   4.1556
  4.2521   4.2694   4.2863   4.3134   4.3253   4.3354   4.3459   4.3623
  4.3796   4.3956   4.4343   4.4697   4.4931   4.5419   4.5955   4.6227
  4.7439   4.7451   4.7922   4.8186   4.8684   4.9224   5.0256   5.0671
  5.0902   5.1303   5.1625   5.3078   5.3396   5.3886   5.4505   5.5444
  5.6193   5.6466   5.7067   5.7629   5.9490   6.2209   6.5003   6.6027
  6.6338   6.8751   7.0015   7.3054   7.4602  22.6698  22.6799  22.9418
 22.9998  23.0410  23.1930  23.5188  44.4212
 --------------------------------------------------------------
 
          Ground-State Mulliken Net Atomic Charges

     Atom                 Charge (a.u.)
  ----------------------------------------
      1 C                    -1.030726
      2 C                    -0.751359
      3 C                     0.830741
      4 C                    -0.416863
      5 C                     0.573398
      6 C                    -0.395914
      7 C                    -0.609547
      8 O                    -0.487296
      9 H                     0.331350
     10 H                     0.299843
     11 H                     0.274938
     12 H                     0.294977
     13 H                     0.276164
     14 H                     0.263260
     15 H                     0.330892
     16 H                     0.216142
  ----------------------------------------
  Sum of atomic charges =     0.000000

 -----------------------------------------------------------------
                    Cartesian Multipole Moments
 -----------------------------------------------------------------
    Charge (ESU x 10^10)
                -0.0000
    Dipole Moment (Debye)
         X       1.6151      Y      -0.3528      Z      -0.5744
       Tot       1.7501
    Quadrupole Moments (Debye-Ang)
        XX     -44.0476     XY       3.7474     YY     -42.6525
        XZ      -7.8880     YZ      -1.7494     ZZ     -46.6038
    Octopole Moments (Debye-Ang^2)
       XXX     -21.7077    XXY      36.0473    XYY       3.3612
       YYY     109.5098    XXZ     107.9938    XYZ      -9.6631
       YYZ     100.9861    XZZ      21.1684    YZZ      49.8444
       ZZZ     354.6252
    Hexadecapole Moments (Debye-Ang^3)
      XXXX    -275.2964   XXXY      59.7154   XXYY    -220.3159
      XYYY      92.3441   YYYY   -1060.6328   XXXZ      82.8790
      XXYZ     -78.1993   XYYZ      -6.0135   YYYZ    -244.0114
      XXZZ    -329.3643   XYZZ      49.9371   YYZZ    -436.4853
      XZZZ       8.1336   YZZZ    -288.2607   ZZZZ   -1884.9861
 -----------------------------------------------------------------
Archival summary:
1\1\nid00507\SP\ProcedureUnspecified\BasisUnspecified\178\meili\MonSep2702:40:082021MonSep2702:40:082021\0\\#,ProcedureUnspecified,BasisUnspecified,\\0,1\C\O,1,1.3619\H,2,0.961817,1,113.42\C,1,1.38989,2,120.047,3,-3.36122,0\H,4,1.07825,1,120.538,2,0.174449,0\C,4,1.39058,1,119.747,2,-179.975,0\H,6,1.08244,4,119.442,1,179.833,0\C,1,1.39059,2,119.848,3,176.61,0\H,8,1.08018,1,119.602,2,-0.277299,0\C,8,1.39121,1,119.765,2,179.916,0\H,10,1.08234,8,119.561,1,-179.726,0\C,6,1.39253,4,120.726,1,-0.22123,0\C,12,1.50694,6,120.356,4,179.715,0\H,13,1.0839,12,107.862,6,46.2784,0\H,13,1.0886,12,109.835,6,163.269,0\H,13,1.1,12,112.792,6,-75.528,0\\\@

 Total job time:  37991.17s(wall), 75365.33s(cpu) 
 Mon Sep 27 02:40:13 2021

        *************************************************************
        *                                                           *
        *  Thank you very much for using Q-Chem.  Have a nice day.  *
        *                                                           *
        *************************************************************


Done Job For Fragment 1
calling putenv with: QCSCRATCH=/global/cscratch1/sd/meili 
calling putenv with: QCLOCALSCR=/tmp 
calling putenv with: QCTHREADS=32 
Doing General SCFMI
 Exchange:     0.1670 Hartree-Fock + 1.0000 wB97X-V + LR-HF
 Correlation:  1.0000 wB97X-V
 Using Euler-Maclaurin-Lebedev (99,590) quadrature formula
 Nonlocal Correlation:  VV10 with C = 0.0100 and b = 6.00 and scale = 1.00000
 Grid used for NLC:  SG-1 standard quadrature
performing fock build before subrot guess so that all methods have access
Printing subrot_rss_gen Method Specification:
Occupied Subspace Method is 0
Virtual Subspace Method is 0
Energy of the unrelaxed supersystem initial determinant -618.393276644043
performing fock build before subrot guess so that all methods have access
Printing subrot_rss_gen Method Specification:
Occupied Subspace Method is 0
Virtual Subspace Method is 0
Energy of the unrelaxed supersystem initial determinant w/ solvent -618.401029667461
write pseudocanon occs and virts to disk
write pseudocanon orbital energies to disk
Tolerance of ortho_decomp_scf: 1.00e-06
GDM subspace size: 20
Beginning the Orthogonal Decomposition of the Initial Supersystem Wavefunction
    1    -618.3845560470      1.03e-02     ortho_decomp Preconditoned Steepest Descent
    2    -618.3850954687      2.43e-04     ortho_decomp BFGS Step
    3    -618.3850969559      1.73e-05     ortho_decomp BFGS Step
    4    -618.3850969585      6.88e-07     ortho_decomp 00000 Convergence criterion met
 Hartree-Fock
 Hartree-Fock
 Hartree-Fock
Doing General SCFMI
 Exchange:     0.1670 Hartree-Fock + 1.0000 wB97X-V + LR-HF
 Correlation:  1.0000 wB97X-V
 Using Euler-Maclaurin-Lebedev (99,590) quadrature formula
 Nonlocal Correlation:  VV10 with C = 0.0100 and b = 6.00 and scale = 1.00000
 Grid used for NLC:  SG-1 standard quadrature
performing fock build at end of subrot_r(subrot) constructor so that all methods have access
<S^2> of initial wavefunction before polarization iterations 0.0000000000
Beginning iterations for the determination of the polarized wavefunction
Energy prior to optimization (guess energy) = -618.401029667462
Begin Timing: Total SCF Calculation
begin iterations for algorithm: DIIS         
the SCF tolerance is set to 1.00e-08
    1    -618.4010296675      2.69e-05     00000 
    2    -618.4011215642      9.89e-06     00000 
    3    -618.4011296258      6.19e-06     00000 
    4    -618.4011325870      1.53e-06     00000 
    5    -618.4011328490      6.74e-07     00000 
    6    -618.4011328982      2.62e-07     00000 
    7    -618.4011329035      9.82e-08     00000 
    8    -618.4011329041      4.69e-08     00000 
    9    -618.4011329042      1.80e-08     00000 
   10    -618.4011329042      8.18e-09     00000 Convergence criterion met
write pseudocanon occs and virts to disk
write pseudocanon orbital energies to disk
Timing for Total SCF: 9780.00s (wall), 19449.46s (cpu)
<S^2> of polarized wavefunction after polarization iterations 0.0000000000
relaxing scfmi constraint to allow all rotations in the entire AO span
Doing General SCFMI
 Exchange:     0.1670 Hartree-Fock + 1.0000 wB97X-V + LR-HF
 Correlation:  1.0000 wB97X-V
 Using Euler-Maclaurin-Lebedev (99,590) quadrature formula
 Nonlocal Correlation:  VV10 with C = 0.0100 and b = 6.00 and scale = 1.00000
 Grid used for NLC:  SG-1 standard quadrature
performing fock build at end of subrot_r(subrot) constructor so that all methods have access
<S^2> of polarized wavefunction before ct-allowed iterations 0.0000000000
Beginning iterations for the determination of the CT-Allowed wavefunction
Energy prior to optimization (guess energy) = -618.401132904192
Begin Timing: Total SCF Calculation
begin iterations for algorithm: DIIS         
the SCF tolerance is set to 1.00e-08
    1    -618.4011329042      4.45e-05     00000 
    2    -618.4015530278      4.15e-06     00000 
    3    -618.4015651069      7.45e-07     00000 
    4    -618.4015655406      3.74e-07     00000 
    5    -618.4015655791      8.52e-08     00000 
    6    -618.4015655830      3.24e-08     00000 
    7    -618.4015655833      8.27e-09     00000 Convergence criterion met
write pseudocanon occs and virts to disk
write pseudocanon orbital energies to disk
Timing for Total SCF: 6897.00s (wall), 13728.19s (cpu)
<S^2> of ct_allowed wavefunction after ct-allowed iterations 0.0000000000

================================
        Results of EDA2         
================================
Basic EDA Quantities
--------------------
Fragment Energies (Ha):
1 -271.5818239501
2 -346.8169346085
--------------------
  E_prp (kJ/mol) = -0.0000
  E_sol (kJ/mol) = 0.7459
  E_frz (kJ/mol) = -6.7087
  E_pol (kJ/mol) = -0.2711
  E_vct (kJ/mol) = -1.1360
  E_int (kJ/mol) = -7.3699
--------------------


Initial Wavefunction Decomposition
--------------------
  --------------------
  Orthogonal Fragment Subspace Decomposition:
  --------------------
     E_elec   (ELEC)   (kJ/mol) = -8.2604
     E_pauli  (PAULI)  (kJ/mol) = 11.2370
     E_disp   (DISP)   (kJ/mol) = -9.6853
     --------------------
     Terms summing to E_pauli:
     --------------------
        E_kep_pauli       (kJ/mol) = 14.7673
        E_disp_free_pauli (kJ/mol) = -3.5303
  --------------------
  Classical Frozen Decomposition:
  --------------------
     E_cls_elec  (CLS ELEC)  (kJ/mol) = -3.1510
     E_cls_pauli (CLS PAULI) (kJ/mol) = -3.5578
    [E_mod_pauli (MOD PAULI) (kJ/mol) = 6.1275 (CLS PAULI - DISP from orthogonal decomposition) ]
  --------------------
--------------------

Simplified EDA Summary (kJ/mol)
--------------------
 PREPARATION     -0.0000
 SOLVATION       0.7459
 FROZEN          2.9765      (does not include dispersion)
[PAULI           11.2370]     (if this is negligible, then frozen describes electrostatics)
 DISPERSION      -9.6853
 POLARIZATION    -0.2711
 CHARGE TRANSFER -1.1360
 TOTAL           -7.3699     (PRP + SOL + FRZ + DISP + POL + CT)
--------------------
 
 --------------------------------------------------------------
 
                    Orbital Energies (a.u.)
 --------------------------------------------------------------
 
 Alpha MOs
 -- Occupied --
-19.2450 -10.3362 -10.2805 -10.2758 -10.2749 -10.2744 -10.2724 -10.2722
-10.2722 -10.2718 -10.2697 -10.2686 -10.2677 -10.2616 -10.2605  -1.1955
 -0.9985  -0.9971  -0.9076  -0.9031  -0.8857  -0.8797  -0.8136  -0.8118
 -0.7496  -0.7305  -0.7165  -0.7062  -0.6687  -0.6306  -0.6037  -0.5816
 -0.5746  -0.5665  -0.5516  -0.5435  -0.5364  -0.5358  -0.5300  -0.5230
 -0.5139  -0.5104  -0.4882  -0.4768  -0.4742  -0.4564  -0.4454  -0.4417
 -0.4409  -0.4397  -0.3541  -0.3494  -0.3383  -0.3137
 -- Virtual --
  0.0529   0.0567   0.0623   0.0638   0.0683   0.0703   0.0724   0.0778
  0.0883   0.0923   0.0972   0.1036   0.1068   0.1123   0.1179   0.1260
  0.1296   0.1329   0.1414   0.1446   0.1483   0.1576   0.1622   0.1627
  0.1737   0.1853   0.1882   0.1907   0.1917   0.1958   0.2028   0.2085
  0.2116   0.2179   0.2200   0.2268   0.2299   0.2321   0.2391   0.2419
  0.2450   0.2500   0.2517   0.2561   0.2647   0.2662   0.2687   0.2722
  0.2735   0.2772   0.2792   0.2846   0.2872   0.2888   0.2968   0.2970
  0.3012   0.3043   0.3050   0.3095   0.3142   0.3160   0.3198   0.3219
  0.3264   0.3323   0.3340   0.3369   0.3401   0.3423   0.3449   0.3471
  0.3510   0.3521   0.3549   0.3580   0.3660   0.3673   0.3711   0.3724
  0.3737   0.3757   0.3791   0.3840   0.3859   0.3881   0.3917   0.3949
  0.3960   0.4011   0.4053   0.4071   0.4076   0.4120   0.4177   0.4230
  0.4258   0.4267   0.4336   0.4360   0.4383   0.4400   0.4410   0.4439
  0.4449   0.4510   0.4526   0.4557   0.4574   0.4634   0.4656   0.4703
  0.4765   0.4806   0.4835   0.4862   0.4916   0.4936   0.4962   0.4986
  0.5009   0.5019   0.5069   0.5094   0.5133   0.5199   0.5218   0.5264
  0.5283   0.5322   0.5363   0.5386   0.5414   0.5443   0.5483   0.5530
  0.5600   0.5637   0.5666   0.5677   0.5752   0.5787   0.5853   0.5907
  0.5923   0.5993   0.6009   0.6063   0.6095   0.6153   0.6167   0.6220
  0.6263   0.6311   0.6374   0.6423   0.6472   0.6500   0.6538   0.6617
  0.6637   0.6675   0.6775   0.6829   0.6891   0.6952   0.6982   0.6997
  0.7061   0.7082   0.7153   0.7168   0.7212   0.7241   0.7293   0.7326
  0.7407   0.7433   0.7445   0.7472   0.7511   0.7564   0.7589   0.7633
  0.7674   0.7723   0.7744   0.7754   0.7803   0.7828   0.7856   0.7871
  0.7921   0.7929   0.7970   0.8016   0.8052   0.8063   0.8116   0.8145
  0.8203   0.8241   0.8292   0.8301   0.8334   0.8378   0.8417   0.8468
  0.8479   0.8515   0.8546   0.8581   0.8603   0.8676   0.8711   0.8716
  0.8785   0.8843   0.8862   0.8893   0.8924   0.8987   0.9061   0.9086
  0.9125   0.9236   0.9282   0.9305   0.9367   0.9443   0.9520   0.9567
  0.9604   0.9679   0.9740   0.9781   0.9876   0.9975   1.0068   1.0181
  1.0248   1.0303   1.0342   1.0476   1.0516   1.0580   1.0624   1.0756
  1.0789   1.0802   1.0857   1.0933   1.0991   1.1055   1.1060   1.1128
  1.1190   1.1311   1.1384   1.1467   1.1574   1.1624   1.1715   1.1913
  1.2011   1.2078   1.2260   1.2359   1.2460   1.2659   1.2792   1.2941
  1.3009   1.3080   1.3299   1.3356   1.3479   1.3553   1.3715   1.3793
  1.3858   1.3891   1.3960   1.4005   1.4195   1.4415   1.4508   1.4624
  1.4735   1.4747   1.4797   1.4816   1.4928   1.5055   1.5067   1.5121
  1.5452   1.5541   1.5608   1.5740   1.6041   1.6144   1.6241   1.6263
  1.6326   1.6520   1.6562   1.6600   1.6796   1.6864   1.7073   1.7129
  1.7291   1.7499   1.7726   1.7901   1.8005   1.8065   1.8104   1.8179
  1.8278   1.8383   1.8468   1.8563   1.8606   1.8750   1.8925   1.9012
  1.9065   1.9185   1.9203   1.9368   1.9407   1.9437   1.9541   1.9574
  1.9644   1.9773   1.9821   1.9865   1.9935   2.0076   2.0201   2.0280
  2.0338   2.0398   2.0436   2.0505   2.0601   2.0704   2.0791   2.0906
  2.1020   2.1120   2.1180   2.1319   2.1359   2.1483   2.1607   2.1699
  2.1797   2.1885   2.2009   2.2175   2.2209   2.2266   2.2333   2.2477
  2.2639   2.2664   2.2771   2.2924   2.2946   2.3006   2.3139   2.3418
  2.3462   2.3480   2.3737   2.3958   2.4082   2.4132   2.4176   2.4200
  2.4301   2.4407   2.4514   2.4813   2.4969   2.5049   2.5198   2.5267
  2.5393   2.5587   2.5734   2.5795   2.5934   2.6017   2.6189   2.6225
  2.6292   2.6352   2.6426   2.6525   2.6672   2.6801   2.6900   2.6983
  2.7067   2.7245   2.7386   2.7539   2.7620   2.7721   2.7789   2.7817
  2.7979   2.8062   2.8127   2.8171   2.8357   2.8437   2.8489   2.8582
  2.8749   2.8776   2.9028   2.9149   2.9184   2.9246   2.9314   2.9326
  2.9474   2.9510   2.9607   2.9624   2.9748   2.9834   2.9888   2.9990
  3.0053   3.0166   3.0226   3.0349   3.0396   3.0452   3.0611   3.0689
  3.0780   3.0876   3.0879   3.1080   3.1227   3.1342   3.1388   3.1474
  3.1712   3.1873   3.1928   3.2004   3.2084   3.2192   3.2258   3.2296
  3.2370   3.2435   3.2501   3.2672   3.2716   3.2799   3.2956   3.3040
  3.3199   3.3227   3.3412   3.3460   3.3670   3.3754   3.3770   3.3923
  3.3955   3.4035   3.4100   3.4233   3.4321   3.4525   3.4552   3.4604
  3.4632   3.4669   3.4704   3.4757   3.4833   3.4941   3.5022   3.5111
  3.5140   3.5216   3.5330   3.5365   3.5388   3.5497   3.5530   3.5553
  3.5648   3.5664   3.5680   3.5757   3.5812   3.5931   3.6011   3.6097
  3.6151   3.6197   3.6294   3.6329   3.6414   3.6514   3.6683   3.6722
  3.6855   3.7006   3.7038   3.7102   3.7187   3.7238   3.7369   3.7646
  3.7948   3.8024   3.8258   3.8428   3.8504   3.8580   3.9052   3.9097
  3.9206   3.9450   3.9684   3.9716   3.9776   3.9949   4.0030   4.0048
  4.0451   4.0514   4.0658   4.0956   4.1379   4.1563   4.1603   4.2114
  4.2602   4.2778   4.2899   4.2933   4.3029   4.3092   4.3234   4.3291
  4.3341   4.3409   4.3421   4.3512   4.3593   4.3672   4.3713   4.3804
  4.3879   4.4025   4.4108   4.4151   4.4437   4.4482   4.4636   4.4738
  4.4990   4.5003   4.5449   4.5497   4.6117   4.6184   4.6287   4.6411
  4.7466   4.7504   4.7687   4.7744   4.7947   4.8231   4.8407   4.8728
  4.9016   4.9350   4.9425   4.9667   5.0335   5.0366   5.0636   5.0738
  5.1000   5.1379   5.1728   5.1865   5.2778   5.3111   5.3404   5.3820
  5.3947   5.3962   5.4534   5.5121   5.5385   5.5454   5.6211   5.6542
  5.6956   5.7124   5.7476   5.8297   5.9523   6.2223   6.4953   6.6117
  6.6610   6.8829   7.0107   7.3119   7.4704  22.6101  22.6864  22.6941
 22.7469  22.9142  22.9262  22.9916  23.0229  23.0525  23.0665  23.1117
 23.2109  23.4604  23.5231  44.4565
 --------------------------------------------------------------
 
          Ground-State Mulliken Net Atomic Charges

     Atom                 Charge (a.u.)
  ----------------------------------------
      1 C                    -1.050216
      2 C                    -0.139203
      3 C                     0.275900
      4 C                    -0.270360
      5 C                    -0.424220
      6 C                    -0.508409
      7 C                    -0.374055
      8 H                     0.291148
      9 H                     0.376219
     10 H                     0.279151
     11 H                     0.267844
     12 H                     0.361348
     13 H                     0.347747
     14 H                     0.321707
     15 H                     0.214278
     16 C                    -1.132930
     17 C                    -0.656347
     18 C                     0.780797
     19 C                    -0.414882
     20 C                     0.557347
     21 C                    -0.420637
     22 C                    -0.530038
     23 O                    -0.501013
     24 H                     0.310856
     25 H                     0.303774
     26 H                     0.292167
     27 H                     0.302207
     28 H                     0.285305
     29 H                     0.267753
     30 H                     0.360611
     31 H                     0.226150
  ----------------------------------------
  Sum of atomic charges =     0.000000

 -----------------------------------------------------------------
                    Cartesian Multipole Moments
 -----------------------------------------------------------------
    Charge (ESU x 10^10)
                -0.0000
    Dipole Moment (Debye)
         X       1.1608      Y      -0.3017      Z      -0.7168
       Tot       1.3973
    Quadrupole Moments (Debye-Ang)
        XX     -82.2509     XY       2.1346     YY     -88.3868
        XZ      -9.1917     YZ      -0.5288     ZZ     -85.1681
    Octopole Moments (Debye-Ang^2)
       XXX       7.0006    XXY       5.4928    XYY       7.0645
       YYY       5.3441    XXZ      -2.7856    XYZ     -13.8014
       YYZ     -31.6636    XZZ      27.2486    YZZ      25.4539
       ZZZ      17.7684
    Hexadecapole Moments (Debye-Ang^3)
      XXXX    -880.7473   XXXY     116.6314   XXYY    -362.9496
      XYYY     142.8841   YYYY   -1293.3626   XXXZ     149.6828
      XXYZ    -169.4645   XYYZ      -0.2692   YYYZ    -560.5897
      XXZZ    -793.7860   XYZZ      58.8959   YYZZ    -911.4367
      XZZZ      63.8731   YZZZ    -533.7891   ZZZZ   -4113.0310
 -----------------------------------------------------------------
Archival summary:
1\1\nid00507\SP\ProcedureUnspecified\BasisUnspecified\11416\meili\MonSep2711:10:022021MonSep2711:10:022021\0\\#,ProcedureUnspecified,BasisUnspecified,\\0,1\O\H,1,0.961817\C,1,1.3619,2,113.42\C,3,1.38989,1,120.047,2,-3.36122,0\H,4,1.07825,3,120.538,1,0.174449,0\C,4,1.39058,3,119.747,1,-179.975,0\H,6,1.08244,4,119.442,3,179.833,0\C,3,1.39059,1,119.848,2,176.61,0\H,8,1.08018,3,119.602,1,-0.277299,0\C,8,1.39121,3,119.765,1,179.916,0\H,10,1.08234,8,119.561,3,-179.726,0\C,6,1.39253,4,120.726,3,-0.22123,0\C,12,1.50694,6,120.356,4,179.715,0\H,13,1.0839,12,107.862,6,46.2784,0\H,13,1.0886,12,109.835,6,163.269,0\H,13,1.1,12,112.792,6,-75.528,0\H,9,2.67199,8,87.7576,3,-92.1284,0\C,17,1.0807,9,178.406,8,-72.2698,0\C,18,1.38864,17,119.32,9,86.9691,0\H,19,1.0821,18,119.975,17,0.332473,0\C,19,1.38814,18,119.92,17,179.883,0\H,21,1.08133,19,119.99,18,-179.474,0\C,21,1.39044,19,119.815,18,0.209901,0\H,23,1.08068,21,120.054,19,179.465,0\C,23,1.38897,21,120.102,19,-0.234336,0\H,25,1.08112,23,119.769,21,-179.912,0\C,25,1.39043,23,120.34,21,0.385238,0\C,27,1.50416,25,120.374,23,-179.555,0\H,28,1.08512,27,108.416,25,-153.434,0\H,28,1.09056,27,108.993,25,-36.8258,0\H,28,1.1,27,113.502,25,85.1868,0\\\@

 Total job time:  96545.80s(wall), 61468.52s(cpu) 
 Mon Sep 27 11:10:06 2021

        *************************************************************
        *                                                           *
        *  Thank you very much for using Q-Chem.  Have a nice day.  *
        *                                                           *
        *************************************************************


