
Running Job 1 of 1 SSI-115ASP-156ASP-1_PCM_TZVPD.in
qchem SSI-115ASP-156ASP-1_PCM_TZVPD.in_4974.0 /tmp/qchem4974/ 0
/global/common/cori/software/qchem/5.2/exe/qcprog.exe_s SSI-115ASP-156ASP-1_PCM_TZVPD.in_4974.0 /tmp/qchem4974/
                  Welcome to Q-Chem
     A Quantum Leap Into The Future Of Chemistry


 Q-Chem 5.2, Q-Chem, Inc., Pleasanton, CA (2019)

 License issued to: National Energy Research Scientific Computing Center

 Yihan Shao,  Zhengting Gan,  E. Epifanovsky,  A. T. B. Gilbert,  M. Wormit,  
 J. Kussmann,  A. W. Lange,  A. Behn,  Jia Deng,  Xintian Feng,  D. Ghosh,  
 M. Goldey,  P. R. Horn,  L. D. Jacobson,  I. Kaliman,  T. Kus,  A. Landau,  
 Jie Liu,  E. I. Proynov,  R. M. Richard,  R. P. Steele,  E. J. Sundstrom,  
 H. L. Woodcock III,  P. M. Zimmerman,  D. Zuev,  B. Albrecht,  E. Alguire,  
 S. A. Baeppler,  D. Barton,  Z. Benda,  Y. A. Bernard,  E. J. Berquist,  
 K. B. Bravaya,  H. Burton,  D. Casanova,  Chun-Min Chang,  Yunqing Chen,  
 A. Chien,  K. D. Closser,  M. P. Coons,  S. Coriani,  S. Dasgupta,  
 A. L. Dempwolff,  M. Diedenhofen,  Hainam Do,  R. G. Edgar,  Po-Tung Fang,  
 S. Faraji,  S. Fatehi,  Qingguo Feng,  K. D. Fenk,  J. Fosso-Tande,  
 J. Gayvert,  Qinghui Ge,  A. Ghysels,  G. Gidofalvi,  J. Gomes,  
 J. Gonthier,  A. Gunina,  D. Hait,  M. W. D. Hanson-Heine,  
 P. H. P. Harbach,  A. W. Hauser,  M. F. Herbst,  J. E. Herr,  
 E. G. Hohenstein,  Z. C. Holden,  Kerwin Hui,  B. C. Huynh,  T.-C. Jagau,  
 Hyunjun Ji,  B. Kaduk,  K. Khistyaev,  Jaehoon Kim,  P. Klunzinger,  K. Koh,  
 D. Kosenkov,  L. Koulias,  T. Kowalczyk,  C. M. Krauter,  A. Kunitsa,  
 Ka Un Lao,  A. Laurent,  K. V. Lawler,  Joonho Lee,  D. Lefrancois,  
 S. Lehtola,  D. S. Levine,  Yi-Pei Li,  You-Sheng Lin,  Fenglai Liu,  
 E. Livshits,  A. Luenser,  P. Manohar,  E. Mansoor,  S. F. Manzer,  
 Shan-Ping Mao,  Yuezhi Mao,  N. Mardirossian,  A. V. Marenich,  
 T. Markovich,  L. A. Martinez-Martinez,  S. A. Maurer,  N. J. Mayhall,  
 S. C. McKenzie,  J.-M. Mewes,  P. Morgante,  A. F. Morrison,  
 J. W. Mullinax,  K. Nanda,  T. S. Nguyen-Beck,  R. Olivares-Amaya,  
 J. A. Parkhill,  Zheng Pei,  T. M. Perrine,  F. Plasser,  P. Pokhilko,  
 S. Prager,  A. Prociuk,  E. Ramos,  D. R. Rehn,  F. Rob,  M. Scheurer,  
 M. Schneider,  N. Sergueev,  S. M. Sharada,  S. Sharma,  D. W. Small,  
 T. Stauch,  T. Stein,  Yu-Chuan Su,  A. J. W. Thom,  A. Tkatchenko,  
 T. Tsuchimochi,  N. M. Tubman,  L. Vogt,  M. L. Vidal,  O. Vydrov,  
 M. A. Watson,  J. Wenzel,  M. de Wergifosse,  T. A. Wesolowski,  A. White,  
 J. Witte,  A. Yamada,  Jun Yang,  K. Yao,  S. Yeganeh,  S. R. Yost,  
 Zhi-Qiang You,  A. Zech,  Igor Ying Zhang,  Xing Zhang,  Yan Zhao,  
 Ying Zhu,  B. R. Brooks,  G. K. L. Chan,  C. J. Cramer,  M. S. Gordon,  
 W. J. Hehre,  A. Klamt,  M. W. Schmidt,  C. D. Sherrill,  D. G. Truhlar,  
 A. Aspuru-Guzik,  R. Baer,  A. T. Bell,  N. A. Besley,  Jeng-Da Chai,  
 A. E. DePrince, III,  R. A. DiStasio Jr.,  A. Dreuw,  B. D. Dunietz,  
 T. R. Furlani,  Chao-Ping Hsu,  Yousung Jung,  Jing Kong,  D. S. Lambrecht,  
 WanZhen Liang,  C. Ochsenfeld,  V. A. Rassolov,  L. V. Slipchenko,  
 J. E. Subotnik,  T. Van Voorhis,  J. M. Herbert,  A. I. Krylov,  
 P. M. W. Gill,  M. Head-Gordon

 Contributors to earlier versions of Q-Chem not listed above: 
 R. D. Adamson,  B. Austin,  J. Baker,  G. J. O. Beran,  K. Brandhorst,  
 S. T. Brown,  E. F. C. Byrd,  A. K. Chakraborty,  C.-L. Cheng,  
 Siu Hung Chien,  D. M. Chipman,  D. L. Crittenden,  H. Dachsel,  
 R. J. Doerksen,  A. D. Dutoi,  L. Fusti-Molnar,  W. A. Goddard III,  
 A. Golubeva-Zadorozhnaya,  S. R. Gwaltney,  G. Hawkins,  A. Heyden,  
 S. Hirata,  G. Kedziora,  F. J. Keil,  C. Kelley,  Jihan Kim,  R. A. King,  
 R. Z. Khaliullin,  P. P. Korambath,  W. Kurlancheek,  A. M. Lee,  M. S. Lee,  
 S. V. Levchenko,  Ching Yeh Lin,  D. Liotard,  R. C. Lochan,  I. Lotan,  
 P. E. Maslen,  N. Nair,  D. P. O'Neill,  D. Neuhauser,  E. Neuscamman,  
 C. M. Oana,  R. Olson,  B. Peters,  R. Peverati,  P. A. Pieniazek,  
 Y. M. Rhee,  J. Ritchie,  M. A. Rohrdanz,  E. Rosta,  N. J. Russ,  
 H. F. Schaefer III,  N. E. Schultz,  N. Shenvi,  A. C. Simmonett,  A. Sodt,  
 D. Stuck,  K. S. Thanthiriwatte,  V. Vanovschi,  Tao Wang,  A. Warshel,  
 C. F. Williams,  Q. Wu,  X. Xu,  W. Zhang

 Please cite Q-Chem as follows:
 Y. Shao et al., Mol. Phys. 113, 184-215 (2015)
 DOI: 10.1080/00268976.2014.952696

 Q-Chem 5.2.0 for Intel X86 EM64T Linux

 Parts of Q-Chem use Armadillo 8.300.2 (Tropical Shenanigans).
 http://arma.sourceforge.net/

 Q-Chem begins on Sun Sep 26 13:49:36 2021  

Host: cori01
0

     Scratch files written to /tmp/qchem4974//
 May1019 |scratch|qcdevops|jenkins|workspace|build_RNUM -1
Processing $rem in /global/common/cori/software/qchem/5.2/config/preferences:
	 MEM_TOTAL  96000 
NAlpha2: 72
NElect   72
Mult     1
Symmetry turned off for PCM/SM12/SMD calculation

 Q-Chem warning in module libgen/rem_setup.C, line 2803:

 Neither GIA nor STOLL is specified by user. Use STOLL as the default


Checking the input file for inconsistencies... 	...done.

--------------------------------------------------------------
User input:
--------------------------------------------------------------
$comment
SSI-115ASP-156ASP-1.pdb
$end

$molecule
-2 1
--
-1 1
C    0.828114758025   -3.109278430850   -1.555529097896
C    0.138114758025   -1.758278430850   -1.620529097896
O    0.656114758025   -0.834278430850   -0.974529097896
O   -0.920885241975   -1.628278430850   -2.272529097896
H    0.639114758025   -3.508278430850   -0.557529097896
H    1.904114758025   -3.013278430850   -1.656529097896
H    0.443582758025   -3.827118430850   -2.295014097896
--
-1 1
C    0.392114758025    0.616721569150    1.638470902104
C    0.583114758025    1.027721569150    3.103470902104
C   -0.360885241975    1.641721569150    0.800470902104
O   -0.600885241975    2.772721569150    1.276470902104
O   -0.713885241975    1.312721569150   -0.352529097896
H    1.373114758025    0.486721569150    1.190470902104
H   -0.129885241975   -0.342278430850    1.617470902104
H    1.311114758025    0.320721569150    3.486470902104
H   -0.353211241975    0.946501569150    3.675043902104
H    1.060894758025    2.009991569150    3.233380902104
$end

$rem
JOBTYPE			EDA
EDA2			1
method			wB97X-V
BASIS			def2-TZVPD
XC_GRID			000099000590
NL_GRID			1
UNRESTRICTED		FALSE
MAX_SCF_CYCLES		200
SYMMETRY		FALSE
SYM_IGNORE		TRUE
MEM_STATIC		2000
BASIS_LIN_DEP_THRESH 	6
THRESH 			14
SCF_CONVERGENCE 	8
SCF_PRINT_FRGM 		TRUE
SOLVENT_METHOD          PCM
$end

$PCM
THEORY                  CPCM
METHOD                  SWIG
SOLVER                  INVERSION
RADII                   UFF
HPOINTS                 302
HEAVYPOINTS             302
PRINTLEVEL              0
$END

$SOLVENT
DIELECTRIC              78.390000 ! water
$END
--------------------------------------------------------------
 ----------------------------------------------------------------
             Standard Nuclear Orientation (Angstroms)
    I     Atom           X                Y                Z
 ----------------------------------------------------------------
    1      C       0.8281147580    -3.1092784308    -1.5555290979
    2      C       0.1381147580    -1.7582784308    -1.6205290979
    3      O       0.6561147580    -0.8342784308    -0.9745290979
    4      O      -0.9208852420    -1.6282784309    -2.2725290979
    5      H       0.6391147580    -3.5082784308    -0.5575290979
    6      H       1.9041147580    -3.0132784308    -1.6565290979
    7      H       0.4435827580    -3.8271184309    -2.2950140979
    8      C       0.3921147580     0.6167215691     1.6384709021
    9      C       0.5831147580     1.0277215691     3.1034709021
   10      C      -0.3608852420     1.6417215692     0.8004709021
   11      O      -0.6008852420     2.7727215691     1.2764709021
   12      O      -0.7138852420     1.3127215692    -0.3525290979
   13      H       1.3731147580     0.4867215691     1.1904709021
   14      H      -0.1298852420    -0.3422784308     1.6174709021
   15      H       1.3111147580     0.3207215691     3.4864709021
   16      H      -0.3532112420     0.9465015692     3.6750439021
   17      H       1.0608947580     2.0099915691     3.2333809021
 ----------------------------------------------------------------
 Nuclear Repulsion Energy =         426.05305723 hartrees
 There are       36 alpha and       36 beta electrons
 Requested basis set is def2-TZVPD
 There are 161 shells and 417 basis functions

 Total QAlloc Memory Limit  96000 MB
 Mega-Array Size      1956 MB
 MEM_STATIC part      2000 MB
 Discretize the solute cavity surface with Lebedev spheres
	Using 302 Lebedev grid points for each H atom
	Using 302 Lebedev grid points for other atoms
	Atomic van der Waals radii will be scaled by 1.20
 Remove points where switching function is < 1.0e-08
 Keep 2117 surface tesserae and discard 3017 interior tesserae
 Molecular Surface Area = 230.168 Angst**2
 A cutoff of  1.0D-14 yielded  11541 shell pairs
 There are     77891 function pairs (     98797 Cartesian)
 Smallest overlap matrix eigenvalue = 5.67E-06

 Scale SEOQF with 1.000000e-01/1.000000e-01/1.000000e-01

 Standard Electronic Orientation quadrupole field applied
 Nucleus-field energy     =    -0.0000000048 hartrees

 -----------------------------------------------------------------------
  General SCF calculation program by
  Eric Jon Sundstrom, Paul Horn, Yuezhi Mao, Dmitri Zuev, Alec White,
  David Stuck, Shaama M.S., Shane Yost, Joonho Lee, David Small,
  Daniel Levine, Susi Lehtola, Hugh Burton, Evgeny Epifanovsky
 -----------------------------------------------------------------------
================================================================
                 ALMO-EDA with the EDA2 driver                  
================================================================
 The second-generation ALMO-EDA (for DFT):                      
 P. R. Horn, Y. Mao and M. Head-Gordon, PCCP, 18, 23067 (2016)  
 Decomposition of the frozen energy:                            
 P. R. Horn, Y. Mao and M. Head-Gordon, JCP, 144, 114107 (2016) 
 FERF model for polarization:                                   
 P. R. Horn and M. Head-Gordon, JCP, 143, 114111 (2015)         
Using eda2 option set 1
Option set summary: Frozen orbital wavefunction, initial wavefunction decomposition, and nDQ polarization.
--------------------------------
Printing EDA Options
--------------------------------
eda_child_super_basis      0
fragmo_guess_mode          0
child_mp                   1
child_mp_orders            232
cls_elec                   1
cls_disp                   0
scfmi_mode                 1
scfmi_occs                 0
scfmi_virts                0
frz_relax                  0
frz_relax_method           0
dc_pen_start               0
dc_pen_conv                0
dc_pen_increment           0
dc_pen_steps               0
dc_pen_thresh_factor       0
dc_pen_pre_newton_thresh   0
frz_ortho_decomp           1
frz_ortho_decomp_conv      6
frgm_method                2
scfmi_freeze_ss            0
separate_rehyb             0
plot_diff_den              0
eda_nocv                   0
eda_vct_relax              1
disp_free_x                0
disp_free_c                0
eda_bsse                   0
eda_pct_a                  0
eda_covp                   0
--------------------------------
Attempting to make child job directory: /tmp/qchem4974//Frg1/
Attempting to make child job directory: /tmp/qchem4974//Frg2/
Creating input file /tmp/qchem4974/Frg1.input
using default PutDataFrgm: nothing
calling putenv with: QCSCRATCH=/tmp/qchem4974/ 
calling putenv with: QCLOCALSCR=/tmp/qchem4974/ 
Spawning Job For Fragment 0
                  Welcome to Q-Chem
     A Quantum Leap Into The Future Of Chemistry


 Q-Chem 5.2, Q-Chem, Inc., Pleasanton, CA (2019)

 License issued to: National Energy Research Scientific Computing Center

 Yihan Shao,  Zhengting Gan,  E. Epifanovsky,  A. T. B. Gilbert,  M. Wormit,  
 J. Kussmann,  A. W. Lange,  A. Behn,  Jia Deng,  Xintian Feng,  D. Ghosh,  
 M. Goldey,  P. R. Horn,  L. D. Jacobson,  I. Kaliman,  T. Kus,  A. Landau,  
 Jie Liu,  E. I. Proynov,  R. M. Richard,  R. P. Steele,  E. J. Sundstrom,  
 H. L. Woodcock III,  P. M. Zimmerman,  D. Zuev,  B. Albrecht,  E. Alguire,  
 S. A. Baeppler,  D. Barton,  Z. Benda,  Y. A. Bernard,  E. J. Berquist,  
 K. B. Bravaya,  H. Burton,  D. Casanova,  Chun-Min Chang,  Yunqing Chen,  
 A. Chien,  K. D. Closser,  M. P. Coons,  S. Coriani,  S. Dasgupta,  
 A. L. Dempwolff,  M. Diedenhofen,  Hainam Do,  R. G. Edgar,  Po-Tung Fang,  
 S. Faraji,  S. Fatehi,  Qingguo Feng,  K. D. Fenk,  J. Fosso-Tande,  
 J. Gayvert,  Qinghui Ge,  A. Ghysels,  G. Gidofalvi,  J. Gomes,  
 J. Gonthier,  A. Gunina,  D. Hait,  M. W. D. Hanson-Heine,  
 P. H. P. Harbach,  A. W. Hauser,  M. F. Herbst,  J. E. Herr,  
 E. G. Hohenstein,  Z. C. Holden,  Kerwin Hui,  B. C. Huynh,  T.-C. Jagau,  
 Hyunjun Ji,  B. Kaduk,  K. Khistyaev,  Jaehoon Kim,  P. Klunzinger,  K. Koh,  
 D. Kosenkov,  L. Koulias,  T. Kowalczyk,  C. M. Krauter,  A. Kunitsa,  
 Ka Un Lao,  A. Laurent,  K. V. Lawler,  Joonho Lee,  D. Lefrancois,  
 S. Lehtola,  D. S. Levine,  Yi-Pei Li,  You-Sheng Lin,  Fenglai Liu,  
 E. Livshits,  A. Luenser,  P. Manohar,  E. Mansoor,  S. F. Manzer,  
 Shan-Ping Mao,  Yuezhi Mao,  N. Mardirossian,  A. V. Marenich,  
 T. Markovich,  L. A. Martinez-Martinez,  S. A. Maurer,  N. J. Mayhall,  
 S. C. McKenzie,  J.-M. Mewes,  P. Morgante,  A. F. Morrison,  
 J. W. Mullinax,  K. Nanda,  T. S. Nguyen-Beck,  R. Olivares-Amaya,  
 J. A. Parkhill,  Zheng Pei,  T. M. Perrine,  F. Plasser,  P. Pokhilko,  
 S. Prager,  A. Prociuk,  E. Ramos,  D. R. Rehn,  F. Rob,  M. Scheurer,  
 M. Schneider,  N. Sergueev,  S. M. Sharada,  S. Sharma,  D. W. Small,  
 T. Stauch,  T. Stein,  Yu-Chuan Su,  A. J. W. Thom,  A. Tkatchenko,  
 T. Tsuchimochi,  N. M. Tubman,  L. Vogt,  M. L. Vidal,  O. Vydrov,  
 M. A. Watson,  J. Wenzel,  M. de Wergifosse,  T. A. Wesolowski,  A. White,  
 J. Witte,  A. Yamada,  Jun Yang,  K. Yao,  S. Yeganeh,  S. R. Yost,  
 Zhi-Qiang You,  A. Zech,  Igor Ying Zhang,  Xing Zhang,  Yan Zhao,  
 Ying Zhu,  B. R. Brooks,  G. K. L. Chan,  C. J. Cramer,  M. S. Gordon,  
 W. J. Hehre,  A. Klamt,  M. W. Schmidt,  C. D. Sherrill,  D. G. Truhlar,  
 A. Aspuru-Guzik,  R. Baer,  A. T. Bell,  N. A. Besley,  Jeng-Da Chai,  
 A. E. DePrince, III,  R. A. DiStasio Jr.,  A. Dreuw,  B. D. Dunietz,  
 T. R. Furlani,  Chao-Ping Hsu,  Yousung Jung,  Jing Kong,  D. S. Lambrecht,  
 WanZhen Liang,  C. Ochsenfeld,  V. A. Rassolov,  L. V. Slipchenko,  
 J. E. Subotnik,  T. Van Voorhis,  J. M. Herbert,  A. I. Krylov,  
 P. M. W. Gill,  M. Head-Gordon

 Contributors to earlier versions of Q-Chem not listed above: 
 R. D. Adamson,  B. Austin,  J. Baker,  G. J. O. Beran,  K. Brandhorst,  
 S. T. Brown,  E. F. C. Byrd,  A. K. Chakraborty,  C.-L. Cheng,  
 Siu Hung Chien,  D. M. Chipman,  D. L. Crittenden,  H. Dachsel,  
 R. J. Doerksen,  A. D. Dutoi,  L. Fusti-Molnar,  W. A. Goddard III,  
 A. Golubeva-Zadorozhnaya,  S. R. Gwaltney,  G. Hawkins,  A. Heyden,  
 S. Hirata,  G. Kedziora,  F. J. Keil,  C. Kelley,  Jihan Kim,  R. A. King,  
 R. Z. Khaliullin,  P. P. Korambath,  W. Kurlancheek,  A. M. Lee,  M. S. Lee,  
 S. V. Levchenko,  Ching Yeh Lin,  D. Liotard,  R. C. Lochan,  I. Lotan,  
 P. E. Maslen,  N. Nair,  D. P. O'Neill,  D. Neuhauser,  E. Neuscamman,  
 C. M. Oana,  R. Olson,  B. Peters,  R. Peverati,  P. A. Pieniazek,  
 Y. M. Rhee,  J. Ritchie,  M. A. Rohrdanz,  E. Rosta,  N. J. Russ,  
 H. F. Schaefer III,  N. E. Schultz,  N. Shenvi,  A. C. Simmonett,  A. Sodt,  
 D. Stuck,  K. S. Thanthiriwatte,  V. Vanovschi,  Tao Wang,  A. Warshel,  
 C. F. Williams,  Q. Wu,  X. Xu,  W. Zhang

 Please cite Q-Chem as follows:
 Y. Shao et al., Mol. Phys. 113, 184-215 (2015)
 DOI: 10.1080/00268976.2014.952696

 Q-Chem 5.2.0 for Intel X86 EM64T Linux

 Parts of Q-Chem use Armadillo 8.300.2 (Tropical Shenanigans).
 http://arma.sourceforge.net/

 Q-Chem begins on Sun Sep 26 13:49:39 2021  

Host: cori01
0

     Scratch files written to /tmp/qchem4974//Frg1//
 May1019 |scratch|qcdevops|jenkins|workspace|build_RNUM -1
Processing $rem in /global/common/cori/software/qchem/5.2/config/preferences:
	 MEM_TOTAL  96000 
NAlpha2: 32
NElect   32
Mult     1
Symmetry turned off for PCM/SM12/SMD calculation

Checking the input file for inconsistencies... 	...done.

--------------------------------------------------------------
User input:
--------------------------------------------------------------
$molecule
-1 1
 6	0.8281147580	-3.1092784308	-1.5555290979
 6	0.1381147580	-1.7582784308	-1.6205290979
 8	0.6561147580	-0.8342784308	-0.9745290979
 8	-0.9208852420	-1.6282784309	-2.2725290979
 1	0.6391147580	-3.5082784308	-0.5575290979
 1	1.9041147580	-3.0132784308	-1.6565290979
 1	0.4435827580	-3.8271184309	-2.2950140979
$end
$rem
EDA2		1
METHOD		WB97X-V
BASIS		DEF2-TZVPD
XC_GRID		000099000590
NL_GRID		1
UNRESTRICTED		FALSE
MAX_SCF_CYCLES		200
SYMMETRY		FALSE
SYM_IGNORE		TRUE
BASIS_LIN_DEP_THRESH		6
THRESH		14
SCF_CONVERGENCE		8
SCF_PRINT_FRGM		TRUE
SOLVENT_METHOD		PCM
!required keywords
JOBTYPE		SP
SYM_IGNORE		TRUE
SUBSYSTEM		TRUE
GEN_SCFMAN		TRUE
CHILD_INSTRUCTION		2
SYM_IGNORE		TRUE
SCFMI		0
RI_K 0		
PARI_K 0		
MIN_PARI_K 0		
IARI_K 0		
OCC_RI_K 0		
PURECART		1111
MEM_STATIC		2000
MEM_TOTAL		96000
GUI		0
CHILD_MP		1
CHILD_MP_ORDERS		232
FRZ_RELAX		0
FRZ_RELAX_METHOD		0
EDA_CLS_ELEC		1
EDA_CLS_DISP		0
FRZ_ORTHO_DECOMP		1
EDA2		FALSE
FRGM_METHOD		FALSE
CIS_N_ROOTS  0
LOCAL_CIS    0
CIS_RLX_DNS  1
$end
$pcm
THEORY                  CPCM
METHOD                  SWIG
SOLVER                  INVERSION
RADII                   UFF
HPOINTS                 302
HEAVYPOINTS             302
PRINTLEVEL              0
$end
$solvent
DIELECTRIC              78.390000 ! water
$end
--------------------------------------------------------------
 ----------------------------------------------------------------
             Standard Nuclear Orientation (Angstroms)
    I     Atom           X                Y                Z
 ----------------------------------------------------------------
    1      C       0.8281147580    -3.1092784308    -1.5555290979
    2      C       0.1381147580    -1.7582784308    -1.6205290979
    3      O       0.6561147580    -0.8342784308    -0.9745290979
    4      O      -0.9208852420    -1.6282784309    -2.2725290979
    5      H       0.6391147580    -3.5082784308    -0.5575290979
    6      H       1.9041147580    -3.0132784308    -1.6565290979
    7      H       0.4435827580    -3.8271184309    -2.2950140979
 ----------------------------------------------------------------
 Nuclear Repulsion Energy =         113.04617685 hartrees
 There are       16 alpha and       16 beta electrons
 Requested basis set is def2-TZVPD
 There are 69 shells and 181 basis functions

 Total QAlloc Memory Limit  96000 MB
 Mega-Array Size      1956 MB
 MEM_STATIC part      2000 MB
 Discretize the solute cavity surface with Lebedev spheres
	Using 302 Lebedev grid points for each H atom
	Using 302 Lebedev grid points for other atoms
	Atomic van der Waals radii will be scaled by 1.20
 Remove points where switching function is < 1.0e-08
 Keep 1005 surface tesserae and discard 1109 interior tesserae
 Molecular Surface Area = 119.907 Angst**2

                       Distance Matrix (Angstroms)
             C (  1)   C (  2)   O (  3)   O (  4)   H (  5)   H (  6)
   C (  2)  1.518396
   O (  3)  2.354309  1.240732
   O (  4)  2.401344  1.250394  2.191385
   H (  5)  1.091296  2.107954  2.706373  2.984832
   H (  6)  1.084985  2.166813  2.602051  3.205980  1.747298
   H (  7)  1.099999  2.197348  3.278100  2.587890  1.777286  1.789735

 
 A cutoff of  1.0D-14 yielded   2391 shell pairs
 There are     16695 function pairs (     21491 Cartesian)
 Smallest overlap matrix eigenvalue = 1.66E-05

 Scale SEOQF with 1.000000e-01/1.000000e-01/1.000000e-01

 Standard Electronic Orientation quadrupole field applied
 Nucleus-field energy     =     0.0000000012 hartrees
 Guess from superposition of atomic densities
 Warning:  Energy on first SCF cycle will be non-variational
 SAD guess density has 30.625312 electrons

 -----------------------------------------------------------------------
  General SCF calculation program by
  Eric Jon Sundstrom, Paul Horn, Yuezhi Mao, Dmitri Zuev, Alec White,
  David Stuck, Shaama M.S., Shane Yost, Joonho Lee, David Small,
  Daniel Levine, Susi Lehtola, Hugh Burton, Evgeny Epifanovsky
 -----------------------------------------------------------------------
 Exchange:     0.1670 Hartree-Fock + 1.0000 wB97X-V + LR-HF
 Correlation:  1.0000 wB97X-V
 Using Euler-Maclaurin-Lebedev (99,590) quadrature formula
 Nonlocal Correlation:  VV10 with C = 0.0100 and b = 6.00 and scale = 1.00000
 Grid used for NLC:  SG-1 standard quadrature
Energy prior to optimization (guess energy) = -227.767381758325
Begin Timing: Total SCF Calculation
begin iterations for algorithm: DIIS         
the SCF tolerance is set to 1.00e-08
    1    -227.7673817583      1.66e-02     00000 
    2    -225.6169213023      2.53e-02     00000 
    3    -228.5764612262      4.15e-03     00000 
    4    -228.6354596949      1.44e-03     00000 
    5    -228.6418078342      3.67e-04     00000 
    6    -228.6421443920      2.54e-04     00000 
    7    -228.6423277632      4.46e-05     00000 
    8    -228.6423377276      1.37e-05     00000 
    9    -228.6423390147      2.84e-06     00000 
   10    -228.6423391180      4.99e-07     00000 
   11    -228.6423391210      2.40e-07     00000 
   12    -228.6423391215      6.06e-08     00000 
   13    -228.6423391216      1.74e-08     00000 
   14    -228.6423391216      2.90e-09     00000 Convergence criterion met
Timing for Total SCF: 314.00s (wall), 616.65s (cpu)

************** Final PCM Free Energy Summary **************
 G_electrostatic  =      -0.10170901 hartree =     -63.82336564 kcal/mol
 G_cavitation     =       0.00000000 hartree =       0.00000000 kcal/mol
 G_dispersion     =       0.00000000 hartree =       0.00000000 kcal/mol
 G_repulsion      =       0.00000000 hartree =       0.00000000 kcal/mol
 --------------------------------------------------
 Non-electrostatic Free Energy =       0.00000000 hartree =       0.00000000 kcal/mol
 Total                         =      -0.10170901 hartree =     -63.82336564 kcal/mol
 --------------------------------------------------
 SCF Energy (H0 + V/2)                       =    -228.64233912 
 Solute Internal Energy (H0)                 =    -228.54063011 
 Total Free Energy (H0 + V/2 + non-elec)     =    -228.64233912 hartree
                                             = -143475.23327038 kcal/mol
***********************************************************

E_pcm = -0.1017090077
Multipole orders to be included
        2
        3
computing dipole RHS
computing quadrupole RHS
total number of RHS in solve_reponses: 8
RHS batch sizes
        8
Beginning Block Conjugate Gradient Iterations. Batch Number: 0
computing hessian-vector products by finite difference
              1      6.39e-01     00000 Conjugate Gradient Iteration
computing hessian-vector products by finite difference
              2      2.24e-01     00000 Conjugate Gradient Iteration
computing hessian-vector products by finite difference
              3      5.89e-02     00000 Conjugate Gradient Iteration
computing hessian-vector products by finite difference
              4      1.53e-02     00000 Conjugate Gradient Iteration
computing hessian-vector products by finite difference
              5      2.66e-03     00000 Conjugate Gradient Iteration
computing hessian-vector products by finite difference
              6      6.19e-04     00000 Conjugate Gradient Iteration
computing hessian-vector products by finite difference
              7      1.01e-04     00000 Conjugate Gradient Iteration
computing hessian-vector products by finite difference
              8      1.22e-05     00000 Conjugate Gradient Iteration
computing hessian-vector products by finite difference
              9      1.93e-06     00000 Conjugate Gradient Iteration
computing hessian-vector products by finite difference
             10      2.77e-07     00000 Conjugate Gradient Iteration
computing hessian-vector products by finite difference
             11      8.99e-08     00000 Conjugate Gradient Iteration
computing hessian-vector products by finite difference
             12      1.53e-08     00000 Conjugate Gradient Iteration
computing hessian-vector products by finite difference
             13      5.27e-09     00000 CG Converged
batch 0 complete
Done Calculating Responses
TESTING ORTHOGONALIZATION OF MULTIPOLE BASIS
Multipole virts passed orthogonality test
Virts Per Order
        48
        80
 
 --------------------------------------------------------------
 
                    Orbital Energies (a.u.)
 --------------------------------------------------------------
 
 Alpha MOs
 -- Occupied --
-19.1211 -19.1201 -10.3228 -10.2380  -1.1349  -1.0334  -0.8290  -0.5922
 -0.5293  -0.5180  -0.5171  -0.4643  -0.4422  -0.3293  -0.3254  -0.3087
 -- Virtual --
  0.0633   0.0952   0.0958   0.1054   0.1304   0.1401   0.1423   0.1454
  0.1717   0.1923   0.1991   0.2223   0.2315   0.2375   0.2639   0.2680
  0.2996   0.3122   0.3348   0.3474   0.3552   0.3626   0.3728   0.3817
  0.3915   0.4050   0.4246   0.4275   0.4340   0.4625   0.4744   0.4784
  0.4900   0.4957   0.5045   0.5246   0.5606   0.5828   0.5999   0.6150
  0.6257   0.6442   0.6483   0.6607   0.6731   0.6852   0.6986   0.7121
  0.7237   0.7424   0.7806   0.8010   0.8126   0.8260   0.8511   0.8600
  0.8730   0.9812   0.9862   0.9936   1.0103   1.0494   1.0640   1.1241
  1.1580   1.2204   1.2573   1.2901   1.2927   1.3180   1.3548   1.3720
  1.4536   1.5734   1.6088   1.7423   1.8308   1.8703   1.8761   1.9226
  1.9319   1.9607   1.9662   1.9760   2.0295   2.1219   2.1312   2.1834
  2.2141   2.2357   2.3117   2.3453   2.4230   2.4479   2.4927   2.5186
  2.5777   2.6001   2.6311   2.6722   2.7912   2.8153   2.8786   2.9200
  2.9473   3.0317   3.0553   3.1864   3.2105   3.2558   3.2807   3.3188
  3.3429   3.3530   3.3992   3.4208   3.4374   3.5275   3.5868   3.5997
  3.6109   3.6833   3.7217   3.7410   3.7801   3.8780   3.9595   4.0591
  4.0948   4.2104   4.3834   4.5828   4.6216   4.6653   4.7951   4.8394
  4.9858   5.3337   5.3611   5.3711   5.3802   5.5121   5.7267   5.7818
  5.8375   6.0422   6.2596   6.3514   6.3711   6.6333   6.6443   6.7233
  6.7513   6.7634   6.9712   6.9823   7.0515   7.2559   7.3763   7.3990
  7.4255  22.6063  23.7843  44.2274  44.3678
 --------------------------------------------------------------
 
          Ground-State Mulliken Net Atomic Charges

     Atom                 Charge (a.u.)
  ----------------------------------------
      1 C                    -0.404160
      2 C                     0.289013
      3 O                    -0.669363
      4 O                    -0.677883
      5 H                     0.125184
      6 H                     0.170107
      7 H                     0.167101
  ----------------------------------------
  Sum of atomic charges =    -1.000000

 -----------------------------------------------------------------
                    Cartesian Multipole Moments
 -----------------------------------------------------------------
    Charge (ESU x 10^10)
                -4.8032
    Dipole Moment (Debye)
         X       1.4208      Y       4.4930      Z       7.9079
       Tot       9.2055
    Quadrupole Moments (Debye-Ang)
        XX     -31.3046     XY      -4.1598     YY     -31.2423
        XZ      -6.7910     YZ      -9.8069     ZZ     -42.2304
    Octopole Moments (Debye-Ang^2)
       XXX     -13.9800    XXY      57.1397    XYY       2.3700
       YYY     158.1896    XXZ      50.7637    XYZ      12.8089
       YYZ      56.4332    XZZ      12.8873    YZZ      73.0579
       ZZZ     162.3079
    Hexadecapole Moments (Debye-Ang^3)
      XXXX    -126.9179   XXXY      41.7057   XXYY    -156.8870
      XYYY      38.4844   YYYY    -761.8826   XXXZ      -4.3957
      XXYZ     -96.4240   XYYZ     -20.4143   YYYZ    -273.3928
      XXZZ    -118.3021   XYZZ     -15.5561   YYZZ    -237.1500
      XZZZ     -40.8134   YZZZ    -305.5254   ZZZZ    -561.4780
 -----------------------------------------------------------------
Archival summary:
1\1\nid00536\SP\ProcedureUnspecified\BasisUnspecified\223(1-,1)\meili\SunSep2615:18:132021SunSep2615:18:132021\0\\#,ProcedureUnspecified,BasisUnspecified,\\-1,1\C\O,1,1.24073\O,1,1.25039,2,123.206\C,1,1.5184,2,116.783,3,-177.971,0\H,4,1.08499,1,111.589,2,-43.9852,0\H,4,1.0913,1,106.604,2,72.2842,0\H,4,1.1,1,113.142,2,-168.661,0\\\@

 Total job time:  5315.25s(wall), 10419.74s(cpu) 
 Sun Sep 26 15:18:14 2021

        *************************************************************
        *                                                           *
        *  Thank you very much for using Q-Chem.  Have a nice day.  *
        *                                                           *
        *************************************************************


Done Job For Fragment 0
calling putenv with: QCSCRATCH=/global/cscratch1/sd/meili 
calling putenv with: QCLOCALSCR=/tmp 
calling putenv with: QCTHREADS=32 
Creating input file /tmp/qchem4974/Frg2.input
using default PutDataFrgm: nothing
calling putenv with: QCSCRATCH=/tmp/qchem4974/ 
calling putenv with: QCLOCALSCR=/tmp/qchem4974/ 
Spawning Job For Fragment 1
                  Welcome to Q-Chem
     A Quantum Leap Into The Future Of Chemistry


 Q-Chem 5.2, Q-Chem, Inc., Pleasanton, CA (2019)

 License issued to: National Energy Research Scientific Computing Center

 Yihan Shao,  Zhengting Gan,  E. Epifanovsky,  A. T. B. Gilbert,  M. Wormit,  
 J. Kussmann,  A. W. Lange,  A. Behn,  Jia Deng,  Xintian Feng,  D. Ghosh,  
 M. Goldey,  P. R. Horn,  L. D. Jacobson,  I. Kaliman,  T. Kus,  A. Landau,  
 Jie Liu,  E. I. Proynov,  R. M. Richard,  R. P. Steele,  E. J. Sundstrom,  
 H. L. Woodcock III,  P. M. Zimmerman,  D. Zuev,  B. Albrecht,  E. Alguire,  
 S. A. Baeppler,  D. Barton,  Z. Benda,  Y. A. Bernard,  E. J. Berquist,  
 K. B. Bravaya,  H. Burton,  D. Casanova,  Chun-Min Chang,  Yunqing Chen,  
 A. Chien,  K. D. Closser,  M. P. Coons,  S. Coriani,  S. Dasgupta,  
 A. L. Dempwolff,  M. Diedenhofen,  Hainam Do,  R. G. Edgar,  Po-Tung Fang,  
 S. Faraji,  S. Fatehi,  Qingguo Feng,  K. D. Fenk,  J. Fosso-Tande,  
 J. Gayvert,  Qinghui Ge,  A. Ghysels,  G. Gidofalvi,  J. Gomes,  
 J. Gonthier,  A. Gunina,  D. Hait,  M. W. D. Hanson-Heine,  
 P. H. P. Harbach,  A. W. Hauser,  M. F. Herbst,  J. E. Herr,  
 E. G. Hohenstein,  Z. C. Holden,  Kerwin Hui,  B. C. Huynh,  T.-C. Jagau,  
 Hyunjun Ji,  B. Kaduk,  K. Khistyaev,  Jaehoon Kim,  P. Klunzinger,  K. Koh,  
 D. Kosenkov,  L. Koulias,  T. Kowalczyk,  C. M. Krauter,  A. Kunitsa,  
 Ka Un Lao,  A. Laurent,  K. V. Lawler,  Joonho Lee,  D. Lefrancois,  
 S. Lehtola,  D. S. Levine,  Yi-Pei Li,  You-Sheng Lin,  Fenglai Liu,  
 E. Livshits,  A. Luenser,  P. Manohar,  E. Mansoor,  S. F. Manzer,  
 Shan-Ping Mao,  Yuezhi Mao,  N. Mardirossian,  A. V. Marenich,  
 T. Markovich,  L. A. Martinez-Martinez,  S. A. Maurer,  N. J. Mayhall,  
 S. C. McKenzie,  J.-M. Mewes,  P. Morgante,  A. F. Morrison,  
 J. W. Mullinax,  K. Nanda,  T. S. Nguyen-Beck,  R. Olivares-Amaya,  
 J. A. Parkhill,  Zheng Pei,  T. M. Perrine,  F. Plasser,  P. Pokhilko,  
 S. Prager,  A. Prociuk,  E. Ramos,  D. R. Rehn,  F. Rob,  M. Scheurer,  
 M. Schneider,  N. Sergueev,  S. M. Sharada,  S. Sharma,  D. W. Small,  
 T. Stauch,  T. Stein,  Yu-Chuan Su,  A. J. W. Thom,  A. Tkatchenko,  
 T. Tsuchimochi,  N. M. Tubman,  L. Vogt,  M. L. Vidal,  O. Vydrov,  
 M. A. Watson,  J. Wenzel,  M. de Wergifosse,  T. A. Wesolowski,  A. White,  
 J. Witte,  A. Yamada,  Jun Yang,  K. Yao,  S. Yeganeh,  S. R. Yost,  
 Zhi-Qiang You,  A. Zech,  Igor Ying Zhang,  Xing Zhang,  Yan Zhao,  
 Ying Zhu,  B. R. Brooks,  G. K. L. Chan,  C. J. Cramer,  M. S. Gordon,  
 W. J. Hehre,  A. Klamt,  M. W. Schmidt,  C. D. Sherrill,  D. G. Truhlar,  
 A. Aspuru-Guzik,  R. Baer,  A. T. Bell,  N. A. Besley,  Jeng-Da Chai,  
 A. E. DePrince, III,  R. A. DiStasio Jr.,  A. Dreuw,  B. D. Dunietz,  
 T. R. Furlani,  Chao-Ping Hsu,  Yousung Jung,  Jing Kong,  D. S. Lambrecht,  
 WanZhen Liang,  C. Ochsenfeld,  V. A. Rassolov,  L. V. Slipchenko,  
 J. E. Subotnik,  T. Van Voorhis,  J. M. Herbert,  A. I. Krylov,  
 P. M. W. Gill,  M. Head-Gordon

 Contributors to earlier versions of Q-Chem not listed above: 
 R. D. Adamson,  B. Austin,  J. Baker,  G. J. O. Beran,  K. Brandhorst,  
 S. T. Brown,  E. F. C. Byrd,  A. K. Chakraborty,  C.-L. Cheng,  
 Siu Hung Chien,  D. M. Chipman,  D. L. Crittenden,  H. Dachsel,  
 R. J. Doerksen,  A. D. Dutoi,  L. Fusti-Molnar,  W. A. Goddard III,  
 A. Golubeva-Zadorozhnaya,  S. R. Gwaltney,  G. Hawkins,  A. Heyden,  
 S. Hirata,  G. Kedziora,  F. J. Keil,  C. Kelley,  Jihan Kim,  R. A. King,  
 R. Z. Khaliullin,  P. P. Korambath,  W. Kurlancheek,  A. M. Lee,  M. S. Lee,  
 S. V. Levchenko,  Ching Yeh Lin,  D. Liotard,  R. C. Lochan,  I. Lotan,  
 P. E. Maslen,  N. Nair,  D. P. O'Neill,  D. Neuhauser,  E. Neuscamman,  
 C. M. Oana,  R. Olson,  B. Peters,  R. Peverati,  P. A. Pieniazek,  
 Y. M. Rhee,  J. Ritchie,  M. A. Rohrdanz,  E. Rosta,  N. J. Russ,  
 H. F. Schaefer III,  N. E. Schultz,  N. Shenvi,  A. C. Simmonett,  A. Sodt,  
 D. Stuck,  K. S. Thanthiriwatte,  V. Vanovschi,  Tao Wang,  A. Warshel,  
 C. F. Williams,  Q. Wu,  X. Xu,  W. Zhang

 Please cite Q-Chem as follows:
 Y. Shao et al., Mol. Phys. 113, 184-215 (2015)
 DOI: 10.1080/00268976.2014.952696

 Q-Chem 5.2.0 for Intel X86 EM64T Linux

 Parts of Q-Chem use Armadillo 8.300.2 (Tropical Shenanigans).
 http://arma.sourceforge.net/

 Q-Chem begins on Sun Sep 26 15:18:17 2021  

Host: cori01
0

     Scratch files written to /tmp/qchem4974//Frg2//
 May1019 |scratch|qcdevops|jenkins|workspace|build_RNUM -1
Processing $rem in /global/common/cori/software/qchem/5.2/config/preferences:
	 MEM_TOTAL  96000 
NAlpha2: 40
NElect   40
Mult     1
Symmetry turned off for PCM/SM12/SMD calculation

Checking the input file for inconsistencies... 	...done.

--------------------------------------------------------------
User input:
--------------------------------------------------------------
$molecule
-1 1
 6	0.3921147580	0.6167215691	1.6384709021
 6	0.5831147580	1.0277215691	3.1034709021
 6	-0.3608852420	1.6417215692	0.8004709021
 8	-0.6008852420	2.7727215691	1.2764709021
 8	-0.7138852420	1.3127215692	-0.3525290979
 1	1.3731147580	0.4867215691	1.1904709021
 1	-0.1298852420	-0.3422784308	1.6174709021
 1	1.3111147580	0.3207215691	3.4864709021
 1	-0.3532112420	0.9465015692	3.6750439021
 1	1.0608947580	2.0099915691	3.2333809021
$end
$rem
EDA2		1
METHOD		WB97X-V
BASIS		DEF2-TZVPD
XC_GRID		000099000590
NL_GRID		1
UNRESTRICTED		FALSE
MAX_SCF_CYCLES		200
SYMMETRY		FALSE
SYM_IGNORE		TRUE
BASIS_LIN_DEP_THRESH		6
THRESH		14
SCF_CONVERGENCE		8
SCF_PRINT_FRGM		TRUE
SOLVENT_METHOD		PCM
!required keywords
JOBTYPE		SP
SYM_IGNORE		TRUE
SUBSYSTEM		TRUE
GEN_SCFMAN		TRUE
CHILD_INSTRUCTION		2
SYM_IGNORE		TRUE
SCFMI		0
RI_K 0		
PARI_K 0		
MIN_PARI_K 0		
IARI_K 0		
OCC_RI_K 0		
PURECART		1111
MEM_STATIC		2000
MEM_TOTAL		96000
GUI		0
CHILD_MP		1
CHILD_MP_ORDERS		232
FRZ_RELAX		0
FRZ_RELAX_METHOD		0
EDA_CLS_ELEC		1
EDA_CLS_DISP		0
FRZ_ORTHO_DECOMP		1
EDA2		FALSE
FRGM_METHOD		FALSE
CIS_N_ROOTS  0
LOCAL_CIS    0
CIS_RLX_DNS  1
$end
$pcm
THEORY                  CPCM
METHOD                  SWIG
SOLVER                  INVERSION
RADII                   UFF
HPOINTS                 302
HEAVYPOINTS             302
PRINTLEVEL              0
$end
$solvent
DIELECTRIC              78.390000 ! water
$end
--------------------------------------------------------------
 ----------------------------------------------------------------
             Standard Nuclear Orientation (Angstroms)
    I     Atom           X                Y                Z
 ----------------------------------------------------------------
    1      C       0.3921147580     0.6167215691     1.6384709021
    2      C       0.5831147580     1.0277215691     3.1034709021
    3      C      -0.3608852420     1.6417215692     0.8004709021
    4      O      -0.6008852420     2.7727215691     1.2764709021
    5      O      -0.7138852420     1.3127215692    -0.3525290979
    6      H       1.3731147580     0.4867215691     1.1904709021
    7      H      -0.1298852420    -0.3422784308     1.6174709021
    8      H       1.3111147580     0.3207215691     3.4864709021
    9      H      -0.3532112420     0.9465015692     3.6750439021
   10      H       1.0608947580     2.0099915691     3.2333809021
 ----------------------------------------------------------------
 Nuclear Repulsion Energy =         169.07676733 hartrees
 There are       20 alpha and       20 beta electrons
 Requested basis set is def2-TZVPD
 There are 92 shells and 236 basis functions

 Total QAlloc Memory Limit  96000 MB
 Mega-Array Size      1956 MB
 MEM_STATIC part      2000 MB
 Discretize the solute cavity surface with Lebedev spheres
	Using 302 Lebedev grid points for each H atom
	Using 302 Lebedev grid points for other atoms
	Atomic van der Waals radii will be scaled by 1.20
 Remove points where switching function is < 1.0e-08
 Keep 1319 surface tesserae and discard 1701 interior tesserae
 Molecular Surface Area = 143.294 Angst**2

                       Distance Matrix (Angstroms)
             C (  1)   C (  2)   C (  3)   O (  4)   O (  5)   H (  6)
   C (  2)  1.533502
   C (  3)  1.523115  2.563580
   O (  4)  2.401131  2.790127  1.250335
   O (  5)  2.381540  3.702347  1.249904  2.190436
   H (  6)  1.086262  2.139241  2.119642  3.021567  2.723728
   H (  7)  1.092065  2.143237  2.158033  3.168808  2.638367  1.768779
   H (  8)  2.085013  1.084676  3.428589  3.814728  4.452259  2.302828
   H (  9)  2.193603  1.099999  2.957458  3.024826  4.060240  3.060180
   H ( 10)  2.220857  1.100002  2.841854  2.678202  4.061377  2.567355
             H (  7)   H (  8)   H (  9)
   H (  8)  2.451369
   H (  9)  2.438121  1.788055
   H ( 10)  3.092296  1.726354  1.823670
 
 A cutoff of  1.0D-14 yielded   4184 shell pairs
 There are     27968 function pairs (     35638 Cartesian)
 Smallest overlap matrix eigenvalue = 9.23E-06

 Scale SEOQF with 1.000000e-01/1.000000e-01/1.000000e-01

 Standard Electronic Orientation quadrupole field applied
 Nucleus-field energy     =    -0.0000000060 hartrees
 Guess from superposition of atomic densities
 Warning:  Energy on first SCF cycle will be non-variational
 SAD guess density has 38.612942 electrons

 -----------------------------------------------------------------------
  General SCF calculation program by
  Eric Jon Sundstrom, Paul Horn, Yuezhi Mao, Dmitri Zuev, Alec White,
  David Stuck, Shaama M.S., Shane Yost, Joonho Lee, David Small,
  Daniel Levine, Susi Lehtola, Hugh Burton, Evgeny Epifanovsky
 -----------------------------------------------------------------------
 Exchange:     0.1670 Hartree-Fock + 1.0000 wB97X-V + LR-HF
 Correlation:  1.0000 wB97X-V
 Using Euler-Maclaurin-Lebedev (99,590) quadrature formula
 Nonlocal Correlation:  VV10 with C = 0.0100 and b = 6.00 and scale = 1.00000
 Grid used for NLC:  SG-1 standard quadrature
Energy prior to optimization (guess energy) = -267.065860476525
Begin Timing: Total SCF Calculation
begin iterations for algorithm: DIIS         
the SCF tolerance is set to 1.00e-08
    1    -267.0658604765      1.28e-02     00000 
    2    -263.1105145990      2.09e-02     00000 
    3    -267.7957841354      4.97e-03     00000 
    4    -267.9283812433      2.14e-03     00000 
    5    -267.9541594567      3.21e-04     00000 
    6    -267.9552742543      8.92e-05     00000 
    7    -267.9553093029      6.59e-05     00000 
    8    -267.9553305130      1.76e-05     00000 
    9    -267.9553327519      5.88e-06     00000 
   10    -267.9553330758      2.11e-06     00000 
   11    -267.9553331443      3.44e-07     00000 
   12    -267.9553331484      1.02e-07     00000 
   13    -267.9553331486      4.37e-08     00000 
   14    -267.9553331486      1.33e-08     00000 
   15    -267.9553331486      1.98e-09     00000 Convergence criterion met
Timing for Total SCF: 711.00s (wall), 1402.33s (cpu)

************** Final PCM Free Energy Summary **************
 G_electrostatic  =      -0.10126914 hartree =     -63.54734556 kcal/mol
 G_cavitation     =       0.00000000 hartree =       0.00000000 kcal/mol
 G_dispersion     =       0.00000000 hartree =       0.00000000 kcal/mol
 G_repulsion      =       0.00000000 hartree =       0.00000000 kcal/mol
 --------------------------------------------------
 Non-electrostatic Free Energy =       0.00000000 hartree =       0.00000000 kcal/mol
 Total                         =      -0.10126914 hartree =     -63.54734556 kcal/mol
 --------------------------------------------------
 SCF Energy (H0 + V/2)                       =    -267.95533315 
 Solute Internal Energy (H0)                 =    -267.85406401 
 Total Free Energy (H0 + V/2 + non-elec)     =    -267.95533315 hartree
                                             = -168144.50935570 kcal/mol
***********************************************************

E_pcm = -0.1012691417
Multipole orders to be included
        2
        3
computing dipole RHS
computing quadrupole RHS
total number of RHS in solve_reponses: 8
RHS batch sizes
        8
Beginning Block Conjugate Gradient Iterations. Batch Number: 0
computing hessian-vector products by finite difference
              1      6.03e-01     00000 Conjugate Gradient Iteration
computing hessian-vector products by finite difference
              2      2.30e-01     00000 Conjugate Gradient Iteration
computing hessian-vector products by finite difference
              3      6.06e-02     00000 Conjugate Gradient Iteration
computing hessian-vector products by finite difference
              4      1.49e-02     00000 Conjugate Gradient Iteration
computing hessian-vector products by finite difference
              5      2.83e-03     00000 Conjugate Gradient Iteration
computing hessian-vector products by finite difference
              6      5.94e-04     00000 Conjugate Gradient Iteration
computing hessian-vector products by finite difference
              7      1.13e-04     00000 Conjugate Gradient Iteration
computing hessian-vector products by finite difference
              8      2.04e-05     00000 Conjugate Gradient Iteration
computing hessian-vector products by finite difference
              9      3.80e-06     00000 Conjugate Gradient Iteration
computing hessian-vector products by finite difference
             10      6.66e-07     00000 Conjugate Gradient Iteration
computing hessian-vector products by finite difference
             11      1.29e-07     00000 Conjugate Gradient Iteration
computing hessian-vector products by finite difference
             12      3.14e-08     00000 Conjugate Gradient Iteration
computing hessian-vector products by finite difference
             13      3.96e-09     00000 CG Converged
batch 0 complete
Done Calculating Responses
TESTING ORTHOGONALIZATION OF MULTIPOLE BASIS
Multipole virts passed orthogonality test
Virts Per Order
           60
          100
 
 --------------------------------------------------------------
 
                    Orbital Energies (a.u.)
 --------------------------------------------------------------
 
 Alpha MOs
 -- Occupied --
-19.1197 -19.1181 -10.3191 -10.2438 -10.2414  -1.1308  -1.0287  -0.8799
 -0.7425  -0.5927  -0.5578  -0.5317  -0.5000  -0.4787  -0.4566  -0.4414
 -0.4271  -0.3263  -0.3223  -0.3051
 -- Virtual --
  0.0637   0.0836   0.0914   0.1022   0.1175   0.1300   0.1386   0.1417
  0.1565   0.1720   0.1758   0.1964   0.2027   0.2091   0.2285   0.2307
  0.2536   0.2618   0.2746   0.2862   0.2959   0.3089   0.3133   0.3252
  0.3387   0.3404   0.3600   0.3728   0.3775   0.3842   0.3879   0.3961
  0.4079   0.4128   0.4187   0.4223   0.4263   0.4504   0.4602   0.4728
  0.4845   0.4926   0.4990   0.5040   0.5147   0.5183   0.5282   0.5456
  0.5559   0.5617   0.5850   0.5913   0.6083   0.6292   0.6302   0.6435
  0.6687   0.6790   0.6981   0.7091   0.7154   0.7241   0.7335   0.7566
  0.7781   0.7875   0.7930   0.8009   0.8084   0.8100   0.8191   0.8245
  0.8368   0.8665   0.8802   0.8910   0.9015   0.9643   0.9985   1.0136
  1.0310   1.0479   1.0828   1.0879   1.1296   1.1385   1.1753   1.2050
  1.2450   1.2856   1.3128   1.3174   1.3709   1.3779   1.3966   1.4115
  1.4232   1.4605   1.5034   1.6231   1.7024   1.7669   1.8397   1.8979
  1.9174   1.9205   1.9384   1.9446   1.9663   1.9770   1.9897   2.0040
  2.0276   2.0320   2.0811   2.1488   2.1870   2.2144   2.2307   2.2447
  2.2565   2.3321   2.3453   2.4157   2.4593   2.4913   2.5043   2.5127
  2.5786   2.5841   2.6020   2.6669   2.7247   2.7330   2.7597   2.7756
  2.8275   2.8602   2.9087   2.9230   2.9618   3.0126   3.0460   3.0772
  3.1260   3.1853   3.2501   3.2709   3.2952   3.3024   3.3396   3.3705
  3.3802   3.4172   3.4484   3.4669   3.4932   3.5101   3.5491   3.5804
  3.5957   3.6215   3.6589   3.6889   3.7142   3.7380   3.7484   3.7673
  3.7887   3.8262   3.9495   4.0721   4.0961   4.1295   4.1742   4.2296
  4.3393   4.4598   4.5250   4.6390   4.6758   4.7390   4.7945   4.8053
  4.8958   5.0667   5.1442   5.3408   5.3779   5.3790   5.3894   5.5084
  5.7376   5.7888   5.8350   6.0511   6.2440   6.3619   6.3789   6.6335
  6.6458   6.7416   6.7686   6.7922   6.9966   7.0031   7.0639   7.2839
  7.3725   7.4171   7.4289  22.6342  22.7874  23.7960  44.2662  44.4120
 --------------------------------------------------------------
 
          Ground-State Mulliken Net Atomic Charges

     Atom                 Charge (a.u.)
  ----------------------------------------
      1 C                     0.069421
      2 C                    -0.633998
      3 C                     0.089263
      4 O                    -0.666612
      5 O                    -0.696344
      6 H                     0.140383
      7 H                     0.165076
      8 H                     0.207504
      9 H                     0.175320
     10 H                     0.149987
  ----------------------------------------
  Sum of atomic charges =    -1.000000

 -----------------------------------------------------------------
                    Cartesian Multipole Moments
 -----------------------------------------------------------------
    Charge (ESU x 10^10)
                -4.8032
    Dipole Moment (Debye)
         X       4.0315      Y     -10.8619      Z      -1.3123
       Tot      11.6601
    Quadrupole Moments (Debye-Ang)
        XX     -35.2203     XY       8.8442     YY     -61.4529
        XZ       0.4070     YZ      -8.1713     ZZ     -39.8423
    Octopole Moments (Debye-Ang^2)
       XXX      12.0735    XXY     -52.7678    XYY      24.6880
       YYY    -221.1832    XXZ     -44.8458    XYZ       5.2406
       YYZ     -74.4805    XZZ       3.9750    YZZ     -64.5768
       ZZZ    -152.7855
    Hexadecapole Moments (Debye-Ang^3)
      XXXX    -115.5117   XXXY      47.5429   XXYY    -128.7949
      XYYY     100.4543   YYYY    -800.1044   XXXZ     -44.0747
      XXYZ     -60.3133   XYYZ       4.7038   YYYZ    -264.7001
      XXZZ    -138.0964   XYZZ      23.4264   YYZZ    -262.3443
      XZZZ     -51.4143   YZZZ    -204.1024   ZZZZ    -768.7495
 -----------------------------------------------------------------
Archival summary:
1\1\nid00536\SP\ProcedureUnspecified\BasisUnspecified\235(1-,1)\meili\SunSep2618:33:162021SunSep2618:33:162021\0\\#,ProcedureUnspecified,BasisUnspecified,\\-1,1\C\O,1,1.2499\O,1,1.25033,2,122.349\C,1,1.52311,2,118.036,3,-179.76,0\H,4,1.08626,1,107.464,2,69.2757,0\H,4,1.09207,1,110.125,2,-48.827,0\C,4,1.5335,1,114.005,2,-170.726,0\H,7,1.08468,4,104.254,1,-167.548,0\H,7,1.1,4,111.752,1,73.8492,0\H,7,1.1,4,113.97,1,-54.3505,0\\\@

 Total job time:  11701.22s(wall), 23127.31s(cpu) 
 Sun Sep 26 18:33:18 2021

        *************************************************************
        *                                                           *
        *  Thank you very much for using Q-Chem.  Have a nice day.  *
        *                                                           *
        *************************************************************


Done Job For Fragment 1
calling putenv with: QCSCRATCH=/global/cscratch1/sd/meili 
calling putenv with: QCLOCALSCR=/tmp 
calling putenv with: QCTHREADS=32 
Doing General SCFMI
 Exchange:     0.1670 Hartree-Fock + 1.0000 wB97X-V + LR-HF
 Correlation:  1.0000 wB97X-V
 Using Euler-Maclaurin-Lebedev (99,590) quadrature formula
 Nonlocal Correlation:  VV10 with C = 0.0100 and b = 6.00 and scale = 1.00000
 Grid used for NLC:  SG-1 standard quadrature
performing fock build before subrot guess so that all methods have access
Printing subrot_rss_gen Method Specification:
Occupied Subspace Method is 0
Virtual Subspace Method is 0
Energy of the unrelaxed supersystem initial determinant -496.237792207017
performing fock build before subrot guess so that all methods have access
Printing subrot_rss_gen Method Specification:
Occupied Subspace Method is 0
Virtual Subspace Method is 0
Energy of the unrelaxed supersystem initial determinant w/ solvent -496.559264732651
write pseudocanon occs and virts to disk
write pseudocanon orbital energies to disk
Tolerance of ortho_decomp_scf: 1.00e-06
GDM subspace size: 20
Beginning the Orthogonal Decomposition of the Initial Supersystem Wavefunction
    1    -496.3037916013      1.17e-01     ortho_decomp Preconditoned Steepest Descent
    2    -496.3217796790      2.52e-03     ortho_decomp BFGS Step
    3    -496.3218313718      2.12e-04     ortho_decomp BFGS Step
    4    -496.3218314810      8.64e-06     ortho_decomp BFGS Step
    5    -496.3218314813      3.49e-07     ortho_decomp 00000 Convergence criterion met
 Hartree-Fock
 Hartree-Fock
 Hartree-Fock
Doing General SCFMI
 Exchange:     0.1670 Hartree-Fock + 1.0000 wB97X-V + LR-HF
 Correlation:  1.0000 wB97X-V
 Using Euler-Maclaurin-Lebedev (99,590) quadrature formula
 Nonlocal Correlation:  VV10 with C = 0.0100 and b = 6.00 and scale = 1.00000
 Grid used for NLC:  SG-1 standard quadrature
performing fock build at end of subrot_r(subrot) constructor so that all methods have access
<S^2> of initial wavefunction before polarization iterations 0.0000000000
Beginning iterations for the determination of the polarized wavefunction
Energy prior to optimization (guess energy) = -496.559264732651
Begin Timing: Total SCF Calculation
begin iterations for algorithm: DIIS         
the SCF tolerance is set to 1.00e-08
    1    -496.5592647327      3.71e-04     00000 
    2    -496.5632719315      3.70e-04     00000 
    3    -496.5658711415      9.10e-05     00000 
    4    -496.5661952950      3.61e-05     00000 
    5    -496.5662938289      2.03e-05     00000 
    6    -496.5663208209      8.27e-06     00000 
    7    -496.5663255850      2.89e-06     00000 
    8    -496.5663263002      9.24e-07     00000 
    9    -496.5663263952      4.17e-07     00000 
   10    -496.5663264023      2.20e-07     00000 
   11    -496.5663264049      6.24e-08     00000 
   12    -496.5663264053      2.96e-08     00000 
   13    -496.5663264054      1.15e-08     00000 
   14    -496.5663264054      4.78e-09     00000 Convergence criterion met
write pseudocanon occs and virts to disk
write pseudocanon orbital energies to disk
Timing for Total SCF: 2945.00s (wall), 5845.48s (cpu)
<S^2> of polarized wavefunction after polarization iterations 0.0000000000
relaxing scfmi constraint to allow all rotations in the entire AO span
Doing General SCFMI
 Exchange:     0.1670 Hartree-Fock + 1.0000 wB97X-V + LR-HF
 Correlation:  1.0000 wB97X-V
 Using Euler-Maclaurin-Lebedev (99,590) quadrature formula
 Nonlocal Correlation:  VV10 with C = 0.0100 and b = 6.00 and scale = 1.00000
 Grid used for NLC:  SG-1 standard quadrature
performing fock build at end of subrot_r(subrot) constructor so that all methods have access
<S^2> of polarized wavefunction before ct-allowed iterations 0.0000000000
Beginning iterations for the determination of the CT-Allowed wavefunction
Energy prior to optimization (guess energy) = -496.566326405362
Begin Timing: Total SCF Calculation
begin iterations for algorithm: DIIS         
the SCF tolerance is set to 1.00e-08
    1    -496.5663264054      1.09e-04     00000 
    2    -496.5672688329      1.17e-05     00000 
    3    -496.5672980840      4.33e-06     00000 
    4    -496.5672991411      3.84e-06     00000 
    5    -496.5673000824      4.40e-07     00000 
    6    -496.5673001013      2.38e-07     00000 
    7    -496.5673001079      5.90e-08     00000 
    8    -496.5673001085      2.11e-08     00000 
    9    -496.5673001086      8.70e-09     00000 Convergence criterion met
write pseudocanon occs and virts to disk
write pseudocanon orbital energies to disk
Timing for Total SCF: 1748.00s (wall), 3472.04s (cpu)
<S^2> of ct_allowed wavefunction after ct-allowed iterations 0.0000000000

================================
        Results of EDA2         
================================
Basic EDA Quantities
--------------------
Fragment Energies (Ha):
1 -228.6423391216
2 -267.9553331486
--------------------
  E_prp (kJ/mol) = 0.0000
  E_sol (kJ/mol) = -311.1107
  E_frz (kJ/mol) = 411.9509
  E_pol (kJ/mol) = -18.5406
  E_vct (kJ/mol) = -2.5565
  E_int (kJ/mol) = 79.7431
--------------------


Initial Wavefunction Decomposition
--------------------
  --------------------
  Orthogonal Fragment Subspace Decomposition:
  --------------------
     E_elec   (ELEC)   (kJ/mol) = 277.2561
     E_pauli  (PAULI)  (kJ/mol) = 158.3253
     E_disp   (DISP)   (kJ/mol) = -23.6306
     --------------------
     Terms summing to E_pauli:
     --------------------
        E_kep_pauli       (kJ/mol) = 191.3031
        E_disp_free_pauli (kJ/mol) = -32.9778
  --------------------
  Classical Frozen Decomposition:
  --------------------
     E_cls_elec  (CLS ELEC)  (kJ/mol) = 369.2387
     E_cls_pauli (CLS PAULI) (kJ/mol) = 42.7122
    [E_mod_pauli (MOD PAULI) (kJ/mol) = 66.3428 (CLS PAULI - DISP from orthogonal decomposition) ]
  --------------------
--------------------

Simplified EDA Summary (kJ/mol)
--------------------
 PREPARATION     0.0000
 SOLVATION       -311.1107
 FROZEN          435.5815      (does not include dispersion)
[PAULI           158.3253]     (if this is negligible, then frozen describes electrostatics)
 DISPERSION      -23.6306
 POLARIZATION    -18.5406
 CHARGE TRANSFER -2.5565
 TOTAL           79.7431     (PRP + SOL + FRZ + DISP + POL + CT)
--------------------
 
 --------------------------------------------------------------
 
                    Orbital Energies (a.u.)
 --------------------------------------------------------------
 
 Alpha MOs
 -- Occupied --
-19.1067 -19.1056 -19.0932 -19.0906 -10.3050 -10.3004 -10.2327 -10.2295
-10.2267  -1.1161  -1.1117  -1.0149  -1.0080  -0.8667  -0.8195  -0.7291
 -0.5811  -0.5740  -0.5443  -0.5184  -0.5152  -0.5050  -0.5012  -0.4823
 -0.4657  -0.4510  -0.4426  -0.4305  -0.4214  -0.4119  -0.3124  -0.3116
 -0.3060  -0.3045  -0.2930  -0.2650
 -- Virtual --
  0.0616   0.0754   0.0841   0.0937   0.1016   0.1026   0.1200   0.1224
  0.1306   0.1363   0.1403   0.1473   0.1610   0.1655   0.1764   0.1769
  0.1826   0.1905   0.1924   0.1987   0.2109   0.2205   0.2220   0.2352
  0.2383   0.2436   0.2517   0.2540   0.2730   0.2742   0.2805   0.2856
  0.2931   0.2986   0.3008   0.3083   0.3188   0.3245   0.3259   0.3421
  0.3429   0.3487   0.3605   0.3655   0.3665   0.3683   0.3773   0.3814
  0.3887   0.3920   0.3957   0.3978   0.4030   0.4070   0.4163   0.4188
  0.4262   0.4298   0.4332   0.4418   0.4469   0.4575   0.4601   0.4677
  0.4741   0.4813   0.4891   0.4929   0.4954   0.5070   0.5106   0.5130
  0.5186   0.5221   0.5279   0.5375   0.5438   0.5547   0.5569   0.5647
  0.5720   0.5754   0.5969   0.6015   0.6086   0.6111   0.6241   0.6313
  0.6334   0.6470   0.6496   0.6669   0.6710   0.6725   0.6812   0.6945
  0.6981   0.7030   0.7126   0.7185   0.7202   0.7251   0.7342   0.7451
  0.7550   0.7657   0.7708   0.7809   0.7855   0.7934   0.7964   0.7989
  0.8124   0.8141   0.8165   0.8208   0.8282   0.8359   0.8434   0.8513
  0.8563   0.8651   0.8735   0.8790   0.8910   0.8970   0.9053   0.9159
  0.9321   0.9387   0.9645   0.9755   0.9836   0.9990   1.0270   1.0363
  1.0414   1.0487   1.0724   1.0808   1.0876   1.0918   1.1103   1.1184
  1.1439   1.1556   1.1674   1.1834   1.2029   1.2226   1.2345   1.2463
  1.2784   1.3096   1.3155   1.3210   1.3327   1.3435   1.3568   1.3649
  1.3845   1.3942   1.4164   1.4317   1.4377   1.4513   1.4548   1.4665
  1.4997   1.5138   1.5579   1.5727   1.6428   1.6735   1.6915   1.7608
  1.7744   1.7834   1.8763   1.8951   1.9004   1.9182   1.9447   1.9499
  1.9653   1.9752   1.9781   1.9866   1.9910   1.9982   2.0060   2.0211
  2.0290   2.0413   2.0568   2.0701   2.0776   2.0874   2.0947   2.1371
  2.1509   2.2010   2.2171   2.2205   2.2441   2.2601   2.2708   2.2768
  2.2822   2.3037   2.3196   2.3690   2.3758   2.3945   2.4362   2.4645
  2.4748   2.5006   2.5028   2.5221   2.5348   2.5401   2.5617   2.5980
  2.6083   2.6184   2.6232   2.6457   2.6678   2.6912   2.7167   2.7218
  2.7602   2.7667   2.8221   2.8425   2.8508   2.8659   2.8829   2.9008
  2.9114   2.9407   2.9628   2.9656   2.9902   3.0009   3.0546   3.0658
  3.0889   3.1290   3.1456   3.1971   3.2121   3.2364   3.2569   3.2831
  3.2929   3.3160   3.3220   3.3402   3.3548   3.3621   3.3730   3.3977
  3.4043   3.4224   3.4284   3.4338   3.4592   3.4612   3.4846   3.4938
  3.5088   3.5267   3.5477   3.5782   3.5836   3.6247   3.6410   3.6454
  3.6676   3.6877   3.7004   3.7092   3.7147   3.7389   3.7605   3.7670
  3.7684   3.7708   3.7895   3.7977   3.8157   3.8449   3.8756   3.9199
  3.9698   3.9924   4.0959   4.0996   4.1169   4.1293   4.1697   4.2287
  4.2394   4.2965   4.3751   4.4301   4.5039   4.5478   4.6018   4.6514
  4.6715   4.6880   4.7017   4.7651   4.8312   4.8644   4.8848   4.9151
  4.9300   5.0241   5.1133   5.1790   5.3568   5.3632   5.3878   5.3970
  5.4063   5.4123   5.4143   5.4362   5.5298   5.5428   5.7543   5.7642
  5.8110   5.8148   5.8591   5.8664   6.0789   6.0860   6.2699   6.3133
  6.3910   6.4098   6.4133   6.4280   6.6574   6.6839   6.6915   6.7002
  6.7706   6.7930   6.8000   6.8055   6.8287   6.8413   7.0197   7.0244
  7.0336   7.0424   7.0872   7.1086   7.3025   7.3193   7.4049   7.4141
  7.4308   7.4849   7.4934   7.5238  22.6282  22.6504  22.8885  23.8381
 23.8466  44.3482  44.3593  44.4427  44.4873
 --------------------------------------------------------------
 
          Ground-State Mulliken Net Atomic Charges

     Atom                 Charge (a.u.)
  ----------------------------------------
      1 C                    -0.473828
      2 C                     0.286033
      3 O                    -0.578503
      4 O                    -0.703059
      5 H                     0.122558
      6 H                     0.173358
      7 H                     0.168224
      8 C                     0.414852
      9 C                    -0.779566
     10 C                    -0.034945
     11 O                    -0.711473
     12 O                    -0.607354
     13 H                     0.061089
     14 H                     0.087578
     15 H                     0.222559
     16 H                     0.195223
     17 H                     0.157253
  ----------------------------------------
  Sum of atomic charges =    -2.000000

 -----------------------------------------------------------------
                    Cartesian Multipole Moments
 -----------------------------------------------------------------
    Charge (ESU x 10^10)
                -9.6064
    Dipole Moment (Debye)
         X       5.5391      Y      -6.4036      Z       6.2155
       Tot      10.5033
    Quadrupole Moments (Debye-Ang)
        XX     -67.9356     XY       5.6085     YY     -97.7872
        XZ      -6.5046     YZ     -20.5660     ZZ     -85.5482
    Octopole Moments (Debye-Ang^2)
       XXX      -1.7093    XXY       4.4798    XYY      27.6862
       YYY     -62.5211    XXZ       6.1957    XYZ      17.8778
       YYZ     -16.5016    XZZ      16.5886    YZZ       8.9719
       ZZZ       5.9379
    Hexadecapole Moments (Debye-Ang^3)
      XXXX    -250.6047   XXXY      92.6973   XXYY    -295.2967
      XYYY     148.7995   YYYY   -1627.9934   XXXZ     -49.3470
      XXYZ    -161.2008   XYYZ     -14.9222   YYYZ    -562.8764
      XXZZ    -263.5862   XYZZ       7.4758   YYZZ    -520.0787
      XZZZ     -97.6062   YZZZ    -530.2991   ZZZZ   -1376.4099
 -----------------------------------------------------------------
Archival summary:
1\1\nid00536\SP\ProcedureUnspecified\BasisUnspecified\458(2-,1)\meili\SunSep2620:44:012021SunSep2620:44:012021\0\\#,ProcedureUnspecified,BasisUnspecified,\\-2,1\O\C,1,1.24073\O,2,1.25039,1,123.206\C,2,1.5184,1,116.783,3,-177.971,0\H,4,1.08499,2,111.589,1,-43.9852,0\H,4,1.0913,2,106.604,1,72.2842,0\H,4,1.1,2,113.142,1,-168.661,0\O,1,2.62172,2,121.013,3,16.8871,0\C,8,1.2499,1,106.668,2,141.939,0\O,9,1.25033,8,122.349,1,163.99,0\C,9,1.52311,8,118.036,1,-15.7707,0\H,11,1.08626,9,107.464,8,69.2757,0\H,11,1.09207,9,110.125,8,-48.827,0\C,11,1.5335,9,114.005,8,-170.726,0\H,14,1.08468,11,104.254,9,-167.548,0\H,14,1.1,11,111.752,9,73.8492,0\H,14,1.1,11,113.97,9,-54.3505,0\\\@

 Total job time:  24869.00s(wall), 15590.60s(cpu) 
 Sun Sep 26 20:44:05 2021

        *************************************************************
        *                                                           *
        *  Thank you very much for using Q-Chem.  Have a nice day.  *
        *                                                           *
        *************************************************************


