
Running Job 1 of 1 SSI-030TRP-212GLU-1_SMD_TZVPD.in
qchem SSI-030TRP-212GLU-1_SMD_TZVPD.in_17522.0 /tmp/qchem17522/ 0
/global/common/cori/software/qchem/5.2/exe/qcprog.exe_s SSI-030TRP-212GLU-1_SMD_TZVPD.in_17522.0 /tmp/qchem17522/
                  Welcome to Q-Chem
     A Quantum Leap Into The Future Of Chemistry


 Q-Chem 5.2, Q-Chem, Inc., Pleasanton, CA (2019)

 License issued to: National Energy Research Scientific Computing Center

 Yihan Shao,  Zhengting Gan,  E. Epifanovsky,  A. T. B. Gilbert,  M. Wormit,  
 J. Kussmann,  A. W. Lange,  A. Behn,  Jia Deng,  Xintian Feng,  D. Ghosh,  
 M. Goldey,  P. R. Horn,  L. D. Jacobson,  I. Kaliman,  T. Kus,  A. Landau,  
 Jie Liu,  E. I. Proynov,  R. M. Richard,  R. P. Steele,  E. J. Sundstrom,  
 H. L. Woodcock III,  P. M. Zimmerman,  D. Zuev,  B. Albrecht,  E. Alguire,  
 S. A. Baeppler,  D. Barton,  Z. Benda,  Y. A. Bernard,  E. J. Berquist,  
 K. B. Bravaya,  H. Burton,  D. Casanova,  Chun-Min Chang,  Yunqing Chen,  
 A. Chien,  K. D. Closser,  M. P. Coons,  S. Coriani,  S. Dasgupta,  
 A. L. Dempwolff,  M. Diedenhofen,  Hainam Do,  R. G. Edgar,  Po-Tung Fang,  
 S. Faraji,  S. Fatehi,  Qingguo Feng,  K. D. Fenk,  J. Fosso-Tande,  
 J. Gayvert,  Qinghui Ge,  A. Ghysels,  G. Gidofalvi,  J. Gomes,  
 J. Gonthier,  A. Gunina,  D. Hait,  M. W. D. Hanson-Heine,  
 P. H. P. Harbach,  A. W. Hauser,  M. F. Herbst,  J. E. Herr,  
 E. G. Hohenstein,  Z. C. Holden,  Kerwin Hui,  B. C. Huynh,  T.-C. Jagau,  
 Hyunjun Ji,  B. Kaduk,  K. Khistyaev,  Jaehoon Kim,  P. Klunzinger,  K. Koh,  
 D. Kosenkov,  L. Koulias,  T. Kowalczyk,  C. M. Krauter,  A. Kunitsa,  
 Ka Un Lao,  A. Laurent,  K. V. Lawler,  Joonho Lee,  D. Lefrancois,  
 S. Lehtola,  D. S. Levine,  Yi-Pei Li,  You-Sheng Lin,  Fenglai Liu,  
 E. Livshits,  A. Luenser,  P. Manohar,  E. Mansoor,  S. F. Manzer,  
 Shan-Ping Mao,  Yuezhi Mao,  N. Mardirossian,  A. V. Marenich,  
 T. Markovich,  L. A. Martinez-Martinez,  S. A. Maurer,  N. J. Mayhall,  
 S. C. McKenzie,  J.-M. Mewes,  P. Morgante,  A. F. Morrison,  
 J. W. Mullinax,  K. Nanda,  T. S. Nguyen-Beck,  R. Olivares-Amaya,  
 J. A. Parkhill,  Zheng Pei,  T. M. Perrine,  F. Plasser,  P. Pokhilko,  
 S. Prager,  A. Prociuk,  E. Ramos,  D. R. Rehn,  F. Rob,  M. Scheurer,  
 M. Schneider,  N. Sergueev,  S. M. Sharada,  S. Sharma,  D. W. Small,  
 T. Stauch,  T. Stein,  Yu-Chuan Su,  A. J. W. Thom,  A. Tkatchenko,  
 T. Tsuchimochi,  N. M. Tubman,  L. Vogt,  M. L. Vidal,  O. Vydrov,  
 M. A. Watson,  J. Wenzel,  M. de Wergifosse,  T. A. Wesolowski,  A. White,  
 J. Witte,  A. Yamada,  Jun Yang,  K. Yao,  S. Yeganeh,  S. R. Yost,  
 Zhi-Qiang You,  A. Zech,  Igor Ying Zhang,  Xing Zhang,  Yan Zhao,  
 Ying Zhu,  B. R. Brooks,  G. K. L. Chan,  C. J. Cramer,  M. S. Gordon,  
 W. J. Hehre,  A. Klamt,  M. W. Schmidt,  C. D. Sherrill,  D. G. Truhlar,  
 A. Aspuru-Guzik,  R. Baer,  A. T. Bell,  N. A. Besley,  Jeng-Da Chai,  
 A. E. DePrince, III,  R. A. DiStasio Jr.,  A. Dreuw,  B. D. Dunietz,  
 T. R. Furlani,  Chao-Ping Hsu,  Yousung Jung,  Jing Kong,  D. S. Lambrecht,  
 WanZhen Liang,  C. Ochsenfeld,  V. A. Rassolov,  L. V. Slipchenko,  
 J. E. Subotnik,  T. Van Voorhis,  J. M. Herbert,  A. I. Krylov,  
 P. M. W. Gill,  M. Head-Gordon

 Contributors to earlier versions of Q-Chem not listed above: 
 R. D. Adamson,  B. Austin,  J. Baker,  G. J. O. Beran,  K. Brandhorst,  
 S. T. Brown,  E. F. C. Byrd,  A. K. Chakraborty,  C.-L. Cheng,  
 Siu Hung Chien,  D. M. Chipman,  D. L. Crittenden,  H. Dachsel,  
 R. J. Doerksen,  A. D. Dutoi,  L. Fusti-Molnar,  W. A. Goddard III,  
 A. Golubeva-Zadorozhnaya,  S. R. Gwaltney,  G. Hawkins,  A. Heyden,  
 S. Hirata,  G. Kedziora,  F. J. Keil,  C. Kelley,  Jihan Kim,  R. A. King,  
 R. Z. Khaliullin,  P. P. Korambath,  W. Kurlancheek,  A. M. Lee,  M. S. Lee,  
 S. V. Levchenko,  Ching Yeh Lin,  D. Liotard,  R. C. Lochan,  I. Lotan,  
 P. E. Maslen,  N. Nair,  D. P. O'Neill,  D. Neuhauser,  E. Neuscamman,  
 C. M. Oana,  R. Olson,  B. Peters,  R. Peverati,  P. A. Pieniazek,  
 Y. M. Rhee,  J. Ritchie,  M. A. Rohrdanz,  E. Rosta,  N. J. Russ,  
 H. F. Schaefer III,  N. E. Schultz,  N. Shenvi,  A. C. Simmonett,  A. Sodt,  
 D. Stuck,  K. S. Thanthiriwatte,  V. Vanovschi,  Tao Wang,  A. Warshel,  
 C. F. Williams,  Q. Wu,  X. Xu,  W. Zhang

 Please cite Q-Chem as follows:
 Y. Shao et al., Mol. Phys. 113, 184-215 (2015)
 DOI: 10.1080/00268976.2014.952696

 Q-Chem 5.2.0 for Intel X86 EM64T Linux

 Parts of Q-Chem use Armadillo 8.300.2 (Tropical Shenanigans).
 http://arma.sourceforge.net/

 Q-Chem begins on Sun Sep 26 04:56:07 2021  

Host: cori01
0

     Scratch files written to /tmp/qchem17522//
 May1019 |scratch|qcdevops|jenkins|workspace|build_RNUM -1
Processing $rem in /global/common/cori/software/qchem/5.2/config/preferences:
	 MEM_TOTAL  96000 
NAlpha2: 110
NElect   110
Mult     1
Symmetry turned off for PCM/SM12/SMD calculation

 Q-Chem warning in module libgen/rem_setup.C, line 2803:

 Neither GIA nor STOLL is specified by user. Use STOLL as the default


Checking the input file for inconsistencies... 	...done.

--------------------------------------------------------------
User input:
--------------------------------------------------------------
$comment
SSI-030TRP-212GLU-1.pdb
$end

$molecule
-1 1
--
0 1
C   -1.086587930503   -4.152887030353   -0.710891289778
C    0.375412069497   -0.672887030353   -0.557891289778
C   -0.387587930503   -1.663887030353   -1.226891289778
C   -0.402587930503   -2.831887030353   -0.392891289778
C    0.315412069497   -2.496887030353    0.740108710222
C    0.570412069497    0.593112969647   -1.093891289778
C    0.027412069497    0.867112969647   -2.348891289778
C   -0.714587930503   -0.091887030353   -3.031891289778
C   -0.919587930503   -1.359887030353   -2.496891289778
N    0.780412069497   -1.204887030353    0.639108710222
H    1.155412069497    1.334112969647   -0.570891289778
H    0.182412069497    1.841112969647   -2.796891289778
H    1.294412069497   -0.712887030353    1.366108710222
H   -1.127587930503    0.147112969647   -4.003891289778
H    0.481412069497   -3.138887030353    1.597108710222
H   -1.492587930503   -2.098887030353   -3.038891289778
H   -1.422587930503   -4.097887030353   -1.745891289778
H   -1.973587930503   -4.253887030353   -0.085891289778
H   -0.431797930503   -5.030718030353   -0.607621289778
--
-1 1
C   -0.730587930503    2.034112969647    2.140108710222
C   -1.577587930503    3.012112969647    1.301108710222
C    0.797412069497    2.246112969647    1.964108710222
O    1.236412069497    3.291112969647    1.401108710222
O    1.549412069497    1.344112969647    2.426108710222
H   -0.981587930503    2.157112969647    3.196108710222
H   -0.978587930503    1.012112969647    1.849108710222
H   -1.296587930503    2.915112969647    0.252108710222
H   -1.352587930503    4.031112969647    1.621108710222
H   -2.663667930503    2.862902969647    1.391498710222
$end

$rem
JOBTYPE			EDA
EDA2			1
method			wB97X-V
BASIS			def2-TZVPD
XC_GRID			000099000590
NL_GRID			1
UNRESTRICTED		FALSE
MAX_SCF_CYCLES		200
SYMMETRY		FALSE
SYM_IGNORE		TRUE
MEM_STATIC		2000
BASIS_LIN_DEP_THRESH 	6
THRESH 			14
SCF_CONVERGENCE 	8
SCF_PRINT_FRGM 		TRUE
SOLVENT_METHOD          SMD
$end

$SMX
SOLVENT			WATER
$END
--------------------------------------------------------------
 ----------------------------------------------------------------
             Standard Nuclear Orientation (Angstroms)
    I     Atom           X                Y                Z
 ----------------------------------------------------------------
    1      C      -1.0865879305    -4.1528870304    -0.7108912898
    2      C       0.3754120695    -0.6728870304    -0.5578912898
    3      C      -0.3875879305    -1.6638870304    -1.2268912898
    4      C      -0.4025879305    -2.8318870304    -0.3928912898
    5      C       0.3154120695    -2.4968870304     0.7401087102
    6      C       0.5704120695     0.5931129696    -1.0938912898
    7      C       0.0274120695     0.8671129696    -2.3488912898
    8      C      -0.7145879305    -0.0918870304    -3.0318912898
    9      C      -0.9195879305    -1.3598870304    -2.4968912898
   10      N       0.7804120695    -1.2048870304     0.6391087102
   11      H       1.1554120695     1.3341129696    -0.5708912898
   12      H       0.1824120695     1.8411129696    -2.7968912898
   13      H       1.2944120695    -0.7128870304     1.3661087102
   14      H      -1.1275879305     0.1471129696    -4.0038912898
   15      H       0.4814120695    -3.1388870304     1.5971087102
   16      H      -1.4925879305    -2.0988870304    -3.0388912898
   17      H      -1.4225879305    -4.0978870304    -1.7458912898
   18      H      -1.9735879305    -4.2538870304    -0.0858912898
   19      H      -0.4317979305    -5.0307180304    -0.6076212898
   20      C      -0.7305879305     2.0341129696     2.1401087102
   21      C      -1.5775879305     3.0121129696     1.3011087102
   22      C       0.7974120695     2.2461129696     1.9641087102
   23      O       1.2364120695     3.2911129696     1.4011087102
   24      O       1.5494120695     1.3441129696     2.4261087102
   25      H      -0.9815879305     2.1571129696     3.1961087102
   26      H      -0.9785879305     1.0121129696     1.8491087102
   27      H      -1.2965879305     2.9151129696     0.2521087102
   28      H      -1.3525879305     4.0311129696     1.6211087102
   29      H      -2.6636679305     2.8629029696     1.3914987102
 ----------------------------------------------------------------
 Nuclear Repulsion Energy =         938.93485765 hartrees
 There are       55 alpha and       55 beta electrons
 Requested basis set is def2-TZVPD
 There are 267 shells and 687 basis functions

 Total QAlloc Memory Limit  96000 MB
 Mega-Array Size      1956 MB
 MEM_STATIC part      2000 MB
 
 Citation of the SMD model:
 Marenich, A.V.; Cramer, C.J.; Truhlar, D.G.
 J. Phys. Chem. B 2009, 113, 6378-6396.
 iSolventCode=           1
 Solvent: water                                                           
 
 vradii
            1           2           3           4           5           6
    1   1.8500000   1.8500000   1.8500000   1.8500000   1.8500000   1.8500000
            7           8           9          10          11          12
    1   1.8500000   1.8500000   1.8500000   1.8900000   1.2000000   1.2000000
           13          14          15          16          17          18
    1   1.2000000   1.2000000   1.2000000   1.2000000   1.2000000   1.2000000
           19          20          21          22          23          24
    1   1.2000000   1.8500000   1.8500000   1.8500000   1.5200000   1.5200000
           25          26          27          28          29
    1   1.2000000   1.2000000   1.2000000   1.2000000   1.2000000
 Changing PCM_VDW_RADII to SMD_RADIUS
 Discretize the solute cavity surface with Lebedev spheres
	Using 110 Lebedev grid points for each H atom
	Using 194 Lebedev grid points for other atoms
	Atomic van der Waals radii will be scaled by 1.20
 Remove points where switching function is < 1.0e-08
 Keep 2176 surface tesserae and discard 2274 interior tesserae
 Molecular Surface Area = 257.198 Angst**2
 A cutoff of  1.0D-14 yielded  30913 shell pairs
 There are    206315 function pairs (    262309 Cartesian)
 Smallest overlap matrix eigenvalue = 4.27E-07
 Linear dependence detected in AO basis
 Tighter screening thresholds may be required for diffuse basis sets
 Use S2THRESH > 14 and THRESH = 14 in case of SCF convergence issues
 Number of orthogonalized atomic orbitals = 683
 Maximum deviation from orthogonality = 2.280E-10

 Scale SEOQF with 1.000000e-01/1.000000e-01/1.000000e-01

 Standard Electronic Orientation quadrupole field applied
 Nucleus-field energy     =     0.0000000080 hartrees

 -----------------------------------------------------------------------
  General SCF calculation program by
  Eric Jon Sundstrom, Paul Horn, Yuezhi Mao, Dmitri Zuev, Alec White,
  David Stuck, Shaama M.S., Shane Yost, Joonho Lee, David Small,
  Daniel Levine, Susi Lehtola, Hugh Burton, Evgeny Epifanovsky
 -----------------------------------------------------------------------
================================================================
                 ALMO-EDA with the EDA2 driver                  
================================================================
 The second-generation ALMO-EDA (for DFT):                      
 P. R. Horn, Y. Mao and M. Head-Gordon, PCCP, 18, 23067 (2016)  
 Decomposition of the frozen energy:                            
 P. R. Horn, Y. Mao and M. Head-Gordon, JCP, 144, 114107 (2016) 
 FERF model for polarization:                                   
 P. R. Horn and M. Head-Gordon, JCP, 143, 114111 (2015)         
Using eda2 option set 1
Option set summary: Frozen orbital wavefunction, initial wavefunction decomposition, and nDQ polarization.
--------------------------------
Printing EDA Options
--------------------------------
eda_child_super_basis      0
fragmo_guess_mode          0
child_mp                   1
child_mp_orders            232
cls_elec                   1
cls_disp                   0
scfmi_mode                 1
scfmi_occs                 0
scfmi_virts                0
frz_relax                  0
frz_relax_method           0
dc_pen_start               0
dc_pen_conv                0
dc_pen_increment           0
dc_pen_steps               0
dc_pen_thresh_factor       0
dc_pen_pre_newton_thresh   0
frz_ortho_decomp           1
frz_ortho_decomp_conv      6
frgm_method                2
scfmi_freeze_ss            0
separate_rehyb             0
plot_diff_den              0
eda_nocv                   0
eda_vct_relax              1
disp_free_x                0
disp_free_c                0
eda_bsse                   0
eda_pct_a                  0
eda_covp                   0
--------------------------------
Attempting to make child job directory: /tmp/qchem17522//Frg1/
Attempting to make child job directory: /tmp/qchem17522//Frg2/
Creating input file /tmp/qchem17522/Frg1.input
using default PutDataFrgm: nothing
calling putenv with: QCSCRATCH=/tmp/qchem17522/ 
calling putenv with: QCLOCALSCR=/tmp/qchem17522/ 
Spawning Job For Fragment 0
                  Welcome to Q-Chem
     A Quantum Leap Into The Future Of Chemistry


 Q-Chem 5.2, Q-Chem, Inc., Pleasanton, CA (2019)

 License issued to: National Energy Research Scientific Computing Center

 Yihan Shao,  Zhengting Gan,  E. Epifanovsky,  A. T. B. Gilbert,  M. Wormit,  
 J. Kussmann,  A. W. Lange,  A. Behn,  Jia Deng,  Xintian Feng,  D. Ghosh,  
 M. Goldey,  P. R. Horn,  L. D. Jacobson,  I. Kaliman,  T. Kus,  A. Landau,  
 Jie Liu,  E. I. Proynov,  R. M. Richard,  R. P. Steele,  E. J. Sundstrom,  
 H. L. Woodcock III,  P. M. Zimmerman,  D. Zuev,  B. Albrecht,  E. Alguire,  
 S. A. Baeppler,  D. Barton,  Z. Benda,  Y. A. Bernard,  E. J. Berquist,  
 K. B. Bravaya,  H. Burton,  D. Casanova,  Chun-Min Chang,  Yunqing Chen,  
 A. Chien,  K. D. Closser,  M. P. Coons,  S. Coriani,  S. Dasgupta,  
 A. L. Dempwolff,  M. Diedenhofen,  Hainam Do,  R. G. Edgar,  Po-Tung Fang,  
 S. Faraji,  S. Fatehi,  Qingguo Feng,  K. D. Fenk,  J. Fosso-Tande,  
 J. Gayvert,  Qinghui Ge,  A. Ghysels,  G. Gidofalvi,  J. Gomes,  
 J. Gonthier,  A. Gunina,  D. Hait,  M. W. D. Hanson-Heine,  
 P. H. P. Harbach,  A. W. Hauser,  M. F. Herbst,  J. E. Herr,  
 E. G. Hohenstein,  Z. C. Holden,  Kerwin Hui,  B. C. Huynh,  T.-C. Jagau,  
 Hyunjun Ji,  B. Kaduk,  K. Khistyaev,  Jaehoon Kim,  P. Klunzinger,  K. Koh,  
 D. Kosenkov,  L. Koulias,  T. Kowalczyk,  C. M. Krauter,  A. Kunitsa,  
 Ka Un Lao,  A. Laurent,  K. V. Lawler,  Joonho Lee,  D. Lefrancois,  
 S. Lehtola,  D. S. Levine,  Yi-Pei Li,  You-Sheng Lin,  Fenglai Liu,  
 E. Livshits,  A. Luenser,  P. Manohar,  E. Mansoor,  S. F. Manzer,  
 Shan-Ping Mao,  Yuezhi Mao,  N. Mardirossian,  A. V. Marenich,  
 T. Markovich,  L. A. Martinez-Martinez,  S. A. Maurer,  N. J. Mayhall,  
 S. C. McKenzie,  J.-M. Mewes,  P. Morgante,  A. F. Morrison,  
 J. W. Mullinax,  K. Nanda,  T. S. Nguyen-Beck,  R. Olivares-Amaya,  
 J. A. Parkhill,  Zheng Pei,  T. M. Perrine,  F. Plasser,  P. Pokhilko,  
 S. Prager,  A. Prociuk,  E. Ramos,  D. R. Rehn,  F. Rob,  M. Scheurer,  
 M. Schneider,  N. Sergueev,  S. M. Sharada,  S. Sharma,  D. W. Small,  
 T. Stauch,  T. Stein,  Yu-Chuan Su,  A. J. W. Thom,  A. Tkatchenko,  
 T. Tsuchimochi,  N. M. Tubman,  L. Vogt,  M. L. Vidal,  O. Vydrov,  
 M. A. Watson,  J. Wenzel,  M. de Wergifosse,  T. A. Wesolowski,  A. White,  
 J. Witte,  A. Yamada,  Jun Yang,  K. Yao,  S. Yeganeh,  S. R. Yost,  
 Zhi-Qiang You,  A. Zech,  Igor Ying Zhang,  Xing Zhang,  Yan Zhao,  
 Ying Zhu,  B. R. Brooks,  G. K. L. Chan,  C. J. Cramer,  M. S. Gordon,  
 W. J. Hehre,  A. Klamt,  M. W. Schmidt,  C. D. Sherrill,  D. G. Truhlar,  
 A. Aspuru-Guzik,  R. Baer,  A. T. Bell,  N. A. Besley,  Jeng-Da Chai,  
 A. E. DePrince, III,  R. A. DiStasio Jr.,  A. Dreuw,  B. D. Dunietz,  
 T. R. Furlani,  Chao-Ping Hsu,  Yousung Jung,  Jing Kong,  D. S. Lambrecht,  
 WanZhen Liang,  C. Ochsenfeld,  V. A. Rassolov,  L. V. Slipchenko,  
 J. E. Subotnik,  T. Van Voorhis,  J. M. Herbert,  A. I. Krylov,  
 P. M. W. Gill,  M. Head-Gordon

 Contributors to earlier versions of Q-Chem not listed above: 
 R. D. Adamson,  B. Austin,  J. Baker,  G. J. O. Beran,  K. Brandhorst,  
 S. T. Brown,  E. F. C. Byrd,  A. K. Chakraborty,  C.-L. Cheng,  
 Siu Hung Chien,  D. M. Chipman,  D. L. Crittenden,  H. Dachsel,  
 R. J. Doerksen,  A. D. Dutoi,  L. Fusti-Molnar,  W. A. Goddard III,  
 A. Golubeva-Zadorozhnaya,  S. R. Gwaltney,  G. Hawkins,  A. Heyden,  
 S. Hirata,  G. Kedziora,  F. J. Keil,  C. Kelley,  Jihan Kim,  R. A. King,  
 R. Z. Khaliullin,  P. P. Korambath,  W. Kurlancheek,  A. M. Lee,  M. S. Lee,  
 S. V. Levchenko,  Ching Yeh Lin,  D. Liotard,  R. C. Lochan,  I. Lotan,  
 P. E. Maslen,  N. Nair,  D. P. O'Neill,  D. Neuhauser,  E. Neuscamman,  
 C. M. Oana,  R. Olson,  B. Peters,  R. Peverati,  P. A. Pieniazek,  
 Y. M. Rhee,  J. Ritchie,  M. A. Rohrdanz,  E. Rosta,  N. J. Russ,  
 H. F. Schaefer III,  N. E. Schultz,  N. Shenvi,  A. C. Simmonett,  A. Sodt,  
 D. Stuck,  K. S. Thanthiriwatte,  V. Vanovschi,  Tao Wang,  A. Warshel,  
 C. F. Williams,  Q. Wu,  X. Xu,  W. Zhang

 Please cite Q-Chem as follows:
 Y. Shao et al., Mol. Phys. 113, 184-215 (2015)
 DOI: 10.1080/00268976.2014.952696

 Q-Chem 5.2.0 for Intel X86 EM64T Linux

 Parts of Q-Chem use Armadillo 8.300.2 (Tropical Shenanigans).
 http://arma.sourceforge.net/

 Q-Chem begins on Sun Sep 26 04:56:14 2021  

Host: cori01
0

     Scratch files written to /tmp/qchem17522//Frg1//
 May1019 |scratch|qcdevops|jenkins|workspace|build_RNUM -1
Processing $rem in /global/common/cori/software/qchem/5.2/config/preferences:
	 MEM_TOTAL  96000 
NAlpha2: 70
NElect   70
Mult     1
Symmetry turned off for PCM/SM12/SMD calculation

Checking the input file for inconsistencies... 	...done.

--------------------------------------------------------------
User input:
--------------------------------------------------------------
$molecule
0 1
 6	-1.0865879305	-4.1528870304	-0.7108912898
 6	0.3754120695	-0.6728870304	-0.5578912898
 6	-0.3875879305	-1.6638870304	-1.2268912898
 6	-0.4025879305	-2.8318870304	-0.3928912898
 6	0.3154120695	-2.4968870304	0.7401087102
 6	0.5704120695	0.5931129696	-1.0938912898
 6	0.0274120695	0.8671129696	-2.3488912898
 6	-0.7145879305	-0.0918870304	-3.0318912898
 6	-0.9195879305	-1.3598870304	-2.4968912898
 7	0.7804120695	-1.2048870304	0.6391087102
 1	1.1554120695	1.3341129696	-0.5708912898
 1	0.1824120695	1.8411129696	-2.7968912898
 1	1.2944120695	-0.7128870304	1.3661087102
 1	-1.1275879305	0.1471129696	-4.0038912898
 1	0.4814120695	-3.1388870304	1.5971087102
 1	-1.4925879305	-2.0988870304	-3.0388912898
 1	-1.4225879305	-4.0978870304	-1.7458912898
 1	-1.9735879305	-4.2538870304	-0.0858912898
 1	-0.4317979305	-5.0307180304	-0.6076212898
$end
$rem
EDA2		1
METHOD		WB97X-V
BASIS		DEF2-TZVPD
XC_GRID		000099000590
NL_GRID		1
UNRESTRICTED		FALSE
MAX_SCF_CYCLES		200
SYMMETRY		FALSE
SYM_IGNORE		TRUE
BASIS_LIN_DEP_THRESH		6
THRESH		14
SCF_CONVERGENCE		8
SCF_PRINT_FRGM		TRUE
SOLVENT_METHOD		SMD
!required keywords
JOBTYPE		SP
SYM_IGNORE		TRUE
SUBSYSTEM		TRUE
GEN_SCFMAN		TRUE
CHILD_INSTRUCTION		2
SYM_IGNORE		TRUE
SCFMI		0
RI_K 0		
PARI_K 0		
MIN_PARI_K 0		
IARI_K 0		
OCC_RI_K 0		
PURECART		1111
MEM_STATIC		2000
MEM_TOTAL		96000
GUI		0
CHILD_MP		1
CHILD_MP_ORDERS		232
FRZ_RELAX		0
FRZ_RELAX_METHOD		0
EDA_CLS_ELEC		1
EDA_CLS_DISP		0
FRZ_ORTHO_DECOMP		1
EDA2		FALSE
FRGM_METHOD		FALSE
CIS_N_ROOTS  0
LOCAL_CIS    0
CIS_RLX_DNS  1
$end
$smx
SOLVENT			WATER
$end
--------------------------------------------------------------
 ----------------------------------------------------------------
             Standard Nuclear Orientation (Angstroms)
    I     Atom           X                Y                Z
 ----------------------------------------------------------------
    1      C      -1.0865879305    -4.1528870304    -0.7108912898
    2      C       0.3754120695    -0.6728870304    -0.5578912898
    3      C      -0.3875879305    -1.6638870304    -1.2268912898
    4      C      -0.4025879305    -2.8318870304    -0.3928912898
    5      C       0.3154120695    -2.4968870304     0.7401087102
    6      C       0.5704120695     0.5931129696    -1.0938912898
    7      C       0.0274120695     0.8671129696    -2.3488912898
    8      C      -0.7145879305    -0.0918870304    -3.0318912898
    9      C      -0.9195879305    -1.3598870304    -2.4968912898
   10      N       0.7804120695    -1.2048870304     0.6391087102
   11      H       1.1554120695     1.3341129696    -0.5708912898
   12      H       0.1824120695     1.8411129696    -2.7968912898
   13      H       1.2944120695    -0.7128870304     1.3661087102
   14      H      -1.1275879305     0.1471129696    -4.0038912898
   15      H       0.4814120695    -3.1388870304     1.5971087102
   16      H      -1.4925879305    -2.0988870304    -3.0388912898
   17      H      -1.4225879305    -4.0978870304    -1.7458912898
   18      H      -1.9735879305    -4.2538870304    -0.0858912898
   19      H      -0.4317979305    -5.0307180304    -0.6076212898
 ----------------------------------------------------------------
 Nuclear Repulsion Energy =         483.61441567 hartrees
 There are       35 alpha and       35 beta electrons
 Requested basis set is def2-TZVPD
 There are 175 shells and 451 basis functions

 Total QAlloc Memory Limit  96000 MB
 Mega-Array Size      1956 MB
 MEM_STATIC part      2000 MB
 
 Citation of the SMD model:
 Marenich, A.V.; Cramer, C.J.; Truhlar, D.G.
 J. Phys. Chem. B 2009, 113, 6378-6396.
 iSolventCode=           1
 Solvent: water                                                           
 
 vradii
            1           2           3           4           5           6
    1   1.8500000   1.8500000   1.8500000   1.8500000   1.8500000   1.8500000
            7           8           9          10          11          12
    1   1.8500000   1.8500000   1.8500000   1.8900000   1.2000000   1.2000000
           13          14          15          16          17          18
    1   1.2000000   1.2000000   1.2000000   1.2000000   1.2000000   1.2000000
           19
    1   1.2000000
 Changing PCM_VDW_RADII to SMD_RADIUS
 Discretize the solute cavity surface with Lebedev spheres
	Using 110 Lebedev grid points for each H atom
	Using 194 Lebedev grid points for other atoms
	Atomic van der Waals radii will be scaled by 1.20
 Remove points where switching function is < 1.0e-08
 Keep 1359 surface tesserae and discard 1571 interior tesserae
 Molecular Surface Area = 165.107 Angst**2
 A cutoff of  1.0D-14 yielded  14461 shell pairs
 There are     98231 function pairs (    126402 Cartesian)
 Smallest overlap matrix eigenvalue = 5.40E-07
 Linear dependence detected in AO basis
 Tighter screening thresholds may be required for diffuse basis sets
 Use S2THRESH > 14 and THRESH = 14 in case of SCF convergence issues
 Number of orthogonalized atomic orbitals = 449
 Maximum deviation from orthogonality = 3.871E-10

 Scale SEOQF with 1.000000e-01/1.000000e-01/1.000000e-01

 Standard Electronic Orientation quadrupole field applied
 Nucleus-field energy     =     0.0000000030 hartrees
 Guess from superposition of atomic densities
 Warning:  Energy on first SCF cycle will be non-variational
 SAD guess density has 69.692991 electrons

 -----------------------------------------------------------------------
  General SCF calculation program by
  Eric Jon Sundstrom, Paul Horn, Yuezhi Mao, Dmitri Zuev, Alec White,
  David Stuck, Shaama M.S., Shane Yost, Joonho Lee, David Small,
  Daniel Levine, Susi Lehtola, Hugh Burton, Evgeny Epifanovsky
 -----------------------------------------------------------------------
 Exchange:     0.1670 Hartree-Fock + 1.0000 wB97X-V + LR-HF
 Correlation:  1.0000 wB97X-V
 Using Euler-Maclaurin-Lebedev (99,590) quadrature formula
 Nonlocal Correlation:  VV10 with C = 0.0100 and b = 6.00 and scale = 1.00000
 Grid used for NLC:  SG-1 standard quadrature
Energy prior to optimization (guess energy) = -402.928125122626
Begin Timing: Total SCF Calculation
begin iterations for algorithm: DIIS         
the SCF tolerance is set to 1.00e-08
    1    -402.9281251226      3.27e-03     00000 
    2    -402.9664930072      3.07e-03     00000 
    3    -403.1713398037      3.63e-04     00000 
    4    -403.1751012981      1.50e-04     00000 
    5    -403.1758034002      2.91e-05     00000 
    6    -403.1758447336      1.84e-05     00000 
    7    -403.1758549455      4.01e-06     00000 
    8    -403.1758564789      1.57e-06     00000 
    9    -403.1758567167      8.29e-07     00000 
   10    -403.1758568051      3.16e-07     00000 
   11    -403.1758568197      9.66e-08     00000 
   12    -403.1758568209      4.66e-08     00000 
   13    -403.1758568211      1.37e-08     00000 
   14    -403.1758568211      4.53e-09     00000 Convergence criterion met
Timing for Total SCF: 4241.00s (wall), 8439.75s (cpu)
(3)  G-ENP(liq) elect-nuc-pol free energy of system     -403.175856821 a.u.
(4)  G-CDS(liq) cavity-dispersion-solvent structure 
     free energy                                                3.9096 kcal/mol
(6)  G-S(liq) free energy of system                     -403.169626435 a.u.
E_pcm = -0.0166391699
E_cds = 0.0062303859
Multipole orders to be included
        2
        3
computing dipole RHS
computing quadrupole RHS
total number of RHS in solve_reponses: 8
RHS batch sizes
        8
Beginning Block Conjugate Gradient Iterations. Batch Number: 0
computing hessian-vector products by finite difference
              1      6.63e-01     00000 Conjugate Gradient Iteration
computing hessian-vector products by finite difference
              2      2.11e-01     00000 Conjugate Gradient Iteration
computing hessian-vector products by finite difference
              3      6.70e-02     00000 Conjugate Gradient Iteration
computing hessian-vector products by finite difference
              4      2.80e-02     00000 Conjugate Gradient Iteration
computing hessian-vector products by finite difference
              5      8.04e-03     00000 Conjugate Gradient Iteration
computing hessian-vector products by finite difference
              6      2.18e-03     00000 Conjugate Gradient Iteration
computing hessian-vector products by finite difference
              7      4.80e-04     00000 Conjugate Gradient Iteration
computing hessian-vector products by finite difference
              8      8.97e-05     00000 Conjugate Gradient Iteration
computing hessian-vector products by finite difference
              9      1.63e-05     00000 Conjugate Gradient Iteration
computing hessian-vector products by finite difference
             10      2.63e-06     00000 Conjugate Gradient Iteration
computing hessian-vector products by finite difference
             11      4.62e-07     00000 Conjugate Gradient Iteration
computing hessian-vector products by finite difference
             12      9.51e-08     00000 Conjugate Gradient Iteration
computing hessian-vector products by finite difference
             13      1.66e-08     00000 Conjugate Gradient Iteration
computing hessian-vector products by finite difference
             14      5.14e-09     00000 CG Converged
batch 0 complete
Done Calculating Responses
TESTING ORTHOGONALIZATION OF MULTIPOLE BASIS
Multipole virts passed orthogonality test
Virts Per Order
          105
          175
 
 --------------------------------------------------------------
 
                    Orbital Energies (a.u.)
 --------------------------------------------------------------
 
 Alpha MOs
 -- Occupied --
-14.4451 -10.2984 -10.2935 -10.2683 -10.2678 -10.2657 -10.2643 -10.2621
-10.2602 -10.2565  -1.1100  -0.9760  -0.9238  -0.8654  -0.8548  -0.8110
 -0.7420  -0.7085  -0.6727  -0.6456  -0.5920  -0.5793  -0.5502  -0.5451
 -0.5343  -0.5107  -0.5080  -0.4868  -0.4727  -0.4508  -0.4465  -0.4298
 -0.3759  -0.3158  -0.2863
 -- Virtual --
  0.0540   0.0642   0.0800   0.0826   0.0948   0.1026   0.1039   0.1105
  0.1312   0.1326   0.1398   0.1501   0.1588   0.1711   0.1806   0.1832
  0.1903   0.1959   0.2038   0.2106   0.2242   0.2287   0.2289   0.2464
  0.2492   0.2564   0.2594   0.2654   0.2697   0.2785   0.2787   0.2832
  0.2845   0.2890   0.2943   0.2973   0.3045   0.3095   0.3141   0.3239
  0.3264   0.3330   0.3384   0.3418   0.3448   0.3463   0.3519   0.3563
  0.3665   0.3694   0.3780   0.3788   0.3810   0.3874   0.3902   0.3935
  0.4075   0.4117   0.4141   0.4172   0.4197   0.4251   0.4286   0.4377
  0.4407   0.4452   0.4510   0.4604   0.4629   0.4638   0.4753   0.4792
  0.4861   0.4953   0.4989   0.5006   0.5028   0.5133   0.5213   0.5239
  0.5329   0.5402   0.5428   0.5483   0.5511   0.5572   0.5644   0.5658
  0.5744   0.5775   0.5852   0.5887   0.5982   0.6128   0.6171   0.6252
  0.6327   0.6430   0.6499   0.6505   0.6549   0.6716   0.6747   0.6805
  0.6835   0.6931   0.7038   0.7116   0.7130   0.7191   0.7227   0.7340
  0.7391   0.7434   0.7509   0.7526   0.7571   0.7623   0.7665   0.7713
  0.7780   0.7884   0.7897   0.7982   0.8037   0.8054   0.8121   0.8183
  0.8209   0.8272   0.8346   0.8374   0.8456   0.8478   0.8562   0.8612
  0.8659   0.8829   0.8898   0.9011   0.9049   0.9102   0.9169   0.9266
  0.9418   0.9511   0.9602   0.9751   0.9925   1.0045   1.0061   1.0249
  1.0321   1.0351   1.0458   1.0563   1.0642   1.0704   1.0807   1.0895
  1.1074   1.1119   1.1258   1.1388   1.1429   1.1604   1.1838   1.2220
  1.2272   1.2347   1.2379   1.2546   1.2778   1.3078   1.3394   1.3492
  1.3580   1.3869   1.3955   1.4043   1.4182   1.4337   1.4601   1.4670
  1.4754   1.5185   1.5437   1.5568   1.5604   1.5760   1.5916   1.6052
  1.6248   1.6596   1.6719   1.6989   1.7063   1.7297   1.7345   1.7565
  1.7822   1.7927   1.8203   1.8381   1.8447   1.8585   1.8682   1.8879
  1.8965   1.9025   1.9193   1.9444   1.9524   1.9604   1.9676   1.9692
  1.9863   1.9970   1.9996   2.0090   2.0283   2.0399   2.0611   2.0708
  2.0781   2.1014   2.1244   2.1427   2.1735   2.1871   2.2083   2.2131
  2.2165   2.2502   2.2706   2.3065   2.3163   2.3289   2.3637   2.3832
  2.3900   2.4126   2.4333   2.4536   2.4629   2.4789   2.4952   2.5261
  2.5422   2.5561   2.5742   2.5950   2.6256   2.6326   2.6483   2.6642
  2.6756   2.6811   2.7394   2.7619   2.7683   2.7771   2.7878   2.8084
  2.8194   2.8247   2.8279   2.8479   2.8696   2.8829   2.8917   2.8964
  2.9173   2.9227   2.9431   2.9604   2.9770   2.9810   2.9907   3.0226
  3.0302   3.0362   3.0642   3.0738   3.0839   3.0919   3.1324   3.1487
  3.1649   3.1681   3.1877   3.2032   3.2229   3.2238   3.2523   3.2546
  3.2660   3.2871   3.3022   3.3223   3.3343   3.3478   3.3723   3.3757
  3.3971   3.3993   3.4182   3.4287   3.4458   3.4500   3.4547   3.4681
  3.4767   3.4806   3.5005   3.5147   3.5261   3.5278   3.5450   3.5656
  3.5686   3.5761   3.5934   3.6134   3.6273   3.6378   3.6605   3.6705
  3.6825   3.7073   3.7124   3.7187   3.7277   3.7510   3.7696   3.7857
  3.7878   3.8062   3.8511   3.8756   3.8926   3.9220   3.9542   3.9941
  4.0287   4.0498   4.0551   4.1134   4.1404   4.1557   4.1913   4.2224
  4.2274   4.2583   4.2731   4.2802   4.2970   4.3054   4.3561   4.3578
  4.3737   4.4103   4.4231   4.4281   4.4583   4.4724   4.5203   4.5546
  4.5905   4.6000   4.6207   4.6545   4.7532   4.7965   4.8022   4.8160
  4.9183   4.9270   4.9533   4.9747   4.9877   4.9950   5.0548   5.0655
  5.1143   5.1374   5.1492   5.1985   5.2078   5.2787   5.3779   5.4067
  5.4492   5.5077   5.5378   5.5882   5.6503   5.7094   5.8020   5.8264
  5.9453   5.9787   6.2683   6.3296  22.6544  22.7476  22.9297  22.9491
 22.9630  23.1881  23.2340  23.4240  23.7855  32.8305
 --------------------------------------------------------------
 
          Ground-State Mulliken Net Atomic Charges

     Atom                 Charge (a.u.)
  ----------------------------------------
      1 C                    -0.941696
      2 C                    -0.301042
      3 C                     0.785513
      4 C                     0.734381
      5 C                    -0.953883
      6 C                    -0.716757
      7 C                    -0.491528
      8 C                    -0.692864
      9 C                    -0.450625
     10 N                     0.118716
     11 H                     0.403446
     12 H                     0.399706
     13 H                     0.223441
     14 H                     0.412678
     15 H                     0.316726
     16 H                     0.369337
     17 H                     0.269520
     18 H                     0.237397
     19 H                     0.277533
  ----------------------------------------
  Sum of atomic charges =     0.000000

 -----------------------------------------------------------------
                    Cartesian Multipole Moments
 -----------------------------------------------------------------
    Charge (ESU x 10^10)
                 0.0000
    Dipole Moment (Debye)
         X       1.2326      Y      -0.1572      Z       2.7485
       Tot       3.0163
    Quadrupole Moments (Debye-Ang)
        XX     -59.9924     XY       2.6900     YY     -53.3952
        XZ       5.6951     YZ      -3.6857     ZZ     -55.6211
    Octopole Moments (Debye-Ang^2)
       XXX      33.4060    XXY      80.0772    XYY       6.4011
       YYY     220.7914    XXZ      68.8358    XYZ      -9.1696
       YYZ      64.6011    XZZ       3.1639    YZZ      77.3594
       ZZZ     187.7705
    Hexadecapole Moments (Debye-Ang^3)
      XXXX    -256.9582   XXXY    -130.1808   XXYY    -316.3831
      XYYY    -119.3028   YYYY   -1550.7238   XXXZ    -115.5990
      XXYZ     -25.0555   XYYZ     -21.9358   YYYZ    -109.0031
      XXZZ    -211.2435   XYZZ     -34.7167   YYZZ    -416.8129
      XZZZ     -60.6744   YZZZ    -109.7852   ZZZZ   -1001.0506
 -----------------------------------------------------------------
Archival summary:
1\1\nid00527\SP\ProcedureUnspecified\BasisUnspecified\199\meili\MonSep2702:33:352021MonSep2702:33:352021\0\\#,ProcedureUnspecified,BasisUnspecified,\\0,1\C\C,1,1.41009\H,2,1.08084,1,120.282\C,2,1.39143,1,119.155,3,179.018,0\H,4,1.08281,2,119.347,1,-179.579,0\C,4,1.39167,2,121.186,1,1.35622,0\H,6,1.08324,4,119.533,2,179.113,0\C,6,1.39461,4,120.921,2,-1.10027,0\H,8,1.07928,6,120.812,4,179.27,0\C,8,1.38855,6,118.153,4,1.4089,0\N,10,1.37108,8,130.488,6,-179.427,0\H,11,1.01725,10,125.84,8,1.79827,0\C,11,1.37684,10,109.171,8,178.409,0\H,13,1.08359,11,124.211,10,-178.959,0\C,13,1.38255,11,110.039,10,0.0365236,0\C,15,1.52119,13,127.97,11,179.658,0\H,16,1.08956,15,107.062,13,-171.765,0\H,16,1.08977,15,109.061,13,72.3624,0\H,16,1.1,15,113.936,13,-52.1288,0\\\@

 Total job time:  77842.25s(wall), 154881.40s(cpu) 
 Mon Sep 27 02:33:36 2021

        *************************************************************
        *                                                           *
        *  Thank you very much for using Q-Chem.  Have a nice day.  *
        *                                                           *
        *************************************************************


Done Job For Fragment 0
calling putenv with: QCSCRATCH=/global/cscratch1/sd/meili 
calling putenv with: QCLOCALSCR=/tmp 
calling putenv with: QCTHREADS=32 
Creating input file /tmp/qchem17522/Frg2.input
using default PutDataFrgm: nothing
calling putenv with: QCSCRATCH=/tmp/qchem17522/ 
calling putenv with: QCLOCALSCR=/tmp/qchem17522/ 
Spawning Job For Fragment 1
                  Welcome to Q-Chem
     A Quantum Leap Into The Future Of Chemistry


 Q-Chem 5.2, Q-Chem, Inc., Pleasanton, CA (2019)

 License issued to: National Energy Research Scientific Computing Center

 Yihan Shao,  Zhengting Gan,  E. Epifanovsky,  A. T. B. Gilbert,  M. Wormit,  
 J. Kussmann,  A. W. Lange,  A. Behn,  Jia Deng,  Xintian Feng,  D. Ghosh,  
 M. Goldey,  P. R. Horn,  L. D. Jacobson,  I. Kaliman,  T. Kus,  A. Landau,  
 Jie Liu,  E. I. Proynov,  R. M. Richard,  R. P. Steele,  E. J. Sundstrom,  
 H. L. Woodcock III,  P. M. Zimmerman,  D. Zuev,  B. Albrecht,  E. Alguire,  
 S. A. Baeppler,  D. Barton,  Z. Benda,  Y. A. Bernard,  E. J. Berquist,  
 K. B. Bravaya,  H. Burton,  D. Casanova,  Chun-Min Chang,  Yunqing Chen,  
 A. Chien,  K. D. Closser,  M. P. Coons,  S. Coriani,  S. Dasgupta,  
 A. L. Dempwolff,  M. Diedenhofen,  Hainam Do,  R. G. Edgar,  Po-Tung Fang,  
 S. Faraji,  S. Fatehi,  Qingguo Feng,  K. D. Fenk,  J. Fosso-Tande,  
 J. Gayvert,  Qinghui Ge,  A. Ghysels,  G. Gidofalvi,  J. Gomes,  
 J. Gonthier,  A. Gunina,  D. Hait,  M. W. D. Hanson-Heine,  
 P. H. P. Harbach,  A. W. Hauser,  M. F. Herbst,  J. E. Herr,  
 E. G. Hohenstein,  Z. C. Holden,  Kerwin Hui,  B. C. Huynh,  T.-C. Jagau,  
 Hyunjun Ji,  B. Kaduk,  K. Khistyaev,  Jaehoon Kim,  P. Klunzinger,  K. Koh,  
 D. Kosenkov,  L. Koulias,  T. Kowalczyk,  C. M. Krauter,  A. Kunitsa,  
 Ka Un Lao,  A. Laurent,  K. V. Lawler,  Joonho Lee,  D. Lefrancois,  
 S. Lehtola,  D. S. Levine,  Yi-Pei Li,  You-Sheng Lin,  Fenglai Liu,  
 E. Livshits,  A. Luenser,  P. Manohar,  E. Mansoor,  S. F. Manzer,  
 Shan-Ping Mao,  Yuezhi Mao,  N. Mardirossian,  A. V. Marenich,  
 T. Markovich,  L. A. Martinez-Martinez,  S. A. Maurer,  N. J. Mayhall,  
 S. C. McKenzie,  J.-M. Mewes,  P. Morgante,  A. F. Morrison,  
 J. W. Mullinax,  K. Nanda,  T. S. Nguyen-Beck,  R. Olivares-Amaya,  
 J. A. Parkhill,  Zheng Pei,  T. M. Perrine,  F. Plasser,  P. Pokhilko,  
 S. Prager,  A. Prociuk,  E. Ramos,  D. R. Rehn,  F. Rob,  M. Scheurer,  
 M. Schneider,  N. Sergueev,  S. M. Sharada,  S. Sharma,  D. W. Small,  
 T. Stauch,  T. Stein,  Yu-Chuan Su,  A. J. W. Thom,  A. Tkatchenko,  
 T. Tsuchimochi,  N. M. Tubman,  L. Vogt,  M. L. Vidal,  O. Vydrov,  
 M. A. Watson,  J. Wenzel,  M. de Wergifosse,  T. A. Wesolowski,  A. White,  
 J. Witte,  A. Yamada,  Jun Yang,  K. Yao,  S. Yeganeh,  S. R. Yost,  
 Zhi-Qiang You,  A. Zech,  Igor Ying Zhang,  Xing Zhang,  Yan Zhao,  
 Ying Zhu,  B. R. Brooks,  G. K. L. Chan,  C. J. Cramer,  M. S. Gordon,  
 W. J. Hehre,  A. Klamt,  M. W. Schmidt,  C. D. Sherrill,  D. G. Truhlar,  
 A. Aspuru-Guzik,  R. Baer,  A. T. Bell,  N. A. Besley,  Jeng-Da Chai,  
 A. E. DePrince, III,  R. A. DiStasio Jr.,  A. Dreuw,  B. D. Dunietz,  
 T. R. Furlani,  Chao-Ping Hsu,  Yousung Jung,  Jing Kong,  D. S. Lambrecht,  
 WanZhen Liang,  C. Ochsenfeld,  V. A. Rassolov,  L. V. Slipchenko,  
 J. E. Subotnik,  T. Van Voorhis,  J. M. Herbert,  A. I. Krylov,  
 P. M. W. Gill,  M. Head-Gordon

 Contributors to earlier versions of Q-Chem not listed above: 
 R. D. Adamson,  B. Austin,  J. Baker,  G. J. O. Beran,  K. Brandhorst,  
 S. T. Brown,  E. F. C. Byrd,  A. K. Chakraborty,  C.-L. Cheng,  
 Siu Hung Chien,  D. M. Chipman,  D. L. Crittenden,  H. Dachsel,  
 R. J. Doerksen,  A. D. Dutoi,  L. Fusti-Molnar,  W. A. Goddard III,  
 A. Golubeva-Zadorozhnaya,  S. R. Gwaltney,  G. Hawkins,  A. Heyden,  
 S. Hirata,  G. Kedziora,  F. J. Keil,  C. Kelley,  Jihan Kim,  R. A. King,  
 R. Z. Khaliullin,  P. P. Korambath,  W. Kurlancheek,  A. M. Lee,  M. S. Lee,  
 S. V. Levchenko,  Ching Yeh Lin,  D. Liotard,  R. C. Lochan,  I. Lotan,  
 P. E. Maslen,  N. Nair,  D. P. O'Neill,  D. Neuhauser,  E. Neuscamman,  
 C. M. Oana,  R. Olson,  B. Peters,  R. Peverati,  P. A. Pieniazek,  
 Y. M. Rhee,  J. Ritchie,  M. A. Rohrdanz,  E. Rosta,  N. J. Russ,  
 H. F. Schaefer III,  N. E. Schultz,  N. Shenvi,  A. C. Simmonett,  A. Sodt,  
 D. Stuck,  K. S. Thanthiriwatte,  V. Vanovschi,  Tao Wang,  A. Warshel,  
 C. F. Williams,  Q. Wu,  X. Xu,  W. Zhang

 Please cite Q-Chem as follows:
 Y. Shao et al., Mol. Phys. 113, 184-215 (2015)
 DOI: 10.1080/00268976.2014.952696

 Q-Chem 5.2.0 for Intel X86 EM64T Linux

 Parts of Q-Chem use Armadillo 8.300.2 (Tropical Shenanigans).
 http://arma.sourceforge.net/

 Q-Chem begins on Mon Sep 27 02:33:38 2021  

Host: cori01
0

     Scratch files written to /tmp/qchem17522//Frg2//
 May1019 |scratch|qcdevops|jenkins|workspace|build_RNUM -1
Processing $rem in /global/common/cori/software/qchem/5.2/config/preferences:
	 MEM_TOTAL  96000 
NAlpha2: 40
NElect   40
Mult     1
Symmetry turned off for PCM/SM12/SMD calculation

Checking the input file for inconsistencies... 	...done.

--------------------------------------------------------------
User input:
--------------------------------------------------------------
$molecule
-1 1
 6	-0.7305879305	2.0341129696	2.1401087102
 6	-1.5775879305	3.0121129696	1.3011087102
 6	0.7974120695	2.2461129696	1.9641087102
 8	1.2364120695	3.2911129696	1.4011087102
 8	1.5494120695	1.3441129696	2.4261087102
 1	-0.9815879305	2.1571129696	3.1961087102
 1	-0.9785879305	1.0121129696	1.8491087102
 1	-1.2965879305	2.9151129696	0.2521087102
 1	-1.3525879305	4.0311129696	1.6211087102
 1	-2.6636679305	2.8629029696	1.3914987102
$end
$rem
EDA2		1
METHOD		WB97X-V
BASIS		DEF2-TZVPD
XC_GRID		000099000590
NL_GRID		1
UNRESTRICTED		FALSE
MAX_SCF_CYCLES		200
SYMMETRY		FALSE
SYM_IGNORE		TRUE
BASIS_LIN_DEP_THRESH		6
THRESH		14
SCF_CONVERGENCE		8
SCF_PRINT_FRGM		TRUE
SOLVENT_METHOD		SMD
!required keywords
JOBTYPE		SP
SYM_IGNORE		TRUE
SUBSYSTEM		TRUE
GEN_SCFMAN		TRUE
CHILD_INSTRUCTION		2
SYM_IGNORE		TRUE
SCFMI		0
RI_K 0		
PARI_K 0		
MIN_PARI_K 0		
IARI_K 0		
OCC_RI_K 0		
PURECART		1111
MEM_STATIC		2000
MEM_TOTAL		96000
GUI		0
CHILD_MP		1
CHILD_MP_ORDERS		232
FRZ_RELAX		0
FRZ_RELAX_METHOD		0
EDA_CLS_ELEC		1
EDA_CLS_DISP		0
FRZ_ORTHO_DECOMP		1
EDA2		FALSE
FRGM_METHOD		FALSE
CIS_N_ROOTS  0
LOCAL_CIS    0
CIS_RLX_DNS  1
$end
$smx
SOLVENT			WATER
$end
--------------------------------------------------------------
 ----------------------------------------------------------------
             Standard Nuclear Orientation (Angstroms)
    I     Atom           X                Y                Z
 ----------------------------------------------------------------
    1      C      -0.7305879305     2.0341129696     2.1401087102
    2      C      -1.5775879305     3.0121129696     1.3011087102
    3      C       0.7974120695     2.2461129696     1.9641087102
    4      O       1.2364120695     3.2911129696     1.4011087102
    5      O       1.5494120695     1.3441129696     2.4261087102
    6      H      -0.9815879305     2.1571129696     3.1961087102
    7      H      -0.9785879305     1.0121129696     1.8491087102
    8      H      -1.2965879305     2.9151129696     0.2521087102
    9      H      -1.3525879305     4.0311129696     1.6211087102
   10      H      -2.6636679305     2.8629029696     1.3914987102
 ----------------------------------------------------------------
 Nuclear Repulsion Energy =         167.56093079 hartrees
 There are       20 alpha and       20 beta electrons
 Requested basis set is def2-TZVPD
 There are 92 shells and 236 basis functions

 Total QAlloc Memory Limit  96000 MB
 Mega-Array Size      1956 MB
 MEM_STATIC part      2000 MB
 
 Citation of the SMD model:
 Marenich, A.V.; Cramer, C.J.; Truhlar, D.G.
 J. Phys. Chem. B 2009, 113, 6378-6396.
 iSolventCode=           1
 Solvent: water                                                           
 
 vradii
            1           2           3           4           5           6
    1   1.8500000   1.8500000   1.8500000   1.5200000   1.5200000   1.2000000
            7           8           9          10
    1   1.2000000   1.2000000   1.2000000   1.2000000
 Changing PCM_VDW_RADII to SMD_RADIUS
 Discretize the solute cavity surface with Lebedev spheres
	Using 110 Lebedev grid points for each H atom
	Using 194 Lebedev grid points for other atoms
	Atomic van der Waals radii will be scaled by 1.20
 Remove points where switching function is < 1.0e-08
 Keep 829 surface tesserae and discard 691 interior tesserae
 Molecular Surface Area = 100.425 Angst**2

                       Distance Matrix (Angstroms)
             C (  1)   C (  2)   C (  3)   O (  4)   O (  5)   H (  6)
   C (  2)  1.542016
   C (  3)  1.552644  2.582044
   O (  4)  2.448522  2.829565  1.265589
   O (  5)  2.399228  3.718330  1.261964  2.222477
   H (  6)  1.092367  2.162699  2.165776  3.070424  2.767640
   H (  7)  1.091178  2.158496  2.165677  3.209481  2.614180  1.767892
   H (  8)  2.158949  1.090308  2.786277  2.806718  3.910759  3.056293
   H (  9)  2.155053  1.091506  2.815382  2.701652  4.036037  2.475912
   H ( 10)  2.232512  1.100002  3.561936  3.923529  4.596432  2.565960
             H (  7)   H (  8)   H (  9)
   H (  8)  2.504584
   H (  9)  3.050610  1.767131
   H ( 10)  2.544470  1.780405  1.770979
 
 A cutoff of  1.0D-14 yielded   4184 shell pairs
 There are     27980 function pairs (     35653 Cartesian)
 Smallest overlap matrix eigenvalue = 9.56E-06

 Scale SEOQF with 1.000000e-01/1.000000e-01/1.000000e-01

 Standard Electronic Orientation quadrupole field applied
 Nucleus-field energy     =     0.0000000050 hartrees
 Guess from superposition of atomic densities
 Warning:  Energy on first SCF cycle will be non-variational
 SAD guess density has 38.612942 electrons

 -----------------------------------------------------------------------
  General SCF calculation program by
  Eric Jon Sundstrom, Paul Horn, Yuezhi Mao, Dmitri Zuev, Alec White,
  David Stuck, Shaama M.S., Shane Yost, Joonho Lee, David Small,
  Daniel Levine, Susi Lehtola, Hugh Burton, Evgeny Epifanovsky
 -----------------------------------------------------------------------
 Exchange:     0.1670 Hartree-Fock + 1.0000 wB97X-V + LR-HF
 Correlation:  1.0000 wB97X-V
 Using Euler-Maclaurin-Lebedev (99,590) quadrature formula
 Nonlocal Correlation:  VV10 with C = 0.0100 and b = 6.00 and scale = 1.00000
 Grid used for NLC:  SG-1 standard quadrature
Energy prior to optimization (guess energy) = -267.065170774711
Begin Timing: Total SCF Calculation
begin iterations for algorithm: DIIS         
the SCF tolerance is set to 1.00e-08
    1    -267.0651707747      1.28e-02     00000 
    2    -263.3059674667      2.03e-02     00000 
    3    -267.8362075470      4.98e-03     00000 
    4    -267.9556687385      2.16e-03     00000 
    5    -267.9802317005      3.82e-04     00000 
    6    -267.9813870049      1.78e-04     00000 
    7    -267.9815247172      8.06e-05     00000 
    8    -267.9815576406      1.57e-05     00000 
    9    -267.9815596866      5.61e-06     00000 
   10    -267.9815599872      2.03e-06     00000 
   11    -267.9815600472      2.76e-07     00000 
   12    -267.9815600494      7.96e-08     00000 
   13    -267.9815600495      3.42e-08     00000 
   14    -267.9815600495      9.26e-09     00000 Convergence criterion met
Timing for Total SCF: 538.00s (wall), 1065.37s (cpu)
(3)  G-ENP(liq) elect-nuc-pol free energy of system     -267.981560049 a.u.
(4)  G-CDS(liq) cavity-dispersion-solvent structure 
     free energy                                                4.0051 kcal/mol
(6)  G-S(liq) free energy of system                     -267.975177585 a.u.
E_pcm = -0.1305015638
E_cds = 0.0063824648
Multipole orders to be included
        2
        3
computing dipole RHS
computing quadrupole RHS
total number of RHS in solve_reponses: 8
RHS batch sizes
        8
Beginning Block Conjugate Gradient Iterations. Batch Number: 0
computing hessian-vector products by finite difference
              1      6.91e-01     00000 Conjugate Gradient Iteration
computing hessian-vector products by finite difference
              2      2.11e-01     00000 Conjugate Gradient Iteration
computing hessian-vector products by finite difference
              3      5.70e-02     00000 Conjugate Gradient Iteration
computing hessian-vector products by finite difference
              4      1.57e-02     00000 Conjugate Gradient Iteration
computing hessian-vector products by finite difference
              5      2.46e-03     00000 Conjugate Gradient Iteration
computing hessian-vector products by finite difference
              6      5.61e-04     00000 Conjugate Gradient Iteration
computing hessian-vector products by finite difference
              7      7.98e-05     00000 Conjugate Gradient Iteration
computing hessian-vector products by finite difference
              8      1.21e-05     00000 Conjugate Gradient Iteration
computing hessian-vector products by finite difference
              9      2.03e-06     00000 Conjugate Gradient Iteration
computing hessian-vector products by finite difference
             10      3.37e-07     00000 Conjugate Gradient Iteration
computing hessian-vector products by finite difference
             11      4.22e-08     00000 Conjugate Gradient Iteration
computing hessian-vector products by finite difference
             12      5.53e-09     00000 CG Converged
batch 0 complete
Done Calculating Responses
TESTING ORTHOGONALIZATION OF MULTIPOLE BASIS
Multipole virts passed orthogonality test
Virts Per Order
           60
          100
 
 --------------------------------------------------------------
 
                    Orbital Energies (a.u.)
 --------------------------------------------------------------
 
 Alpha MOs
 -- Occupied --
-19.1568 -19.1546 -10.3580 -10.2561 -10.2447  -1.1590  -1.0622  -0.8838
 -0.7496  -0.6156  -0.5636  -0.5580  -0.5308  -0.4954  -0.4806  -0.4451
 -0.4353  -0.3648  -0.3547  -0.3463
 -- Virtual --
  0.0671   0.0876   0.0965   0.1050   0.1224   0.1349   0.1393   0.1446
  0.1541   0.1654   0.1780   0.1992   0.2068   0.2117   0.2263   0.2340
  0.2499   0.2584   0.2708   0.2856   0.2971   0.3132   0.3166   0.3218
  0.3383   0.3444   0.3634   0.3657   0.3688   0.3862   0.3881   0.3935
  0.4037   0.4050   0.4127   0.4157   0.4205   0.4513   0.4568   0.4636
  0.4767   0.4857   0.4928   0.5050   0.5105   0.5141   0.5283   0.5328
  0.5416   0.5520   0.5664   0.5817   0.5994   0.6148   0.6189   0.6276
  0.6508   0.6624   0.6784   0.6879   0.6948   0.7031   0.7164   0.7347
  0.7678   0.7751   0.7862   0.7887   0.7972   0.8063   0.8086   0.8163
  0.8283   0.8467   0.8593   0.8759   0.9041   0.9550   0.9774   1.0017
  1.0049   1.0354   1.0606   1.0816   1.1037   1.1341   1.1486   1.1885
  1.2214   1.2730   1.2857   1.3011   1.3290   1.3682   1.3791   1.3917
  1.4069   1.4399   1.4757   1.5897   1.6654   1.7531   1.8079   1.8774
  1.8861   1.9052   1.9111   1.9301   1.9364   1.9649   1.9706   1.9804
  2.0015   2.0262   2.0800   2.1317   2.1568   2.1725   2.2079   2.2227
  2.2408   2.2861   2.3384   2.3805   2.4347   2.4540   2.4609   2.5249
  2.5632   2.5715   2.6172   2.6724   2.6884   2.7184   2.7408   2.7780
  2.8048   2.8173   2.8640   2.9007   2.9152   3.0054   3.0139   3.0375
  3.0833   3.1579   3.2296   3.2607   3.2913   3.3134   3.3282   3.3460
  3.3628   3.3875   3.4203   3.4412   3.4453   3.4703   3.5301   3.5489
  3.5722   3.5919   3.6230   3.6455   3.6640   3.6903   3.7222   3.7470
  3.7683   3.7828   3.9305   4.0353   4.0779   4.1000   4.1432   4.1965
  4.2819   4.4023   4.5263   4.5660   4.6710   4.6917   4.7811   4.8139
  4.8453   5.0280   5.1204   5.3005   5.3349   5.3383   5.3479   5.4593
  5.6708   5.7119   5.7585   5.9679   6.1874   6.2793   6.3124   6.5653
  6.6073   6.6864   6.7202   6.7401   6.9041   6.9476   7.0148   7.2257
  7.3163   7.3401   7.3761  22.6441  22.7345  23.6358  44.2289  44.3539
 --------------------------------------------------------------
 
          Ground-State Mulliken Net Atomic Charges

     Atom                 Charge (a.u.)
  ----------------------------------------
      1 C                    -0.030663
      2 C                    -0.854034
      3 C                     0.363130
      4 O                    -0.768972
      5 O                    -0.790191
      6 H                     0.199300
      7 H                     0.211960
      8 H                     0.213909
      9 H                     0.200421
     10 H                     0.255139
  ----------------------------------------
  Sum of atomic charges =    -1.000000

 -----------------------------------------------------------------
                    Cartesian Multipole Moments
 -----------------------------------------------------------------
    Charge (ESU x 10^10)
                -4.8032
    Dipole Moment (Debye)
         X      -8.9693      Y     -11.3724      Z      -8.9584
       Tot      17.0304
    Quadrupole Moments (Debye-Ang)
        XX     -46.7680     XY     -19.3129     YY     -67.3939
        XZ     -18.0385     YZ     -16.3411     ZZ     -50.8127
    Octopole Moments (Debye-Ang^2)
       XXX     -40.0499    XXY    -108.7363    XYY     -57.0827
       YYY    -354.0332    XXZ     -87.6947    XYZ     -33.6521
       YYZ    -102.3214    XZZ     -44.0789    YZZ    -102.9380
       ZZZ    -218.1448
    Hexadecapole Moments (Debye-Ang^3)
      XXXX    -406.1853   XXXY     -56.3585   XXYY    -357.0833
      XYYY    -165.4892   YYYY   -1701.4260   XXXZ    -103.9861
      XXYZ    -183.9771   XYYZ     -98.2715   YYYZ    -537.1873
      XXZZ    -246.7948   XYZZ     -65.7962   YYZZ    -386.9565
      XZZZ    -142.6340   YZZZ    -435.1618   ZZZZ    -829.8488
 -----------------------------------------------------------------
Archival summary:
1\1\nid00527\SP\ProcedureUnspecified\BasisUnspecified\235(1-,1)\meili\MonSep2705:04:022021MonSep2705:04:022021\0\\#,ProcedureUnspecified,BasisUnspecified,\\-1,1\C\O,1,1.26196\O,1,1.26559,2,123.116\C,1,1.55264,2,116.574,3,-178.859,0\H,4,1.09118,1,108.743,2,-46.7668,0\H,4,1.09237,1,108.683,2,70.7156,0\C,4,1.54202,1,113.097,2,-167.883,0\H,7,1.09031,4,108.995,1,56.6433,0\H,7,1.09151,4,108.624,1,-61.0157,0\H,7,1.1,4,114.305,1,178.547,0\\\@

 Total job time:  9025.40s(wall), 17792.35s(cpu) 
 Mon Sep 27 05:04:03 2021

        *************************************************************
        *                                                           *
        *  Thank you very much for using Q-Chem.  Have a nice day.  *
        *                                                           *
        *************************************************************


Done Job For Fragment 1
calling putenv with: QCSCRATCH=/global/cscratch1/sd/meili 
calling putenv with: QCLOCALSCR=/tmp 
calling putenv with: QCTHREADS=32 
Doing General SCFMI
 Exchange:     0.1670 Hartree-Fock + 1.0000 wB97X-V + LR-HF
 Correlation:  1.0000 wB97X-V
 Using Euler-Maclaurin-Lebedev (99,590) quadrature formula
 Nonlocal Correlation:  VV10 with C = 0.0100 and b = 6.00 and scale = 1.00000
 Grid used for NLC:  SG-1 standard quadrature
performing fock build before subrot guess so that all methods have access
Printing subrot_rss_gen Method Specification:
Occupied Subspace Method is 0
Virtual Subspace Method is 0
Energy of the unrelaxed supersystem initial determinant -671.035449501614
performing fock build before subrot guess so that all methods have access
Printing subrot_rss_gen Method Specification:
Occupied Subspace Method is 0
Virtual Subspace Method is 0
Energy of the unrelaxed supersystem initial determinant w/ solvent -671.161235300873
write pseudocanon occs and virts to disk
write pseudocanon orbital energies to disk
Tolerance of ortho_decomp_scf: 1.00e-06
GDM subspace size: 20
Beginning the Orthogonal Decomposition of the Initial Supersystem Wavefunction
    1    -670.9808073941      3.11e-02     ortho_decomp Preconditoned Steepest Descent
    2    -670.9846931698      8.15e-04     ortho_decomp BFGS Step
    3    -670.9847071945      6.04e-05     ortho_decomp BFGS Step
    4    -670.9847072149      2.35e-06     ortho_decomp BFGS Step
    5    -670.9847072149      7.69e-08     ortho_decomp 00000 Convergence criterion met
 Hartree-Fock
 Hartree-Fock
 Hartree-Fock
Doing General SCFMI
 Exchange:     0.1670 Hartree-Fock + 1.0000 wB97X-V + LR-HF
 Correlation:  1.0000 wB97X-V
 Using Euler-Maclaurin-Lebedev (99,590) quadrature formula
 Nonlocal Correlation:  VV10 with C = 0.0100 and b = 6.00 and scale = 1.00000
 Grid used for NLC:  SG-1 standard quadrature
performing fock build at end of subrot_r(subrot) constructor so that all methods have access
<S^2> of initial wavefunction before polarization iterations 0.0000000000
Beginning iterations for the determination of the polarized wavefunction
Energy prior to optimization (guess energy) = -671.161235300873
Begin Timing: Total SCF Calculation
begin iterations for algorithm: DIIS         
the SCF tolerance is set to 1.00e-08
    1    -671.1612353009      5.09e-05     00000 
    2    -671.1615592409      2.90e-05     00000 
    3    -671.1616060810      1.49e-05     00000 
    4    -671.1616224744      4.61e-06     00000 
    5    -671.1616241400      2.05e-06     00000 
    6    -671.1616245690      1.06e-06     00000 
    7    -671.1616246596      3.90e-07     00000 
    8    -671.1616246751      1.49e-07     00000 
    9    -671.1616246766      6.74e-08     00000 
   10    -671.1616246769      2.10e-08     00000 
   11    -671.1616246769      1.16e-08     00000 
   12    -671.1616246769      4.20e-09     00000 Convergence criterion met
write pseudocanon occs and virts to disk
write pseudocanon orbital energies to disk
Timing for Total SCF: 10987.00s (wall), 21892.15s (cpu)
<S^2> of polarized wavefunction after polarization iterations 0.0000000000
relaxing scfmi constraint to allow all rotations in the entire AO span
Doing General SCFMI
 Exchange:     0.1670 Hartree-Fock + 1.0000 wB97X-V + LR-HF
 Correlation:  1.0000 wB97X-V
 Using Euler-Maclaurin-Lebedev (99,590) quadrature formula
 Nonlocal Correlation:  VV10 with C = 0.0100 and b = 6.00 and scale = 1.00000
 Grid used for NLC:  SG-1 standard quadrature
performing fock build at end of subrot_r(subrot) constructor so that all methods have access
<S^2> of polarized wavefunction before ct-allowed iterations 0.0000000000
Beginning iterations for the determination of the CT-Allowed wavefunction
Energy prior to optimization (guess energy) = -671.161624676937
Begin Timing: Total SCF Calculation
begin iterations for algorithm: DIIS         
the SCF tolerance is set to 1.00e-08
    1    -671.1616246769      7.92e-05     00000 
    2    -671.1631222342      9.52e-06     00000 
    3    -671.1631747971      2.89e-06     00000 
    4    -671.1631767025      2.57e-06     00000 
    5    -671.1631778824      3.39e-07     00000 
    6    -671.1631779244      2.19e-07     00000 
    7    -671.1631779379      5.65e-08     00000 
    8    -671.1631779390      1.88e-08     00000 
    9    -671.1631779392      5.65e-09     00000 Convergence criterion met
write pseudocanon occs and virts to disk
write pseudocanon orbital energies to disk
Timing for Total SCF: 7970.00s (wall), 15881.40s (cpu)
<S^2> of ct_allowed wavefunction after ct-allowed iterations 0.0000000000

================================
        Results of EDA2         
================================
Basic EDA Quantities
--------------------
Fragment Energies (Ha):
1 -403.1696264352
2 -267.9751775847
--------------------
  E_prp (kJ/mol) = 0.0000
  E_sol (kJ/mol) = 51.8225
  E_frz (kJ/mol) = -66.0935
  E_pol (kJ/mol) = -1.0223
  E_vct (kJ/mol) = -4.0781
  E_int (kJ/mol) = -19.3715
--------------------


Initial Wavefunction Decomposition
--------------------
  --------------------
  Orthogonal Fragment Subspace Decomposition:
  --------------------
     E_elec   (ELEC)   (kJ/mol) = -95.9981
     E_pauli  (PAULI)  (kJ/mol) = 52.7041
     E_disp   (DISP)   (kJ/mol) = -22.7994
     --------------------
     Terms summing to E_pauli:
     --------------------
        E_kep_pauli       (kJ/mol) = 67.1320
        E_disp_free_pauli (kJ/mol) = -14.4279
  --------------------
  Classical Frozen Decomposition:
  --------------------
     E_cls_elec  (CLS ELEC)  (kJ/mol) = -70.3890
     E_cls_pauli (CLS PAULI) (kJ/mol) = 4.2955
    [E_mod_pauli (MOD PAULI) (kJ/mol) = 27.0949 (CLS PAULI - DISP from orthogonal decomposition) ]
  --------------------
--------------------

Simplified EDA Summary (kJ/mol)
--------------------
 PREPARATION     0.0000
 SOLVATION       51.8225
 FROZEN          -43.2940      (does not include dispersion)
[PAULI           52.7041]     (if this is negligible, then frozen describes electrostatics)
 DISPERSION      -22.7994
 POLARIZATION    -1.0223
 CHARGE TRANSFER -4.0781
 TOTAL           -19.3715     (PRP + SOL + FRZ + DISP + POL + CT)
--------------------
 
 --------------------------------------------------------------
 
                    Orbital Energies (a.u.)
 --------------------------------------------------------------
 
 Alpha MOs
 -- Occupied --
-19.1579 -19.1564 -14.4403 -10.3590 -10.2959 -10.2913 -10.2662 -10.2659
-10.2638 -10.2626 -10.2600 -10.2588 -10.2566 -10.2553 -10.2449  -1.1603
 -1.1069  -1.0635  -0.9741  -0.9217  -0.8842  -0.8634  -0.8530  -0.8091
 -0.7500  -0.7399  -0.7064  -0.6711  -0.6438  -0.6161  -0.5901  -0.5782
 -0.5666  -0.5593  -0.5471  -0.5424  -0.5326  -0.5312  -0.5090  -0.5063
 -0.4965  -0.4850  -0.4802  -0.4707  -0.4492  -0.4455  -0.4448  -0.4357
 -0.4265  -0.3739  -0.3660  -0.3555  -0.3476  -0.3137  -0.2841
 -- Virtual --
  0.0546   0.0623   0.0746   0.0752   0.0890   0.0922   0.0958   0.0968
  0.1033   0.1150   0.1198   0.1203   0.1293   0.1326   0.1356   0.1390
  0.1476   0.1507   0.1589   0.1610   0.1692   0.1741   0.1793   0.1800
  0.1906   0.1922   0.1980   0.2003   0.2080   0.2099   0.2168   0.2202
  0.2276   0.2327   0.2332   0.2383   0.2462   0.2507   0.2533   0.2590
  0.2670   0.2675   0.2724   0.2745   0.2767   0.2834   0.2845   0.2865
  0.2915   0.2920   0.2953   0.3015   0.3061   0.3070   0.3137   0.3190
  0.3240   0.3256   0.3294   0.3327   0.3362   0.3391   0.3431   0.3447
  0.3494   0.3503   0.3570   0.3598   0.3617   0.3671   0.3712   0.3743
  0.3749   0.3799   0.3802   0.3850   0.3871   0.3895   0.3914   0.3939
  0.3982   0.3998   0.4078   0.4085   0.4145   0.4171   0.4193   0.4222
  0.4241   0.4284   0.4305   0.4353   0.4392   0.4452   0.4513   0.4532
  0.4556   0.4621   0.4663   0.4713   0.4726   0.4788   0.4832   0.4840
  0.4855   0.4921   0.4961   0.4987   0.4994   0.5003   0.5059   0.5095
  0.5125   0.5145   0.5229   0.5230   0.5299   0.5333   0.5349   0.5411
  0.5493   0.5542   0.5562   0.5610   0.5628   0.5660   0.5692   0.5740
  0.5768   0.5788   0.5802   0.5897   0.5907   0.5944   0.6010   0.6083
  0.6106   0.6153   0.6253   0.6269   0.6294   0.6343   0.6458   0.6477
  0.6520   0.6563   0.6620   0.6678   0.6745   0.6781   0.6825   0.6857
  0.6903   0.6982   0.7008   0.7030   0.7059   0.7122   0.7162   0.7203
  0.7286   0.7353   0.7383   0.7406   0.7441   0.7465   0.7519   0.7565
  0.7593   0.7635   0.7664   0.7690   0.7746   0.7807   0.7854   0.7902
  0.7921   0.7941   0.7986   0.8007   0.8045   0.8049   0.8104   0.8131
  0.8183   0.8215   0.8238   0.8276   0.8307   0.8363   0.8371   0.8440
  0.8456   0.8522   0.8587   0.8601   0.8647   0.8653   0.8680   0.8758
  0.8846   0.8889   0.8949   0.8993   0.9044   0.9053   0.9152   0.9212
  0.9250   0.9289   0.9358   0.9419   0.9434   0.9477   0.9648   0.9706
  0.9745   0.9794   0.9820   0.9829   0.9932   1.0029   1.0124   1.0235
  1.0276   1.0296   1.0403   1.0533   1.0652   1.0700   1.0799   1.0852
  1.0895   1.1000   1.1023   1.1034   1.1100   1.1290   1.1316   1.1384
  1.1453   1.1484   1.1582   1.1684   1.1741   1.1860   1.1897   1.2054
  1.2167   1.2202   1.2325   1.2368   1.2497   1.2565   1.2726   1.2823
  1.2941   1.3054   1.3069   1.3279   1.3301   1.3460   1.3571   1.3707
  1.3798   1.3896   1.3940   1.4021   1.4092   1.4104   1.4237   1.4343
  1.4453   1.4487   1.4639   1.4780   1.4816   1.4885   1.4921   1.5005
  1.5227   1.5262   1.5390   1.5723   1.5794   1.5888   1.5958   1.6080
  1.6323   1.6398   1.6608   1.6852   1.6897   1.7031   1.7198   1.7263
  1.7485   1.7571   1.7840   1.7945   1.8240   1.8279   1.8396   1.8579
  1.8724   1.8836   1.9027   1.9097   1.9134   1.9222   1.9384   1.9403
  1.9436   1.9519   1.9611   1.9645   1.9668   1.9811   1.9871   1.9895
  1.9951   1.9970   2.0010   2.0112   2.0221   2.0248   2.0272   2.0338
  2.0468   2.0570   2.0667   2.0714   2.0809   2.0953   2.1004   2.1119
  2.1357   2.1427   2.1535   2.1590   2.1674   2.1752   2.1956   2.2012
  2.2307   2.2343   2.2379   2.2525   2.2649   2.2674   2.2854   2.2881
  2.2970   2.3086   2.3218   2.3287   2.3424   2.3698   2.3843   2.3986
  2.4131   2.4195   2.4433   2.4443   2.4537   2.4698   2.4771   2.4828
  2.4910   2.5062   2.5170   2.5307   2.5462   2.5661   2.5774   2.5874
  2.5935   2.6155   2.6269   2.6320   2.6354   2.6559   2.6670   2.6785
  2.6826   2.6945   2.6975   2.7103   2.7379   2.7530   2.7636   2.7710
  2.7793   2.7865   2.7971   2.8026   2.8115   2.8184   2.8247   2.8368
  2.8410   2.8529   2.8548   2.8768   2.8855   2.8945   2.9023   2.9172
  2.9239   2.9362   2.9466   2.9644   2.9744   2.9761   2.9849   2.9958
  3.0043   3.0223   3.0309   3.0423   3.0497   3.0571   3.0667   3.0846
  3.1046   3.1074   3.1082   3.1187   3.1584   3.1679   3.1753   3.1925
  3.2025   3.2049   3.2141   3.2314   3.2443   3.2466   3.2727   3.2797
  3.2869   3.2964   3.3076   3.3170   3.3184   3.3282   3.3423   3.3448
  3.3646   3.3716   3.3809   3.3852   3.3936   3.3984   3.4098   3.4203
  3.4213   3.4404   3.4410   3.4475   3.4575   3.4656   3.4706   3.4770
  3.4806   3.4856   3.4899   3.4983   3.4986   3.5198   3.5284   3.5355
  3.5519   3.5603   3.5670   3.5751   3.5882   3.5884   3.5998   3.6080
  3.6239   3.6273   3.6297   3.6387   3.6522   3.6587   3.6675   3.6845
  3.6876   3.6956   3.7142   3.7164   3.7248   3.7267   3.7343   3.7421
  3.7556   3.7667   3.7792   3.7838   3.7887   3.7984   3.8057   3.8205
  3.8248   3.8471   3.8570   3.8789   3.8940   3.9386   3.9508   3.9617
  4.0068   4.0542   4.0562   4.0697   4.0736   4.1061   4.1197   4.1363
  4.1493   4.1636   4.1717   4.2074   4.2329   4.2458   4.2556   4.2689
  4.2863   4.3017   4.3090   4.3142   4.3221   4.3617   4.3741   4.3853
  4.4157   4.4278   4.4304   4.4382   4.4710   4.4886   4.5279   4.5437
  4.5635   4.5968   4.6086   4.6132   4.6419   4.6624   4.6856   4.7381
  4.7623   4.8018   4.8063   4.8121   4.8250   4.8656   4.8684   4.9298
  4.9471   4.9865   4.9965   5.0041   5.0163   5.0561   5.0739   5.0963
  5.1278   5.1433   5.1533   5.1610   5.2166   5.2301   5.2826   5.3059
  5.3489   5.3523   5.3662   5.3976   5.4217   5.4646   5.4821   5.5181
  5.5472   5.6035   5.6462   5.6786   5.7207   5.7309   5.7619   5.8294
  5.8562   5.9623   5.9729   5.9799   6.2194   6.2795   6.3026   6.3304
  6.3411   6.5804   6.6548   6.7415   6.7706   6.7863   6.9194   7.0127
  7.0490   7.2445   7.3312   7.3587   7.3976  22.6588  22.6929  22.7709
 22.8174  22.9452  22.9798  22.9965  23.2177  23.2470  23.4339  23.6899
 23.7854  32.9162  44.4305  44.4561
 --------------------------------------------------------------
 
          Ground-State Mulliken Net Atomic Charges

     Atom                 Charge (a.u.)
  ----------------------------------------
      1 C                    -1.092237
      2 C                    -0.217014
      3 C                     0.334225
      4 C                     0.605157
      5 C                    -0.655374
      6 C                    -0.431752
      7 C                    -0.617232
      8 C                    -0.574899
      9 C                    -0.514783
     10 N                     0.212419
     11 H                     0.401771
     12 H                     0.427057
     13 H                     0.155188
     14 H                     0.418853
     15 H                     0.339264
     16 H                     0.398917
     17 H                     0.263951
     18 H                     0.239033
     19 H                     0.284284
     20 C                     0.019757
     21 C                    -0.889975
     22 C                     0.433680
     23 O                    -0.793595
     24 O                    -0.816445
     25 H                     0.277692
     26 H                     0.145259
     27 H                     0.172911
     28 H                     0.215016
     29 H                     0.258871
  ----------------------------------------
  Sum of atomic charges =    -1.000000

 -----------------------------------------------------------------
                    Cartesian Multipole Moments
 -----------------------------------------------------------------
    Charge (ESU x 10^10)
                -4.8032
    Dipole Moment (Debye)
         X      -7.6514      Y     -11.3458      Z      -6.0276
       Tot      14.9534
    Quadrupole Moments (Debye-Ang)
        XX    -106.7839     XY     -16.6171     YY    -120.9613
        XZ     -12.3136     YZ     -19.9208     ZZ    -106.5279
    Octopole Moments (Debye-Ang^2)
       XXX      -6.4259    XXY     -28.2446    XYY     -50.1916
       YYY    -130.9664    XXZ     -18.4691    XYZ     -42.6207
       YYZ     -37.0201    XZZ     -40.5222    YZZ     -25.0593
       ZZZ     -28.9688
    Hexadecapole Moments (Debye-Ang^3)
      XXXX    -663.4475   XXXY    -186.5634   XXYY    -673.7074
      XYYY    -285.2121   YYYY   -3256.1713   XXXZ    -219.4978
      XXYZ    -208.7898   XYYZ    -120.2211   YYYZ    -645.6755
      XXZZ    -458.1704   XYZZ    -100.4875   YYZZ    -804.1167
      XZZZ    -203.3043   YZZZ    -544.4700   ZZZZ   -1832.9241
 -----------------------------------------------------------------
Archival summary:
1\1\nid00527\SP\ProcedureUnspecified\BasisUnspecified\211214(1-,1)\meili\MonSep2714:38:382021MonSep2714:38:382021\0\\#,ProcedureUnspecified,BasisUnspecified,\\-1,1\N\H,1,1.01725\C,1,1.37108,2,125.84\C,1,1.37684,2,124.895,3,-176.096,0\H,4,1.08359,1,124.211,2,-2.30889,0\C,4,1.38255,1,110.039,2,176.686,0\C,3,1.38855,1,130.488,2,1.79827,0\H,7,1.07928,3,121,1,2.71569,0\C,7,1.39461,3,118.153,1,-179.427,0\H,9,1.08324,7,119.546,3,-178.804,0\C,9,1.39167,7,120.921,3,1.4089,0\H,11,1.08281,9,119.46,7,179.836,0\C,11,1.39143,9,121.186,7,-1.10027,0\H,13,1.08084,11,120.555,9,-179.629,0\C,13,1.41009,11,119.155,9,1.35622,0\C,6,1.52119,4,127.97,1,179.658,0\H,16,1.08956,6,107.062,4,-171.765,0\H,16,1.08977,6,109.061,4,72.3624,0\H,16,1.1,6,113.936,4,-52.1288,0\O,2,2.32806,1,143.91,3,36.0381,0\C,20,1.26196,2,113.552,1,-0.793548,0\O,21,1.26559,20,123.116,2,-116.844,0\C,21,1.55264,20,116.574,2,64.2972,0\H,23,1.09118,21,108.743,20,-46.7668,0\H,23,1.09237,21,108.683,20,70.7156,0\C,23,1.54202,21,113.097,20,-167.883,0\H,26,1.09031,23,108.995,21,56.6433,0\H,26,1.09151,23,108.624,21,-61.0157,0\H,26,1.1,23,114.305,21,178.547,0\\\@

 Total job time:  121352.01s(wall), 68742.40s(cpu) 
 Mon Sep 27 14:38:39 2021

        *************************************************************
        *                                                           *
        *  Thank you very much for using Q-Chem.  Have a nice day.  *
        *                                                           *
        *************************************************************


