
Running Job 1 of 1 SSI-051GLN-098TYR-1_SMD_TZVPD.in
qchem SSI-051GLN-098TYR-1_SMD_TZVPD.in_23924.0 /tmp/qchem23924/ 0
/global/common/cori/software/qchem/5.2/exe/qcprog.exe_s SSI-051GLN-098TYR-1_SMD_TZVPD.in_23924.0 /tmp/qchem23924/
                  Welcome to Q-Chem
     A Quantum Leap Into The Future Of Chemistry


 Q-Chem 5.2, Q-Chem, Inc., Pleasanton, CA (2019)

 License issued to: National Energy Research Scientific Computing Center

 Yihan Shao,  Zhengting Gan,  E. Epifanovsky,  A. T. B. Gilbert,  M. Wormit,  
 J. Kussmann,  A. W. Lange,  A. Behn,  Jia Deng,  Xintian Feng,  D. Ghosh,  
 M. Goldey,  P. R. Horn,  L. D. Jacobson,  I. Kaliman,  T. Kus,  A. Landau,  
 Jie Liu,  E. I. Proynov,  R. M. Richard,  R. P. Steele,  E. J. Sundstrom,  
 H. L. Woodcock III,  P. M. Zimmerman,  D. Zuev,  B. Albrecht,  E. Alguire,  
 S. A. Baeppler,  D. Barton,  Z. Benda,  Y. A. Bernard,  E. J. Berquist,  
 K. B. Bravaya,  H. Burton,  D. Casanova,  Chun-Min Chang,  Yunqing Chen,  
 A. Chien,  K. D. Closser,  M. P. Coons,  S. Coriani,  S. Dasgupta,  
 A. L. Dempwolff,  M. Diedenhofen,  Hainam Do,  R. G. Edgar,  Po-Tung Fang,  
 S. Faraji,  S. Fatehi,  Qingguo Feng,  K. D. Fenk,  J. Fosso-Tande,  
 J. Gayvert,  Qinghui Ge,  A. Ghysels,  G. Gidofalvi,  J. Gomes,  
 J. Gonthier,  A. Gunina,  D. Hait,  M. W. D. Hanson-Heine,  
 P. H. P. Harbach,  A. W. Hauser,  M. F. Herbst,  J. E. Herr,  
 E. G. Hohenstein,  Z. C. Holden,  Kerwin Hui,  B. C. Huynh,  T.-C. Jagau,  
 Hyunjun Ji,  B. Kaduk,  K. Khistyaev,  Jaehoon Kim,  P. Klunzinger,  K. Koh,  
 D. Kosenkov,  L. Koulias,  T. Kowalczyk,  C. M. Krauter,  A. Kunitsa,  
 Ka Un Lao,  A. Laurent,  K. V. Lawler,  Joonho Lee,  D. Lefrancois,  
 S. Lehtola,  D. S. Levine,  Yi-Pei Li,  You-Sheng Lin,  Fenglai Liu,  
 E. Livshits,  A. Luenser,  P. Manohar,  E. Mansoor,  S. F. Manzer,  
 Shan-Ping Mao,  Yuezhi Mao,  N. Mardirossian,  A. V. Marenich,  
 T. Markovich,  L. A. Martinez-Martinez,  S. A. Maurer,  N. J. Mayhall,  
 S. C. McKenzie,  J.-M. Mewes,  P. Morgante,  A. F. Morrison,  
 J. W. Mullinax,  K. Nanda,  T. S. Nguyen-Beck,  R. Olivares-Amaya,  
 J. A. Parkhill,  Zheng Pei,  T. M. Perrine,  F. Plasser,  P. Pokhilko,  
 S. Prager,  A. Prociuk,  E. Ramos,  D. R. Rehn,  F. Rob,  M. Scheurer,  
 M. Schneider,  N. Sergueev,  S. M. Sharada,  S. Sharma,  D. W. Small,  
 T. Stauch,  T. Stein,  Yu-Chuan Su,  A. J. W. Thom,  A. Tkatchenko,  
 T. Tsuchimochi,  N. M. Tubman,  L. Vogt,  M. L. Vidal,  O. Vydrov,  
 M. A. Watson,  J. Wenzel,  M. de Wergifosse,  T. A. Wesolowski,  A. White,  
 J. Witte,  A. Yamada,  Jun Yang,  K. Yao,  S. Yeganeh,  S. R. Yost,  
 Zhi-Qiang You,  A. Zech,  Igor Ying Zhang,  Xing Zhang,  Yan Zhao,  
 Ying Zhu,  B. R. Brooks,  G. K. L. Chan,  C. J. Cramer,  M. S. Gordon,  
 W. J. Hehre,  A. Klamt,  M. W. Schmidt,  C. D. Sherrill,  D. G. Truhlar,  
 A. Aspuru-Guzik,  R. Baer,  A. T. Bell,  N. A. Besley,  Jeng-Da Chai,  
 A. E. DePrince, III,  R. A. DiStasio Jr.,  A. Dreuw,  B. D. Dunietz,  
 T. R. Furlani,  Chao-Ping Hsu,  Yousung Jung,  Jing Kong,  D. S. Lambrecht,  
 WanZhen Liang,  C. Ochsenfeld,  V. A. Rassolov,  L. V. Slipchenko,  
 J. E. Subotnik,  T. Van Voorhis,  J. M. Herbert,  A. I. Krylov,  
 P. M. W. Gill,  M. Head-Gordon

 Contributors to earlier versions of Q-Chem not listed above: 
 R. D. Adamson,  B. Austin,  J. Baker,  G. J. O. Beran,  K. Brandhorst,  
 S. T. Brown,  E. F. C. Byrd,  A. K. Chakraborty,  C.-L. Cheng,  
 Siu Hung Chien,  D. M. Chipman,  D. L. Crittenden,  H. Dachsel,  
 R. J. Doerksen,  A. D. Dutoi,  L. Fusti-Molnar,  W. A. Goddard III,  
 A. Golubeva-Zadorozhnaya,  S. R. Gwaltney,  G. Hawkins,  A. Heyden,  
 S. Hirata,  G. Kedziora,  F. J. Keil,  C. Kelley,  Jihan Kim,  R. A. King,  
 R. Z. Khaliullin,  P. P. Korambath,  W. Kurlancheek,  A. M. Lee,  M. S. Lee,  
 S. V. Levchenko,  Ching Yeh Lin,  D. Liotard,  R. C. Lochan,  I. Lotan,  
 P. E. Maslen,  N. Nair,  D. P. O'Neill,  D. Neuhauser,  E. Neuscamman,  
 C. M. Oana,  R. Olson,  B. Peters,  R. Peverati,  P. A. Pieniazek,  
 Y. M. Rhee,  J. Ritchie,  M. A. Rohrdanz,  E. Rosta,  N. J. Russ,  
 H. F. Schaefer III,  N. E. Schultz,  N. Shenvi,  A. C. Simmonett,  A. Sodt,  
 D. Stuck,  K. S. Thanthiriwatte,  V. Vanovschi,  Tao Wang,  A. Warshel,  
 C. F. Williams,  Q. Wu,  X. Xu,  W. Zhang

 Please cite Q-Chem as follows:
 Y. Shao et al., Mol. Phys. 113, 184-215 (2015)
 DOI: 10.1080/00268976.2014.952696

 Q-Chem 5.2.0 for Intel X86 EM64T Linux

 Parts of Q-Chem use Armadillo 8.300.2 (Tropical Shenanigans).
 http://arma.sourceforge.net/

 Q-Chem begins on Sun Sep 26 08:20:51 2021  

Host: cori01
0

     Scratch files written to /tmp/qchem23924//
 May1019 |scratch|qcdevops|jenkins|workspace|build_RNUM -1
Processing $rem in /global/common/cori/software/qchem/5.2/config/preferences:
	 MEM_TOTAL  96000 
NAlpha2: 90
NElect   90
Mult     1
Symmetry turned off for PCM/SM12/SMD calculation

 Q-Chem warning in module libgen/rem_setup.C, line 2803:

 Neither GIA nor STOLL is specified by user. Use STOLL as the default


Checking the input file for inconsistencies... 	...done.

--------------------------------------------------------------
User input:
--------------------------------------------------------------
$comment
SSI-051GLN-098TYR-1.pdb
$end

$molecule
0 1
--
0 1
C   -2.042007304796   -2.330852829705    2.782295806026
C   -2.283007304796   -1.066852829705    2.033295806026
O   -2.734007304796   -1.103852829705    0.878295806026
N   -1.962007304796    0.052147170295    2.651295806026
H   -2.753007304796   -3.067852829705    2.418295806026
H   -2.239007304796   -2.193852829705    3.838295806026
H   -2.140007304796    0.930147170295    2.191295806026
H   -1.604007304796    0.021147170295    3.607295806026
H   -0.998207304796   -2.658674829705    2.668175806026
--
0 1
C    0.687992695204   -1.695852829705   -2.971704193974
C    0.523992695204    0.700147170295    0.040295806026
C    1.494992695204    1.660147170295   -0.269704193974
C    0.247992695204   -0.358852829705   -0.837704193974
C    0.921992695204   -0.482852829705   -2.060704193974
C    2.203992695204    1.543147170295   -1.484704193974
C    1.915992695204    0.456147170295   -2.365704193974
O    1.729992695204    2.700147170295    0.600295806026
H   -0.006007304796    0.780147170295    0.975295806026
H   -0.495007304796   -1.094852829705   -0.563704193974
H    2.963992695204    2.268147170295   -1.742704193974
H    2.403992695204    3.301147170295    0.260295806026
H    0.704992695204   -1.399852829705   -4.021704193974
H   -0.297007304796   -2.105852829705   -2.745704193974
H    2.467992695204    0.368147170295   -3.292704193974
H    1.465452695204   -2.445546829705   -2.763104193974
$end

$rem
JOBTYPE			EDA
EDA2			1
method			wB97X-V
BASIS			def2-TZVPD
XC_GRID			000099000590
NL_GRID			1
UNRESTRICTED		FALSE
MAX_SCF_CYCLES		200
SYMMETRY		FALSE
SYM_IGNORE		TRUE
MEM_STATIC		2000
BASIS_LIN_DEP_THRESH 	6
THRESH 			14
SCF_CONVERGENCE 	8
SCF_PRINT_FRGM 		TRUE
SOLVENT_METHOD          SMD
$end

$SMX
SOLVENT			WATER
$END
--------------------------------------------------------------
 ----------------------------------------------------------------
             Standard Nuclear Orientation (Angstroms)
    I     Atom           X                Y                Z
 ----------------------------------------------------------------
    1      C      -2.0420073048    -2.3308528297     2.7822958060
    2      C      -2.2830073048    -1.0668528297     2.0332958060
    3      O      -2.7340073048    -1.1038528297     0.8782958060
    4      N      -1.9620073048     0.0521471703     2.6512958060
    5      H      -2.7530073048    -3.0678528297     2.4182958060
    6      H      -2.2390073048    -2.1938528297     3.8382958060
    7      H      -2.1400073048     0.9301471703     2.1912958060
    8      H      -1.6040073048     0.0211471703     3.6072958060
    9      H      -0.9982073048    -2.6586748297     2.6681758060
   10      C       0.6879926952    -1.6958528297    -2.9717041940
   11      C       0.5239926952     0.7001471703     0.0402958060
   12      C       1.4949926952     1.6601471703    -0.2697041940
   13      C       0.2479926952    -0.3588528297    -0.8377041940
   14      C       0.9219926952    -0.4828528297    -2.0607041940
   15      C       2.2039926952     1.5431471703    -1.4847041940
   16      C       1.9159926952     0.4561471703    -2.3657041940
   17      O       1.7299926952     2.7001471703     0.6002958060
   18      H      -0.0060073048     0.7801471703     0.9752958060
   19      H      -0.4950073048    -1.0948528297    -0.5637041940
   20      H       2.9639926952     2.2681471703    -1.7427041940
   21      H       2.4039926952     3.3011471703     0.2602958060
   22      H       0.7049926952    -1.3998528297    -4.0217041940
   23      H      -0.2970073048    -2.1058528297    -2.7457041940
   24      H       2.4679926952     0.3681471703    -3.2927041940
   25      H       1.4654526952    -2.4455468297    -2.7631041940
 ----------------------------------------------------------------
 Nuclear Repulsion Energy =         648.09047674 hartrees
 There are       45 alpha and       45 beta electrons
 Requested basis set is def2-TZVPD
 There are 223 shells and 567 basis functions

 Total QAlloc Memory Limit  96000 MB
 Mega-Array Size      1956 MB
 MEM_STATIC part      2000 MB
 
 Citation of the SMD model:
 Marenich, A.V.; Cramer, C.J.; Truhlar, D.G.
 J. Phys. Chem. B 2009, 113, 6378-6396.
 iSolventCode=           1
 Solvent: water                                                           
 
 vradii
            1           2           3           4           5           6
    1   1.8500000   1.8500000   1.5200000   1.8900000   1.2000000   1.2000000
            7           8           9          10          11          12
    1   1.2000000   1.2000000   1.2000000   1.8500000   1.8500000   1.8500000
           13          14          15          16          17          18
    1   1.8500000   1.8500000   1.8500000   1.8500000   1.5200000   1.2000000
           19          20          21          22          23          24
    1   1.2000000   1.2000000   1.2000000   1.2000000   1.2000000   1.2000000
           25
    1   1.2000000
 Changing PCM_VDW_RADII to SMD_RADIUS
 Discretize the solute cavity surface with Lebedev spheres
	Using 110 Lebedev grid points for each H atom
	Using 194 Lebedev grid points for other atoms
	Atomic van der Waals radii will be scaled by 1.20
 Remove points where switching function is < 1.0e-08
 Keep 1888 surface tesserae and discard 1870 interior tesserae
 Molecular Surface Area = 228.091 Angst**2
 A cutoff of  1.0D-14 yielded  21377 shell pairs
 There are    138661 function pairs (    174868 Cartesian)
 Smallest overlap matrix eigenvalue = 5.04E-07
 Linear dependence detected in AO basis
 Tighter screening thresholds may be required for diffuse basis sets
 Use S2THRESH > 14 and THRESH = 14 in case of SCF convergence issues
 Number of orthogonalized atomic orbitals = 565
 Maximum deviation from orthogonality = 2.440E-10

 Scale SEOQF with 1.000000e-01/1.000000e-01/1.000000e-01

 Standard Electronic Orientation quadrupole field applied
 Nucleus-field energy     =    -0.0000000121 hartrees

 -----------------------------------------------------------------------
  General SCF calculation program by
  Eric Jon Sundstrom, Paul Horn, Yuezhi Mao, Dmitri Zuev, Alec White,
  David Stuck, Shaama M.S., Shane Yost, Joonho Lee, David Small,
  Daniel Levine, Susi Lehtola, Hugh Burton, Evgeny Epifanovsky
 -----------------------------------------------------------------------
================================================================
                 ALMO-EDA with the EDA2 driver                  
================================================================
 The second-generation ALMO-EDA (for DFT):                      
 P. R. Horn, Y. Mao and M. Head-Gordon, PCCP, 18, 23067 (2016)  
 Decomposition of the frozen energy:                            
 P. R. Horn, Y. Mao and M. Head-Gordon, JCP, 144, 114107 (2016) 
 FERF model for polarization:                                   
 P. R. Horn and M. Head-Gordon, JCP, 143, 114111 (2015)         
Using eda2 option set 1
Option set summary: Frozen orbital wavefunction, initial wavefunction decomposition, and nDQ polarization.
--------------------------------
Printing EDA Options
--------------------------------
eda_child_super_basis      0
fragmo_guess_mode          0
child_mp                   1
child_mp_orders            232
cls_elec                   1
cls_disp                   0
scfmi_mode                 1
scfmi_occs                 0
scfmi_virts                0
frz_relax                  0
frz_relax_method           0
dc_pen_start               0
dc_pen_conv                0
dc_pen_increment           0
dc_pen_steps               0
dc_pen_thresh_factor       0
dc_pen_pre_newton_thresh   0
frz_ortho_decomp           1
frz_ortho_decomp_conv      6
frgm_method                2
scfmi_freeze_ss            0
separate_rehyb             0
plot_diff_den              0
eda_nocv                   0
eda_vct_relax              1
disp_free_x                0
disp_free_c                0
eda_bsse                   0
eda_pct_a                  0
eda_covp                   0
--------------------------------
Attempting to make child job directory: /tmp/qchem23924//Frg1/
Attempting to make child job directory: /tmp/qchem23924//Frg2/
Creating input file /tmp/qchem23924/Frg1.input
using default PutDataFrgm: nothing
calling putenv with: QCSCRATCH=/tmp/qchem23924/ 
calling putenv with: QCLOCALSCR=/tmp/qchem23924/ 
Spawning Job For Fragment 0
                  Welcome to Q-Chem
     A Quantum Leap Into The Future Of Chemistry


 Q-Chem 5.2, Q-Chem, Inc., Pleasanton, CA (2019)

 License issued to: National Energy Research Scientific Computing Center

 Yihan Shao,  Zhengting Gan,  E. Epifanovsky,  A. T. B. Gilbert,  M. Wormit,  
 J. Kussmann,  A. W. Lange,  A. Behn,  Jia Deng,  Xintian Feng,  D. Ghosh,  
 M. Goldey,  P. R. Horn,  L. D. Jacobson,  I. Kaliman,  T. Kus,  A. Landau,  
 Jie Liu,  E. I. Proynov,  R. M. Richard,  R. P. Steele,  E. J. Sundstrom,  
 H. L. Woodcock III,  P. M. Zimmerman,  D. Zuev,  B. Albrecht,  E. Alguire,  
 S. A. Baeppler,  D. Barton,  Z. Benda,  Y. A. Bernard,  E. J. Berquist,  
 K. B. Bravaya,  H. Burton,  D. Casanova,  Chun-Min Chang,  Yunqing Chen,  
 A. Chien,  K. D. Closser,  M. P. Coons,  S. Coriani,  S. Dasgupta,  
 A. L. Dempwolff,  M. Diedenhofen,  Hainam Do,  R. G. Edgar,  Po-Tung Fang,  
 S. Faraji,  S. Fatehi,  Qingguo Feng,  K. D. Fenk,  J. Fosso-Tande,  
 J. Gayvert,  Qinghui Ge,  A. Ghysels,  G. Gidofalvi,  J. Gomes,  
 J. Gonthier,  A. Gunina,  D. Hait,  M. W. D. Hanson-Heine,  
 P. H. P. Harbach,  A. W. Hauser,  M. F. Herbst,  J. E. Herr,  
 E. G. Hohenstein,  Z. C. Holden,  Kerwin Hui,  B. C. Huynh,  T.-C. Jagau,  
 Hyunjun Ji,  B. Kaduk,  K. Khistyaev,  Jaehoon Kim,  P. Klunzinger,  K. Koh,  
 D. Kosenkov,  L. Koulias,  T. Kowalczyk,  C. M. Krauter,  A. Kunitsa,  
 Ka Un Lao,  A. Laurent,  K. V. Lawler,  Joonho Lee,  D. Lefrancois,  
 S. Lehtola,  D. S. Levine,  Yi-Pei Li,  You-Sheng Lin,  Fenglai Liu,  
 E. Livshits,  A. Luenser,  P. Manohar,  E. Mansoor,  S. F. Manzer,  
 Shan-Ping Mao,  Yuezhi Mao,  N. Mardirossian,  A. V. Marenich,  
 T. Markovich,  L. A. Martinez-Martinez,  S. A. Maurer,  N. J. Mayhall,  
 S. C. McKenzie,  J.-M. Mewes,  P. Morgante,  A. F. Morrison,  
 J. W. Mullinax,  K. Nanda,  T. S. Nguyen-Beck,  R. Olivares-Amaya,  
 J. A. Parkhill,  Zheng Pei,  T. M. Perrine,  F. Plasser,  P. Pokhilko,  
 S. Prager,  A. Prociuk,  E. Ramos,  D. R. Rehn,  F. Rob,  M. Scheurer,  
 M. Schneider,  N. Sergueev,  S. M. Sharada,  S. Sharma,  D. W. Small,  
 T. Stauch,  T. Stein,  Yu-Chuan Su,  A. J. W. Thom,  A. Tkatchenko,  
 T. Tsuchimochi,  N. M. Tubman,  L. Vogt,  M. L. Vidal,  O. Vydrov,  
 M. A. Watson,  J. Wenzel,  M. de Wergifosse,  T. A. Wesolowski,  A. White,  
 J. Witte,  A. Yamada,  Jun Yang,  K. Yao,  S. Yeganeh,  S. R. Yost,  
 Zhi-Qiang You,  A. Zech,  Igor Ying Zhang,  Xing Zhang,  Yan Zhao,  
 Ying Zhu,  B. R. Brooks,  G. K. L. Chan,  C. J. Cramer,  M. S. Gordon,  
 W. J. Hehre,  A. Klamt,  M. W. Schmidt,  C. D. Sherrill,  D. G. Truhlar,  
 A. Aspuru-Guzik,  R. Baer,  A. T. Bell,  N. A. Besley,  Jeng-Da Chai,  
 A. E. DePrince, III,  R. A. DiStasio Jr.,  A. Dreuw,  B. D. Dunietz,  
 T. R. Furlani,  Chao-Ping Hsu,  Yousung Jung,  Jing Kong,  D. S. Lambrecht,  
 WanZhen Liang,  C. Ochsenfeld,  V. A. Rassolov,  L. V. Slipchenko,  
 J. E. Subotnik,  T. Van Voorhis,  J. M. Herbert,  A. I. Krylov,  
 P. M. W. Gill,  M. Head-Gordon

 Contributors to earlier versions of Q-Chem not listed above: 
 R. D. Adamson,  B. Austin,  J. Baker,  G. J. O. Beran,  K. Brandhorst,  
 S. T. Brown,  E. F. C. Byrd,  A. K. Chakraborty,  C.-L. Cheng,  
 Siu Hung Chien,  D. M. Chipman,  D. L. Crittenden,  H. Dachsel,  
 R. J. Doerksen,  A. D. Dutoi,  L. Fusti-Molnar,  W. A. Goddard III,  
 A. Golubeva-Zadorozhnaya,  S. R. Gwaltney,  G. Hawkins,  A. Heyden,  
 S. Hirata,  G. Kedziora,  F. J. Keil,  C. Kelley,  Jihan Kim,  R. A. King,  
 R. Z. Khaliullin,  P. P. Korambath,  W. Kurlancheek,  A. M. Lee,  M. S. Lee,  
 S. V. Levchenko,  Ching Yeh Lin,  D. Liotard,  R. C. Lochan,  I. Lotan,  
 P. E. Maslen,  N. Nair,  D. P. O'Neill,  D. Neuhauser,  E. Neuscamman,  
 C. M. Oana,  R. Olson,  B. Peters,  R. Peverati,  P. A. Pieniazek,  
 Y. M. Rhee,  J. Ritchie,  M. A. Rohrdanz,  E. Rosta,  N. J. Russ,  
 H. F. Schaefer III,  N. E. Schultz,  N. Shenvi,  A. C. Simmonett,  A. Sodt,  
 D. Stuck,  K. S. Thanthiriwatte,  V. Vanovschi,  Tao Wang,  A. Warshel,  
 C. F. Williams,  Q. Wu,  X. Xu,  W. Zhang

 Please cite Q-Chem as follows:
 Y. Shao et al., Mol. Phys. 113, 184-215 (2015)
 DOI: 10.1080/00268976.2014.952696

 Q-Chem 5.2.0 for Intel X86 EM64T Linux

 Parts of Q-Chem use Armadillo 8.300.2 (Tropical Shenanigans).
 http://arma.sourceforge.net/

 Q-Chem begins on Sun Sep 26 08:21:04 2021  

Host: cori01
0

     Scratch files written to /tmp/qchem23924//Frg1//
 May1019 |scratch|qcdevops|jenkins|workspace|build_RNUM -1
Processing $rem in /global/common/cori/software/qchem/5.2/config/preferences:
	 MEM_TOTAL  96000 
NAlpha2: 32
NElect   32
Mult     1
Symmetry turned off for PCM/SM12/SMD calculation

Checking the input file for inconsistencies... 	...done.

--------------------------------------------------------------
User input:
--------------------------------------------------------------
$molecule
0 1
 6	-2.0420073048	-2.3308528297	2.7822958060
 6	-2.2830073048	-1.0668528297	2.0332958060
 8	-2.7340073048	-1.1038528297	0.8782958060
 7	-1.9620073048	0.0521471703	2.6512958060
 1	-2.7530073048	-3.0678528297	2.4182958060
 1	-2.2390073048	-2.1938528297	3.8382958060
 1	-2.1400073048	0.9301471703	2.1912958060
 1	-1.6040073048	0.0211471703	3.6072958060
 1	-0.9982073048	-2.6586748297	2.6681758060
$end
$rem
EDA2		1
METHOD		WB97X-V
BASIS		DEF2-TZVPD
XC_GRID		000099000590
NL_GRID		1
UNRESTRICTED		FALSE
MAX_SCF_CYCLES		200
SYMMETRY		FALSE
SYM_IGNORE		TRUE
BASIS_LIN_DEP_THRESH		6
THRESH		14
SCF_CONVERGENCE		8
SCF_PRINT_FRGM		TRUE
SOLVENT_METHOD		SMD
!required keywords
JOBTYPE		SP
SYM_IGNORE		TRUE
SUBSYSTEM		TRUE
GEN_SCFMAN		TRUE
CHILD_INSTRUCTION		2
SYM_IGNORE		TRUE
SCFMI		0
RI_K 0		
PARI_K 0		
MIN_PARI_K 0		
IARI_K 0		
OCC_RI_K 0		
PURECART		1111
MEM_STATIC		2000
MEM_TOTAL		96000
GUI		0
CHILD_MP		1
CHILD_MP_ORDERS		232
FRZ_RELAX		0
FRZ_RELAX_METHOD		0
EDA_CLS_ELEC		1
EDA_CLS_DISP		0
FRZ_ORTHO_DECOMP		1
EDA2		FALSE
FRGM_METHOD		FALSE
CIS_N_ROOTS  0
LOCAL_CIS    0
CIS_RLX_DNS  1
$end
$smx
SOLVENT			WATER
$end
--------------------------------------------------------------
 ----------------------------------------------------------------
             Standard Nuclear Orientation (Angstroms)
    I     Atom           X                Y                Z
 ----------------------------------------------------------------
    1      C      -2.0420073048    -2.3308528297     2.7822958060
    2      C      -2.2830073048    -1.0668528297     2.0332958060
    3      O      -2.7340073048    -1.1038528297     0.8782958060
    4      N      -1.9620073048     0.0521471703     2.6512958060
    5      H      -2.7530073048    -3.0678528297     2.4182958060
    6      H      -2.2390073048    -2.1938528297     3.8382958060
    7      H      -2.1400073048     0.9301471703     2.1912958060
    8      H      -1.6040073048     0.0211471703     3.6072958060
    9      H      -0.9982073048    -2.6586748297     2.6681758060
 ----------------------------------------------------------------
 Nuclear Repulsion Energy =         122.77412419 hartrees
 There are       16 alpha and       16 beta electrons
 Requested basis set is def2-TZVPD
 There are 78 shells and 196 basis functions

 Total QAlloc Memory Limit  96000 MB
 Mega-Array Size      1956 MB
 MEM_STATIC part      2000 MB
 
 Citation of the SMD model:
 Marenich, A.V.; Cramer, C.J.; Truhlar, D.G.
 J. Phys. Chem. B 2009, 113, 6378-6396.
 iSolventCode=           1
 Solvent: water                                                           
 
 vradii
            1           2           3           4           5           6
    1   1.8500000   1.8500000   1.5200000   1.8900000   1.2000000   1.2000000
            7           8           9
    1   1.2000000   1.2000000   1.2000000
 Changing PCM_VDW_RADII to SMD_RADIUS
 Discretize the solute cavity surface with Lebedev spheres
	Using 110 Lebedev grid points for each H atom
	Using 194 Lebedev grid points for other atoms
	Atomic van der Waals radii will be scaled by 1.20
 Remove points where switching function is < 1.0e-08
 Keep 717 surface tesserae and discard 609 interior tesserae
 Molecular Surface Area = 89.656 Angst**2

                       Distance Matrix (Angstroms)
             C (  1)   C (  2)   O (  3)   N (  4)   H (  5)   H (  6)
   C (  2)  1.488885
   O (  3)  2.368461  1.240482
   N (  4)  2.387938  1.318001  2.252964
   H (  5)  1.086824  2.091202  2.495848  3.227130
   H (  6)  1.082919  2.128401  3.192918  2.555428  1.744842
   H (  7)  3.315570  2.008338  2.492782  1.007059  4.051087  3.532957
   H (  8)  2.530686  2.030335  3.160691  1.021304  3.503690  2.315774
   H (  9)  1.100004  2.141887  2.938391  2.877108  1.819118  1.767717
             H (  7)   H (  8)
   H (  8)  1.765965
   H (  9)  3.796151  2.903513
 
 A cutoff of  1.0D-14 yielded   3055 shell pairs
 There are     19545 function pairs (     24703 Cartesian)
 Smallest overlap matrix eigenvalue = 9.95E-06

 Scale SEOQF with 1.000000e-01/1.000000e-01/1.000000e-01

 Standard Electronic Orientation quadrupole field applied
 Nucleus-field energy     =    -0.0000000075 hartrees
 Guess from superposition of atomic densities
 Warning:  Energy on first SCF cycle will be non-variational
 SAD guess density has 31.604610 electrons

 -----------------------------------------------------------------------
  General SCF calculation program by
  Eric Jon Sundstrom, Paul Horn, Yuezhi Mao, Dmitri Zuev, Alec White,
  David Stuck, Shaama M.S., Shane Yost, Joonho Lee, David Small,
  Daniel Levine, Susi Lehtola, Hugh Burton, Evgeny Epifanovsky
 -----------------------------------------------------------------------
 Exchange:     0.1670 Hartree-Fock + 1.0000 wB97X-V + LR-HF
 Correlation:  1.0000 wB97X-V
 Using Euler-Maclaurin-Lebedev (99,590) quadrature formula
 Nonlocal Correlation:  VV10 with C = 0.0100 and b = 6.00 and scale = 1.00000
 Grid used for NLC:  SG-1 standard quadrature
Energy prior to optimization (guess energy) = -208.699989714802
Begin Timing: Total SCF Calculation
begin iterations for algorithm: DIIS         
the SCF tolerance is set to 1.00e-08
    1    -208.6999897148      1.26e-02     00000 
    2    -208.2904526870      1.56e-02     00000 
    3    -209.2341466168      2.45e-03     00000 
    4    -209.2542840342      7.96e-04     00000 
    5    -209.2575938170      2.05e-04     00000 
    6    -209.2578882121      6.91e-05     00000 
    7    -209.2579324589      2.18e-05     00000 
    8    -209.2579382064      6.35e-06     00000 
    9    -209.2579390761      2.18e-06     00000 
   10    -209.2579391334      4.96e-07     00000 
   11    -209.2579391354      1.56e-07     00000 
   12    -209.2579391356      2.00e-08     00000 
   13    -209.2579391356      4.87e-09     00000 Convergence criterion met
Timing for Total SCF: 348.00s (wall), 685.16s (cpu)
(3)  G-ENP(liq) elect-nuc-pol free energy of system     -209.257939136 a.u.
(4)  G-CDS(liq) cavity-dispersion-solvent structure 
     free energy                                                3.4440 kcal/mol
(6)  G-S(liq) free energy of system                     -209.252450768 a.u.
E_pcm = -0.0313509688
E_cds = 0.0054883677
Multipole orders to be included
        2
        3
computing dipole RHS
computing quadrupole RHS
total number of RHS in solve_reponses: 8
RHS batch sizes
        8
Beginning Block Conjugate Gradient Iterations. Batch Number: 0
computing hessian-vector products by finite difference
              1      6.77e-01     00000 Conjugate Gradient Iteration
computing hessian-vector products by finite difference
              2      2.13e-01     00000 Conjugate Gradient Iteration
computing hessian-vector products by finite difference
              3      5.61e-02     00000 Conjugate Gradient Iteration
computing hessian-vector products by finite difference
              4      1.41e-02     00000 Conjugate Gradient Iteration
computing hessian-vector products by finite difference
              5      2.02e-03     00000 Conjugate Gradient Iteration
computing hessian-vector products by finite difference
              6      4.72e-04     00000 Conjugate Gradient Iteration
computing hessian-vector products by finite difference
              7      6.52e-05     00000 Conjugate Gradient Iteration
computing hessian-vector products by finite difference
              8      7.20e-06     00000 Conjugate Gradient Iteration
computing hessian-vector products by finite difference
              9      1.02e-06     00000 Conjugate Gradient Iteration
computing hessian-vector products by finite difference
             10      1.51e-07     00000 Conjugate Gradient Iteration
computing hessian-vector products by finite difference
             11      2.55e-08     00000 Conjugate Gradient Iteration
computing hessian-vector products by finite difference
             12      3.13e-09     00000 CG Converged
batch 0 complete
Done Calculating Responses
TESTING ORTHOGONALIZATION OF MULTIPOLE BASIS
Multipole virts passed orthogonality test
Virts Per Order
        48
        80
 
 --------------------------------------------------------------
 
                    Orbital Energies (a.u.)
 --------------------------------------------------------------
 
 Alpha MOs
 -- Occupied --
-19.1824 -14.4289 -10.3758 -10.2586  -1.1715  -1.0441  -0.8674  -0.7083
 -0.6518  -0.5933  -0.5676  -0.5190  -0.4953  -0.4765  -0.3842  -0.3753
 -- Virtual --
  0.0643   0.0949   0.0965   0.1034   0.1296   0.1344   0.1415   0.1491
  0.1762   0.1884   0.2020   0.2195   0.2299   0.2451   0.2494   0.2638
  0.2656   0.2784   0.3070   0.3170   0.3352   0.3392   0.3489   0.3511
  0.3613   0.3695   0.3790   0.3814   0.3985   0.4108   0.4164   0.4233
  0.4359   0.4544   0.4618   0.4816   0.4841   0.4916   0.4931   0.5054
  0.5264   0.5365   0.5458   0.5730   0.5863   0.5968   0.6223   0.6369
  0.6438   0.6548   0.6756   0.6980   0.7111   0.7213   0.7267   0.7628
  0.7814   0.7892   0.7986   0.8139   0.8233   0.8435   0.8551   0.8696
  0.9221   0.9502   0.9874   0.9988   1.0023   1.0383   1.0595   1.0971
  1.1062   1.1889   1.2268   1.2547   1.2882   1.3318   1.3374   1.3852
  1.4846   1.4995   1.5099   1.6300   1.6723   1.7396   1.7471   1.8117
  1.8471   1.8689   1.9083   1.9233   1.9326   1.9545   1.9967   2.0308
  2.0619   2.0903   2.1560   2.1910   2.2312   2.2485   2.3034   2.3636
  2.3966   2.4041   2.4433   2.4883   2.5541   2.5596   2.6006   2.6464
  2.6907   2.7123   2.7851   2.8239   2.8340   2.9293   2.9675   2.9871
  3.0592   3.0995   3.1361   3.1764   3.2095   3.2383   3.2649   3.2815
  3.3112   3.3396   3.3451   3.4326   3.4570   3.5344   3.5582   3.5927
  3.6241   3.6541   3.7031   3.7872   3.9068   3.9472   4.0300   4.0732
  4.0820   4.1978   4.3198   4.3923   4.5632   4.6093   4.6350   4.6748
  4.7976   4.8932   4.8963   4.9531   5.1564   5.1859   5.2619   5.3495
  5.3876   5.3957   5.4182   5.4752   5.5377   5.7682   5.9086   6.1363
  6.2375   6.5062   6.6349   6.7322   6.8169   6.9701   7.2176   7.3084
 22.6260  23.5981  32.4199  44.3105
 --------------------------------------------------------------
 
          Ground-State Mulliken Net Atomic Charges

     Atom                 Charge (a.u.)
  ----------------------------------------
      1 C                    -0.647705
      2 C                     0.447884
      3 O                    -0.711216
      4 N                    -0.300824
      5 H                     0.226470
      6 H                     0.258202
      7 H                     0.252651
      8 H                     0.249957
      9 H                     0.224583
  ----------------------------------------
  Sum of atomic charges =     0.000000

 -----------------------------------------------------------------
                    Cartesian Multipole Moments
 -----------------------------------------------------------------
    Charge (ESU x 10^10)
                 0.0000
    Dipole Moment (Debye)
         X       2.1782      Y       1.4103      Z       5.6267
       Tot       6.1962
    Quadrupole Moments (Debye-Ang)
        XX     -35.0435     XY      -5.1708     YY     -22.0875
        XZ      -8.8137     YZ      -2.5557     ZZ      -3.4375
    Octopole Moments (Debye-Ang^2)
       XXX     203.5439    XXY      43.6408    XYY      52.0472
       YYY      82.7698    XXZ     -41.0879    XYZ       3.8409
       YYZ     -39.9902    XZZ      19.1635    YZZ      16.9781
       ZZZ     -85.5606
    Hexadecapole Moments (Debye-Ang^3)
      XXXX    -913.1201   XXXY    -235.5687   XXYY    -186.2807
      XYYY    -187.8068   YYYY    -348.6279   XXXZ     328.3777
      XXYZ      55.3394   XYYZ      86.4314   YYYZ     173.9683
      XXZZ    -206.7754   XYZZ     -39.7632   YYZZ    -159.6727
      XZZZ     215.4661   YZZZ     154.2846   ZZZZ    -544.1000
 -----------------------------------------------------------------
Archival summary:
1\1\nid00506\SP\ProcedureUnspecified\BasisUnspecified\1125\meili\SunSep2610:03:112021SunSep2610:03:112021\0\\#,ProcedureUnspecified,BasisUnspecified,\\0,1\C\O,1,1.24048\N,1,1.318,2,123.398\H,3,1.00706,1,118.88,2,3.81617,0\H,3,1.0213,1,119.902,2,179.348,0\C,1,1.48888,2,120.127,3,-178.266,0\H,6,1.08292,1,110.714,2,-145.666,0\H,6,1.08682,1,107.537,2,-29.0227,0\H,6,1.1,1,110.757,2,94.3696,0\\\@

 Total job time:  6132.27s(wall), 12100.41s(cpu) 
 Sun Sep 26 10:03:11 2021

        *************************************************************
        *                                                           *
        *  Thank you very much for using Q-Chem.  Have a nice day.  *
        *                                                           *
        *************************************************************


Done Job For Fragment 0
calling putenv with: QCSCRATCH=/global/cscratch1/sd/meili 
calling putenv with: QCLOCALSCR=/tmp 
calling putenv with: QCTHREADS=32 
Creating input file /tmp/qchem23924/Frg2.input
using default PutDataFrgm: nothing
calling putenv with: QCSCRATCH=/tmp/qchem23924/ 
calling putenv with: QCLOCALSCR=/tmp/qchem23924/ 
Spawning Job For Fragment 1
                  Welcome to Q-Chem
     A Quantum Leap Into The Future Of Chemistry


 Q-Chem 5.2, Q-Chem, Inc., Pleasanton, CA (2019)

 License issued to: National Energy Research Scientific Computing Center

 Yihan Shao,  Zhengting Gan,  E. Epifanovsky,  A. T. B. Gilbert,  M. Wormit,  
 J. Kussmann,  A. W. Lange,  A. Behn,  Jia Deng,  Xintian Feng,  D. Ghosh,  
 M. Goldey,  P. R. Horn,  L. D. Jacobson,  I. Kaliman,  T. Kus,  A. Landau,  
 Jie Liu,  E. I. Proynov,  R. M. Richard,  R. P. Steele,  E. J. Sundstrom,  
 H. L. Woodcock III,  P. M. Zimmerman,  D. Zuev,  B. Albrecht,  E. Alguire,  
 S. A. Baeppler,  D. Barton,  Z. Benda,  Y. A. Bernard,  E. J. Berquist,  
 K. B. Bravaya,  H. Burton,  D. Casanova,  Chun-Min Chang,  Yunqing Chen,  
 A. Chien,  K. D. Closser,  M. P. Coons,  S. Coriani,  S. Dasgupta,  
 A. L. Dempwolff,  M. Diedenhofen,  Hainam Do,  R. G. Edgar,  Po-Tung Fang,  
 S. Faraji,  S. Fatehi,  Qingguo Feng,  K. D. Fenk,  J. Fosso-Tande,  
 J. Gayvert,  Qinghui Ge,  A. Ghysels,  G. Gidofalvi,  J. Gomes,  
 J. Gonthier,  A. Gunina,  D. Hait,  M. W. D. Hanson-Heine,  
 P. H. P. Harbach,  A. W. Hauser,  M. F. Herbst,  J. E. Herr,  
 E. G. Hohenstein,  Z. C. Holden,  Kerwin Hui,  B. C. Huynh,  T.-C. Jagau,  
 Hyunjun Ji,  B. Kaduk,  K. Khistyaev,  Jaehoon Kim,  P. Klunzinger,  K. Koh,  
 D. Kosenkov,  L. Koulias,  T. Kowalczyk,  C. M. Krauter,  A. Kunitsa,  
 Ka Un Lao,  A. Laurent,  K. V. Lawler,  Joonho Lee,  D. Lefrancois,  
 S. Lehtola,  D. S. Levine,  Yi-Pei Li,  You-Sheng Lin,  Fenglai Liu,  
 E. Livshits,  A. Luenser,  P. Manohar,  E. Mansoor,  S. F. Manzer,  
 Shan-Ping Mao,  Yuezhi Mao,  N. Mardirossian,  A. V. Marenich,  
 T. Markovich,  L. A. Martinez-Martinez,  S. A. Maurer,  N. J. Mayhall,  
 S. C. McKenzie,  J.-M. Mewes,  P. Morgante,  A. F. Morrison,  
 J. W. Mullinax,  K. Nanda,  T. S. Nguyen-Beck,  R. Olivares-Amaya,  
 J. A. Parkhill,  Zheng Pei,  T. M. Perrine,  F. Plasser,  P. Pokhilko,  
 S. Prager,  A. Prociuk,  E. Ramos,  D. R. Rehn,  F. Rob,  M. Scheurer,  
 M. Schneider,  N. Sergueev,  S. M. Sharada,  S. Sharma,  D. W. Small,  
 T. Stauch,  T. Stein,  Yu-Chuan Su,  A. J. W. Thom,  A. Tkatchenko,  
 T. Tsuchimochi,  N. M. Tubman,  L. Vogt,  M. L. Vidal,  O. Vydrov,  
 M. A. Watson,  J. Wenzel,  M. de Wergifosse,  T. A. Wesolowski,  A. White,  
 J. Witte,  A. Yamada,  Jun Yang,  K. Yao,  S. Yeganeh,  S. R. Yost,  
 Zhi-Qiang You,  A. Zech,  Igor Ying Zhang,  Xing Zhang,  Yan Zhao,  
 Ying Zhu,  B. R. Brooks,  G. K. L. Chan,  C. J. Cramer,  M. S. Gordon,  
 W. J. Hehre,  A. Klamt,  M. W. Schmidt,  C. D. Sherrill,  D. G. Truhlar,  
 A. Aspuru-Guzik,  R. Baer,  A. T. Bell,  N. A. Besley,  Jeng-Da Chai,  
 A. E. DePrince, III,  R. A. DiStasio Jr.,  A. Dreuw,  B. D. Dunietz,  
 T. R. Furlani,  Chao-Ping Hsu,  Yousung Jung,  Jing Kong,  D. S. Lambrecht,  
 WanZhen Liang,  C. Ochsenfeld,  V. A. Rassolov,  L. V. Slipchenko,  
 J. E. Subotnik,  T. Van Voorhis,  J. M. Herbert,  A. I. Krylov,  
 P. M. W. Gill,  M. Head-Gordon

 Contributors to earlier versions of Q-Chem not listed above: 
 R. D. Adamson,  B. Austin,  J. Baker,  G. J. O. Beran,  K. Brandhorst,  
 S. T. Brown,  E. F. C. Byrd,  A. K. Chakraborty,  C.-L. Cheng,  
 Siu Hung Chien,  D. M. Chipman,  D. L. Crittenden,  H. Dachsel,  
 R. J. Doerksen,  A. D. Dutoi,  L. Fusti-Molnar,  W. A. Goddard III,  
 A. Golubeva-Zadorozhnaya,  S. R. Gwaltney,  G. Hawkins,  A. Heyden,  
 S. Hirata,  G. Kedziora,  F. J. Keil,  C. Kelley,  Jihan Kim,  R. A. King,  
 R. Z. Khaliullin,  P. P. Korambath,  W. Kurlancheek,  A. M. Lee,  M. S. Lee,  
 S. V. Levchenko,  Ching Yeh Lin,  D. Liotard,  R. C. Lochan,  I. Lotan,  
 P. E. Maslen,  N. Nair,  D. P. O'Neill,  D. Neuhauser,  E. Neuscamman,  
 C. M. Oana,  R. Olson,  B. Peters,  R. Peverati,  P. A. Pieniazek,  
 Y. M. Rhee,  J. Ritchie,  M. A. Rohrdanz,  E. Rosta,  N. J. Russ,  
 H. F. Schaefer III,  N. E. Schultz,  N. Shenvi,  A. C. Simmonett,  A. Sodt,  
 D. Stuck,  K. S. Thanthiriwatte,  V. Vanovschi,  Tao Wang,  A. Warshel,  
 C. F. Williams,  Q. Wu,  X. Xu,  W. Zhang

 Please cite Q-Chem as follows:
 Y. Shao et al., Mol. Phys. 113, 184-215 (2015)
 DOI: 10.1080/00268976.2014.952696

 Q-Chem 5.2.0 for Intel X86 EM64T Linux

 Parts of Q-Chem use Armadillo 8.300.2 (Tropical Shenanigans).
 http://arma.sourceforge.net/

 Q-Chem begins on Sun Sep 26 10:03:12 2021  

Host: cori01
0

     Scratch files written to /tmp/qchem23924//Frg2//
 May1019 |scratch|qcdevops|jenkins|workspace|build_RNUM -1
Processing $rem in /global/common/cori/software/qchem/5.2/config/preferences:
	 MEM_TOTAL  96000 
NAlpha2: 58
NElect   58
Mult     1
Symmetry turned off for PCM/SM12/SMD calculation

Checking the input file for inconsistencies... 	...done.

--------------------------------------------------------------
User input:
--------------------------------------------------------------
$molecule
0 1
 6	0.6879926952	-1.6958528297	-2.9717041940
 6	0.5239926952	0.7001471703	0.0402958060
 6	1.4949926952	1.6601471703	-0.2697041940
 6	0.2479926952	-0.3588528297	-0.8377041940
 6	0.9219926952	-0.4828528297	-2.0607041940
 6	2.2039926952	1.5431471703	-1.4847041940
 6	1.9159926952	0.4561471703	-2.3657041940
 8	1.7299926952	2.7001471703	0.6002958060
 1	-0.0060073048	0.7801471703	0.9752958060
 1	-0.4950073048	-1.0948528297	-0.5637041940
 1	2.9639926952	2.2681471703	-1.7427041940
 1	2.4039926952	3.3011471703	0.2602958060
 1	0.7049926952	-1.3998528297	-4.0217041940
 1	-0.2970073048	-2.1058528297	-2.7457041940
 1	2.4679926952	0.3681471703	-3.2927041940
 1	1.4654526952	-2.4455468297	-2.7631041940
$end
$rem
EDA2		1
METHOD		WB97X-V
BASIS		DEF2-TZVPD
XC_GRID		000099000590
NL_GRID		1
UNRESTRICTED		FALSE
MAX_SCF_CYCLES		200
SYMMETRY		FALSE
SYM_IGNORE		TRUE
BASIS_LIN_DEP_THRESH		6
THRESH		14
SCF_CONVERGENCE		8
SCF_PRINT_FRGM		TRUE
SOLVENT_METHOD		SMD
!required keywords
JOBTYPE		SP
SYM_IGNORE		TRUE
SUBSYSTEM		TRUE
GEN_SCFMAN		TRUE
CHILD_INSTRUCTION		2
SYM_IGNORE		TRUE
SCFMI		0
RI_K 0		
PARI_K 0		
MIN_PARI_K 0		
IARI_K 0		
OCC_RI_K 0		
PURECART		1111
MEM_STATIC		2000
MEM_TOTAL		96000
GUI		0
CHILD_MP		1
CHILD_MP_ORDERS		232
FRZ_RELAX		0
FRZ_RELAX_METHOD		0
EDA_CLS_ELEC		1
EDA_CLS_DISP		0
FRZ_ORTHO_DECOMP		1
EDA2		FALSE
FRGM_METHOD		FALSE
CIS_N_ROOTS  0
LOCAL_CIS    0
CIS_RLX_DNS  1
$end
$smx
SOLVENT			WATER
$end
--------------------------------------------------------------
 ----------------------------------------------------------------
             Standard Nuclear Orientation (Angstroms)
    I     Atom           X                Y                Z
 ----------------------------------------------------------------
    1      C       0.6879926952    -1.6958528297    -2.9717041940
    2      C       0.5239926952     0.7001471703     0.0402958060
    3      C       1.4949926952     1.6601471703    -0.2697041940
    4      C       0.2479926952    -0.3588528297    -0.8377041940
    5      C       0.9219926952    -0.4828528297    -2.0607041940
    6      C       2.2039926952     1.5431471703    -1.4847041940
    7      C       1.9159926952     0.4561471703    -2.3657041940
    8      O       1.7299926952     2.7001471703     0.6002958060
    9      H      -0.0060073048     0.7801471703     0.9752958060
   10      H      -0.4950073048    -1.0948528297    -0.5637041940
   11      H       2.9639926952     2.2681471703    -1.7427041940
   12      H       2.4039926952     3.3011471703     0.2602958060
   13      H       0.7049926952    -1.3998528297    -4.0217041940
   14      H      -0.2970073048    -2.1058528297    -2.7457041940
   15      H       2.4679926952     0.3681471703    -3.2927041940
   16      H       1.4654526952    -2.4455468297    -2.7631041940
 ----------------------------------------------------------------
 Nuclear Repulsion Energy =         339.62953386 hartrees
 There are       29 alpha and       29 beta electrons
 Requested basis set is def2-TZVPD
 There are 145 shells and 371 basis functions

 Total QAlloc Memory Limit  96000 MB
 Mega-Array Size      1956 MB
 MEM_STATIC part      2000 MB
 
 Citation of the SMD model:
 Marenich, A.V.; Cramer, C.J.; Truhlar, D.G.
 J. Phys. Chem. B 2009, 113, 6378-6396.
 iSolventCode=           1
 Solvent: water                                                           
 
 vradii
            1           2           3           4           5           6
    1   1.8500000   1.8500000   1.8500000   1.8500000   1.8500000   1.8500000
            7           8           9          10          11          12
    1   1.8500000   1.5200000   1.2000000   1.2000000   1.2000000   1.2000000
           13          14          15          16
    1   1.2000000   1.2000000   1.2000000   1.2000000
 Changing PCM_VDW_RADII to SMD_RADIUS
 Discretize the solute cavity surface with Lebedev spheres
	Using 110 Lebedev grid points for each H atom
	Using 194 Lebedev grid points for other atoms
	Atomic van der Waals radii will be scaled by 1.20
 Remove points where switching function is < 1.0e-08
 Keep 1178 surface tesserae and discard 1254 interior tesserae
 Molecular Surface Area = 142.821 Angst**2
 A cutoff of  1.0D-14 yielded  10030 shell pairs
 There are     66946 function pairs (     85597 Cartesian)
 Smallest overlap matrix eigenvalue = 6.45E-07
 Linear dependence detected in AO basis
 Tighter screening thresholds may be required for diffuse basis sets
 Use S2THRESH > 14 and THRESH = 14 in case of SCF convergence issues
 Number of orthogonalized atomic orbitals = 370
 Maximum deviation from orthogonality = 1.690E-10

 Scale SEOQF with 1.000000e-01/1.000000e-01/1.000000e-01

 Standard Electronic Orientation quadrupole field applied
 Nucleus-field energy     =    -0.0000000046 hartrees
 Guess from superposition of atomic densities
 Warning:  Energy on first SCF cycle will be non-variational
 SAD guess density has 57.738434 electrons

 -----------------------------------------------------------------------
  General SCF calculation program by
  Eric Jon Sundstrom, Paul Horn, Yuezhi Mao, Dmitri Zuev, Alec White,
  David Stuck, Shaama M.S., Shane Yost, Joonho Lee, David Small,
  Daniel Levine, Susi Lehtola, Hugh Burton, Evgeny Epifanovsky
 -----------------------------------------------------------------------
 Exchange:     0.1670 Hartree-Fock + 1.0000 wB97X-V + LR-HF
 Correlation:  1.0000 wB97X-V
 Using Euler-Maclaurin-Lebedev (99,590) quadrature formula
 Nonlocal Correlation:  VV10 with C = 0.0100 and b = 6.00 and scale = 1.00000
 Grid used for NLC:  SG-1 standard quadrature
Energy prior to optimization (guess energy) = -346.496908357625
Begin Timing: Total SCF Calculation
begin iterations for algorithm: DIIS         
the SCF tolerance is set to 1.00e-08
    1    -346.4969083576      5.16e-03     00000 
    2    -346.4279192192      5.63e-03     00000 
    3    -346.8188947917      5.26e-04     00000 
    4    -346.8237653216      1.74e-04     00000 
    5    -346.8244615744      3.85e-05     00000 
    6    -346.8245136141      1.46e-05     00000 
    7    -346.8245190111      5.39e-06     00000 
    8    -346.8245198552      1.63e-06     00000 
    9    -346.8245199515      5.60e-07     00000 
   10    -346.8245199643      2.40e-07     00000 
   11    -346.8245199675      6.52e-08     00000 
   12    -346.8245199679      3.48e-08     00000 
   13    -346.8245199680      1.27e-08     00000 
   14    -346.8245199681      3.93e-09     00000 Convergence criterion met
Timing for Total SCF: 2144.00s (wall), 4264.18s (cpu)
(3)  G-ENP(liq) elect-nuc-pol free energy of system     -346.824519968 a.u.
(4)  G-CDS(liq) cavity-dispersion-solvent structure 
     free energy                                                3.8180 kcal/mol
(6)  G-S(liq) free energy of system                     -346.818435611 a.u.
E_pcm = -0.0177514880
E_cds = 0.0060843572
Multipole orders to be included
        2
        3
computing dipole RHS
computing quadrupole RHS
total number of RHS in solve_reponses: 8
RHS batch sizes
        8
Beginning Block Conjugate Gradient Iterations. Batch Number: 0
computing hessian-vector products by finite difference
              1      6.41e-01     00000 Conjugate Gradient Iteration
computing hessian-vector products by finite difference
              2      1.89e-01     00000 Conjugate Gradient Iteration
computing hessian-vector products by finite difference
              3      4.88e-02     00000 Conjugate Gradient Iteration
computing hessian-vector products by finite difference
              4      1.39e-02     00000 Conjugate Gradient Iteration
computing hessian-vector products by finite difference
              5      3.46e-03     00000 Conjugate Gradient Iteration
computing hessian-vector products by finite difference
              6      1.38e-03     00000 Conjugate Gradient Iteration
computing hessian-vector products by finite difference
              7      3.21e-04     00000 Conjugate Gradient Iteration
computing hessian-vector products by finite difference
              8      6.34e-05     00000 Conjugate Gradient Iteration
computing hessian-vector products by finite difference
              9      1.19e-05     00000 Conjugate Gradient Iteration
computing hessian-vector products by finite difference
             10      1.67e-06     00000 Conjugate Gradient Iteration
computing hessian-vector products by finite difference
             11      2.29e-07     00000 Conjugate Gradient Iteration
computing hessian-vector products by finite difference
             12      3.82e-08     00000 Conjugate Gradient Iteration
computing hessian-vector products by finite difference
             13      7.90e-09     00000 CG Converged
batch 0 complete
Done Calculating Responses
TESTING ORTHOGONALIZATION OF MULTIPOLE BASIS
Multipole virts passed orthogonality test
Virts Per Order
           87
          145
 
 --------------------------------------------------------------
 
                    Orbital Energies (a.u.)
 --------------------------------------------------------------
 
 Alpha MOs
 -- Occupied --
-19.2420 -10.3364 -10.2763 -10.2742 -10.2736 -10.2720 -10.2693 -10.2564
 -1.1860  -0.9847  -0.8932  -0.8730  -0.8038  -0.7409  -0.7065  -0.6566
 -0.5924  -0.5727  -0.5453  -0.5343  -0.5228  -0.5158  -0.5062  -0.4738
 -0.4463  -0.4388  -0.4348  -0.3455  -0.3119
 -- Virtual --
  0.0594   0.0634   0.0737   0.0808   0.0891   0.0996   0.1140   0.1156
  0.1191   0.1363   0.1492   0.1527   0.1601   0.1774   0.1822   0.1977
  0.2050   0.2102   0.2234   0.2306   0.2378   0.2414   0.2531   0.2573
  0.2667   0.2704   0.2730   0.2807   0.2869   0.2971   0.3013   0.3067
  0.3094   0.3148   0.3181   0.3260   0.3381   0.3432   0.3479   0.3532
  0.3586   0.3606   0.3658   0.3746   0.3790   0.3836   0.3863   0.3944
  0.3978   0.3997   0.4026   0.4109   0.4145   0.4188   0.4276   0.4322
  0.4388   0.4533   0.4603   0.4636   0.4747   0.4762   0.4803   0.4847
  0.4876   0.4965   0.4984   0.5041   0.5124   0.5162   0.5274   0.5412
  0.5421   0.5468   0.5537   0.5577   0.5613   0.5712   0.5851   0.5941
  0.6053   0.6078   0.6204   0.6302   0.6408   0.6570   0.6638   0.6756
  0.6799   0.6859   0.6891   0.6945   0.6957   0.7015   0.7192   0.7284
  0.7333   0.7428   0.7495   0.7543   0.7612   0.7794   0.7824   0.7889
  0.7908   0.7950   0.7992   0.8022   0.8077   0.8115   0.8312   0.8383
  0.8467   0.8521   0.8574   0.8586   0.8644   0.8778   0.8852   0.8903
  0.9027   0.9166   0.9248   0.9469   0.9612   0.9750   0.9944   1.0075
  1.0170   1.0332   1.0428   1.0491   1.0515   1.0698   1.0742   1.0829
  1.1003   1.1132   1.1397   1.1739   1.1914   1.2341   1.2564   1.2884
  1.3050   1.3106   1.3265   1.3518   1.3540   1.3831   1.3938   1.4313
  1.4535   1.4666   1.4695   1.4744   1.5221   1.5498   1.5996   1.6185
  1.6269   1.6344   1.6803   1.6826   1.6916   1.7209   1.7881   1.8003
  1.8176   1.8274   1.8346   1.8535   1.8606   1.8800   1.9179   1.9278
  1.9488   1.9623   1.9747   1.9916   2.0031   2.0300   2.0434   2.0556
  2.0585   2.0772   2.0924   2.1029   2.1142   2.1605   2.1978   2.1992
  2.2236   2.2322   2.2624   2.2733   2.2884   2.3197   2.3437   2.3680
  2.3969   2.3995   2.4305   2.4539   2.4943   2.5034   2.5104   2.5518
  2.5763   2.5993   2.6057   2.6355   2.6488   2.6672   2.6827   2.7351
  2.7437   2.7549   2.7758   2.7863   2.8265   2.8354   2.8612   2.8763
  2.9029   2.9118   2.9341   2.9395   2.9475   2.9742   2.9797   3.0008
  3.0118   3.0298   3.0459   3.0860   3.0888   3.1401   3.1513   3.1529
  3.1689   3.1915   3.2081   3.2267   3.2493   3.2616   3.2746   3.2968
  3.3261   3.3499   3.3763   3.3829   3.3985   3.4011   3.4409   3.4545
  3.4636   3.4791   3.4843   3.4987   3.5106   3.5175   3.5246   3.5381
  3.5551   3.5662   3.5678   3.5823   3.5996   3.6053   3.6369   3.6585
  3.6730   3.6930   3.7321   3.7526   3.7906   3.8097   3.8238   3.8809
  3.9256   3.9405   3.9533   3.9826   4.0105   4.0719   4.1179   4.1337
  4.2273   4.2435   4.2611   4.2745   4.2957   4.3103   4.3125   4.3409
  4.3521   4.3592   4.4089   4.4256   4.4531   4.5207   4.5851   4.6068
  4.7085   4.7123   4.7548   4.7741   4.8536   4.9265   5.0003   5.0361
  5.0707   5.1193   5.1444   5.2737   5.2876   5.3821   5.4039   5.5214
  5.6053   5.6113   5.6966   5.7464   5.9208   6.1937   6.4326   6.5838
  6.6256   6.8652   6.9944   7.3012   7.4457  22.6365  22.6796  22.9064
 22.9202  22.9839  23.1160  23.4277  44.4036
 --------------------------------------------------------------
 
          Ground-State Mulliken Net Atomic Charges

     Atom                 Charge (a.u.)
  ----------------------------------------
      1 C                    -1.040411
      2 C                    -0.739875
      3 C                     0.601669
      4 C                    -0.477448
      5 C                     0.465413
      6 C                    -0.430365
      7 C                    -0.562835
      8 O                    -0.537273
      9 H                     0.403895
     10 H                     0.382859
     11 H                     0.372173
     12 H                     0.333587
     13 H                     0.296976
     14 H                     0.294362
     15 H                     0.399824
     16 H                     0.237451
  ----------------------------------------
  Sum of atomic charges =     0.000000

 -----------------------------------------------------------------
                    Cartesian Multipole Moments
 -----------------------------------------------------------------
    Charge (ESU x 10^10)
                 0.0000
    Dipole Moment (Debye)
         X       1.2742      Y       0.1121      Z      -1.5788
       Tot       2.0319
    Quadrupole Moments (Debye-Ang)
        XX     -41.5970     XY       8.6013     YY     -41.8451
        XZ      -5.3657     YZ      -1.1224     ZZ     -45.6061
    Octopole Moments (Debye-Ang^2)
       XXX    -152.8449    XXY       4.8988    XYY     -26.9447
       YYY     -46.9828    XXZ      46.9975    XYZ      -7.8668
       YYZ      49.6972    XZZ     -48.7980    YZZ     -31.3394
       ZZZ     161.1895
    Hexadecapole Moments (Debye-Ang^3)
      XXXX    -581.1003   XXXY     -93.4808   XXYY    -116.1233
      XYYY     -71.2488   YYYY    -591.8274   XXXZ     188.1250
      XXYZ     -53.0919   XYYZ      52.8803   YYYZ    -120.8805
      XXZZ    -238.2076   XYZZ     -62.2717   YYZZ    -287.0406
      XZZZ     172.4775   YZZZ     -93.0896   ZZZZ    -889.6398
 -----------------------------------------------------------------
Archival summary:
1\1\nid00506\SP\ProcedureUnspecified\BasisUnspecified\178\meili\SunSep2620:37:582021SunSep2620:37:582021\0\\#,ProcedureUnspecified,BasisUnspecified,\\0,1\C\O,1,1.37613\H,2,0.964923,1,111.545\C,1,1.40019,2,119.776,3,-178.553,0\H,4,1.07774,1,118.83,2,-1.6812,0\C,4,1.40305,1,121.022,2,178.966,0\H,6,1.08112,4,119.369,1,178.937,0\C,6,1.40192,4,121.205,1,-0.790713,0\C,8,1.40099,6,118.147,4,2.1619,0\H,9,1.08249,8,119.587,6,178.498,0\C,1,1.41159,2,121.401,3,0.743365,0\H,11,1.08157,1,120.179,2,1.16194,0\C,8,1.53494,6,120.955,4,175.643,0\H,13,1.0906,8,108.167,6,24.3874,0\H,13,1.09106,8,110.757,6,143.038,0\H,13,1.1,8,108.56,6,-95.0051,0\\\@

 Total job time:  38086.98s(wall), 75611.24s(cpu) 
 Sun Sep 26 20:37:59 2021

        *************************************************************
        *                                                           *
        *  Thank you very much for using Q-Chem.  Have a nice day.  *
        *                                                           *
        *************************************************************


Done Job For Fragment 1
calling putenv with: QCSCRATCH=/global/cscratch1/sd/meili 
calling putenv with: QCLOCALSCR=/tmp 
calling putenv with: QCTHREADS=32 
Doing General SCFMI
 Exchange:     0.1670 Hartree-Fock + 1.0000 wB97X-V + LR-HF
 Correlation:  1.0000 wB97X-V
 Using Euler-Maclaurin-Lebedev (99,590) quadrature formula
 Nonlocal Correlation:  VV10 with C = 0.0100 and b = 6.00 and scale = 1.00000
 Grid used for NLC:  SG-1 standard quadrature
performing fock build before subrot guess so that all methods have access
Printing subrot_rss_gen Method Specification:
Occupied Subspace Method is 0
Virtual Subspace Method is 0
Energy of the unrelaxed supersystem initial determinant -556.036849439856
performing fock build before subrot guess so that all methods have access
Printing subrot_rss_gen Method Specification:
Occupied Subspace Method is 0
Virtual Subspace Method is 0
Energy of the unrelaxed supersystem initial determinant w/ solvent -556.083491671310
write pseudocanon occs and virts to disk
write pseudocanon orbital energies to disk
Tolerance of ortho_decomp_scf: 1.00e-06
GDM subspace size: 20
Beginning the Orthogonal Decomposition of the Initial Supersystem Wavefunction
    1    -556.0187033784      2.66e-02     ortho_decomp Preconditoned Steepest Descent
    2    -556.0207620386      7.44e-04     ortho_decomp BFGS Step
    3    -556.0207702988      5.39e-05     ortho_decomp BFGS Step
    4    -556.0207703093      2.11e-06     ortho_decomp BFGS Step
    5    -556.0207703093      8.24e-08     ortho_decomp 00000 Convergence criterion met
 Hartree-Fock
 Hartree-Fock
 Hartree-Fock
Doing General SCFMI
 Exchange:     0.1670 Hartree-Fock + 1.0000 wB97X-V + LR-HF
 Correlation:  1.0000 wB97X-V
 Using Euler-Maclaurin-Lebedev (99,590) quadrature formula
 Nonlocal Correlation:  VV10 with C = 0.0100 and b = 6.00 and scale = 1.00000
 Grid used for NLC:  SG-1 standard quadrature
performing fock build at end of subrot_r(subrot) constructor so that all methods have access
<S^2> of initial wavefunction before polarization iterations 0.0000000000
Beginning iterations for the determination of the polarized wavefunction
Energy prior to optimization (guess energy) = -556.083491671309
Begin Timing: Total SCF Calculation
begin iterations for algorithm: DIIS         
the SCF tolerance is set to 1.00e-08
    1    -556.0834916713      3.41e-05     00000 
    2    -556.0835769305      1.87e-05     00000 
    3    -556.0835890256      9.40e-06     00000 
    4    -556.0835929377      3.19e-06     00000 
    5    -556.0835934150      1.15e-06     00000 
    6    -556.0835935250      4.52e-07     00000 
    7    -556.0835935389      1.47e-07     00000 
    8    -556.0835935406      4.42e-08     00000 
    9    -556.0835935407      2.12e-08     00000 
   10    -556.0835935408      7.88e-09     00000 Convergence criterion met
write pseudocanon occs and virts to disk
write pseudocanon orbital energies to disk
Timing for Total SCF: 4765.00s (wall), 9486.97s (cpu)
<S^2> of polarized wavefunction after polarization iterations 0.0000000000
relaxing scfmi constraint to allow all rotations in the entire AO span
Doing General SCFMI
 Exchange:     0.1670 Hartree-Fock + 1.0000 wB97X-V + LR-HF
 Correlation:  1.0000 wB97X-V
 Using Euler-Maclaurin-Lebedev (99,590) quadrature formula
 Nonlocal Correlation:  VV10 with C = 0.0100 and b = 6.00 and scale = 1.00000
 Grid used for NLC:  SG-1 standard quadrature
performing fock build at end of subrot_r(subrot) constructor so that all methods have access
<S^2> of polarized wavefunction before ct-allowed iterations 0.0000000000
Beginning iterations for the determination of the CT-Allowed wavefunction
Energy prior to optimization (guess energy) = -556.083593540759
Begin Timing: Total SCF Calculation
begin iterations for algorithm: DIIS         
the SCF tolerance is set to 1.00e-08
    1    -556.0835935408      6.43e-05     00000 
    2    -556.0842310454      6.75e-06     00000 
    3    -556.0842489592      1.28e-06     00000 
    4    -556.0842494246      1.06e-06     00000 
    5    -556.0842495524      1.66e-07     00000 
    6    -556.0842495582      1.00e-07     00000 
    7    -556.0842495598      1.60e-08     00000 
    8    -556.0842495599      6.32e-09     00000 Convergence criterion met
write pseudocanon occs and virts to disk
write pseudocanon orbital energies to disk
Timing for Total SCF: 3744.00s (wall), 7452.52s (cpu)
<S^2> of ct_allowed wavefunction after ct-allowed iterations 0.0000000000

================================
        Results of EDA2         
================================
Basic EDA Quantities
--------------------
Fragment Energies (Ha):
1 -209.2524507679
2 -346.8184356109
--------------------
  E_prp (kJ/mol) = 0.0000
  E_sol (kJ/mol) = 5.0018
  E_frz (kJ/mol) = -9.1704
  E_pol (kJ/mol) = -0.2675
  E_vct (kJ/mol) = -1.7224
  E_int (kJ/mol) = -6.1585
--------------------


Initial Wavefunction Decomposition
--------------------
  --------------------
  Orthogonal Fragment Subspace Decomposition:
  --------------------
     E_elec   (ELEC)   (kJ/mol) = -23.0499
     E_pauli  (PAULI)  (kJ/mol) = 25.6989
     E_disp   (DISP)   (kJ/mol) = -11.8195
     --------------------
     Terms summing to E_pauli:
     --------------------
        E_kep_pauli       (kJ/mol) = 33.0458
        E_disp_free_pauli (kJ/mol) = -7.3469
  --------------------
  Classical Frozen Decomposition:
  --------------------
     E_cls_elec  (CLS ELEC)  (kJ/mol) = -10.6787
     E_cls_pauli (CLS PAULI) (kJ/mol) = 1.5083
    [E_mod_pauli (MOD PAULI) (kJ/mol) = 13.3277 (CLS PAULI - DISP from orthogonal decomposition) ]
  --------------------
--------------------

Simplified EDA Summary (kJ/mol)
--------------------
 PREPARATION     0.0000
 SOLVATION       5.0018
 FROZEN          2.6490      (does not include dispersion)
[PAULI           25.6989]     (if this is negligible, then frozen describes electrostatics)
 DISPERSION      -11.8195
 POLARIZATION    -0.2675
 CHARGE TRANSFER -1.7224
 TOTAL           -6.1585     (PRP + SOL + FRZ + DISP + POL + CT)
--------------------
 
 --------------------------------------------------------------
 
                    Orbital Energies (a.u.)
 --------------------------------------------------------------
 
 Alpha MOs
 -- Occupied --
-19.2420 -19.1826 -14.4290 -10.3758 -10.3361 -10.2758 -10.2739 -10.2733
-10.2710 -10.2685 -10.2587 -10.2562  -1.1859  -1.1716  -1.0443  -0.9843
 -0.8928  -0.8727  -0.8675  -0.8035  -0.7405  -0.7087  -0.7060  -0.6565
 -0.6522  -0.5937  -0.5924  -0.5727  -0.5680  -0.5449  -0.5341  -0.5236
 -0.5178  -0.5156  -0.5060  -0.4953  -0.4760  -0.4733  -0.4457  -0.4385
 -0.4355  -0.3829  -0.3756  -0.3449  -0.3116
 -- Virtual --
  0.0588   0.0591   0.0701   0.0749   0.0790   0.0914   0.0958   0.0993
  0.1025   0.1108   0.1162   0.1273   0.1305   0.1329   0.1393   0.1450
  0.1521   0.1571   0.1607   0.1636   0.1811   0.1824   0.1935   0.2043
  0.2060   0.2070   0.2143   0.2155   0.2195   0.2333   0.2347   0.2369
  0.2416   0.2447   0.2539   0.2580   0.2604   0.2658   0.2724   0.2754
  0.2834   0.2864   0.2876   0.2923   0.3005   0.3036   0.3061   0.3115
  0.3181   0.3202   0.3236   0.3339   0.3362   0.3415   0.3427   0.3466
  0.3476   0.3522   0.3542   0.3598   0.3605   0.3633   0.3664   0.3671
  0.3707   0.3729   0.3777   0.3855   0.3865   0.3894   0.3928   0.4000
  0.4018   0.4069   0.4099   0.4113   0.4153   0.4206   0.4273   0.4322
  0.4346   0.4382   0.4414   0.4465   0.4490   0.4562   0.4599   0.4622
  0.4677   0.4713   0.4787   0.4797   0.4867   0.4882   0.4914   0.4973
  0.5007   0.5032   0.5076   0.5098   0.5155   0.5194   0.5262   0.5297
  0.5342   0.5370   0.5418   0.5466   0.5481   0.5509   0.5576   0.5616
  0.5673   0.5755   0.5780   0.5853   0.5919   0.5968   0.5997   0.6040
  0.6101   0.6193   0.6252   0.6322   0.6427   0.6488   0.6492   0.6574
  0.6615   0.6707   0.6746   0.6846   0.6909   0.6929   0.6981   0.7025
  0.7072   0.7099   0.7125   0.7226   0.7289   0.7326   0.7337   0.7496
  0.7512   0.7561   0.7627   0.7673   0.7687   0.7717   0.7823   0.7891
  0.7906   0.7943   0.7964   0.8002   0.8040   0.8078   0.8196   0.8221
  0.8252   0.8295   0.8351   0.8394   0.8452   0.8472   0.8514   0.8542
  0.8664   0.8722   0.8785   0.8811   0.8866   0.8888   0.8975   0.9029
  0.9041   0.9154   0.9239   0.9282   0.9301   0.9387   0.9431   0.9590
  0.9617   0.9759   0.9807   0.9883   0.9995   1.0126   1.0134   1.0208
  1.0332   1.0403   1.0441   1.0599   1.0644   1.0733   1.0770   1.0914
  1.0967   1.1043   1.1089   1.1153   1.1160   1.1378   1.1408   1.1481
  1.1541   1.1762   1.2026   1.2353   1.2401   1.2479   1.2668   1.2737
  1.2925   1.3037   1.3136   1.3192   1.3266   1.3386   1.3503   1.3620
  1.3711   1.3869   1.3959   1.4023   1.4131   1.4361   1.4587   1.4767
  1.4816   1.4882   1.4940   1.5215   1.5300   1.5476   1.5619   1.5877
  1.6087   1.6360   1.6501   1.6611   1.6890   1.6962   1.7002   1.7153
  1.7219   1.7352   1.7732   1.7942   1.8004   1.8135   1.8383   1.8535
  1.8642   1.8702   1.8742   1.8882   1.9011   1.9225   1.9344   1.9387
  1.9423   1.9505   1.9553   1.9749   1.9815   1.9909   2.0106   2.0158
  2.0178   2.0326   2.0550   2.0648   2.0671   2.0723   2.0807   2.0992
  2.1116   2.1160   2.1283   2.1397   2.1613   2.1756   2.1926   2.1995
  2.2112   2.2141   2.2331   2.2443   2.2599   2.2749   2.2826   2.2868
  2.3013   2.3213   2.3303   2.3375   2.3543   2.3860   2.4051   2.4110
  2.4202   2.4338   2.4362   2.4522   2.4691   2.4796   2.5025   2.5266
  2.5334   2.5354   2.5687   2.5766   2.5957   2.5975   2.6113   2.6225
  2.6482   2.6620   2.6697   2.6801   2.6913   2.7062   2.7156   2.7356
  2.7540   2.7625   2.7882   2.7926   2.7999   2.8334   2.8470   2.8612
  2.8670   2.8714   2.8843   2.8869   2.9198   2.9274   2.9437   2.9486
  2.9630   2.9672   2.9871   2.9919   3.0064   3.0168   3.0266   3.0435
  3.0598   3.0673   3.1034   3.1080   3.1224   3.1433   3.1519   3.1560
  3.1596   3.1707   3.1794   3.1972   3.2140   3.2324   3.2497   3.2511
  3.2581   3.2699   3.2777   3.2886   3.2926   3.2961   3.3118   3.3329
  3.3531   3.3571   3.3636   3.3835   3.3867   3.4036   3.4079   3.4202
  3.4522   3.4581   3.4694   3.4778   3.4854   3.4957   3.5049   3.5084
  3.5263   3.5312   3.5432   3.5589   3.5639   3.5716   3.5761   3.5839
  3.5908   3.5994   3.6110   3.6259   3.6393   3.6471   3.6570   3.6705
  3.6721   3.6799   3.7111   3.7198   3.7263   3.7703   3.7997   3.8078
  3.8138   3.8320   3.8910   3.9309   3.9326   3.9493   3.9591   3.9922
  4.0044   4.0170   4.0523   4.0759   4.0869   4.0995   4.1239   4.1468
  4.2107   4.2355   4.2481   4.2723   4.2971   4.3070   4.3195   4.3336
  4.3464   4.3515   4.3581   4.3752   4.4136   4.4306   4.4359   4.4585
  4.5348   4.5850   4.5910   4.6179   4.6308   4.6523   4.6855   4.7116
  4.7301   4.7590   4.7785   4.8243   4.8606   4.9192   4.9393   4.9564
  4.9759   5.0196   5.0442   5.0880   5.1332   5.1625   5.1775   5.2311
  5.2726   5.2873   5.2944   5.3643   5.3841   5.4077   5.4126   5.4256
  5.4388   5.5042   5.5276   5.5700   5.6066   5.6291   5.7078   5.7461
  5.7808   5.9188   5.9224   6.1492   6.1976   6.2636   6.4290   6.5199
  6.5950   6.6321   6.6870   6.7709   6.8387   6.8685   6.9993   7.0180
  7.2344   7.3011   7.3227   7.4547  22.6363  22.6475  22.7394  22.9231
 22.9545  22.9990  23.1451  23.4446  23.6286  32.5015  44.3974  44.4133
 --------------------------------------------------------------
 
          Ground-State Mulliken Net Atomic Charges

     Atom                 Charge (a.u.)
  ----------------------------------------
      1 C                    -0.819812
      2 C                     0.573164
      3 O                    -0.716883
      4 N                    -0.304146
      5 H                     0.242955
      6 H                     0.300277
      7 H                     0.271316
      8 H                     0.238437
      9 H                     0.228884
     10 C                    -1.091160
     11 C                    -0.476638
     12 C                     0.298913
     13 C                    -0.169690
     14 C                     0.135841
     15 C                    -0.468374
     16 C                    -0.506900
     17 O                    -0.532021
     18 H                     0.418281
     19 H                     0.386154
     20 H                     0.411947
     21 H                     0.326951
     22 H                     0.303610
     23 H                     0.285987
     24 H                     0.420999
     25 H                     0.241908
  ----------------------------------------
  Sum of atomic charges =     0.000000

 -----------------------------------------------------------------
                    Cartesian Multipole Moments
 -----------------------------------------------------------------
    Charge (ESU x 10^10)
                -0.0000
    Dipole Moment (Debye)
         X       3.3863      Y       1.4922      Z       4.0759
       Tot       5.5052
    Quadrupole Moments (Debye-Ang)
        XX     -76.6751     XY       3.4410     YY     -63.9789
        XZ     -14.1465     YZ      -3.6850     ZZ     -49.0920
    Octopole Moments (Debye-Ang^2)
       XXX      50.4603    XXY      48.3841    XYY      24.9344
       YYY      35.6668    XXZ       5.9831    XYZ      -3.9853
       YYZ       9.7884    XZZ     -29.7772    YZZ     -14.3944
       ZZZ      75.9085
    Hexadecapole Moments (Debye-Ang^3)
      XXXX   -1495.0718   XXXY    -329.1492   XXYY    -302.6151
      XYYY    -259.1865   YYYY    -940.9471   XXXZ     516.9697
      XXYZ       2.2091   XYYZ     139.3301   YYYZ      52.9886
      XXZZ    -445.4578   XYZZ    -101.9358   YYZZ    -446.8130
      XZZZ     388.3876   YZZZ      60.9606   ZZZZ   -1434.3759
 -----------------------------------------------------------------
Archival summary:
1\1\nid00506\SP\ProcedureUnspecified\BasisUnspecified\21913\meili\MonSep2701:14:112021MonSep2701:14:112021\0\\#,ProcedureUnspecified,BasisUnspecified,\\0,1\O\C,1,1.24048\N,2,1.318,1,123.398\H,3,1.00706,2,118.88,1,3.81617,0\H,3,1.0213,2,119.902,1,179.348,0\C,2,1.48888,1,120.127,3,-178.266,0\H,6,1.08292,2,110.714,1,-145.666,0\H,6,1.08682,2,107.537,1,-29.0227,0\H,6,1.1,2,110.757,1,94.3696,0\H,4,2.46071,3,91.1054,2,-84.6539,0\C,10,1.07774,4,149.285,3,116.524,0\C,11,1.40019,10,118.83,4,124.656,0\O,12,1.37613,11,119.776,10,-1.6812,0\H,13,0.964923,12,111.545,11,-178.553,0\C,11,1.40305,10,120.145,4,-55.985,0\H,15,1.08112,11,119.369,10,-0.407213,0\C,15,1.40192,11,121.205,10,179.865,0\C,17,1.40099,15,118.147,11,2.1619,0\H,18,1.08249,17,119.587,15,178.498,0\C,12,1.41159,11,118.819,10,179.004,0\H,20,1.08157,12,120.179,11,-179.535,0\C,17,1.53494,15,120.955,11,175.643,0\H,22,1.0906,17,108.167,15,24.3874,0\H,22,1.09106,17,110.757,15,143.038,0\H,22,1.1,17,108.56,15,-95.0051,0\\\@

 Total job time:  60805.18s(wall), 33021.77s(cpu) 
 Mon Sep 27 01:14:11 2021

        *************************************************************
        *                                                           *
        *  Thank you very much for using Q-Chem.  Have a nice day.  *
        *                                                           *
        *************************************************************


