
Running Job 1 of 1 SSI-085HIE-101TYR-1_SMD_TZVPD.in
qchem SSI-085HIE-101TYR-1_SMD_TZVPD.in_50556.0 /tmp/qchem50556/ 0
/global/common/cori/software/qchem/5.2/exe/qcprog.exe_s SSI-085HIE-101TYR-1_SMD_TZVPD.in_50556.0 /tmp/qchem50556/
                  Welcome to Q-Chem
     A Quantum Leap Into The Future Of Chemistry


 Q-Chem 5.2, Q-Chem, Inc., Pleasanton, CA (2019)

 License issued to: National Energy Research Scientific Computing Center

 Yihan Shao,  Zhengting Gan,  E. Epifanovsky,  A. T. B. Gilbert,  M. Wormit,  
 J. Kussmann,  A. W. Lange,  A. Behn,  Jia Deng,  Xintian Feng,  D. Ghosh,  
 M. Goldey,  P. R. Horn,  L. D. Jacobson,  I. Kaliman,  T. Kus,  A. Landau,  
 Jie Liu,  E. I. Proynov,  R. M. Richard,  R. P. Steele,  E. J. Sundstrom,  
 H. L. Woodcock III,  P. M. Zimmerman,  D. Zuev,  B. Albrecht,  E. Alguire,  
 S. A. Baeppler,  D. Barton,  Z. Benda,  Y. A. Bernard,  E. J. Berquist,  
 K. B. Bravaya,  H. Burton,  D. Casanova,  Chun-Min Chang,  Yunqing Chen,  
 A. Chien,  K. D. Closser,  M. P. Coons,  S. Coriani,  S. Dasgupta,  
 A. L. Dempwolff,  M. Diedenhofen,  Hainam Do,  R. G. Edgar,  Po-Tung Fang,  
 S. Faraji,  S. Fatehi,  Qingguo Feng,  K. D. Fenk,  J. Fosso-Tande,  
 J. Gayvert,  Qinghui Ge,  A. Ghysels,  G. Gidofalvi,  J. Gomes,  
 J. Gonthier,  A. Gunina,  D. Hait,  M. W. D. Hanson-Heine,  
 P. H. P. Harbach,  A. W. Hauser,  M. F. Herbst,  J. E. Herr,  
 E. G. Hohenstein,  Z. C. Holden,  Kerwin Hui,  B. C. Huynh,  T.-C. Jagau,  
 Hyunjun Ji,  B. Kaduk,  K. Khistyaev,  Jaehoon Kim,  P. Klunzinger,  K. Koh,  
 D. Kosenkov,  L. Koulias,  T. Kowalczyk,  C. M. Krauter,  A. Kunitsa,  
 Ka Un Lao,  A. Laurent,  K. V. Lawler,  Joonho Lee,  D. Lefrancois,  
 S. Lehtola,  D. S. Levine,  Yi-Pei Li,  You-Sheng Lin,  Fenglai Liu,  
 E. Livshits,  A. Luenser,  P. Manohar,  E. Mansoor,  S. F. Manzer,  
 Shan-Ping Mao,  Yuezhi Mao,  N. Mardirossian,  A. V. Marenich,  
 T. Markovich,  L. A. Martinez-Martinez,  S. A. Maurer,  N. J. Mayhall,  
 S. C. McKenzie,  J.-M. Mewes,  P. Morgante,  A. F. Morrison,  
 J. W. Mullinax,  K. Nanda,  T. S. Nguyen-Beck,  R. Olivares-Amaya,  
 J. A. Parkhill,  Zheng Pei,  T. M. Perrine,  F. Plasser,  P. Pokhilko,  
 S. Prager,  A. Prociuk,  E. Ramos,  D. R. Rehn,  F. Rob,  M. Scheurer,  
 M. Schneider,  N. Sergueev,  S. M. Sharada,  S. Sharma,  D. W. Small,  
 T. Stauch,  T. Stein,  Yu-Chuan Su,  A. J. W. Thom,  A. Tkatchenko,  
 T. Tsuchimochi,  N. M. Tubman,  L. Vogt,  M. L. Vidal,  O. Vydrov,  
 M. A. Watson,  J. Wenzel,  M. de Wergifosse,  T. A. Wesolowski,  A. White,  
 J. Witte,  A. Yamada,  Jun Yang,  K. Yao,  S. Yeganeh,  S. R. Yost,  
 Zhi-Qiang You,  A. Zech,  Igor Ying Zhang,  Xing Zhang,  Yan Zhao,  
 Ying Zhu,  B. R. Brooks,  G. K. L. Chan,  C. J. Cramer,  M. S. Gordon,  
 W. J. Hehre,  A. Klamt,  M. W. Schmidt,  C. D. Sherrill,  D. G. Truhlar,  
 A. Aspuru-Guzik,  R. Baer,  A. T. Bell,  N. A. Besley,  Jeng-Da Chai,  
 A. E. DePrince, III,  R. A. DiStasio Jr.,  A. Dreuw,  B. D. Dunietz,  
 T. R. Furlani,  Chao-Ping Hsu,  Yousung Jung,  Jing Kong,  D. S. Lambrecht,  
 WanZhen Liang,  C. Ochsenfeld,  V. A. Rassolov,  L. V. Slipchenko,  
 J. E. Subotnik,  T. Van Voorhis,  J. M. Herbert,  A. I. Krylov,  
 P. M. W. Gill,  M. Head-Gordon

 Contributors to earlier versions of Q-Chem not listed above: 
 R. D. Adamson,  B. Austin,  J. Baker,  G. J. O. Beran,  K. Brandhorst,  
 S. T. Brown,  E. F. C. Byrd,  A. K. Chakraborty,  C.-L. Cheng,  
 Siu Hung Chien,  D. M. Chipman,  D. L. Crittenden,  H. Dachsel,  
 R. J. Doerksen,  A. D. Dutoi,  L. Fusti-Molnar,  W. A. Goddard III,  
 A. Golubeva-Zadorozhnaya,  S. R. Gwaltney,  G. Hawkins,  A. Heyden,  
 S. Hirata,  G. Kedziora,  F. J. Keil,  C. Kelley,  Jihan Kim,  R. A. King,  
 R. Z. Khaliullin,  P. P. Korambath,  W. Kurlancheek,  A. M. Lee,  M. S. Lee,  
 S. V. Levchenko,  Ching Yeh Lin,  D. Liotard,  R. C. Lochan,  I. Lotan,  
 P. E. Maslen,  N. Nair,  D. P. O'Neill,  D. Neuhauser,  E. Neuscamman,  
 C. M. Oana,  R. Olson,  B. Peters,  R. Peverati,  P. A. Pieniazek,  
 Y. M. Rhee,  J. Ritchie,  M. A. Rohrdanz,  E. Rosta,  N. J. Russ,  
 H. F. Schaefer III,  N. E. Schultz,  N. Shenvi,  A. C. Simmonett,  A. Sodt,  
 D. Stuck,  K. S. Thanthiriwatte,  V. Vanovschi,  Tao Wang,  A. Warshel,  
 C. F. Williams,  Q. Wu,  X. Xu,  W. Zhang

 Please cite Q-Chem as follows:
 Y. Shao et al., Mol. Phys. 113, 184-215 (2015)
 DOI: 10.1080/00268976.2014.952696

 Q-Chem 5.2.0 for Intel X86 EM64T Linux

 Parts of Q-Chem use Armadillo 8.300.2 (Tropical Shenanigans).
 http://arma.sourceforge.net/

 Q-Chem begins on Sun Sep 26 12:08:39 2021  

Host: cori01
0

     Scratch files written to /tmp/qchem50556//
 May1019 |scratch|qcdevops|jenkins|workspace|build_RNUM -1
Processing $rem in /global/common/cori/software/qchem/5.2/config/preferences:
	 MEM_TOTAL  96000 
NAlpha2: 102
NElect   102
Mult     1
Symmetry turned off for PCM/SM12/SMD calculation

 Q-Chem warning in module libgen/rem_setup.C, line 2803:

 Neither GIA nor STOLL is specified by user. Use STOLL as the default


Checking the input file for inconsistencies... 	...done.

--------------------------------------------------------------
User input:
--------------------------------------------------------------
$comment
SSI-085HIE-101TYR-1.pdb
$end

$molecule
0 1
--
0 1
C    1.168613827432   -4.431516958288   -2.276544651461
C    0.310613827432   -2.259516958288   -1.163544651461
C    0.145613827432   -3.389516958288   -1.904544651461
C   -1.731386172568   -2.255516958288   -1.911544651461
N   -0.876386172568   -1.574516958288   -1.165544651461
N   -1.150386172568   -3.368516958288   -2.356544651461
H    1.231613827432   -1.955516958288   -0.684544651461
H   -1.055386172568   -0.692516958288   -0.722544651461
H    2.125613827432   -4.074516958288   -1.895544651461
H    1.239613827432   -4.477516958288   -3.363544651461
H   -2.748386172568   -1.954516958288   -2.128544651461
H    0.995384827432   -5.443577958288   -1.881924651461
--
0 1
C    2.219613827432    3.763483041712    2.874455348539
C    0.696613827432    1.193483041712    0.485455348539
C   -0.657386172568    1.431483041712    0.660455348539
C    1.646613827432    1.962483041712    1.185455348539
C    1.238613827432    2.964483041712    2.064455348539
C   -1.068386172568    2.413483041712    1.541455348539
C   -0.126386172568    3.170483041712    2.220455348539
O   -1.601386172568    0.710483041712   -0.012544651461
H    1.020613827432    0.426483041712   -0.200544651461
H    2.697613827432    1.762483041712    1.038455348539
H   -2.121386172568    2.602483041712    1.694455348539
H   -2.492386172568    1.001483041712    0.217455348539
H    1.766613827432    4.716483041712    3.153455348539
H    3.085613827432    3.981483041712    2.257455348539
H   -0.469386172568    3.935483041712    2.905455348539
H    2.545103827432    3.241553041712    3.786405348539
$end

$rem
JOBTYPE			EDA
EDA2			1
method			wB97X-V
BASIS			def2-TZVPD
XC_GRID			000099000590
NL_GRID			1
UNRESTRICTED		FALSE
MAX_SCF_CYCLES		200
SYMMETRY		FALSE
SYM_IGNORE		TRUE
MEM_STATIC		2000
BASIS_LIN_DEP_THRESH 	6
THRESH 			14
SCF_CONVERGENCE 	8
SCF_PRINT_FRGM 		TRUE
SOLVENT_METHOD          SMD
$end

$SMX
SOLVENT			WATER
$END
--------------------------------------------------------------
 ----------------------------------------------------------------
             Standard Nuclear Orientation (Angstroms)
    I     Atom           X                Y                Z
 ----------------------------------------------------------------
    1      C       1.1686138274    -4.4315169583    -2.2765446515
    2      C       0.3106138274    -2.2595169583    -1.1635446515
    3      C       0.1456138274    -3.3895169583    -1.9045446515
    4      C      -1.7313861726    -2.2555169583    -1.9115446515
    5      N      -0.8763861726    -1.5745169583    -1.1655446515
    6      N      -1.1503861726    -3.3685169583    -2.3565446515
    7      H       1.2316138274    -1.9555169583    -0.6845446515
    8      H      -1.0553861726    -0.6925169583    -0.7225446515
    9      H       2.1256138274    -4.0745169583    -1.8955446515
   10      H       1.2396138274    -4.4775169583    -3.3635446515
   11      H      -2.7483861726    -1.9545169583    -2.1285446515
   12      H       0.9953848274    -5.4435779583    -1.8819246515
   13      C       2.2196138274     3.7634830417     2.8744553485
   14      C       0.6966138274     1.1934830417     0.4854553485
   15      C      -0.6573861726     1.4314830417     0.6604553485
   16      C       1.6466138274     1.9624830417     1.1854553485
   17      C       1.2386138274     2.9644830417     2.0644553485
   18      C      -1.0683861726     2.4134830417     1.5414553485
   19      C      -0.1263861726     3.1704830417     2.2204553485
   20      O      -1.6013861726     0.7104830417    -0.0125446515
   21      H       1.0206138274     0.4264830417    -0.2005446515
   22      H       2.6976138274     1.7624830417     1.0384553485
   23      H      -2.1213861726     2.6024830417     1.6944553485
   24      H      -2.4923861726     1.0014830417     0.2174553485
   25      H       1.7666138274     4.7164830417     3.1534553485
   26      H       3.0856138274     3.9814830417     2.2574553485
   27      H      -0.4693861726     3.9354830417     2.9054553485
   28      H       2.5451038274     3.2415530417     3.7864053485
 ----------------------------------------------------------------
 Nuclear Repulsion Energy =         805.08558542 hartrees
 There are       51 alpha and       51 beta electrons
 Requested basis set is def2-TZVPD
 There are 253 shells and 647 basis functions

 Total QAlloc Memory Limit  96000 MB
 Mega-Array Size      1956 MB
 MEM_STATIC part      2000 MB
 
 Citation of the SMD model:
 Marenich, A.V.; Cramer, C.J.; Truhlar, D.G.
 J. Phys. Chem. B 2009, 113, 6378-6396.
 iSolventCode=           1
 Solvent: water                                                           
 
 vradii
            1           2           3           4           5           6
    1   1.8500000   1.8500000   1.8500000   1.8500000   1.8900000   1.8900000
            7           8           9          10          11          12
    1   1.2000000   1.2000000   1.2000000   1.2000000   1.2000000   1.2000000
           13          14          15          16          17          18
    1   1.8500000   1.8500000   1.8500000   1.8500000   1.8500000   1.8500000
           19          20          21          22          23          24
    1   1.8500000   1.5200000   1.2000000   1.2000000   1.2000000   1.2000000
           25          26          27          28
    1   1.2000000   1.2000000   1.2000000   1.2000000
 Changing PCM_VDW_RADII to SMD_RADIUS
 Discretize the solute cavity surface with Lebedev spheres
	Using 110 Lebedev grid points for each H atom
	Using 194 Lebedev grid points for other atoms
	Atomic van der Waals radii will be scaled by 1.20
 Remove points where switching function is < 1.0e-08
 Keep 2016 surface tesserae and discard 2240 interior tesserae
 Molecular Surface Area = 245.407 Angst**2
 A cutoff of  1.0D-14 yielded  26231 shell pairs
 There are    171909 function pairs (    217618 Cartesian)
 Smallest overlap matrix eigenvalue = 4.54E-07
 Linear dependence detected in AO basis
 Tighter screening thresholds may be required for diffuse basis sets
 Use S2THRESH > 14 and THRESH = 14 in case of SCF convergence issues
 Number of orthogonalized atomic orbitals = 644
 Maximum deviation from orthogonality = 3.516E-10

 Scale SEOQF with 1.000000e-01/1.000000e-02/1.000000e-01

 Standard Electronic Orientation quadrupole field applied
 Nucleus-field energy     =    -0.0000000231 hartrees

 -----------------------------------------------------------------------
  General SCF calculation program by
  Eric Jon Sundstrom, Paul Horn, Yuezhi Mao, Dmitri Zuev, Alec White,
  David Stuck, Shaama M.S., Shane Yost, Joonho Lee, David Small,
  Daniel Levine, Susi Lehtola, Hugh Burton, Evgeny Epifanovsky
 -----------------------------------------------------------------------
================================================================
                 ALMO-EDA with the EDA2 driver                  
================================================================
 The second-generation ALMO-EDA (for DFT):                      
 P. R. Horn, Y. Mao and M. Head-Gordon, PCCP, 18, 23067 (2016)  
 Decomposition of the frozen energy:                            
 P. R. Horn, Y. Mao and M. Head-Gordon, JCP, 144, 114107 (2016) 
 FERF model for polarization:                                   
 P. R. Horn and M. Head-Gordon, JCP, 143, 114111 (2015)         
Using eda2 option set 1
Option set summary: Frozen orbital wavefunction, initial wavefunction decomposition, and nDQ polarization.
--------------------------------
Printing EDA Options
--------------------------------
eda_child_super_basis      0
fragmo_guess_mode          0
child_mp                   1
child_mp_orders            232
cls_elec                   1
cls_disp                   0
scfmi_mode                 1
scfmi_occs                 0
scfmi_virts                0
frz_relax                  0
frz_relax_method           0
dc_pen_start               0
dc_pen_conv                0
dc_pen_increment           0
dc_pen_steps               0
dc_pen_thresh_factor       0
dc_pen_pre_newton_thresh   0
frz_ortho_decomp           1
frz_ortho_decomp_conv      6
frgm_method                2
scfmi_freeze_ss            0
separate_rehyb             0
plot_diff_den              0
eda_nocv                   0
eda_vct_relax              1
disp_free_x                0
disp_free_c                0
eda_bsse                   0
eda_pct_a                  0
eda_covp                   0
--------------------------------
Attempting to make child job directory: /tmp/qchem50556//Frg1/
Attempting to make child job directory: /tmp/qchem50556//Frg2/
Creating input file /tmp/qchem50556/Frg1.input
using default PutDataFrgm: nothing
calling putenv with: QCSCRATCH=/tmp/qchem50556/ 
calling putenv with: QCLOCALSCR=/tmp/qchem50556/ 
Spawning Job For Fragment 0
                  Welcome to Q-Chem
     A Quantum Leap Into The Future Of Chemistry


 Q-Chem 5.2, Q-Chem, Inc., Pleasanton, CA (2019)

 License issued to: National Energy Research Scientific Computing Center

 Yihan Shao,  Zhengting Gan,  E. Epifanovsky,  A. T. B. Gilbert,  M. Wormit,  
 J. Kussmann,  A. W. Lange,  A. Behn,  Jia Deng,  Xintian Feng,  D. Ghosh,  
 M. Goldey,  P. R. Horn,  L. D. Jacobson,  I. Kaliman,  T. Kus,  A. Landau,  
 Jie Liu,  E. I. Proynov,  R. M. Richard,  R. P. Steele,  E. J. Sundstrom,  
 H. L. Woodcock III,  P. M. Zimmerman,  D. Zuev,  B. Albrecht,  E. Alguire,  
 S. A. Baeppler,  D. Barton,  Z. Benda,  Y. A. Bernard,  E. J. Berquist,  
 K. B. Bravaya,  H. Burton,  D. Casanova,  Chun-Min Chang,  Yunqing Chen,  
 A. Chien,  K. D. Closser,  M. P. Coons,  S. Coriani,  S. Dasgupta,  
 A. L. Dempwolff,  M. Diedenhofen,  Hainam Do,  R. G. Edgar,  Po-Tung Fang,  
 S. Faraji,  S. Fatehi,  Qingguo Feng,  K. D. Fenk,  J. Fosso-Tande,  
 J. Gayvert,  Qinghui Ge,  A. Ghysels,  G. Gidofalvi,  J. Gomes,  
 J. Gonthier,  A. Gunina,  D. Hait,  M. W. D. Hanson-Heine,  
 P. H. P. Harbach,  A. W. Hauser,  M. F. Herbst,  J. E. Herr,  
 E. G. Hohenstein,  Z. C. Holden,  Kerwin Hui,  B. C. Huynh,  T.-C. Jagau,  
 Hyunjun Ji,  B. Kaduk,  K. Khistyaev,  Jaehoon Kim,  P. Klunzinger,  K. Koh,  
 D. Kosenkov,  L. Koulias,  T. Kowalczyk,  C. M. Krauter,  A. Kunitsa,  
 Ka Un Lao,  A. Laurent,  K. V. Lawler,  Joonho Lee,  D. Lefrancois,  
 S. Lehtola,  D. S. Levine,  Yi-Pei Li,  You-Sheng Lin,  Fenglai Liu,  
 E. Livshits,  A. Luenser,  P. Manohar,  E. Mansoor,  S. F. Manzer,  
 Shan-Ping Mao,  Yuezhi Mao,  N. Mardirossian,  A. V. Marenich,  
 T. Markovich,  L. A. Martinez-Martinez,  S. A. Maurer,  N. J. Mayhall,  
 S. C. McKenzie,  J.-M. Mewes,  P. Morgante,  A. F. Morrison,  
 J. W. Mullinax,  K. Nanda,  T. S. Nguyen-Beck,  R. Olivares-Amaya,  
 J. A. Parkhill,  Zheng Pei,  T. M. Perrine,  F. Plasser,  P. Pokhilko,  
 S. Prager,  A. Prociuk,  E. Ramos,  D. R. Rehn,  F. Rob,  M. Scheurer,  
 M. Schneider,  N. Sergueev,  S. M. Sharada,  S. Sharma,  D. W. Small,  
 T. Stauch,  T. Stein,  Yu-Chuan Su,  A. J. W. Thom,  A. Tkatchenko,  
 T. Tsuchimochi,  N. M. Tubman,  L. Vogt,  M. L. Vidal,  O. Vydrov,  
 M. A. Watson,  J. Wenzel,  M. de Wergifosse,  T. A. Wesolowski,  A. White,  
 J. Witte,  A. Yamada,  Jun Yang,  K. Yao,  S. Yeganeh,  S. R. Yost,  
 Zhi-Qiang You,  A. Zech,  Igor Ying Zhang,  Xing Zhang,  Yan Zhao,  
 Ying Zhu,  B. R. Brooks,  G. K. L. Chan,  C. J. Cramer,  M. S. Gordon,  
 W. J. Hehre,  A. Klamt,  M. W. Schmidt,  C. D. Sherrill,  D. G. Truhlar,  
 A. Aspuru-Guzik,  R. Baer,  A. T. Bell,  N. A. Besley,  Jeng-Da Chai,  
 A. E. DePrince, III,  R. A. DiStasio Jr.,  A. Dreuw,  B. D. Dunietz,  
 T. R. Furlani,  Chao-Ping Hsu,  Yousung Jung,  Jing Kong,  D. S. Lambrecht,  
 WanZhen Liang,  C. Ochsenfeld,  V. A. Rassolov,  L. V. Slipchenko,  
 J. E. Subotnik,  T. Van Voorhis,  J. M. Herbert,  A. I. Krylov,  
 P. M. W. Gill,  M. Head-Gordon

 Contributors to earlier versions of Q-Chem not listed above: 
 R. D. Adamson,  B. Austin,  J. Baker,  G. J. O. Beran,  K. Brandhorst,  
 S. T. Brown,  E. F. C. Byrd,  A. K. Chakraborty,  C.-L. Cheng,  
 Siu Hung Chien,  D. M. Chipman,  D. L. Crittenden,  H. Dachsel,  
 R. J. Doerksen,  A. D. Dutoi,  L. Fusti-Molnar,  W. A. Goddard III,  
 A. Golubeva-Zadorozhnaya,  S. R. Gwaltney,  G. Hawkins,  A. Heyden,  
 S. Hirata,  G. Kedziora,  F. J. Keil,  C. Kelley,  Jihan Kim,  R. A. King,  
 R. Z. Khaliullin,  P. P. Korambath,  W. Kurlancheek,  A. M. Lee,  M. S. Lee,  
 S. V. Levchenko,  Ching Yeh Lin,  D. Liotard,  R. C. Lochan,  I. Lotan,  
 P. E. Maslen,  N. Nair,  D. P. O'Neill,  D. Neuhauser,  E. Neuscamman,  
 C. M. Oana,  R. Olson,  B. Peters,  R. Peverati,  P. A. Pieniazek,  
 Y. M. Rhee,  J. Ritchie,  M. A. Rohrdanz,  E. Rosta,  N. J. Russ,  
 H. F. Schaefer III,  N. E. Schultz,  N. Shenvi,  A. C. Simmonett,  A. Sodt,  
 D. Stuck,  K. S. Thanthiriwatte,  V. Vanovschi,  Tao Wang,  A. Warshel,  
 C. F. Williams,  Q. Wu,  X. Xu,  W. Zhang

 Please cite Q-Chem as follows:
 Y. Shao et al., Mol. Phys. 113, 184-215 (2015)
 DOI: 10.1080/00268976.2014.952696

 Q-Chem 5.2.0 for Intel X86 EM64T Linux

 Parts of Q-Chem use Armadillo 8.300.2 (Tropical Shenanigans).
 http://arma.sourceforge.net/

 Q-Chem begins on Sun Sep 26 12:08:46 2021  

Host: cori01
0

     Scratch files written to /tmp/qchem50556//Frg1//
 May1019 |scratch|qcdevops|jenkins|workspace|build_RNUM -1
Processing $rem in /global/common/cori/software/qchem/5.2/config/preferences:
	 MEM_TOTAL  96000 
NAlpha2: 44
NElect   44
Mult     1
Symmetry turned off for PCM/SM12/SMD calculation

Checking the input file for inconsistencies... 	...done.

--------------------------------------------------------------
User input:
--------------------------------------------------------------
$molecule
0 1
 6	1.1686138274	-4.4315169583	-2.2765446515
 6	0.3106138274	-2.2595169583	-1.1635446515
 6	0.1456138274	-3.3895169583	-1.9045446515
 6	-1.7313861726	-2.2555169583	-1.9115446515
 7	-0.8763861726	-1.5745169583	-1.1655446515
 7	-1.1503861726	-3.3685169583	-2.3565446515
 1	1.2316138274	-1.9555169583	-0.6845446515
 1	-1.0553861726	-0.6925169583	-0.7225446515
 1	2.1256138274	-4.0745169583	-1.8955446515
 1	1.2396138274	-4.4775169583	-3.3635446515
 1	-2.7483861726	-1.9545169583	-2.1285446515
 1	0.9953848274	-5.4435779583	-1.8819246515
$end
$rem
EDA2		1
METHOD		WB97X-V
BASIS		DEF2-TZVPD
XC_GRID		000099000590
NL_GRID		1
UNRESTRICTED		FALSE
MAX_SCF_CYCLES		200
SYMMETRY		FALSE
SYM_IGNORE		TRUE
BASIS_LIN_DEP_THRESH		6
THRESH		14
SCF_CONVERGENCE		8
SCF_PRINT_FRGM		TRUE
SOLVENT_METHOD		SMD
!required keywords
JOBTYPE		SP
SYM_IGNORE		TRUE
SUBSYSTEM		TRUE
GEN_SCFMAN		TRUE
CHILD_INSTRUCTION		2
SYM_IGNORE		TRUE
SCFMI		0
RI_K 0		
PARI_K 0		
MIN_PARI_K 0		
IARI_K 0		
OCC_RI_K 0		
PURECART		1111
MEM_STATIC		2000
MEM_TOTAL		96000
GUI		0
CHILD_MP		1
CHILD_MP_ORDERS		232
FRZ_RELAX		0
FRZ_RELAX_METHOD		0
EDA_CLS_ELEC		1
EDA_CLS_DISP		0
FRZ_ORTHO_DECOMP		1
EDA2		FALSE
FRGM_METHOD		FALSE
CIS_N_ROOTS  0
LOCAL_CIS    0
CIS_RLX_DNS  1
$end
$smx
SOLVENT			WATER
$end
--------------------------------------------------------------
 ----------------------------------------------------------------
             Standard Nuclear Orientation (Angstroms)
    I     Atom           X                Y                Z
 ----------------------------------------------------------------
    1      C       1.1686138274    -4.4315169583    -2.2765446515
    2      C       0.3106138274    -2.2595169583    -1.1635446515
    3      C       0.1456138274    -3.3895169583    -1.9045446515
    4      C      -1.7313861726    -2.2555169583    -1.9115446515
    5      N      -0.8763861726    -1.5745169583    -1.1655446515
    6      N      -1.1503861726    -3.3685169583    -2.3565446515
    7      H       1.2316138274    -1.9555169583    -0.6845446515
    8      H      -1.0553861726    -0.6925169583    -0.7225446515
    9      H       2.1256138274    -4.0745169583    -1.8955446515
   10      H       1.2396138274    -4.4775169583    -3.3635446515
   11      H      -2.7483861726    -1.9545169583    -2.1285446515
   12      H       0.9953848274    -5.4435779583    -1.8819246515
 ----------------------------------------------------------------
 Nuclear Repulsion Energy =         224.78265932 hartrees
 There are       22 alpha and       22 beta electrons
 Requested basis set is def2-TZVPD
 There are 108 shells and 276 basis functions

 Total QAlloc Memory Limit  96000 MB
 Mega-Array Size      1956 MB
 MEM_STATIC part      2000 MB
 
 Citation of the SMD model:
 Marenich, A.V.; Cramer, C.J.; Truhlar, D.G.
 J. Phys. Chem. B 2009, 113, 6378-6396.
 iSolventCode=           1
 Solvent: water                                                           
 
 vradii
            1           2           3           4           5           6
    1   1.8500000   1.8500000   1.8500000   1.8500000   1.8900000   1.8900000
            7           8           9          10          11          12
    1   1.2000000   1.2000000   1.2000000   1.2000000   1.2000000   1.2000000
 Changing PCM_VDW_RADII to SMD_RADIUS
 Discretize the solute cavity surface with Lebedev spheres
	Using 110 Lebedev grid points for each H atom
	Using 194 Lebedev grid points for other atoms
	Atomic van der Waals radii will be scaled by 1.20
 Remove points where switching function is < 1.0e-08
 Keep 885 surface tesserae and discard 939 interior tesserae
 Molecular Surface Area = 116.109 Angst**2

                       Distance Matrix (Angstroms)
             C (  1)   C (  2)   C (  3)   C (  4)   N (  5)   N (  6)
   C (  2)  2.586990
   C (  3)  1.506877  1.361325
   C (  4)  3.643927  2.174692  2.192974
   N (  5)  3.684942  1.370474  2.210165  1.323368
   N (  6)  2.552279  2.188070  1.372720  1.332049  2.170713
   H (  7)  2.944318  1.081711  2.173511  3.221009  2.195492  3.235132
   H (  8)  4.619655  2.125071  3.180147  2.076937  1.003102  3.136871
   H (  9)  1.090165  2.669134  2.095163  4.264442  3.974280  3.382770
   H ( 10)  1.090287  3.259228  2.123502  3.984022  4.211421  2.820644
   H ( 11)  4.636844  3.222069  3.237999  1.082580  2.139194  2.145923
   H ( 12)  1.100000  3.335150  2.223013  4.195222  4.357334  3.022495
             H (  7)   H (  8)   H (  9)   H ( 10)   H ( 11)
   H (  8)  2.612849
   H (  9)  2.599215  4.788801
   H ( 10)  3.679346  5.154428  1.761371
   H ( 11)  4.233856  2.536874  5.320203  4.878001
   H ( 12)  3.695415  5.303056  1.775368  1.785531  5.123494
 
 A cutoff of  1.0D-14 yielded   5738 shell pairs
 There are     38178 function pairs (     48960 Cartesian)
 Smallest overlap matrix eigenvalue = 1.83E-06

 Scale SEOQF with 1.000000e-01/1.000000e-02/1.000000e-01

 Standard Electronic Orientation quadrupole field applied
 Nucleus-field energy     =    -0.0000000115 hartrees
 Guess from superposition of atomic densities
 Warning:  Energy on first SCF cycle will be non-variational
 SAD guess density has 43.559167 electrons

 -----------------------------------------------------------------------
  General SCF calculation program by
  Eric Jon Sundstrom, Paul Horn, Yuezhi Mao, Dmitri Zuev, Alec White,
  David Stuck, Shaama M.S., Shane Yost, Joonho Lee, David Small,
  Daniel Levine, Susi Lehtola, Hugh Burton, Evgeny Epifanovsky
 -----------------------------------------------------------------------
 Exchange:     0.1670 Hartree-Fock + 1.0000 wB97X-V + LR-HF
 Correlation:  1.0000 wB97X-V
 Using Euler-Maclaurin-Lebedev (99,590) quadrature formula
 Nonlocal Correlation:  VV10 with C = 0.0100 and b = 6.00 and scale = 1.00000
 Grid used for NLC:  SG-1 standard quadrature
Energy prior to optimization (guess energy) = -265.146271649959
Begin Timing: Total SCF Calculation
begin iterations for algorithm: DIIS         
the SCF tolerance is set to 1.00e-08
    1    -265.1462716500      7.19e-03     00000 
    2    -265.1122444339      7.30e-03     00000 
    3    -265.5662037024      7.42e-04     00000 
    4    -265.5710342949      3.79e-04     00000 
    5    -265.5724539569      1.11e-04     00000 
    6    -265.5726120162      4.19e-05     00000 
    7    -265.5726368501      1.18e-05     00000 
    8    -265.5726395433      3.36e-06     00000 
    9    -265.5726398406      1.66e-06     00000 
   10    -265.5726398908      4.08e-07     00000 
   11    -265.5726398960      7.98e-08     00000 
   12    -265.5726398962      4.24e-08     00000 
   13    -265.5726398962      1.09e-08     00000 
   14    -265.5726398962      4.38e-09     00000 Convergence criterion met
Timing for Total SCF: 912.00s (wall), 1811.78s (cpu)
(3)  G-ENP(liq) elect-nuc-pol free energy of system     -265.572639896 a.u.
(4)  G-CDS(liq) cavity-dispersion-solvent structure 
     free energy                                                2.0386 kcal/mol
(6)  G-S(liq) free energy of system                     -265.569391105 a.u.
E_pcm = -0.0231369339
E_cds = 0.0032487908
Multipole orders to be included
        2
        3
computing dipole RHS
computing quadrupole RHS
total number of RHS in solve_reponses: 8
RHS batch sizes
        8
Beginning Block Conjugate Gradient Iterations. Batch Number: 0
computing hessian-vector products by finite difference
              1      6.27e-01     00000 Conjugate Gradient Iteration
computing hessian-vector products by finite difference
              2      1.88e-01     00000 Conjugate Gradient Iteration
computing hessian-vector products by finite difference
              3      5.22e-02     00000 Conjugate Gradient Iteration
computing hessian-vector products by finite difference
              4      1.60e-02     00000 Conjugate Gradient Iteration
computing hessian-vector products by finite difference
              5      3.19e-03     00000 Conjugate Gradient Iteration
computing hessian-vector products by finite difference
              6      5.36e-04     00000 Conjugate Gradient Iteration
computing hessian-vector products by finite difference
              7      1.04e-04     00000 Conjugate Gradient Iteration
computing hessian-vector products by finite difference
              8      1.70e-05     00000 Conjugate Gradient Iteration
computing hessian-vector products by finite difference
              9      2.33e-06     00000 Conjugate Gradient Iteration
computing hessian-vector products by finite difference
             10      4.32e-07     00000 Conjugate Gradient Iteration
computing hessian-vector products by finite difference
             11      7.36e-08     00000 Conjugate Gradient Iteration
computing hessian-vector products by finite difference
             12      9.57e-09     00000 CG Converged
batch 0 complete
Done Calculating Responses
TESTING ORTHOGONALIZATION OF MULTIPOLE BASIS
Multipole virts passed orthogonality test
Virts Per Order
           66
          110
 
 --------------------------------------------------------------
 
                    Orbital Energies (a.u.)
 --------------------------------------------------------------
 
 Alpha MOs
 -- Occupied --
-14.4594 -14.3861 -10.3167 -10.2833 -10.2821 -10.2584  -1.1549  -0.9971
 -0.8939  -0.8217  -0.7269  -0.6832  -0.6651  -0.5635  -0.5524  -0.5332
 -0.5091  -0.4975  -0.4756  -0.3789  -0.3759  -0.3205
 -- Virtual --
  0.0687   0.0877   0.0977   0.1085   0.1185   0.1308   0.1358   0.1481
  0.1689   0.1747   0.1811   0.1868   0.2040   0.2056   0.2275   0.2368
  0.2492   0.2525   0.2634   0.2656   0.2770   0.2911   0.2998   0.3116
  0.3146   0.3172   0.3224   0.3228   0.3326   0.3397   0.3517   0.3606
  0.3628   0.3692   0.3788   0.3834   0.4000   0.4050   0.4109   0.4170
  0.4239   0.4305   0.4336   0.4471   0.4573   0.4679   0.4737   0.4842
  0.4924   0.4990   0.5022   0.5200   0.5367   0.5465   0.5564   0.5621
  0.5657   0.5768   0.5906   0.5975   0.6148   0.6162   0.6266   0.6333
  0.6447   0.6558   0.6752   0.6851   0.6908   0.7023   0.7084   0.7147
  0.7325   0.7471   0.7582   0.7771   0.7812   0.7883   0.7912   0.8046
  0.8133   0.8186   0.8282   0.8324   0.8622   0.8679   0.8879   0.8977
  0.9172   0.9415   0.9747   0.9895   0.9959   1.0087   1.0191   1.0264
  1.0703   1.0842   1.1125   1.1286   1.1304   1.1574   1.1844   1.2222
  1.2286   1.2460   1.2800   1.3267   1.3488   1.3614   1.3815   1.4189
  1.4439   1.4621   1.5472   1.5579   1.6159   1.6470   1.6530   1.6797
  1.7055   1.7391   1.8014   1.8348   1.8403   1.8660   1.8681   1.8853
  1.9081   1.9501   1.9516   1.9585   1.9686   1.9880   1.9967   2.0147
  2.0280   2.0661   2.0907   2.1418   2.1853   2.2356   2.2736   2.2825
  2.3165   2.3452   2.3815   2.3934   2.4289   2.4559   2.4616   2.5012
  2.5607   2.5936   2.6028   2.6214   2.6450   2.6608   2.6831   2.7311
  2.7619   2.7736   2.7857   2.8357   2.8733   2.8833   2.9061   2.9965
  3.0168   3.0516   3.0692   3.0738   3.0811   3.1228   3.1319   3.1657
  3.1791   3.1970   3.2122   3.2293   3.2832   3.3017   3.3091   3.3351
  3.3645   3.3756   3.3855   3.3962   3.4231   3.4537   3.4758   3.5063
  3.5234   3.5453   3.5760   3.6073   3.6375   3.6552   3.7252   3.7406
  3.7481   3.7968   3.8127   3.8515   3.8639   3.9395   3.9599   4.0378
  4.0819   4.1170   4.1473   4.2360   4.3010   4.4099   4.4526   4.5115
  4.5320   4.5595   4.6079   4.7035   4.7805   4.8215   4.8589   4.8752
  4.9588   4.9748   4.9978   5.0370   5.0560   5.0612   5.1662   5.2064
  5.2351   5.2993   5.3733   5.4509   5.5061   5.5448   5.5885   5.6047
  5.6634   5.7156   5.7401   5.7974   5.8716   6.0351   6.2571   6.3101
 22.6235  22.8880  23.1413  23.3753  32.6595  32.7793
 --------------------------------------------------------------
 
          Ground-State Mulliken Net Atomic Charges

     Atom                 Charge (a.u.)
  ----------------------------------------
      1 C                    -0.801412
      2 C                    -0.533388
      3 C                     0.520111
      4 C                    -0.273271
      5 N                     0.088160
      6 N                    -0.547639
      7 H                     0.320213
      8 H                     0.185497
      9 H                     0.224595
     10 H                     0.228932
     11 H                     0.336655
     12 H                     0.251546
  ----------------------------------------
  Sum of atomic charges =     0.000000

 -----------------------------------------------------------------
                    Cartesian Multipole Moments
 -----------------------------------------------------------------
    Charge (ESU x 10^10)
                 0.0000
    Dipole Moment (Debye)
         X       0.9173      Y       4.2594      Z       2.6146
       Tot       5.0813
    Quadrupole Moments (Debye-Ang)
        XX     -32.3974     XY     -10.3710     YY     -54.8256
        XZ      -3.9071     YZ     -12.5305     ZZ     -46.7549
    Octopole Moments (Debye-Ang^2)
       XXX      22.9701    XXY     108.7976    XYY      58.2736
       YYY     387.9917    XXZ      62.9027    XYZ      25.9310
       YYZ     115.5301    XZZ      24.5716    YZZ     146.3572
       ZZZ     230.7568
    Hexadecapole Moments (Debye-Ang^3)
      XXXX    -280.9567   XXXY     -19.6737   XXYY    -450.2814
      XYYY    -218.9633   YYYY   -2384.4290   XXXZ     -35.6715
      XXYZ    -225.0303   XYYZ    -137.3087   YYYZ    -815.8578
      XXZZ    -195.0021   XYZZ     -79.8830   YYZZ    -647.4403
      XZZZ    -104.7299   YZZZ    -746.6089   ZZZZ    -921.7976
 -----------------------------------------------------------------
Archival summary:
1\1\nid00570\SP\ProcedureUnspecified\BasisUnspecified\246\meili\SunSep2616:16:452021SunSep2616:16:452021\0\\#,ProcedureUnspecified,BasisUnspecified,\\0,1\N\C,1,1.33205\H,2,1.08258,1,125.107\N,2,1.32337,1,109.663,3,-179.956,0\H,4,1.0031,2,125.883,1,178.869,0\C,4,1.37047,2,107.65,1,1.73489,0\H,6,1.08171,4,126.7,2,177.215,0\C,6,1.36133,4,108.006,2,-1.28701,0\C,8,1.50688,6,128.762,4,175.973,0\H,9,1.09016,8,106.453,6,-4.22582,0\H,9,1.09029,8,108.633,6,-120.029,0\H,9,1.1,8,116.151,6,116.434,0\\\@

 Total job time:  14880.56s(wall), 29561.06s(cpu) 
 Sun Sep 26 16:16:46 2021

        *************************************************************
        *                                                           *
        *  Thank you very much for using Q-Chem.  Have a nice day.  *
        *                                                           *
        *************************************************************


Done Job For Fragment 0
calling putenv with: QCSCRATCH=/global/cscratch1/sd/meili 
calling putenv with: QCLOCALSCR=/tmp 
calling putenv with: QCTHREADS=32 
Creating input file /tmp/qchem50556/Frg2.input
using default PutDataFrgm: nothing
calling putenv with: QCSCRATCH=/tmp/qchem50556/ 
calling putenv with: QCLOCALSCR=/tmp/qchem50556/ 
Spawning Job For Fragment 1
                  Welcome to Q-Chem
     A Quantum Leap Into The Future Of Chemistry


 Q-Chem 5.2, Q-Chem, Inc., Pleasanton, CA (2019)

 License issued to: National Energy Research Scientific Computing Center

 Yihan Shao,  Zhengting Gan,  E. Epifanovsky,  A. T. B. Gilbert,  M. Wormit,  
 J. Kussmann,  A. W. Lange,  A. Behn,  Jia Deng,  Xintian Feng,  D. Ghosh,  
 M. Goldey,  P. R. Horn,  L. D. Jacobson,  I. Kaliman,  T. Kus,  A. Landau,  
 Jie Liu,  E. I. Proynov,  R. M. Richard,  R. P. Steele,  E. J. Sundstrom,  
 H. L. Woodcock III,  P. M. Zimmerman,  D. Zuev,  B. Albrecht,  E. Alguire,  
 S. A. Baeppler,  D. Barton,  Z. Benda,  Y. A. Bernard,  E. J. Berquist,  
 K. B. Bravaya,  H. Burton,  D. Casanova,  Chun-Min Chang,  Yunqing Chen,  
 A. Chien,  K. D. Closser,  M. P. Coons,  S. Coriani,  S. Dasgupta,  
 A. L. Dempwolff,  M. Diedenhofen,  Hainam Do,  R. G. Edgar,  Po-Tung Fang,  
 S. Faraji,  S. Fatehi,  Qingguo Feng,  K. D. Fenk,  J. Fosso-Tande,  
 J. Gayvert,  Qinghui Ge,  A. Ghysels,  G. Gidofalvi,  J. Gomes,  
 J. Gonthier,  A. Gunina,  D. Hait,  M. W. D. Hanson-Heine,  
 P. H. P. Harbach,  A. W. Hauser,  M. F. Herbst,  J. E. Herr,  
 E. G. Hohenstein,  Z. C. Holden,  Kerwin Hui,  B. C. Huynh,  T.-C. Jagau,  
 Hyunjun Ji,  B. Kaduk,  K. Khistyaev,  Jaehoon Kim,  P. Klunzinger,  K. Koh,  
 D. Kosenkov,  L. Koulias,  T. Kowalczyk,  C. M. Krauter,  A. Kunitsa,  
 Ka Un Lao,  A. Laurent,  K. V. Lawler,  Joonho Lee,  D. Lefrancois,  
 S. Lehtola,  D. S. Levine,  Yi-Pei Li,  You-Sheng Lin,  Fenglai Liu,  
 E. Livshits,  A. Luenser,  P. Manohar,  E. Mansoor,  S. F. Manzer,  
 Shan-Ping Mao,  Yuezhi Mao,  N. Mardirossian,  A. V. Marenich,  
 T. Markovich,  L. A. Martinez-Martinez,  S. A. Maurer,  N. J. Mayhall,  
 S. C. McKenzie,  J.-M. Mewes,  P. Morgante,  A. F. Morrison,  
 J. W. Mullinax,  K. Nanda,  T. S. Nguyen-Beck,  R. Olivares-Amaya,  
 J. A. Parkhill,  Zheng Pei,  T. M. Perrine,  F. Plasser,  P. Pokhilko,  
 S. Prager,  A. Prociuk,  E. Ramos,  D. R. Rehn,  F. Rob,  M. Scheurer,  
 M. Schneider,  N. Sergueev,  S. M. Sharada,  S. Sharma,  D. W. Small,  
 T. Stauch,  T. Stein,  Yu-Chuan Su,  A. J. W. Thom,  A. Tkatchenko,  
 T. Tsuchimochi,  N. M. Tubman,  L. Vogt,  M. L. Vidal,  O. Vydrov,  
 M. A. Watson,  J. Wenzel,  M. de Wergifosse,  T. A. Wesolowski,  A. White,  
 J. Witte,  A. Yamada,  Jun Yang,  K. Yao,  S. Yeganeh,  S. R. Yost,  
 Zhi-Qiang You,  A. Zech,  Igor Ying Zhang,  Xing Zhang,  Yan Zhao,  
 Ying Zhu,  B. R. Brooks,  G. K. L. Chan,  C. J. Cramer,  M. S. Gordon,  
 W. J. Hehre,  A. Klamt,  M. W. Schmidt,  C. D. Sherrill,  D. G. Truhlar,  
 A. Aspuru-Guzik,  R. Baer,  A. T. Bell,  N. A. Besley,  Jeng-Da Chai,  
 A. E. DePrince, III,  R. A. DiStasio Jr.,  A. Dreuw,  B. D. Dunietz,  
 T. R. Furlani,  Chao-Ping Hsu,  Yousung Jung,  Jing Kong,  D. S. Lambrecht,  
 WanZhen Liang,  C. Ochsenfeld,  V. A. Rassolov,  L. V. Slipchenko,  
 J. E. Subotnik,  T. Van Voorhis,  J. M. Herbert,  A. I. Krylov,  
 P. M. W. Gill,  M. Head-Gordon

 Contributors to earlier versions of Q-Chem not listed above: 
 R. D. Adamson,  B. Austin,  J. Baker,  G. J. O. Beran,  K. Brandhorst,  
 S. T. Brown,  E. F. C. Byrd,  A. K. Chakraborty,  C.-L. Cheng,  
 Siu Hung Chien,  D. M. Chipman,  D. L. Crittenden,  H. Dachsel,  
 R. J. Doerksen,  A. D. Dutoi,  L. Fusti-Molnar,  W. A. Goddard III,  
 A. Golubeva-Zadorozhnaya,  S. R. Gwaltney,  G. Hawkins,  A. Heyden,  
 S. Hirata,  G. Kedziora,  F. J. Keil,  C. Kelley,  Jihan Kim,  R. A. King,  
 R. Z. Khaliullin,  P. P. Korambath,  W. Kurlancheek,  A. M. Lee,  M. S. Lee,  
 S. V. Levchenko,  Ching Yeh Lin,  D. Liotard,  R. C. Lochan,  I. Lotan,  
 P. E. Maslen,  N. Nair,  D. P. O'Neill,  D. Neuhauser,  E. Neuscamman,  
 C. M. Oana,  R. Olson,  B. Peters,  R. Peverati,  P. A. Pieniazek,  
 Y. M. Rhee,  J. Ritchie,  M. A. Rohrdanz,  E. Rosta,  N. J. Russ,  
 H. F. Schaefer III,  N. E. Schultz,  N. Shenvi,  A. C. Simmonett,  A. Sodt,  
 D. Stuck,  K. S. Thanthiriwatte,  V. Vanovschi,  Tao Wang,  A. Warshel,  
 C. F. Williams,  Q. Wu,  X. Xu,  W. Zhang

 Please cite Q-Chem as follows:
 Y. Shao et al., Mol. Phys. 113, 184-215 (2015)
 DOI: 10.1080/00268976.2014.952696

 Q-Chem 5.2.0 for Intel X86 EM64T Linux

 Parts of Q-Chem use Armadillo 8.300.2 (Tropical Shenanigans).
 http://arma.sourceforge.net/

 Q-Chem begins on Sun Sep 26 16:16:49 2021  

Host: cori01
0

     Scratch files written to /tmp/qchem50556//Frg2//
 May1019 |scratch|qcdevops|jenkins|workspace|build_RNUM -1
Processing $rem in /global/common/cori/software/qchem/5.2/config/preferences:
	 MEM_TOTAL  96000 
NAlpha2: 58
NElect   58
Mult     1
Symmetry turned off for PCM/SM12/SMD calculation

Checking the input file for inconsistencies... 	...done.

--------------------------------------------------------------
User input:
--------------------------------------------------------------
$molecule
0 1
 6	2.2196138274	3.7634830417	2.8744553485
 6	0.6966138274	1.1934830417	0.4854553485
 6	-0.6573861726	1.4314830417	0.6604553485
 6	1.6466138274	1.9624830417	1.1854553485
 6	1.2386138274	2.9644830417	2.0644553485
 6	-1.0683861726	2.4134830417	1.5414553485
 6	-0.1263861726	3.1704830417	2.2204553485
 8	-1.6013861726	0.7104830417	-0.0125446515
 1	1.0206138274	0.4264830417	-0.2005446515
 1	2.6976138274	1.7624830417	1.0384553485
 1	-2.1213861726	2.6024830417	1.6944553485
 1	-2.4923861726	1.0014830417	0.2174553485
 1	1.7666138274	4.7164830417	3.1534553485
 1	3.0856138274	3.9814830417	2.2574553485
 1	-0.4693861726	3.9354830417	2.9054553485
 1	2.5451038274	3.2415530417	3.7864053485
$end
$rem
EDA2		1
METHOD		WB97X-V
BASIS		DEF2-TZVPD
XC_GRID		000099000590
NL_GRID		1
UNRESTRICTED		FALSE
MAX_SCF_CYCLES		200
SYMMETRY		FALSE
SYM_IGNORE		TRUE
BASIS_LIN_DEP_THRESH		6
THRESH		14
SCF_CONVERGENCE		8
SCF_PRINT_FRGM		TRUE
SOLVENT_METHOD		SMD
!required keywords
JOBTYPE		SP
SYM_IGNORE		TRUE
SUBSYSTEM		TRUE
GEN_SCFMAN		TRUE
CHILD_INSTRUCTION		2
SYM_IGNORE		TRUE
SCFMI		0
RI_K 0		
PARI_K 0		
MIN_PARI_K 0		
IARI_K 0		
OCC_RI_K 0		
PURECART		1111
MEM_STATIC		2000
MEM_TOTAL		96000
GUI		0
CHILD_MP		1
CHILD_MP_ORDERS		232
FRZ_RELAX		0
FRZ_RELAX_METHOD		0
EDA_CLS_ELEC		1
EDA_CLS_DISP		0
FRZ_ORTHO_DECOMP		1
EDA2		FALSE
FRGM_METHOD		FALSE
CIS_N_ROOTS  0
LOCAL_CIS    0
CIS_RLX_DNS  1
$end
$smx
SOLVENT			WATER
$end
--------------------------------------------------------------
 ----------------------------------------------------------------
             Standard Nuclear Orientation (Angstroms)
    I     Atom           X                Y                Z
 ----------------------------------------------------------------
    1      C       2.2196138274     3.7634830417     2.8744553485
    2      C       0.6966138274     1.1934830417     0.4854553485
    3      C      -0.6573861726     1.4314830417     0.6604553485
    4      C       1.6466138274     1.9624830417     1.1854553485
    5      C       1.2386138274     2.9644830417     2.0644553485
    6      C      -1.0683861726     2.4134830417     1.5414553485
    7      C      -0.1263861726     3.1704830417     2.2204553485
    8      O      -1.6013861726     0.7104830417    -0.0125446515
    9      H       1.0206138274     0.4264830417    -0.2005446515
   10      H       2.6976138274     1.7624830417     1.0384553485
   11      H      -2.1213861726     2.6024830417     1.6944553485
   12      H      -2.4923861726     1.0014830417     0.2174553485
   13      H       1.7666138274     4.7164830417     3.1534553485
   14      H       3.0856138274     3.9814830417     2.2574553485
   15      H      -0.4693861726     3.9354830417     2.9054553485
   16      H       2.5451038274     3.2415530417     3.7864053485
 ----------------------------------------------------------------
 Nuclear Repulsion Energy =         343.41226118 hartrees
 There are       29 alpha and       29 beta electrons
 Requested basis set is def2-TZVPD
 There are 145 shells and 371 basis functions

 Total QAlloc Memory Limit  96000 MB
 Mega-Array Size      1956 MB
 MEM_STATIC part      2000 MB
 
 Citation of the SMD model:
 Marenich, A.V.; Cramer, C.J.; Truhlar, D.G.
 J. Phys. Chem. B 2009, 113, 6378-6396.
 iSolventCode=           1
 Solvent: water                                                           
 
 vradii
            1           2           3           4           5           6
    1   1.8500000   1.8500000   1.8500000   1.8500000   1.8500000   1.8500000
            7           8           9          10          11          12
    1   1.8500000   1.5200000   1.2000000   1.2000000   1.2000000   1.2000000
           13          14          15          16
    1   1.2000000   1.2000000   1.2000000   1.2000000
 Changing PCM_VDW_RADII to SMD_RADIUS
 Discretize the solute cavity surface with Lebedev spheres
	Using 110 Lebedev grid points for each H atom
	Using 194 Lebedev grid points for other atoms
	Atomic van der Waals radii will be scaled by 1.20
 Remove points where switching function is < 1.0e-08
 Keep 1181 surface tesserae and discard 1251 interior tesserae
 Molecular Surface Area = 141.183 Angst**2
 A cutoff of  1.0D-14 yielded  10042 shell pairs
 There are     67062 function pairs (     85752 Cartesian)
 Smallest overlap matrix eigenvalue = 5.32E-07
 Linear dependence detected in AO basis
 Tighter screening thresholds may be required for diffuse basis sets
 Use S2THRESH > 14 and THRESH = 14 in case of SCF convergence issues
 Number of orthogonalized atomic orbitals = 370
 Maximum deviation from orthogonality = 1.439E-10

 Scale SEOQF with 1.000000e-01/1.000000e-01/1.000000e-01

 Standard Electronic Orientation quadrupole field applied
 Nucleus-field energy     =     0.0000000114 hartrees
 Guess from superposition of atomic densities
 Warning:  Energy on first SCF cycle will be non-variational
 SAD guess density has 57.738434 electrons

 -----------------------------------------------------------------------
  General SCF calculation program by
  Eric Jon Sundstrom, Paul Horn, Yuezhi Mao, Dmitri Zuev, Alec White,
  David Stuck, Shaama M.S., Shane Yost, Joonho Lee, David Small,
  Daniel Levine, Susi Lehtola, Hugh Burton, Evgeny Epifanovsky
 -----------------------------------------------------------------------
 Exchange:     0.1670 Hartree-Fock + 1.0000 wB97X-V + LR-HF
 Correlation:  1.0000 wB97X-V
 Using Euler-Maclaurin-Lebedev (99,590) quadrature formula
 Nonlocal Correlation:  VV10 with C = 0.0100 and b = 6.00 and scale = 1.00000
 Grid used for NLC:  SG-1 standard quadrature
Energy prior to optimization (guess energy) = -346.496097466697
Begin Timing: Total SCF Calculation
begin iterations for algorithm: DIIS         
the SCF tolerance is set to 1.00e-08
    1    -346.4960974667      5.17e-03     00000 
    2    -346.4389766728      5.57e-03     00000 
    3    -346.8201517370      5.31e-04     00000 
    4    -346.8250129746      1.75e-04     00000 
    5    -346.8257069774      3.72e-05     00000 
    6    -346.8257566563      1.31e-05     00000 
    7    -346.8257613482      5.13e-06     00000 
    8    -346.8257620879      1.51e-06     00000 
    9    -346.8257621777      5.22e-07     00000 
   10    -346.8257621899      2.30e-07     00000 
   11    -346.8257621932      6.71e-08     00000 
   12    -346.8257621937      3.55e-08     00000 
   13    -346.8257621938      1.29e-08     00000 
   14    -346.8257621938      3.73e-09     00000 Convergence criterion met
Timing for Total SCF: 2048.00s (wall), 4075.75s (cpu)
(3)  G-ENP(liq) elect-nuc-pol free energy of system     -346.825762194 a.u.
(4)  G-CDS(liq) cavity-dispersion-solvent structure 
     free energy                                                3.7541 kcal/mol
(6)  G-S(liq) free energy of system                     -346.819779647 a.u.
E_pcm = -0.0174249819
E_cds = 0.0059825463
Multipole orders to be included
        2
        3
computing dipole RHS
computing quadrupole RHS
total number of RHS in solve_reponses: 8
RHS batch sizes
        8
Beginning Block Conjugate Gradient Iterations. Batch Number: 0
computing hessian-vector products by finite difference
              1      6.28e-01     00000 Conjugate Gradient Iteration
computing hessian-vector products by finite difference
              2      1.98e-01     00000 Conjugate Gradient Iteration
computing hessian-vector products by finite difference
              3      5.28e-02     00000 Conjugate Gradient Iteration
computing hessian-vector products by finite difference
              4      1.60e-02     00000 Conjugate Gradient Iteration
computing hessian-vector products by finite difference
              5      3.81e-03     00000 Conjugate Gradient Iteration
computing hessian-vector products by finite difference
              6      1.38e-03     00000 Conjugate Gradient Iteration
computing hessian-vector products by finite difference
              7      3.34e-04     00000 Conjugate Gradient Iteration
computing hessian-vector products by finite difference
              8      6.78e-05     00000 Conjugate Gradient Iteration
computing hessian-vector products by finite difference
              9      1.28e-05     00000 Conjugate Gradient Iteration
computing hessian-vector products by finite difference
             10      1.80e-06     00000 Conjugate Gradient Iteration
computing hessian-vector products by finite difference
             11      2.30e-07     00000 Conjugate Gradient Iteration
computing hessian-vector products by finite difference
             12      4.10e-08     00000 Conjugate Gradient Iteration
computing hessian-vector products by finite difference
             13      7.59e-09     00000 CG Converged
batch 0 complete
Done Calculating Responses
TESTING ORTHOGONALIZATION OF MULTIPOLE BASIS
Multipole virts passed orthogonality test
Virts Per Order
           87
          145
 
 --------------------------------------------------------------
 
                    Orbital Energies (a.u.)
 --------------------------------------------------------------
 
 Alpha MOs
 -- Occupied --
-19.2397 -10.3291 -10.2708 -10.2702 -10.2673 -10.2658 -10.2632 -10.2524
 -1.1893  -0.9919  -0.8982  -0.8776  -0.8053  -0.7425  -0.7083  -0.6598
 -0.5993  -0.5740  -0.5433  -0.5377  -0.5246  -0.5165  -0.5068  -0.4722
 -0.4501  -0.4394  -0.4341  -0.3479  -0.3116
 -- Virtual --
  0.0632   0.0636   0.0742   0.0832   0.0889   0.0997   0.1139   0.1159
  0.1190   0.1369   0.1516   0.1561   0.1599   0.1789   0.1807   0.1981
  0.2057   0.2120   0.2208   0.2295   0.2425   0.2468   0.2546   0.2591
  0.2669   0.2731   0.2769   0.2813   0.2881   0.3004   0.3015   0.3081
  0.3099   0.3152   0.3183   0.3293   0.3380   0.3466   0.3508   0.3518
  0.3587   0.3641   0.3652   0.3795   0.3802   0.3843   0.3883   0.3982
  0.3998   0.4012   0.4054   0.4140   0.4196   0.4243   0.4301   0.4379
  0.4442   0.4539   0.4615   0.4633   0.4737   0.4767   0.4835   0.4873
  0.4930   0.4985   0.5035   0.5108   0.5191   0.5214   0.5298   0.5423
  0.5469   0.5514   0.5532   0.5649   0.5662   0.5697   0.5881   0.6009
  0.6072   0.6075   0.6270   0.6308   0.6472   0.6613   0.6711   0.6754
  0.6840   0.6847   0.6884   0.6952   0.7053   0.7104   0.7210   0.7321
  0.7341   0.7488   0.7496   0.7552   0.7628   0.7811   0.7873   0.7906
  0.7916   0.7968   0.8018   0.8053   0.8134   0.8199   0.8337   0.8382
  0.8451   0.8527   0.8569   0.8650   0.8686   0.8780   0.8882   0.8989
  0.9107   0.9170   0.9294   0.9542   0.9694   0.9783   0.9908   1.0103
  1.0345   1.0380   1.0489   1.0534   1.0563   1.0734   1.0810   1.0926
  1.1058   1.1224   1.1432   1.1817   1.2008   1.2473   1.2554   1.2984
  1.3127   1.3147   1.3360   1.3639   1.3646   1.3926   1.3938   1.4411
  1.4687   1.4721   1.4835   1.4871   1.5409   1.5697   1.6120   1.6223
  1.6338   1.6429   1.6879   1.6925   1.7095   1.7314   1.8005   1.8042
  1.8310   1.8373   1.8378   1.8680   1.8741   1.8866   1.9271   1.9290
  1.9493   1.9552   1.9731   1.9945   2.0117   2.0364   2.0425   2.0599
  2.0641   2.0873   2.0977   2.1053   2.1214   2.1618   2.2025   2.2121
  2.2223   2.2456   2.2778   2.2859   2.3051   2.3254   2.3531   2.3741
  2.4110   2.4171   2.4278   2.4642   2.4986   2.5104   2.5270   2.5637
  2.5898   2.6103   2.6204   2.6540   2.6552   2.6773   2.6934   2.7481
  2.7574   2.7703   2.7920   2.8107   2.8250   2.8394   2.8733   2.8861
  2.9153   2.9334   2.9479   2.9558   2.9687   2.9800   2.9803   3.0095
  3.0226   3.0553   3.0777   3.0861   3.1178   3.1374   3.1525   3.1703
  3.1839   3.2057   3.2215   3.2369   3.2635   3.2685   3.2784   3.3004
  3.3208   3.3582   3.3847   3.3893   3.3979   3.4224   3.4511   3.4644
  3.4723   3.4774   3.5012   3.5168   3.5256   3.5319   3.5402   3.5542
  3.5687   3.5783   3.5900   3.6067   3.6136   3.6249   3.6539   3.6657
  3.6891   3.7217   3.7551   3.7714   3.7962   3.8332   3.8472   3.8965
  3.9421   3.9718   3.9845   3.9985   4.0513   4.0897   4.1469   4.1802
  4.2523   4.2857   4.2993   4.3044   4.3212   4.3456   4.3489   4.3766
  4.3861   4.4065   4.4446   4.4558   4.4971   4.5653   4.6083   4.6260
  4.7414   4.7523   4.7846   4.8156   4.8885   4.9286   5.0306   5.0670
  5.0937   5.1402   5.1713   5.3175   5.3481   5.4023   5.4512   5.5471
  5.6140   5.6595   5.7216   5.7693   5.9492   6.2134   6.4967   6.5956
  6.6319   6.8747   7.0268   7.3026   7.4585  22.6780  22.6847  22.9610
 22.9801  23.0550  23.2110  23.5369  44.4221
 --------------------------------------------------------------
 
          Ground-State Mulliken Net Atomic Charges

     Atom                 Charge (a.u.)
  ----------------------------------------
      1 C                    -1.082392
      2 C                    -0.790454
      3 C                     0.679348
      4 C                    -0.478111
      5 C                     0.497833
      6 C                    -0.369344
      7 C                    -0.611469
      8 O                    -0.548865
      9 H                     0.402680
     10 H                     0.399456
     11 H                     0.364304
     12 H                     0.325005
     13 H                     0.304056
     14 H                     0.294200
     15 H                     0.371489
     16 H                     0.242266
  ----------------------------------------
  Sum of atomic charges =     0.000000

 -----------------------------------------------------------------
                    Cartesian Multipole Moments
 -----------------------------------------------------------------
    Charge (ESU x 10^10)
                 0.0000
    Dipole Moment (Debye)
         X      -0.9540      Y       1.3760      Z       1.2643
       Tot       2.0981
    Quadrupole Moments (Debye-Ang)
        XX     -36.2889     XY      -2.8840     YY     -44.1482
        XZ      -1.4806     YZ       6.0834     ZZ     -46.8728
    Octopole Moments (Debye-Ang^2)
       XXX     -67.0165    XXY     -86.5976    XYY     -20.3967
       YYY    -310.3410    XXZ     -56.9428    XYZ      -0.3224
       YYZ     -44.2993    XZZ     -14.9446    YZZ     -93.6994
       ZZZ    -200.6610
    Hexadecapole Moments (Debye-Ang^3)
      XXXX    -536.6089   XXXY    -245.0524   XXYY    -376.1710
      XYYY    -231.7355   YYYY   -1788.0983   XXXZ    -187.8377
      XXYZ    -177.9744   XYYZ     -60.8386   YYYZ    -515.0072
      XXZZ    -248.5415   XYZZ     -72.6118   YYZZ    -391.6118
      XZZZ    -172.8833   YZZZ    -572.1288   ZZZZ    -909.0130
 -----------------------------------------------------------------
Archival summary:
1\1\nid00570\SP\ProcedureUnspecified\BasisUnspecified\178\meili\MonSep2702:18:142021MonSep2702:18:142021\0\\#,ProcedureUnspecified,BasisUnspecified,\\0,1\C\O,1,1.36525\H,2,0.965123,1,111.201\C,1,1.38181,2,118.943,3,0.70402,0\H,4,1.08071,1,120.289,2,0.17683,0\C,1,1.38585,2,121.508,3,-179.734,0\H,6,1.07882,1,119.724,2,0.34903,0\C,4,1.38617,1,119.886,2,-179.061,0\H,8,1.08264,4,118.719,1,179.941,0\C,8,1.38924,4,122.122,1,-1.04969,0\C,10,1.39395,8,117.709,4,0.335892,0\H,11,1.07991,10,120.253,8,-179.552,0\C,10,1.50229,8,120.146,4,-176.893,0\H,13,1.08543,10,108.743,8,-143.303,0\H,13,1.09145,10,109.341,8,-26.1702,0\H,13,1.1,10,112.822,8,95.2701,0\\\@

 Total job time:  36089.12s(wall), 71596.19s(cpu) 
 Mon Sep 27 02:18:18 2021

        *************************************************************
        *                                                           *
        *  Thank you very much for using Q-Chem.  Have a nice day.  *
        *                                                           *
        *************************************************************


Done Job For Fragment 1
calling putenv with: QCSCRATCH=/global/cscratch1/sd/meili 
calling putenv with: QCLOCALSCR=/tmp 
calling putenv with: QCTHREADS=32 
Doing General SCFMI
 Exchange:     0.1670 Hartree-Fock + 1.0000 wB97X-V + LR-HF
 Correlation:  1.0000 wB97X-V
 Using Euler-Maclaurin-Lebedev (99,590) quadrature formula
 Nonlocal Correlation:  VV10 with C = 0.0100 and b = 6.00 and scale = 1.00000
 Grid used for NLC:  SG-1 standard quadrature
performing fock build before subrot guess so that all methods have access
Printing subrot_rss_gen Method Specification:
Occupied Subspace Method is 0
Virtual Subspace Method is 0
Energy of the unrelaxed supersystem initial determinant -612.354170621395
performing fock build before subrot guess so that all methods have access
Printing subrot_rss_gen Method Specification:
Occupied Subspace Method is 0
Virtual Subspace Method is 0
Energy of the unrelaxed supersystem initial determinant w/ solvent -612.388032641135
write pseudocanon occs and virts to disk
write pseudocanon orbital energies to disk
Tolerance of ortho_decomp_scf: 1.00e-06
GDM subspace size: 20
Beginning the Orthogonal Decomposition of the Initial Supersystem Wavefunction
    1    -612.2802024791      7.35e-02     ortho_decomp Preconditoned Steepest Descent
    2    -612.2939927388      1.68e-03     ortho_decomp BFGS Step
    3    -612.2940368919      1.63e-04     ortho_decomp BFGS Step
    4    -612.2940370321      7.28e-06     ortho_decomp BFGS Step
    5    -612.2940370326      2.51e-07     ortho_decomp 00000 Convergence criterion met
 Hartree-Fock
 Hartree-Fock
 Hartree-Fock
Doing General SCFMI
 Exchange:     0.1670 Hartree-Fock + 1.0000 wB97X-V + LR-HF
 Correlation:  1.0000 wB97X-V
 Using Euler-Maclaurin-Lebedev (99,590) quadrature formula
 Nonlocal Correlation:  VV10 with C = 0.0100 and b = 6.00 and scale = 1.00000
 Grid used for NLC:  SG-1 standard quadrature
performing fock build at end of subrot_r(subrot) constructor so that all methods have access
<S^2> of initial wavefunction before polarization iterations 0.0000000000
Beginning iterations for the determination of the polarized wavefunction
Energy prior to optimization (guess energy) = -612.388032641135
Begin Timing: Total SCF Calculation
begin iterations for algorithm: DIIS         
the SCF tolerance is set to 1.00e-08
    1    -612.3880326411      1.72e-04     00000 
    2    -612.3906945099      5.75e-05     00000 
    3    -612.3909077777      4.03e-05     00000 
    4    -612.3909931025      1.05e-05     00000 
    5    -612.3910043283      4.40e-06     00000 
    6    -612.3910067682      2.45e-06     00000 
    7    -612.3910074319      8.15e-07     00000 
    8    -612.3910075535      3.79e-07     00000 
    9    -612.3910075690      1.28e-07     00000 
   10    -612.3910075705      6.72e-08     00000 
   11    -612.3910075708      2.41e-08     00000 
   12    -612.3910075709      1.25e-08     00000 
   13    -612.3910075709      5.26e-09     00000 Convergence criterion met
write pseudocanon occs and virts to disk
write pseudocanon orbital energies to disk
Timing for Total SCF: 7943.00s (wall), 15824.38s (cpu)
<S^2> of polarized wavefunction after polarization iterations 0.0000000000
relaxing scfmi constraint to allow all rotations in the entire AO span
Doing General SCFMI
 Exchange:     0.1670 Hartree-Fock + 1.0000 wB97X-V + LR-HF
 Correlation:  1.0000 wB97X-V
 Using Euler-Maclaurin-Lebedev (99,590) quadrature formula
 Nonlocal Correlation:  VV10 with C = 0.0100 and b = 6.00 and scale = 1.00000
 Grid used for NLC:  SG-1 standard quadrature
performing fock build at end of subrot_r(subrot) constructor so that all methods have access
<S^2> of polarized wavefunction before ct-allowed iterations 0.0000000000
Beginning iterations for the determination of the CT-Allowed wavefunction
Energy prior to optimization (guess energy) = -612.391007570876
Begin Timing: Total SCF Calculation
begin iterations for algorithm: DIIS         
the SCF tolerance is set to 1.00e-08
    1    -612.3910075709      1.79e-04     00000 
    2    -612.3980488168      2.77e-05     00000 
    3    -612.3982957437      1.28e-05     00000 
    4    -612.3983180071      5.00e-06     00000 
    5    -612.3983227275      6.47e-07     00000 
    6    -612.3983228511      3.77e-07     00000 
    7    -612.3983228862      9.84e-08     00000 
    8    -612.3983228897      3.92e-08     00000 
    9    -612.3983228905      1.59e-08     00000 
   10    -612.3983228907      6.13e-09     00000 Convergence criterion met
write pseudocanon occs and virts to disk
write pseudocanon orbital energies to disk
Timing for Total SCF: 5856.00s (wall), 11666.76s (cpu)
<S^2> of ct_allowed wavefunction after ct-allowed iterations 0.0000000000

================================
        Results of EDA2         
================================
Basic EDA Quantities
--------------------
Fragment Energies (Ha):
1 -265.5693911055
2 -346.8197796475
--------------------
  E_prp (kJ/mol) = 0.0000
  E_sol (kJ/mol) = 13.9050
  E_frz (kJ/mol) = 9.6345
  E_pol (kJ/mol) = -7.8108
  E_vct (kJ/mol) = -19.2066
  E_int (kJ/mol) = -3.4778
--------------------


Initial Wavefunction Decomposition
--------------------
  --------------------
  Orthogonal Fragment Subspace Decomposition:
  --------------------
     E_elec   (ELEC)   (kJ/mol) = -111.2196
     E_pauli  (PAULI)  (kJ/mol) = 140.2573
     E_disp   (DISP)   (kJ/mol) = -19.4032
     --------------------
     Terms summing to E_pauli:
     --------------------
        E_kep_pauli       (kJ/mol) = 167.5171
        E_disp_free_pauli (kJ/mol) = -27.2598
  --------------------
  Classical Frozen Decomposition:
  --------------------
     E_cls_elec  (CLS ELEC)  (kJ/mol) = -68.0882
     E_cls_pauli (CLS PAULI) (kJ/mol) = 77.7227
    [E_mod_pauli (MOD PAULI) (kJ/mol) = 97.1260 (CLS PAULI - DISP from orthogonal decomposition) ]
  --------------------
--------------------

Simplified EDA Summary (kJ/mol)
--------------------
 PREPARATION     0.0000
 SOLVATION       13.9050
 FROZEN          29.0377      (does not include dispersion)
[PAULI           140.2573]     (if this is negligible, then frozen describes electrostatics)
 DISPERSION      -19.4032
 POLARIZATION    -7.8108
 CHARGE TRANSFER -19.2066
 TOTAL           -3.4778     (PRP + SOL + FRZ + DISP + POL + CT)
--------------------
 
 --------------------------------------------------------------
 
                    Orbital Energies (a.u.)
 --------------------------------------------------------------
 
 Alpha MOs
 -- Occupied --
-19.2507 -14.4428 -14.3822 -10.3332 -10.3116 -10.2796 -10.2774 -10.2727
-10.2722 -10.2705 -10.2676 -10.2660 -10.2572 -10.2531  -1.2028  -1.1477
 -0.9948  -0.9908  -0.9010  -0.8907  -0.8800  -0.8186  -0.8081  -0.7500
 -0.7231  -0.7118  -0.6796  -0.6659  -0.6625  -0.6051  -0.5764  -0.5594
 -0.5543  -0.5448  -0.5422  -0.5316  -0.5253  -0.5200  -0.5128  -0.5059
 -0.4911  -0.4764  -0.4700  -0.4515  -0.4442  -0.4364  -0.3735  -0.3717
 -0.3496  -0.3178  -0.3151
 -- Virtual --
  0.0606   0.0613   0.0723   0.0752   0.0802   0.0918   0.0936   0.1048
  0.1065   0.1094   0.1166   0.1200   0.1266   0.1350   0.1431   0.1475
  0.1527   0.1582   0.1590   0.1697   0.1741   0.1770   0.1876   0.1923
  0.1962   0.1997   0.2051   0.2093   0.2163   0.2182   0.2233   0.2267
  0.2329   0.2368   0.2407   0.2495   0.2548   0.2590   0.2630   0.2660
  0.2695   0.2728   0.2738   0.2780   0.2831   0.2879   0.2926   0.2966
  0.3017   0.3052   0.3056   0.3116   0.3121   0.3132   0.3229   0.3250
  0.3286   0.3317   0.3350   0.3381   0.3393   0.3419   0.3458   0.3496
  0.3547   0.3557   0.3601   0.3630   0.3681   0.3695   0.3738   0.3771
  0.3805   0.3812   0.3853   0.3901   0.3917   0.3989   0.3997   0.4016
  0.4044   0.4083   0.4158   0.4185   0.4224   0.4248   0.4275   0.4290
  0.4370   0.4405   0.4425   0.4461   0.4506   0.4535   0.4567   0.4602
  0.4633   0.4656   0.4729   0.4741   0.4757   0.4794   0.4830   0.4893
  0.4924   0.4988   0.5007   0.5056   0.5069   0.5118   0.5164   0.5206
  0.5252   0.5282   0.5297   0.5344   0.5380   0.5419   0.5501   0.5516
  0.5565   0.5642   0.5703   0.5733   0.5814   0.5836   0.5869   0.5916
  0.5946   0.5974   0.6059   0.6107   0.6144   0.6194   0.6224   0.6313
  0.6331   0.6424   0.6456   0.6482   0.6562   0.6650   0.6670   0.6711
  0.6755   0.6793   0.6865   0.6895   0.6976   0.6980   0.7049   0.7105
  0.7129   0.7162   0.7187   0.7227   0.7243   0.7314   0.7335   0.7402
  0.7462   0.7510   0.7549   0.7578   0.7599   0.7662   0.7704   0.7726
  0.7762   0.7799   0.7851   0.7878   0.7938   0.7970   0.8009   0.8043
  0.8076   0.8106   0.8126   0.8180   0.8243   0.8259   0.8300   0.8365
  0.8392   0.8431   0.8447   0.8491   0.8510   0.8613   0.8663   0.8716
  0.8805   0.8865   0.8889   0.8924   0.8940   0.8993   0.9012   0.9107
  0.9225   0.9343   0.9391   0.9417   0.9519   0.9607   0.9657   0.9746
  0.9808   0.9895   0.9958   0.9989   1.0099   1.0128   1.0205   1.0309
  1.0376   1.0492   1.0554   1.0599   1.0684   1.0750   1.0809   1.0864
  1.0980   1.1037   1.1049   1.1147   1.1257   1.1330   1.1386   1.1449
  1.1576   1.1626   1.1757   1.1840   1.2023   1.2156   1.2287   1.2328
  1.2582   1.2639   1.2741   1.2804   1.2884   1.3013   1.3174   1.3312
  1.3509   1.3521   1.3599   1.3667   1.3706   1.3800   1.3900   1.3979
  1.4151   1.4303   1.4499   1.4559   1.4644   1.4760   1.4861   1.4961
  1.5023   1.5154   1.5413   1.5508   1.5578   1.5778   1.6039   1.6181
  1.6213   1.6342   1.6492   1.6537   1.6603   1.6682   1.6878   1.7100
  1.7197   1.7240   1.7362   1.7452   1.7545   1.7611   1.7906   1.8215
  1.8336   1.8409   1.8447   1.8487   1.8579   1.8748   1.8780   1.8849
  1.8990   1.9231   1.9298   1.9391   1.9405   1.9506   1.9610   1.9628
  1.9673   1.9754   1.9841   1.9882   1.9934   2.0013   2.0098   2.0183
  2.0377   2.0471   2.0519   2.0615   2.0714   2.0850   2.0897   2.0998
  2.1054   2.1228   2.1320   2.1447   2.1525   2.1700   2.1847   2.1934
  2.2025   2.2164   2.2304   2.2422   2.2578   2.2660   2.2878   2.2898
  2.3123   2.3179   2.3317   2.3487   2.3779   2.3934   2.3998   2.4016
  2.4157   2.4214   2.4377   2.4444   2.4516   2.4874   2.5028   2.5088
  2.5152   2.5235   2.5520   2.5651   2.5719   2.5935   2.6092   2.6161
  2.6290   2.6305   2.6412   2.6498   2.6572   2.6596   2.6783   2.6907
  2.7051   2.7144   2.7351   2.7488   2.7567   2.7624   2.7794   2.7856
  2.7916   2.8077   2.8294   2.8331   2.8487   2.8546   2.8654   2.8810
  2.8847   2.9081   2.9131   2.9247   2.9412   2.9537   2.9595   2.9640
  2.9774   2.9870   2.9952   3.0099   3.0308   3.0338   3.0479   3.0650
  3.0744   3.0891   3.0970   3.1018   3.1028   3.1196   3.1246   3.1531
  3.1613   3.1713   3.1751   3.1782   3.1909   3.1989   3.2026   3.2217
  3.2277   3.2304   3.2415   3.2529   3.2607   3.2641   3.2782   3.2828
  3.3009   3.3038   3.3188   3.3214   3.3347   3.3484   3.3574   3.3638
  3.3830   3.3938   3.4013   3.4057   3.4111   3.4181   3.4316   3.4370
  3.4455   3.4601   3.4647   3.4796   3.4822   3.4955   3.5058   3.5172
  3.5234   3.5302   3.5346   3.5377   3.5487   3.5536   3.5674   3.5778
  3.5862   3.5963   3.6043   3.6102   3.6190   3.6307   3.6392   3.6434
  3.6621   3.6677   3.6825   3.6988   3.7063   3.7307   3.7390   3.7533
  3.7622   3.7714   3.7831   3.7979   3.8271   3.8319   3.8509   3.8590
  3.8739   3.8983   3.9028   3.9512   3.9668   3.9795   3.9842   4.0006
  4.0133   4.0573   4.0642   4.1038   4.1166   4.1329   4.1573   4.1773
  4.1966   4.2637   4.2698   4.2991   4.3026   4.3081   4.3141   4.3268
  4.3494   4.3578   4.3867   4.3977   4.4093   4.4228   4.4569   4.4651
  4.4772   4.5040   4.5336   4.5539   4.5715   4.5810   4.6187   4.6196
  4.6278   4.7175   4.7452   4.7629   4.7896   4.8039   4.8153   4.8511
  4.8935   4.8997   4.9047   4.9392   4.9904   5.0177   5.0367   5.0435
  5.0563   5.0668   5.0702   5.0898   5.1166   5.1470   5.1910   5.2111
  5.2436   5.3115   5.3152   5.3233   5.3495   5.4094   5.4474   5.4653
  5.4678   5.5205   5.5515   5.5628   5.6054   5.6258   5.6338   5.6806
  5.7293   5.7415   5.7641   5.7828   5.8266   5.8870   5.9333   5.9684
  6.0523   6.2510   6.2956   6.3770   6.5000   6.6153   6.6770   6.8876
  7.1921   7.3863   7.5071  22.6330  22.6814  22.7219  22.9514  22.9852
 23.0063  23.0520  23.2172  23.2252  23.3988  23.5507  32.8273  32.9130
 44.5082
 --------------------------------------------------------------
 
          Ground-State Mulliken Net Atomic Charges

     Atom                 Charge (a.u.)
  ----------------------------------------
      1 C                    -0.823404
      2 C                    -0.467190
      3 C                     0.244378
      4 C                    -0.114339
      5 N                     0.325568
      6 N                    -0.605924
      7 H                     0.379681
      8 H                     0.162071
      9 H                     0.242149
     10 H                     0.233404
     11 H                     0.365969
     12 H                     0.250647
     13 C                    -1.109982
     14 C                    -0.404701
     15 C                     0.466598
     16 C                    -0.709990
     17 C                     0.335991
     18 C                    -0.567027
     19 C                    -0.519972
     20 O                    -0.505942
     21 H                     0.470463
     22 H                     0.420370
     23 H                     0.401979
     24 H                     0.290530
     25 H                     0.300303
     26 H                     0.298953
     27 H                     0.392541
     28 H                     0.246873
  ----------------------------------------
  Sum of atomic charges =     0.000000

 -----------------------------------------------------------------
                    Cartesian Multipole Moments
 -----------------------------------------------------------------
    Charge (ESU x 10^10)
                -0.0000
    Dipole Moment (Debye)
         X      -0.1266      Y       6.5346      Z       4.4047
       Tot       7.8816
    Quadrupole Moments (Debye-Ang)
        XX     -68.1870     XY     -13.5042     YY     -99.9153
        XZ      -5.5215     YZ      -7.0543     ZZ     -93.9591
    Octopole Moments (Debye-Ang^2)
       XXX     -44.5493    XXY      25.0847    XYY      38.6361
       YYY      89.2213    XXZ       7.6587    XYZ      26.5631
       YYZ      77.3619    XZZ      10.4375    YZZ      57.3048
       ZZZ      34.2605
    Hexadecapole Moments (Debye-Ang^3)
      XXXX    -813.8041   XXXY    -266.1932   XXYY    -827.5080
      XYYY    -450.3975   YYYY   -4194.0104   XXXZ    -224.2196
      XXYZ    -404.0900   XYYZ    -198.2937   YYYZ   -1340.9562
      XXZZ    -443.9931   XYZZ    -153.0293   YYZZ   -1045.0052
      XZZZ    -278.2335   YZZZ   -1323.1045   ZZZZ   -1834.4019
 -----------------------------------------------------------------
Archival summary:
1\1\nid00570\SP\ProcedureUnspecified\BasisUnspecified\121114\meili\MonSep2709:06:092021MonSep2709:06:092021\0\\#,ProcedureUnspecified,BasisUnspecified,\\0,1\O\H,1,0.965123\C,1,1.36525,2,111.201\C,3,1.38181,1,118.943,2,0.70402,0\H,4,1.08071,3,120.289,1,0.17683,0\C,3,1.38585,1,121.508,2,-179.734,0\H,6,1.07882,3,119.724,1,0.34903,0\C,4,1.38617,3,119.886,1,-179.061,0\H,8,1.08264,4,118.719,3,179.941,0\C,8,1.38924,4,122.122,3,-1.04969,0\C,10,1.39395,8,117.709,4,0.335892,0\H,11,1.07991,10,120.253,8,-179.552,0\C,10,1.50229,8,120.146,4,-176.893,0\H,13,1.08543,10,108.743,8,-143.303,0\H,13,1.09145,10,109.341,8,-26.1702,0\H,13,1.1,10,112.822,8,95.2701,0\H,1,1.66452,2,131.195,3,161.886,0\N,17,1.0031,1,171.129,2,4.72926,0\C,18,1.32337,17,125.883,1,20.735,0\H,19,1.08258,18,125.23,17,-1.08743,0\N,19,1.33205,18,109.663,17,178.869,0\C,18,1.37047,17,126.398,1,-162.659,0\H,22,1.08171,18,126.7,17,0.100157,0\C,22,1.36133,18,108.006,17,-178.402,0\C,24,1.50688,22,128.762,18,175.973,0\H,25,1.09016,24,106.453,22,-4.22582,0\H,25,1.09029,24,108.633,22,-120.029,0\H,25,1.1,24,116.151,22,116.434,0\\\@

 Total job time:  75453.93s(wall), 48789.38s(cpu) 
 Mon Sep 27 09:06:13 2021

        *************************************************************
        *                                                           *
        *  Thank you very much for using Q-Chem.  Have a nice day.  *
        *                                                           *
        *************************************************************


