
Running Job 1 of 1 SSI-042PHE-054PHE-1_SMD_TZVPD.in
qchem SSI-042PHE-054PHE-1_SMD_TZVPD.in_13618.0 /tmp/qchem13618/ 0
/global/common/cori/software/qchem/5.2/exe/qcprog.exe_s SSI-042PHE-054PHE-1_SMD_TZVPD.in_13618.0 /tmp/qchem13618/
                  Welcome to Q-Chem
     A Quantum Leap Into The Future Of Chemistry


 Q-Chem 5.2, Q-Chem, Inc., Pleasanton, CA (2019)

 License issued to: National Energy Research Scientific Computing Center

 Yihan Shao,  Zhengting Gan,  E. Epifanovsky,  A. T. B. Gilbert,  M. Wormit,  
 J. Kussmann,  A. W. Lange,  A. Behn,  Jia Deng,  Xintian Feng,  D. Ghosh,  
 M. Goldey,  P. R. Horn,  L. D. Jacobson,  I. Kaliman,  T. Kus,  A. Landau,  
 Jie Liu,  E. I. Proynov,  R. M. Richard,  R. P. Steele,  E. J. Sundstrom,  
 H. L. Woodcock III,  P. M. Zimmerman,  D. Zuev,  B. Albrecht,  E. Alguire,  
 S. A. Baeppler,  D. Barton,  Z. Benda,  Y. A. Bernard,  E. J. Berquist,  
 K. B. Bravaya,  H. Burton,  D. Casanova,  Chun-Min Chang,  Yunqing Chen,  
 A. Chien,  K. D. Closser,  M. P. Coons,  S. Coriani,  S. Dasgupta,  
 A. L. Dempwolff,  M. Diedenhofen,  Hainam Do,  R. G. Edgar,  Po-Tung Fang,  
 S. Faraji,  S. Fatehi,  Qingguo Feng,  K. D. Fenk,  J. Fosso-Tande,  
 J. Gayvert,  Qinghui Ge,  A. Ghysels,  G. Gidofalvi,  J. Gomes,  
 J. Gonthier,  A. Gunina,  D. Hait,  M. W. D. Hanson-Heine,  
 P. H. P. Harbach,  A. W. Hauser,  M. F. Herbst,  J. E. Herr,  
 E. G. Hohenstein,  Z. C. Holden,  Kerwin Hui,  B. C. Huynh,  T.-C. Jagau,  
 Hyunjun Ji,  B. Kaduk,  K. Khistyaev,  Jaehoon Kim,  P. Klunzinger,  K. Koh,  
 D. Kosenkov,  L. Koulias,  T. Kowalczyk,  C. M. Krauter,  A. Kunitsa,  
 Ka Un Lao,  A. Laurent,  K. V. Lawler,  Joonho Lee,  D. Lefrancois,  
 S. Lehtola,  D. S. Levine,  Yi-Pei Li,  You-Sheng Lin,  Fenglai Liu,  
 E. Livshits,  A. Luenser,  P. Manohar,  E. Mansoor,  S. F. Manzer,  
 Shan-Ping Mao,  Yuezhi Mao,  N. Mardirossian,  A. V. Marenich,  
 T. Markovich,  L. A. Martinez-Martinez,  S. A. Maurer,  N. J. Mayhall,  
 S. C. McKenzie,  J.-M. Mewes,  P. Morgante,  A. F. Morrison,  
 J. W. Mullinax,  K. Nanda,  T. S. Nguyen-Beck,  R. Olivares-Amaya,  
 J. A. Parkhill,  Zheng Pei,  T. M. Perrine,  F. Plasser,  P. Pokhilko,  
 S. Prager,  A. Prociuk,  E. Ramos,  D. R. Rehn,  F. Rob,  M. Scheurer,  
 M. Schneider,  N. Sergueev,  S. M. Sharada,  S. Sharma,  D. W. Small,  
 T. Stauch,  T. Stein,  Yu-Chuan Su,  A. J. W. Thom,  A. Tkatchenko,  
 T. Tsuchimochi,  N. M. Tubman,  L. Vogt,  M. L. Vidal,  O. Vydrov,  
 M. A. Watson,  J. Wenzel,  M. de Wergifosse,  T. A. Wesolowski,  A. White,  
 J. Witte,  A. Yamada,  Jun Yang,  K. Yao,  S. Yeganeh,  S. R. Yost,  
 Zhi-Qiang You,  A. Zech,  Igor Ying Zhang,  Xing Zhang,  Yan Zhao,  
 Ying Zhu,  B. R. Brooks,  G. K. L. Chan,  C. J. Cramer,  M. S. Gordon,  
 W. J. Hehre,  A. Klamt,  M. W. Schmidt,  C. D. Sherrill,  D. G. Truhlar,  
 A. Aspuru-Guzik,  R. Baer,  A. T. Bell,  N. A. Besley,  Jeng-Da Chai,  
 A. E. DePrince, III,  R. A. DiStasio Jr.,  A. Dreuw,  B. D. Dunietz,  
 T. R. Furlani,  Chao-Ping Hsu,  Yousung Jung,  Jing Kong,  D. S. Lambrecht,  
 WanZhen Liang,  C. Ochsenfeld,  V. A. Rassolov,  L. V. Slipchenko,  
 J. E. Subotnik,  T. Van Voorhis,  J. M. Herbert,  A. I. Krylov,  
 P. M. W. Gill,  M. Head-Gordon

 Contributors to earlier versions of Q-Chem not listed above: 
 R. D. Adamson,  B. Austin,  J. Baker,  G. J. O. Beran,  K. Brandhorst,  
 S. T. Brown,  E. F. C. Byrd,  A. K. Chakraborty,  C.-L. Cheng,  
 Siu Hung Chien,  D. M. Chipman,  D. L. Crittenden,  H. Dachsel,  
 R. J. Doerksen,  A. D. Dutoi,  L. Fusti-Molnar,  W. A. Goddard III,  
 A. Golubeva-Zadorozhnaya,  S. R. Gwaltney,  G. Hawkins,  A. Heyden,  
 S. Hirata,  G. Kedziora,  F. J. Keil,  C. Kelley,  Jihan Kim,  R. A. King,  
 R. Z. Khaliullin,  P. P. Korambath,  W. Kurlancheek,  A. M. Lee,  M. S. Lee,  
 S. V. Levchenko,  Ching Yeh Lin,  D. Liotard,  R. C. Lochan,  I. Lotan,  
 P. E. Maslen,  N. Nair,  D. P. O'Neill,  D. Neuhauser,  E. Neuscamman,  
 C. M. Oana,  R. Olson,  B. Peters,  R. Peverati,  P. A. Pieniazek,  
 Y. M. Rhee,  J. Ritchie,  M. A. Rohrdanz,  E. Rosta,  N. J. Russ,  
 H. F. Schaefer III,  N. E. Schultz,  N. Shenvi,  A. C. Simmonett,  A. Sodt,  
 D. Stuck,  K. S. Thanthiriwatte,  V. Vanovschi,  Tao Wang,  A. Warshel,  
 C. F. Williams,  Q. Wu,  X. Xu,  W. Zhang

 Please cite Q-Chem as follows:
 Y. Shao et al., Mol. Phys. 113, 184-215 (2015)
 DOI: 10.1080/00268976.2014.952696

 Q-Chem 5.2.0 for Intel X86 EM64T Linux

 Parts of Q-Chem use Armadillo 8.300.2 (Tropical Shenanigans).
 http://arma.sourceforge.net/

 Q-Chem begins on Sun Sep 26 07:09:00 2021  

Host: cori01
0

     Scratch files written to /tmp/qchem13618//
 May1019 |scratch|qcdevops|jenkins|workspace|build_RNUM -1
Processing $rem in /global/common/cori/software/qchem/5.2/config/preferences:
	 MEM_TOTAL  96000 
NAlpha2: 100
NElect   100
Mult     1
Symmetry turned off for PCM/SM12/SMD calculation

 Q-Chem warning in module libgen/rem_setup.C, line 2803:

 Neither GIA nor STOLL is specified by user. Use STOLL as the default


Checking the input file for inconsistencies... 	...done.

--------------------------------------------------------------
User input:
--------------------------------------------------------------
$comment
SSI-042PHE-054PHE-1.pdb
$end

$molecule
0 1
--
0 1
C   -0.429364967931    0.391826588789    4.269882374084
C    1.878635032069    0.571826588789    1.244882374084
C    1.021635032069    0.945826588789    2.285882374084
C    2.146635032069   -0.764173411211    1.022882374084
C    0.443635032069   -0.023173411211    3.111882374084
C    1.588635032069   -1.730173411211    1.835882374084
C    0.737635032069   -1.369173411211    2.873882374084
H    2.324635032069    1.328826588789    0.615882374084
H    0.823635032069    1.990826588789    2.461882374084
H    2.809635032069   -1.047173411211    0.217882374084
H    1.850635032069   -2.762173411211    1.681882374084
H    0.071635032069    1.202826588789    4.798882374084
H   -0.525364967931   -0.441173411211    4.965882374084
H    0.320635032069   -2.134173411211    3.513882374084
H   -1.430943967931    0.732850488789    3.968979374084
--
0 1
C    0.001635032069   -1.903173411211   -2.016117625916
C   -0.521364967931    0.461826588789   -1.343117625916
C   -0.604364967931   -0.561173411211   -2.278117625916
C   -1.102364967931    1.706826588789   -1.557117625916
C   -1.356364967931   -0.343173411211   -3.410117625916
C   -1.805364967931    1.924826588789   -2.721117625916
C   -1.940364967931    0.889826588789   -3.623117625916
H   -0.002364967931    0.285826588789   -0.417117625916
H   -1.008364967931    2.487826588789   -0.816117625916
H   -0.745364967931   -2.642173411211   -2.204117625916
H    0.310635032069   -1.971173411211   -0.972117625916
H   -1.516364967931   -1.134173411211   -4.126117625916
H   -2.286364967931    2.874826588789   -2.906117625916
H   -2.550364967931    1.010826588789   -4.499117625916
H    0.852855032069   -2.146788411211   -2.668862625916
$end

$rem
JOBTYPE			EDA
EDA2			1
method			wB97X-V
BASIS			def2-TZVPD
XC_GRID			000099000590
NL_GRID			1
UNRESTRICTED		FALSE
MAX_SCF_CYCLES		200
SYMMETRY		FALSE
SYM_IGNORE		TRUE
MEM_STATIC		2000
BASIS_LIN_DEP_THRESH 	6
THRESH 			14
SCF_CONVERGENCE 	8
SCF_PRINT_FRGM 		TRUE
SOLVENT_METHOD          SMD
$end

$SMX
SOLVENT			WATER
$END
--------------------------------------------------------------
 ----------------------------------------------------------------
             Standard Nuclear Orientation (Angstroms)
    I     Atom           X                Y                Z
 ----------------------------------------------------------------
    1      C      -0.4293649679     0.3918265888     4.2698823741
    2      C       1.8786350321     0.5718265888     1.2448823741
    3      C       1.0216350321     0.9458265888     2.2858823741
    4      C       2.1466350321    -0.7641734112     1.0228823741
    5      C       0.4436350321    -0.0231734112     3.1118823741
    6      C       1.5886350321    -1.7301734112     1.8358823741
    7      C       0.7376350321    -1.3691734112     2.8738823741
    8      H       2.3246350321     1.3288265888     0.6158823741
    9      H       0.8236350321     1.9908265888     2.4618823741
   10      H       2.8096350321    -1.0471734112     0.2178823741
   11      H       1.8506350321    -2.7621734112     1.6818823741
   12      H       0.0716350321     1.2028265888     4.7988823741
   13      H      -0.5253649679    -0.4411734112     4.9658823741
   14      H       0.3206350321    -2.1341734112     3.5138823741
   15      H      -1.4309439679     0.7328504888     3.9689793741
   16      C       0.0016350321    -1.9031734112    -2.0161176259
   17      C      -0.5213649679     0.4618265888    -1.3431176259
   18      C      -0.6043649679    -0.5611734112    -2.2781176259
   19      C      -1.1023649679     1.7068265888    -1.5571176259
   20      C      -1.3563649679    -0.3431734112    -3.4101176259
   21      C      -1.8053649679     1.9248265888    -2.7211176259
   22      C      -1.9403649679     0.8898265888    -3.6231176259
   23      H      -0.0023649679     0.2858265888    -0.4171176259
   24      H      -1.0083649679     2.4878265888    -0.8161176259
   25      H      -0.7453649679    -2.6421734112    -2.2041176259
   26      H       0.3106350321    -1.9711734112    -0.9721176259
   27      H      -1.5163649679    -1.1341734112    -4.1261176259
   28      H      -2.2863649679     2.8748265888    -2.9061176259
   29      H      -2.5503649679     1.0108265888    -4.4991176259
   30      H       0.8528550321    -2.1467884112    -2.6688626259
 ----------------------------------------------------------------
 Nuclear Repulsion Energy =         783.99019349 hartrees
 There are       50 alpha and       50 beta electrons
 Requested basis set is def2-TZVPD
 There are 262 shells and 662 basis functions

 Total QAlloc Memory Limit  96000 MB
 Mega-Array Size      1956 MB
 MEM_STATIC part      2000 MB
 
 Citation of the SMD model:
 Marenich, A.V.; Cramer, C.J.; Truhlar, D.G.
 J. Phys. Chem. B 2009, 113, 6378-6396.
 iSolventCode=           1
 Solvent: water                                                           
 
 vradii
            1           2           3           4           5           6
    1   1.8500000   1.8500000   1.8500000   1.8500000   1.8500000   1.8500000
            7           8           9          10          11          12
    1   1.8500000   1.2000000   1.2000000   1.2000000   1.2000000   1.2000000
           13          14          15          16          17          18
    1   1.2000000   1.2000000   1.2000000   1.8500000   1.8500000   1.8500000
           19          20          21          22          23          24
    1   1.8500000   1.8500000   1.8500000   1.8500000   1.2000000   1.2000000
           25          26          27          28          29          30
    1   1.2000000   1.2000000   1.2000000   1.2000000   1.2000000   1.2000000
 Changing PCM_VDW_RADII to SMD_RADIUS
 Discretize the solute cavity surface with Lebedev spheres
	Using 110 Lebedev grid points for each H atom
	Using 194 Lebedev grid points for other atoms
	Atomic van der Waals radii will be scaled by 1.20
 Remove points where switching function is < 1.0e-08
 Keep 2149 surface tesserae and discard 2327 interior tesserae
 Molecular Surface Area = 256.850 Angst**2
 A cutoff of  1.0D-14 yielded  29514 shell pairs
 There are    189284 function pairs (    238750 Cartesian)
 Smallest overlap matrix eigenvalue = 4.30E-07
 Linear dependence detected in AO basis
 Tighter screening thresholds may be required for diffuse basis sets
 Use S2THRESH > 14 and THRESH = 14 in case of SCF convergence issues
 Number of orthogonalized atomic orbitals = 658
 Maximum deviation from orthogonality = 1.794E-10

 Scale SEOQF with 1.000000e-01/1.000000e-01/1.000000e-01

 Standard Electronic Orientation quadrupole field applied
 Nucleus-field energy     =    -0.0000000572 hartrees

 -----------------------------------------------------------------------
  General SCF calculation program by
  Eric Jon Sundstrom, Paul Horn, Yuezhi Mao, Dmitri Zuev, Alec White,
  David Stuck, Shaama M.S., Shane Yost, Joonho Lee, David Small,
  Daniel Levine, Susi Lehtola, Hugh Burton, Evgeny Epifanovsky
 -----------------------------------------------------------------------
================================================================
                 ALMO-EDA with the EDA2 driver                  
================================================================
 The second-generation ALMO-EDA (for DFT):                      
 P. R. Horn, Y. Mao and M. Head-Gordon, PCCP, 18, 23067 (2016)  
 Decomposition of the frozen energy:                            
 P. R. Horn, Y. Mao and M. Head-Gordon, JCP, 144, 114107 (2016) 
 FERF model for polarization:                                   
 P. R. Horn and M. Head-Gordon, JCP, 143, 114111 (2015)         
Using eda2 option set 1
Option set summary: Frozen orbital wavefunction, initial wavefunction decomposition, and nDQ polarization.
--------------------------------
Printing EDA Options
--------------------------------
eda_child_super_basis      0
fragmo_guess_mode          0
child_mp                   1
child_mp_orders            232
cls_elec                   1
cls_disp                   0
scfmi_mode                 1
scfmi_occs                 0
scfmi_virts                0
frz_relax                  0
frz_relax_method           0
dc_pen_start               0
dc_pen_conv                0
dc_pen_increment           0
dc_pen_steps               0
dc_pen_thresh_factor       0
dc_pen_pre_newton_thresh   0
frz_ortho_decomp           1
frz_ortho_decomp_conv      6
frgm_method                2
scfmi_freeze_ss            0
separate_rehyb             0
plot_diff_den              0
eda_nocv                   0
eda_vct_relax              1
disp_free_x                0
disp_free_c                0
eda_bsse                   0
eda_pct_a                  0
eda_covp                   0
--------------------------------
Attempting to make child job directory: /tmp/qchem13618//Frg1/
Attempting to make child job directory: /tmp/qchem13618//Frg2/
Creating input file /tmp/qchem13618/Frg1.input
using default PutDataFrgm: nothing
calling putenv with: QCSCRATCH=/tmp/qchem13618/ 
calling putenv with: QCLOCALSCR=/tmp/qchem13618/ 
Spawning Job For Fragment 0
                  Welcome to Q-Chem
     A Quantum Leap Into The Future Of Chemistry


 Q-Chem 5.2, Q-Chem, Inc., Pleasanton, CA (2019)

 License issued to: National Energy Research Scientific Computing Center

 Yihan Shao,  Zhengting Gan,  E. Epifanovsky,  A. T. B. Gilbert,  M. Wormit,  
 J. Kussmann,  A. W. Lange,  A. Behn,  Jia Deng,  Xintian Feng,  D. Ghosh,  
 M. Goldey,  P. R. Horn,  L. D. Jacobson,  I. Kaliman,  T. Kus,  A. Landau,  
 Jie Liu,  E. I. Proynov,  R. M. Richard,  R. P. Steele,  E. J. Sundstrom,  
 H. L. Woodcock III,  P. M. Zimmerman,  D. Zuev,  B. Albrecht,  E. Alguire,  
 S. A. Baeppler,  D. Barton,  Z. Benda,  Y. A. Bernard,  E. J. Berquist,  
 K. B. Bravaya,  H. Burton,  D. Casanova,  Chun-Min Chang,  Yunqing Chen,  
 A. Chien,  K. D. Closser,  M. P. Coons,  S. Coriani,  S. Dasgupta,  
 A. L. Dempwolff,  M. Diedenhofen,  Hainam Do,  R. G. Edgar,  Po-Tung Fang,  
 S. Faraji,  S. Fatehi,  Qingguo Feng,  K. D. Fenk,  J. Fosso-Tande,  
 J. Gayvert,  Qinghui Ge,  A. Ghysels,  G. Gidofalvi,  J. Gomes,  
 J. Gonthier,  A. Gunina,  D. Hait,  M. W. D. Hanson-Heine,  
 P. H. P. Harbach,  A. W. Hauser,  M. F. Herbst,  J. E. Herr,  
 E. G. Hohenstein,  Z. C. Holden,  Kerwin Hui,  B. C. Huynh,  T.-C. Jagau,  
 Hyunjun Ji,  B. Kaduk,  K. Khistyaev,  Jaehoon Kim,  P. Klunzinger,  K. Koh,  
 D. Kosenkov,  L. Koulias,  T. Kowalczyk,  C. M. Krauter,  A. Kunitsa,  
 Ka Un Lao,  A. Laurent,  K. V. Lawler,  Joonho Lee,  D. Lefrancois,  
 S. Lehtola,  D. S. Levine,  Yi-Pei Li,  You-Sheng Lin,  Fenglai Liu,  
 E. Livshits,  A. Luenser,  P. Manohar,  E. Mansoor,  S. F. Manzer,  
 Shan-Ping Mao,  Yuezhi Mao,  N. Mardirossian,  A. V. Marenich,  
 T. Markovich,  L. A. Martinez-Martinez,  S. A. Maurer,  N. J. Mayhall,  
 S. C. McKenzie,  J.-M. Mewes,  P. Morgante,  A. F. Morrison,  
 J. W. Mullinax,  K. Nanda,  T. S. Nguyen-Beck,  R. Olivares-Amaya,  
 J. A. Parkhill,  Zheng Pei,  T. M. Perrine,  F. Plasser,  P. Pokhilko,  
 S. Prager,  A. Prociuk,  E. Ramos,  D. R. Rehn,  F. Rob,  M. Scheurer,  
 M. Schneider,  N. Sergueev,  S. M. Sharada,  S. Sharma,  D. W. Small,  
 T. Stauch,  T. Stein,  Yu-Chuan Su,  A. J. W. Thom,  A. Tkatchenko,  
 T. Tsuchimochi,  N. M. Tubman,  L. Vogt,  M. L. Vidal,  O. Vydrov,  
 M. A. Watson,  J. Wenzel,  M. de Wergifosse,  T. A. Wesolowski,  A. White,  
 J. Witte,  A. Yamada,  Jun Yang,  K. Yao,  S. Yeganeh,  S. R. Yost,  
 Zhi-Qiang You,  A. Zech,  Igor Ying Zhang,  Xing Zhang,  Yan Zhao,  
 Ying Zhu,  B. R. Brooks,  G. K. L. Chan,  C. J. Cramer,  M. S. Gordon,  
 W. J. Hehre,  A. Klamt,  M. W. Schmidt,  C. D. Sherrill,  D. G. Truhlar,  
 A. Aspuru-Guzik,  R. Baer,  A. T. Bell,  N. A. Besley,  Jeng-Da Chai,  
 A. E. DePrince, III,  R. A. DiStasio Jr.,  A. Dreuw,  B. D. Dunietz,  
 T. R. Furlani,  Chao-Ping Hsu,  Yousung Jung,  Jing Kong,  D. S. Lambrecht,  
 WanZhen Liang,  C. Ochsenfeld,  V. A. Rassolov,  L. V. Slipchenko,  
 J. E. Subotnik,  T. Van Voorhis,  J. M. Herbert,  A. I. Krylov,  
 P. M. W. Gill,  M. Head-Gordon

 Contributors to earlier versions of Q-Chem not listed above: 
 R. D. Adamson,  B. Austin,  J. Baker,  G. J. O. Beran,  K. Brandhorst,  
 S. T. Brown,  E. F. C. Byrd,  A. K. Chakraborty,  C.-L. Cheng,  
 Siu Hung Chien,  D. M. Chipman,  D. L. Crittenden,  H. Dachsel,  
 R. J. Doerksen,  A. D. Dutoi,  L. Fusti-Molnar,  W. A. Goddard III,  
 A. Golubeva-Zadorozhnaya,  S. R. Gwaltney,  G. Hawkins,  A. Heyden,  
 S. Hirata,  G. Kedziora,  F. J. Keil,  C. Kelley,  Jihan Kim,  R. A. King,  
 R. Z. Khaliullin,  P. P. Korambath,  W. Kurlancheek,  A. M. Lee,  M. S. Lee,  
 S. V. Levchenko,  Ching Yeh Lin,  D. Liotard,  R. C. Lochan,  I. Lotan,  
 P. E. Maslen,  N. Nair,  D. P. O'Neill,  D. Neuhauser,  E. Neuscamman,  
 C. M. Oana,  R. Olson,  B. Peters,  R. Peverati,  P. A. Pieniazek,  
 Y. M. Rhee,  J. Ritchie,  M. A. Rohrdanz,  E. Rosta,  N. J. Russ,  
 H. F. Schaefer III,  N. E. Schultz,  N. Shenvi,  A. C. Simmonett,  A. Sodt,  
 D. Stuck,  K. S. Thanthiriwatte,  V. Vanovschi,  Tao Wang,  A. Warshel,  
 C. F. Williams,  Q. Wu,  X. Xu,  W. Zhang

 Please cite Q-Chem as follows:
 Y. Shao et al., Mol. Phys. 113, 184-215 (2015)
 DOI: 10.1080/00268976.2014.952696

 Q-Chem 5.2.0 for Intel X86 EM64T Linux

 Parts of Q-Chem use Armadillo 8.300.2 (Tropical Shenanigans).
 http://arma.sourceforge.net/

 Q-Chem begins on Sun Sep 26 07:09:07 2021  

Host: cori01
0

     Scratch files written to /tmp/qchem13618//Frg1//
 May1019 |scratch|qcdevops|jenkins|workspace|build_RNUM -1
Processing $rem in /global/common/cori/software/qchem/5.2/config/preferences:
	 MEM_TOTAL  96000 
NAlpha2: 50
NElect   50
Mult     1
Symmetry turned off for PCM/SM12/SMD calculation

Checking the input file for inconsistencies... 	...done.

--------------------------------------------------------------
User input:
--------------------------------------------------------------
$molecule
0 1
 6	-0.4293649679	0.3918265888	4.2698823741
 6	1.8786350321	0.5718265888	1.2448823741
 6	1.0216350321	0.9458265888	2.2858823741
 6	2.1466350321	-0.7641734112	1.0228823741
 6	0.4436350321	-0.0231734112	3.1118823741
 6	1.5886350321	-1.7301734112	1.8358823741
 6	0.7376350321	-1.3691734112	2.8738823741
 1	2.3246350321	1.3288265888	0.6158823741
 1	0.8236350321	1.9908265888	2.4618823741
 1	2.8096350321	-1.0471734112	0.2178823741
 1	1.8506350321	-2.7621734112	1.6818823741
 1	0.0716350321	1.2028265888	4.7988823741
 1	-0.5253649679	-0.4411734112	4.9658823741
 1	0.3206350321	-2.1341734112	3.5138823741
 1	-1.4309439679	0.7328504888	3.9689793741
$end
$rem
EDA2		1
METHOD		WB97X-V
BASIS		DEF2-TZVPD
XC_GRID		000099000590
NL_GRID		1
UNRESTRICTED		FALSE
MAX_SCF_CYCLES		200
SYMMETRY		FALSE
SYM_IGNORE		TRUE
BASIS_LIN_DEP_THRESH		6
THRESH		14
SCF_CONVERGENCE		8
SCF_PRINT_FRGM		TRUE
SOLVENT_METHOD		SMD
!required keywords
JOBTYPE		SP
SYM_IGNORE		TRUE
SUBSYSTEM		TRUE
GEN_SCFMAN		TRUE
CHILD_INSTRUCTION		2
SYM_IGNORE		TRUE
SCFMI		0
RI_K 0		
PARI_K 0		
MIN_PARI_K 0		
IARI_K 0		
OCC_RI_K 0		
PURECART		1111
MEM_STATIC		2000
MEM_TOTAL		96000
GUI		0
CHILD_MP		1
CHILD_MP_ORDERS		232
FRZ_RELAX		0
FRZ_RELAX_METHOD		0
EDA_CLS_ELEC		1
EDA_CLS_DISP		0
FRZ_ORTHO_DECOMP		1
EDA2		FALSE
FRGM_METHOD		FALSE
CIS_N_ROOTS  0
LOCAL_CIS    0
CIS_RLX_DNS  1
$end
$smx
SOLVENT			WATER
$end
--------------------------------------------------------------
 ----------------------------------------------------------------
             Standard Nuclear Orientation (Angstroms)
    I     Atom           X                Y                Z
 ----------------------------------------------------------------
    1      C      -0.4293649679     0.3918265888     4.2698823741
    2      C       1.8786350321     0.5718265888     1.2448823741
    3      C       1.0216350321     0.9458265888     2.2858823741
    4      C       2.1466350321    -0.7641734112     1.0228823741
    5      C       0.4436350321    -0.0231734112     3.1118823741
    6      C       1.5886350321    -1.7301734112     1.8358823741
    7      C       0.7376350321    -1.3691734112     2.8738823741
    8      H       2.3246350321     1.3288265888     0.6158823741
    9      H       0.8236350321     1.9908265888     2.4618823741
   10      H       2.8096350321    -1.0471734112     0.2178823741
   11      H       1.8506350321    -2.7621734112     1.6818823741
   12      H       0.0716350321     1.2028265888     4.7988823741
   13      H      -0.5253649679    -0.4411734112     4.9658823741
   14      H       0.3206350321    -2.1341734112     3.5138823741
   15      H      -1.4309439679     0.7328504888     3.9689793741
 ----------------------------------------------------------------
 Nuclear Repulsion Energy =         269.94293073 hartrees
 There are       25 alpha and       25 beta electrons
 Requested basis set is def2-TZVPD
 There are 131 shells and 331 basis functions

 Total QAlloc Memory Limit  96000 MB
 Mega-Array Size      1956 MB
 MEM_STATIC part      2000 MB
 
 Citation of the SMD model:
 Marenich, A.V.; Cramer, C.J.; Truhlar, D.G.
 J. Phys. Chem. B 2009, 113, 6378-6396.
 iSolventCode=           1
 Solvent: water                                                           
 
 vradii
            1           2           3           4           5           6
    1   1.8500000   1.8500000   1.8500000   1.8500000   1.8500000   1.8500000
            7           8           9          10          11          12
    1   1.8500000   1.2000000   1.2000000   1.2000000   1.2000000   1.2000000
           13          14          15
    1   1.2000000   1.2000000   1.2000000
 Changing PCM_VDW_RADII to SMD_RADIUS
 Discretize the solute cavity surface with Lebedev spheres
	Using 110 Lebedev grid points for each H atom
	Using 194 Lebedev grid points for other atoms
	Atomic van der Waals radii will be scaled by 1.20
 Remove points where switching function is < 1.0e-08
 Keep 1080 surface tesserae and discard 1158 interior tesserae
 Molecular Surface Area = 131.894 Angst**2

                       Distance Matrix (Angstroms)
             C (  1)   C (  2)   C (  3)   C (  4)   C (  5)   C (  6)
   C (  2)  3.809185
   C (  3)  2.519637  1.399288
   C (  4)  4.302920  1.380581  2.405181
   C (  5)  1.508416  2.428773  1.398328  2.795212
   C (  6)  3.807829  2.394282  2.772177  1.380395  2.419308
   C (  7)  2.532158  2.779029  2.405333  2.403645  1.398140  1.389952
   H (  8)  4.670568  1.080558  2.152533  2.139622  3.405302  3.374548
   H (  9)  2.719499  2.146550  1.078056  3.378028  2.150139  3.850057
   H ( 10)  5.383358  2.131350  3.383137  1.080594  3.875793  2.138984
   H ( 11)  4.673742  3.362634  3.847248  2.124594  3.395095  1.075818
   H ( 12)  1.090212  4.036623  2.698836  4.736337  2.118355  4.436569
   H ( 13)  1.089734  4.544362  3.391073  4.774009  2.133308  3.990917
   H ( 14)  2.741298  3.859814  3.389068  3.378795  2.152453  2.141664
   H ( 15)  1.100000  4.289516  2.982167  4.870281  2.195503  4.442347
             C (  7)   H (  8)   H (  9)   H ( 10)   H ( 11)   H ( 12)
   H (  8)  3.859577
   H (  9)  3.386258  2.469607
   H ( 10)  3.383963  2.457439  4.267221
   H ( 11)  2.144780  4.254094  4.924849  2.450347
   H ( 12)  3.280909  4.752828  2.578375  5.791779  5.348061
   H ( 13)  2.613966  5.493442  3.742251  5.833778  4.670875  1.756996
   H ( 14)  1.081071  4.940323  4.286646  4.270867  2.468098  3.584522
   H ( 15)  3.212550  5.069795  2.989477  5.934789  5.311757  1.779708
             H ( 13)   H ( 14)
   H ( 14)  2.385428
   H ( 15)  1.786679  3.390423
 
 A cutoff of  1.0D-14 yielded   8364 shell pairs
 There are     54516 function pairs (     69470 Cartesian)
 Smallest overlap matrix eigenvalue = 5.51E-07
 Linear dependence detected in AO basis
 Tighter screening thresholds may be required for diffuse basis sets
 Use S2THRESH > 14 and THRESH = 14 in case of SCF convergence issues
 Number of orthogonalized atomic orbitals = 330
 Maximum deviation from orthogonality = 1.844E-10

 Scale SEOQF with 1.000000e-01/1.000000e-01/1.000000e-01

 Standard Electronic Orientation quadrupole field applied
 Nucleus-field energy     =    -0.0000000317 hartrees
 Guess from superposition of atomic densities
 Warning:  Energy on first SCF cycle will be non-variational
 SAD guess density has 49.913408 electrons

 -----------------------------------------------------------------------
  General SCF calculation program by
  Eric Jon Sundstrom, Paul Horn, Yuezhi Mao, Dmitri Zuev, Alec White,
  David Stuck, Shaama M.S., Shane Yost, Joonho Lee, David Small,
  Daniel Levine, Susi Lehtola, Hugh Burton, Evgeny Epifanovsky
 -----------------------------------------------------------------------
 Exchange:     0.1670 Hartree-Fock + 1.0000 wB97X-V + LR-HF
 Correlation:  1.0000 wB97X-V
 Using Euler-Maclaurin-Lebedev (99,590) quadrature formula
 Nonlocal Correlation:  VV10 with C = 0.0100 and b = 6.00 and scale = 1.00000
 Grid used for NLC:  SG-1 standard quadrature
Energy prior to optimization (guess energy) = -271.519387556120
Begin Timing: Total SCF Calculation
begin iterations for algorithm: DIIS         
the SCF tolerance is set to 1.00e-08
    1    -271.5193875561      1.97e-03     00000 
    2    -271.5605555369      1.29e-03     00000 
    3    -271.5846977451      1.56e-04     00000 
    4    -271.5853928052      4.90e-05     00000 
    5    -271.5854455675      2.43e-05     00000 
    6    -271.5854553026      5.93e-06     00000 
    7    -271.5854561104      2.32e-06     00000 
    8    -271.5854562002      3.77e-07     00000 
    9    -271.5854562056      9.50e-08     00000 
   10    -271.5854562059      3.74e-08     00000 
   11    -271.5854562059      1.61e-08     00000 
   12    -271.5854562060      5.11e-09     00000 Convergence criterion met
Timing for Total SCF: 1334.00s (wall), 2651.86s (cpu)
(3)  G-ENP(liq) elect-nuc-pol free energy of system     -271.585456206 a.u.
(4)  G-CDS(liq) cavity-dispersion-solvent structure 
     free energy                                                3.1663 kcal/mol
(6)  G-S(liq) free energy of system                     -271.580410361 a.u.
E_pcm = -0.0074115947
E_cds = 0.0050458447
Multipole orders to be included
        2
        3
computing dipole RHS
computing quadrupole RHS
total number of RHS in solve_reponses: 8
RHS batch sizes
        8
Beginning Block Conjugate Gradient Iterations. Batch Number: 0
computing hessian-vector products by finite difference
              1      6.34e-01     00000 Conjugate Gradient Iteration
computing hessian-vector products by finite difference
              2      1.99e-01     00000 Conjugate Gradient Iteration
computing hessian-vector products by finite difference
              3      4.73e-02     00000 Conjugate Gradient Iteration
computing hessian-vector products by finite difference
              4      1.16e-02     00000 Conjugate Gradient Iteration
computing hessian-vector products by finite difference
              5      2.62e-03     00000 Conjugate Gradient Iteration
computing hessian-vector products by finite difference
              6      8.27e-04     00000 Conjugate Gradient Iteration
computing hessian-vector products by finite difference
              7      1.67e-04     00000 Conjugate Gradient Iteration
computing hessian-vector products by finite difference
              8      2.60e-05     00000 Conjugate Gradient Iteration
computing hessian-vector products by finite difference
              9      3.99e-06     00000 Conjugate Gradient Iteration
computing hessian-vector products by finite difference
             10      5.67e-07     00000 Conjugate Gradient Iteration
computing hessian-vector products by finite difference
             11      7.30e-08     00000 Conjugate Gradient Iteration
computing hessian-vector products by finite difference
             12      1.14e-08     00000 Conjugate Gradient Iteration
computing hessian-vector products by finite difference
             13      2.42e-09     00000 CG Converged
batch 0 complete
Done Calculating Responses
TESTING ORTHOGONALIZATION OF MULTIPOLE BASIS
Multipole virts passed orthogonality test
Virts Per Order
           75
          125
 
 --------------------------------------------------------------
 
                    Orbital Energies (a.u.)
 --------------------------------------------------------------
 
 Alpha MOs
 -- Occupied --
-10.2786 -10.2671 -10.2655 -10.2647 -10.2646 -10.2620 -10.2541  -0.9935
 -0.9024  -0.8740  -0.8075  -0.7258  -0.6995  -0.6248  -0.5686  -0.5604
 -0.5284  -0.5235  -0.5079  -0.4810  -0.4705  -0.4352  -0.4342  -0.3458
 -0.3354
 -- Virtual --
  0.0666   0.0683   0.0733   0.0843   0.0899   0.1096   0.1158   0.1182
  0.1410   0.1601   0.1706   0.1760   0.1899   0.1958   0.2002   0.2060
  0.2270   0.2314   0.2392   0.2454   0.2550   0.2637   0.2656   0.2776
  0.2843   0.2883   0.2915   0.2976   0.3003   0.3057   0.3062   0.3169
  0.3245   0.3295   0.3347   0.3432   0.3552   0.3574   0.3711   0.3796
  0.3812   0.3875   0.3921   0.3931   0.3969   0.4041   0.4071   0.4117
  0.4190   0.4325   0.4374   0.4410   0.4452   0.4528   0.4579   0.4584
  0.4713   0.4759   0.4788   0.4888   0.4969   0.5044   0.5160   0.5201
  0.5236   0.5284   0.5391   0.5456   0.5495   0.5541   0.5599   0.5681
  0.5836   0.5872   0.5945   0.6021   0.6041   0.6271   0.6428   0.6502
  0.6695   0.6750   0.6861   0.6889   0.6961   0.7058   0.7259   0.7297
  0.7344   0.7383   0.7477   0.7633   0.7684   0.7726   0.7794   0.7888
  0.7963   0.7976   0.8046   0.8053   0.8137   0.8275   0.8303   0.8347
  0.8412   0.8430   0.8547   0.8600   0.8650   0.8701   0.8913   0.8963
  0.9166   0.9256   0.9386   0.9493   0.9585   1.0130   1.0324   1.0451
  1.0508   1.0668   1.0741   1.0840   1.0927   1.1022   1.1071   1.1441
  1.1675   1.1765   1.2611   1.2800   1.2996   1.3328   1.3573   1.3626
  1.3816   1.4418   1.4544   1.4656   1.4712   1.4799   1.5354   1.5440
  1.6087   1.6156   1.6245   1.6324   1.6581   1.6860   1.7429   1.7849
  1.7903   1.8010   1.8042   1.8196   1.8360   1.8663   1.8908   1.9153
  1.9244   1.9303   1.9412   1.9744   1.9938   1.9963   2.0182   2.0322
  2.0407   2.0511   2.0749   2.0977   2.1172   2.1292   2.1800   2.1849
  2.2083   2.2372   2.2472   2.2774   2.2928   2.3187   2.3876   2.4042
  2.4124   2.4219   2.4726   2.5171   2.5457   2.5638   2.5676   2.6122
  2.6199   2.6428   2.6729   2.6788   2.7056   2.7142   2.7707   2.7828
  2.7910   2.8179   2.8252   2.8551   2.8663   2.9011   2.9121   2.9259
  2.9379   2.9466   2.9789   2.9830   2.9984   3.0185   3.0275   3.0554
  3.0687   3.0982   3.1062   3.1269   3.1763   3.1953   3.2038   3.2169
  3.2346   3.2523   3.2824   3.2973   3.3491   3.3622   3.3645   3.3845
  3.4126   3.4421   3.4487   3.4583   3.4636   3.4882   3.4956   3.5040
  3.5106   3.5433   3.5475   3.5489   3.5576   3.5788   3.5856   3.6100
  3.6255   3.6430   3.6606   3.6979   3.7196   3.7600   3.7792   3.8083
  3.8538   3.8971   3.9285   3.9497   3.9576   4.0020   4.0487   4.0617
  4.1316   4.2057   4.2743   4.2874   4.3019   4.3168   4.3347   4.3475
  4.3677   4.3745   4.3961   4.4101   4.4346   4.4626   4.4954   4.5455
  4.5972   4.6298   4.7557   4.7822   4.8312   4.8697   4.9133   4.9495
  5.0322   5.0520   5.1735   5.2735   5.3841   5.4017   5.5029   5.5307
  5.6803   5.8534  22.5859  22.6733  22.9089  22.9171  23.0117  23.0970
 23.4247
 --------------------------------------------------------------
 
          Ground-State Mulliken Net Atomic Charges

     Atom                 Charge (a.u.)
  ----------------------------------------
      1 C                    -1.075846
      2 C                    -0.524230
      3 C                    -0.373936
      4 C                    -0.550193
      5 C                     0.789649
      6 C                    -0.561829
      7 C                    -0.446651
      8 H                     0.373741
      9 H                     0.407335
     10 H                     0.395612
     11 H                     0.376794
     12 H                     0.266058
     13 H                     0.298498
     14 H                     0.374736
     15 H                     0.250263
  ----------------------------------------
  Sum of atomic charges =     0.000000

 -----------------------------------------------------------------
                    Cartesian Multipole Moments
 -----------------------------------------------------------------
    Charge (ESU x 10^10)
                 0.0000
    Dipole Moment (Debye)
         X      -0.2041      Y       0.1879      Z       0.4771
       Tot       0.5519
    Quadrupole Moments (Debye-Ang)
        XX     -43.3214     XY      -0.3567     YY     -37.6944
        XZ      -4.4297     YZ       0.0067     ZZ     -38.4962
    Octopole Moments (Debye-Ang^2)
       XXX    -134.6023    XXY      10.9441    XYY     -36.2224
       YYY      28.2856    XXZ    -116.2655    XYZ       0.8329
       YYZ     -91.9431    XZZ     -57.7254    YZZ       9.8829
       ZZZ    -289.0189
    Hexadecapole Moments (Debye-Ang^3)
      XXXX    -548.9845   XXXY      63.2398   XXYY    -137.0948
      XYYY      55.7289   YYYY    -314.4621   XXXZ    -220.4817
      XXYZ      22.6881   XYYZ     -54.1339   YYYZ      40.3718
      XXZZ    -445.3489   XYZZ      29.3012   YYZZ    -342.4236
      XZZZ    -225.1506   YZZZ      44.0587   ZZZZ   -1813.7201
 -----------------------------------------------------------------
Archival summary:
1\1\nid00561\SP\ProcedureUnspecified\BasisUnspecified\78\meili\SunSep2614:42:262021SunSep2614:42:262021\0\\#,ProcedureUnspecified,BasisUnspecified,\\0,1\C\C,1,1.39814\H,2,1.08107,1,119.957\C,2,1.38995,1,120.391,3,-178.545,0\H,4,1.07582,2,120.341,1,177.143,0\C,4,1.38039,2,120.369,1,-0.406085,0\H,6,1.08059,4,120.232,2,179.867,0\C,6,1.38058,4,120.267,2,0.88095,0\H,8,1.08056,6,120.279,4,179.273,0\C,1,1.39833,2,118.663,3,178.577,0\H,10,1.07806,1,119.958,2,-178.881,0\C,1,1.50842,2,121.148,3,1.23121,0\H,12,1.08973,1,109.329,2,15.0599,0\H,12,1.09021,1,108.132,2,131.708,0\H,12,1.1,1,113.72,2,-107.475,0\\\@

 Total job time:  27202.47s(wall), 54056.74s(cpu) 
 Sun Sep 26 14:42:29 2021

        *************************************************************
        *                                                           *
        *  Thank you very much for using Q-Chem.  Have a nice day.  *
        *                                                           *
        *************************************************************


Done Job For Fragment 0
calling putenv with: QCSCRATCH=/global/cscratch1/sd/meili 
calling putenv with: QCLOCALSCR=/tmp 
calling putenv with: QCTHREADS=32 
Creating input file /tmp/qchem13618/Frg2.input
using default PutDataFrgm: nothing
calling putenv with: QCSCRATCH=/tmp/qchem13618/ 
calling putenv with: QCLOCALSCR=/tmp/qchem13618/ 
Spawning Job For Fragment 1
                  Welcome to Q-Chem
     A Quantum Leap Into The Future Of Chemistry


 Q-Chem 5.2, Q-Chem, Inc., Pleasanton, CA (2019)

 License issued to: National Energy Research Scientific Computing Center

 Yihan Shao,  Zhengting Gan,  E. Epifanovsky,  A. T. B. Gilbert,  M. Wormit,  
 J. Kussmann,  A. W. Lange,  A. Behn,  Jia Deng,  Xintian Feng,  D. Ghosh,  
 M. Goldey,  P. R. Horn,  L. D. Jacobson,  I. Kaliman,  T. Kus,  A. Landau,  
 Jie Liu,  E. I. Proynov,  R. M. Richard,  R. P. Steele,  E. J. Sundstrom,  
 H. L. Woodcock III,  P. M. Zimmerman,  D. Zuev,  B. Albrecht,  E. Alguire,  
 S. A. Baeppler,  D. Barton,  Z. Benda,  Y. A. Bernard,  E. J. Berquist,  
 K. B. Bravaya,  H. Burton,  D. Casanova,  Chun-Min Chang,  Yunqing Chen,  
 A. Chien,  K. D. Closser,  M. P. Coons,  S. Coriani,  S. Dasgupta,  
 A. L. Dempwolff,  M. Diedenhofen,  Hainam Do,  R. G. Edgar,  Po-Tung Fang,  
 S. Faraji,  S. Fatehi,  Qingguo Feng,  K. D. Fenk,  J. Fosso-Tande,  
 J. Gayvert,  Qinghui Ge,  A. Ghysels,  G. Gidofalvi,  J. Gomes,  
 J. Gonthier,  A. Gunina,  D. Hait,  M. W. D. Hanson-Heine,  
 P. H. P. Harbach,  A. W. Hauser,  M. F. Herbst,  J. E. Herr,  
 E. G. Hohenstein,  Z. C. Holden,  Kerwin Hui,  B. C. Huynh,  T.-C. Jagau,  
 Hyunjun Ji,  B. Kaduk,  K. Khistyaev,  Jaehoon Kim,  P. Klunzinger,  K. Koh,  
 D. Kosenkov,  L. Koulias,  T. Kowalczyk,  C. M. Krauter,  A. Kunitsa,  
 Ka Un Lao,  A. Laurent,  K. V. Lawler,  Joonho Lee,  D. Lefrancois,  
 S. Lehtola,  D. S. Levine,  Yi-Pei Li,  You-Sheng Lin,  Fenglai Liu,  
 E. Livshits,  A. Luenser,  P. Manohar,  E. Mansoor,  S. F. Manzer,  
 Shan-Ping Mao,  Yuezhi Mao,  N. Mardirossian,  A. V. Marenich,  
 T. Markovich,  L. A. Martinez-Martinez,  S. A. Maurer,  N. J. Mayhall,  
 S. C. McKenzie,  J.-M. Mewes,  P. Morgante,  A. F. Morrison,  
 J. W. Mullinax,  K. Nanda,  T. S. Nguyen-Beck,  R. Olivares-Amaya,  
 J. A. Parkhill,  Zheng Pei,  T. M. Perrine,  F. Plasser,  P. Pokhilko,  
 S. Prager,  A. Prociuk,  E. Ramos,  D. R. Rehn,  F. Rob,  M. Scheurer,  
 M. Schneider,  N. Sergueev,  S. M. Sharada,  S. Sharma,  D. W. Small,  
 T. Stauch,  T. Stein,  Yu-Chuan Su,  A. J. W. Thom,  A. Tkatchenko,  
 T. Tsuchimochi,  N. M. Tubman,  L. Vogt,  M. L. Vidal,  O. Vydrov,  
 M. A. Watson,  J. Wenzel,  M. de Wergifosse,  T. A. Wesolowski,  A. White,  
 J. Witte,  A. Yamada,  Jun Yang,  K. Yao,  S. Yeganeh,  S. R. Yost,  
 Zhi-Qiang You,  A. Zech,  Igor Ying Zhang,  Xing Zhang,  Yan Zhao,  
 Ying Zhu,  B. R. Brooks,  G. K. L. Chan,  C. J. Cramer,  M. S. Gordon,  
 W. J. Hehre,  A. Klamt,  M. W. Schmidt,  C. D. Sherrill,  D. G. Truhlar,  
 A. Aspuru-Guzik,  R. Baer,  A. T. Bell,  N. A. Besley,  Jeng-Da Chai,  
 A. E. DePrince, III,  R. A. DiStasio Jr.,  A. Dreuw,  B. D. Dunietz,  
 T. R. Furlani,  Chao-Ping Hsu,  Yousung Jung,  Jing Kong,  D. S. Lambrecht,  
 WanZhen Liang,  C. Ochsenfeld,  V. A. Rassolov,  L. V. Slipchenko,  
 J. E. Subotnik,  T. Van Voorhis,  J. M. Herbert,  A. I. Krylov,  
 P. M. W. Gill,  M. Head-Gordon

 Contributors to earlier versions of Q-Chem not listed above: 
 R. D. Adamson,  B. Austin,  J. Baker,  G. J. O. Beran,  K. Brandhorst,  
 S. T. Brown,  E. F. C. Byrd,  A. K. Chakraborty,  C.-L. Cheng,  
 Siu Hung Chien,  D. M. Chipman,  D. L. Crittenden,  H. Dachsel,  
 R. J. Doerksen,  A. D. Dutoi,  L. Fusti-Molnar,  W. A. Goddard III,  
 A. Golubeva-Zadorozhnaya,  S. R. Gwaltney,  G. Hawkins,  A. Heyden,  
 S. Hirata,  G. Kedziora,  F. J. Keil,  C. Kelley,  Jihan Kim,  R. A. King,  
 R. Z. Khaliullin,  P. P. Korambath,  W. Kurlancheek,  A. M. Lee,  M. S. Lee,  
 S. V. Levchenko,  Ching Yeh Lin,  D. Liotard,  R. C. Lochan,  I. Lotan,  
 P. E. Maslen,  N. Nair,  D. P. O'Neill,  D. Neuhauser,  E. Neuscamman,  
 C. M. Oana,  R. Olson,  B. Peters,  R. Peverati,  P. A. Pieniazek,  
 Y. M. Rhee,  J. Ritchie,  M. A. Rohrdanz,  E. Rosta,  N. J. Russ,  
 H. F. Schaefer III,  N. E. Schultz,  N. Shenvi,  A. C. Simmonett,  A. Sodt,  
 D. Stuck,  K. S. Thanthiriwatte,  V. Vanovschi,  Tao Wang,  A. Warshel,  
 C. F. Williams,  Q. Wu,  X. Xu,  W. Zhang

 Please cite Q-Chem as follows:
 Y. Shao et al., Mol. Phys. 113, 184-215 (2015)
 DOI: 10.1080/00268976.2014.952696

 Q-Chem 5.2.0 for Intel X86 EM64T Linux

 Parts of Q-Chem use Armadillo 8.300.2 (Tropical Shenanigans).
 http://arma.sourceforge.net/

 Q-Chem begins on Sun Sep 26 14:42:33 2021  

Host: cori01
0

     Scratch files written to /tmp/qchem13618//Frg2//
 May1019 |scratch|qcdevops|jenkins|workspace|build_RNUM -1
Processing $rem in /global/common/cori/software/qchem/5.2/config/preferences:
	 MEM_TOTAL  96000 
NAlpha2: 50
NElect   50
Mult     1
Symmetry turned off for PCM/SM12/SMD calculation

Checking the input file for inconsistencies... 	...done.

--------------------------------------------------------------
User input:
--------------------------------------------------------------
$molecule
0 1
 6	0.0016350321	-1.9031734112	-2.0161176259
 6	-0.5213649679	0.4618265888	-1.3431176259
 6	-0.6043649679	-0.5611734112	-2.2781176259
 6	-1.1023649679	1.7068265888	-1.5571176259
 6	-1.3563649679	-0.3431734112	-3.4101176259
 6	-1.8053649679	1.9248265888	-2.7211176259
 6	-1.9403649679	0.8898265888	-3.6231176259
 1	-0.0023649679	0.2858265888	-0.4171176259
 1	-1.0083649679	2.4878265888	-0.8161176259
 1	-0.7453649679	-2.6421734112	-2.2041176259
 1	0.3106350321	-1.9711734112	-0.9721176259
 1	-1.5163649679	-1.1341734112	-4.1261176259
 1	-2.2863649679	2.8748265888	-2.9061176259
 1	-2.5503649679	1.0108265888	-4.4991176259
 1	0.8528550321	-2.1467884112	-2.6688626259
$end
$rem
EDA2		1
METHOD		WB97X-V
BASIS		DEF2-TZVPD
XC_GRID		000099000590
NL_GRID		1
UNRESTRICTED		FALSE
MAX_SCF_CYCLES		200
SYMMETRY		FALSE
SYM_IGNORE		TRUE
BASIS_LIN_DEP_THRESH		6
THRESH		14
SCF_CONVERGENCE		8
SCF_PRINT_FRGM		TRUE
SOLVENT_METHOD		SMD
!required keywords
JOBTYPE		SP
SYM_IGNORE		TRUE
SUBSYSTEM		TRUE
GEN_SCFMAN		TRUE
CHILD_INSTRUCTION		2
SYM_IGNORE		TRUE
SCFMI		0
RI_K 0		
PARI_K 0		
MIN_PARI_K 0		
IARI_K 0		
OCC_RI_K 0		
PURECART		1111
MEM_STATIC		2000
MEM_TOTAL		96000
GUI		0
CHILD_MP		1
CHILD_MP_ORDERS		232
FRZ_RELAX		0
FRZ_RELAX_METHOD		0
EDA_CLS_ELEC		1
EDA_CLS_DISP		0
FRZ_ORTHO_DECOMP		1
EDA2		FALSE
FRGM_METHOD		FALSE
CIS_N_ROOTS  0
LOCAL_CIS    0
CIS_RLX_DNS  1
$end
$smx
SOLVENT			WATER
$end
--------------------------------------------------------------
 ----------------------------------------------------------------
             Standard Nuclear Orientation (Angstroms)
    I     Atom           X                Y                Z
 ----------------------------------------------------------------
    1      C       0.0016350321    -1.9031734112    -2.0161176259
    2      C      -0.5213649679     0.4618265888    -1.3431176259
    3      C      -0.6043649679    -0.5611734112    -2.2781176259
    4      C      -1.1023649679     1.7068265888    -1.5571176259
    5      C      -1.3563649679    -0.3431734112    -3.4101176259
    6      C      -1.8053649679     1.9248265888    -2.7211176259
    7      C      -1.9403649679     0.8898265888    -3.6231176259
    8      H      -0.0023649679     0.2858265888    -0.4171176259
    9      H      -1.0083649679     2.4878265888    -0.8161176259
   10      H      -0.7453649679    -2.6421734112    -2.2041176259
   11      H       0.3106350321    -1.9711734112    -0.9721176259
   12      H      -1.5163649679    -1.1341734112    -4.1261176259
   13      H      -2.2863649679     2.8748265888    -2.9061176259
   14      H      -2.5503649679     1.0108265888    -4.4991176259
   15      H       0.8528550321    -2.1467884112    -2.6688626259
 ----------------------------------------------------------------
 Nuclear Repulsion Energy =         271.63351219 hartrees
 There are       25 alpha and       25 beta electrons
 Requested basis set is def2-TZVPD
 There are 131 shells and 331 basis functions

 Total QAlloc Memory Limit  96000 MB
 Mega-Array Size      1956 MB
 MEM_STATIC part      2000 MB
 
 Citation of the SMD model:
 Marenich, A.V.; Cramer, C.J.; Truhlar, D.G.
 J. Phys. Chem. B 2009, 113, 6378-6396.
 iSolventCode=           1
 Solvent: water                                                           
 
 vradii
            1           2           3           4           5           6
    1   1.8500000   1.8500000   1.8500000   1.8500000   1.8500000   1.8500000
            7           8           9          10          11          12
    1   1.8500000   1.2000000   1.2000000   1.2000000   1.2000000   1.2000000
           13          14          15
    1   1.2000000   1.2000000   1.2000000
 Changing PCM_VDW_RADII to SMD_RADIUS
 Discretize the solute cavity surface with Lebedev spheres
	Using 110 Lebedev grid points for each H atom
	Using 194 Lebedev grid points for other atoms
	Atomic van der Waals radii will be scaled by 1.20
 Remove points where switching function is < 1.0e-08
 Keep 1082 surface tesserae and discard 1156 interior tesserae
 Molecular Surface Area = 131.362 Angst**2

                       Distance Matrix (Angstroms)
             C (  1)   C (  2)   C (  3)   C (  4)   C (  5)   C (  6)
   C (  2)  2.513898
   C (  3)  1.495608  1.388396
   C (  4)  3.802841  1.390461  2.431392
   C (  5)  2.494193  2.370177  1.376391  2.775000
   C (  6)  4.291370  2.384934  2.796220  1.377182  2.412498
   C (  7)  3.762268  2.719402  2.387325  2.374466  1.380838  1.379512
   H (  8)  2.710819  1.076017  2.131463  2.128107  3.344698  3.353438
   H (  9)  4.662722  2.149319  3.405446  1.080684  3.855451  2.140374
   H ( 10)  1.067461  3.228980  2.087084  4.411333  2.667050  4.716819
   H ( 11)  1.090890  2.597952  2.128605  3.983275  3.372405  4.766054
   H ( 12)  2.710680  3.358918  2.138966  3.852588  1.078859  3.378613
   H ( 13)  5.371809  3.373539  3.876803  2.141467  3.387394  1.080780
   H ( 14)  4.601020  3.791910  3.345286  3.352087  2.108287  2.133473
   H ( 15)  1.100000  3.232793  2.188686  4.461974  2.946717  4.862809
             C (  7)   H (  8)   H (  9)   H ( 10)   H ( 11)   H ( 12)
   H (  8)  3.794614
   H (  9)  3.361767  2.453577
   H ( 10)  3.989563  3.509787  5.320960
   H ( 11)  4.503346  2.345217  4.652610  1.755905
   H ( 12)  2.128230  4.250327  4.932854  2.561755  3.739815
   H ( 13)  2.138698  4.256137  2.480152  5.771029  5.828249  4.260678
   H ( 14)  1.074298  4.866277  4.257204  4.676479  5.432989  2.410251
   H ( 15)  4.234821  3.423357  5.326956  1.736577  1.789912  2.960099
             H ( 13)   H ( 14)
   H ( 14)  2.466139
   H ( 15)  5.926855  4.990218
 
 A cutoff of  1.0D-14 yielded   8370 shell pairs
 There are     54542 function pairs (     69497 Cartesian)
 Smallest overlap matrix eigenvalue = 5.18E-07
 Linear dependence detected in AO basis
 Tighter screening thresholds may be required for diffuse basis sets
 Use S2THRESH > 14 and THRESH = 14 in case of SCF convergence issues
 Number of orthogonalized atomic orbitals = 330
 Maximum deviation from orthogonality = 1.511E-10

 Scale SEOQF with 1.000000e-01/1.000000e-01/1.000000e-01

 Standard Electronic Orientation quadrupole field applied
 Nucleus-field energy     =    -0.0000000255 hartrees
 Guess from superposition of atomic densities
 Warning:  Energy on first SCF cycle will be non-variational
 SAD guess density has 49.913408 electrons

 -----------------------------------------------------------------------
  General SCF calculation program by
  Eric Jon Sundstrom, Paul Horn, Yuezhi Mao, Dmitri Zuev, Alec White,
  David Stuck, Shaama M.S., Shane Yost, Joonho Lee, David Small,
  Daniel Levine, Susi Lehtola, Hugh Burton, Evgeny Epifanovsky
 -----------------------------------------------------------------------
 Exchange:     0.1670 Hartree-Fock + 1.0000 wB97X-V + LR-HF
 Correlation:  1.0000 wB97X-V
 Using Euler-Maclaurin-Lebedev (99,590) quadrature formula
 Nonlocal Correlation:  VV10 with C = 0.0100 and b = 6.00 and scale = 1.00000
 Grid used for NLC:  SG-1 standard quadrature
Energy prior to optimization (guess energy) = -271.514674957669
Begin Timing: Total SCF Calculation
begin iterations for algorithm: DIIS         
the SCF tolerance is set to 1.00e-08
    1    -271.5146749577      2.03e-03     00000 
    2    -271.5569622594      1.33e-03     00000 
    3    -271.5826549928      1.57e-04     00000 
    4    -271.5833457658      4.89e-05     00000 
    5    -271.5833991613      2.21e-05     00000 
    6    -271.5834074170      5.31e-06     00000 
    7    -271.5834081312      1.43e-06     00000 
    8    -271.5834081717      4.60e-07     00000 
    9    -271.5834081770      9.36e-08     00000 
   10    -271.5834081773      3.99e-08     00000 
   11    -271.5834081774      1.69e-08     00000 
   12    -271.5834081774      6.26e-09     00000 Convergence criterion met
Timing for Total SCF: 1351.00s (wall), 2681.13s (cpu)
(3)  G-ENP(liq) elect-nuc-pol free energy of system     -271.583408177 a.u.
(4)  G-CDS(liq) cavity-dispersion-solvent structure 
     free energy                                                3.1173 kcal/mol
(6)  G-S(liq) free energy of system                     -271.578440427 a.u.
E_pcm = -0.0072085797
E_cds = 0.0049677506
Multipole orders to be included
        2
        3
computing dipole RHS
computing quadrupole RHS
total number of RHS in solve_reponses: 8
RHS batch sizes
        8
Beginning Block Conjugate Gradient Iterations. Batch Number: 0
computing hessian-vector products by finite difference
              1      6.14e-01     00000 Conjugate Gradient Iteration
computing hessian-vector products by finite difference
              2      1.84e-01     00000 Conjugate Gradient Iteration
computing hessian-vector products by finite difference
              3      4.42e-02     00000 Conjugate Gradient Iteration
computing hessian-vector products by finite difference
              4      1.12e-02     00000 Conjugate Gradient Iteration
computing hessian-vector products by finite difference
              5      2.15e-03     00000 Conjugate Gradient Iteration
computing hessian-vector products by finite difference
              6      6.01e-04     00000 Conjugate Gradient Iteration
computing hessian-vector products by finite difference
              7      1.12e-04     00000 Conjugate Gradient Iteration
computing hessian-vector products by finite difference
              8      1.89e-05     00000 Conjugate Gradient Iteration
computing hessian-vector products by finite difference
              9      3.16e-06     00000 Conjugate Gradient Iteration
computing hessian-vector products by finite difference
             10      4.89e-07     00000 Conjugate Gradient Iteration
computing hessian-vector products by finite difference
             11      8.84e-08     00000 Conjugate Gradient Iteration
computing hessian-vector products by finite difference
             12      1.39e-08     00000 Conjugate Gradient Iteration
computing hessian-vector products by finite difference
             13      2.42e-09     00000 CG Converged
batch 0 complete
Done Calculating Responses
TESTING ORTHOGONALIZATION OF MULTIPOLE BASIS
Multipole virts passed orthogonality test
Virts Per Order
           75
          125
 
 --------------------------------------------------------------
 
                    Orbital Energies (a.u.)
 --------------------------------------------------------------
 
 Alpha MOs
 -- Occupied --
-10.2733 -10.2653 -10.2626 -10.2615 -10.2612 -10.2593 -10.2504  -0.9981
 -0.9057  -0.8752  -0.8100  -0.7259  -0.7022  -0.6266  -0.5715  -0.5587
 -0.5291  -0.5227  -0.5113  -0.4833  -0.4712  -0.4368  -0.4329  -0.3462
 -0.3363
 -- Virtual --
  0.0677   0.0694   0.0755   0.0845   0.0899   0.1096   0.1159   0.1180
  0.1413   0.1600   0.1722   0.1789   0.1860   0.1951   0.2004   0.2058
  0.2263   0.2341   0.2386   0.2471   0.2548   0.2638   0.2661   0.2783
  0.2816   0.2891   0.2967   0.2981   0.3009   0.3046   0.3071   0.3177
  0.3265   0.3315   0.3380   0.3465   0.3581   0.3588   0.3732   0.3806
  0.3822   0.3888   0.3937   0.3950   0.3982   0.4023   0.4056   0.4115
  0.4203   0.4325   0.4376   0.4452   0.4467   0.4542   0.4611   0.4611
  0.4769   0.4779   0.4829   0.4932   0.5000   0.5086   0.5155   0.5189
  0.5244   0.5317   0.5416   0.5479   0.5510   0.5554   0.5580   0.5746
  0.5796   0.5821   0.5949   0.6059   0.6139   0.6242   0.6440   0.6528
  0.6691   0.6782   0.6916   0.6940   0.6958   0.7076   0.7274   0.7305
  0.7317   0.7414   0.7465   0.7604   0.7708   0.7734   0.7769   0.7885
  0.7961   0.8000   0.8054   0.8097   0.8127   0.8249   0.8290   0.8349
  0.8437   0.8444   0.8533   0.8606   0.8716   0.8739   0.8901   0.9041
  0.9221   0.9262   0.9435   0.9496   0.9610   1.0137   1.0337   1.0430
  1.0548   1.0686   1.0737   1.0814   1.0888   1.1106   1.1171   1.1473
  1.1748   1.1774   1.2723   1.2863   1.3166   1.3395   1.3628   1.3718
  1.3840   1.4481   1.4550   1.4717   1.4858   1.4899   1.5380   1.5556
  1.6145   1.6182   1.6274   1.6299   1.6712   1.6935   1.7479   1.7800
  1.7933   1.8040   1.8168   1.8188   1.8438   1.8681   1.8878   1.9170
  1.9220   1.9303   1.9380   1.9755   1.9947   2.0016   2.0192   2.0353
  2.0413   2.0492   2.0813   2.1001   2.1235   2.1333   2.1795   2.1986
  2.2162   2.2443   2.2542   2.2841   2.2910   2.3288   2.3896   2.4035
  2.4237   2.4351   2.4836   2.5204   2.5491   2.5659   2.5734   2.6103
  2.6335   2.6534   2.6734   2.6813   2.7174   2.7381   2.7804   2.7887
  2.8044   2.8143   2.8335   2.8592   2.8785   2.9058   2.9186   2.9320
  2.9416   2.9635   2.9876   2.9975   3.0127   3.0171   3.0370   3.0583
  3.0725   3.1021   3.1202   3.1384   3.1812   3.1910   3.2094   3.2195
  3.2335   3.2644   3.2811   3.3059   3.3547   3.3627   3.3701   3.3910
  3.4187   3.4407   3.4455   3.4660   3.4688   3.4914   3.4941   3.5075
  3.5177   3.5448   3.5504   3.5595   3.5710   3.5941   3.6011   3.6180
  3.6245   3.6679   3.6812   3.7110   3.7299   3.7719   3.7866   3.8111
  3.8691   3.9191   3.9421   3.9621   3.9710   4.0122   4.0625   4.0656
  4.1460   4.2084   4.2857   4.3079   4.3215   4.3378   4.3491   4.3778
  4.3891   4.4038   4.4151   4.4388   4.4482   4.4794   4.5232   4.5559
  4.6154   4.6619   4.7848   4.8007   4.8604   4.8975   4.9261   4.9638
  5.0563   5.0645   5.1950   5.2793   5.4133   5.4252   5.5170   5.5385
  5.6988   5.8698  22.5855  22.7144  22.9256  22.9466  23.0675  23.1376
 23.4906
 --------------------------------------------------------------
 
          Ground-State Mulliken Net Atomic Charges

     Atom                 Charge (a.u.)
  ----------------------------------------
      1 C                    -1.098124
      2 C                    -0.407796
      3 C                     0.825520
      4 C                    -0.582825
      5 C                    -0.405734
      6 C                    -0.587405
      7 C                    -0.469045
      8 H                     0.364580
      9 H                     0.373974
     10 H                     0.269458
     11 H                     0.301201
     12 H                     0.388822
     13 H                     0.394045
     14 H                     0.377707
     15 H                     0.255621
  ----------------------------------------
  Sum of atomic charges =     0.000000

 -----------------------------------------------------------------
                    Cartesian Multipole Moments
 -----------------------------------------------------------------
    Charge (ESU x 10^10)
                 0.0000
    Dipole Moment (Debye)
         X       0.0242      Y      -0.6054      Z       0.1145
       Tot       0.6166
    Quadrupole Moments (Debye-Ang)
        XX     -43.6442     XY      -1.7355     YY     -38.3415
        XZ       3.0277     YZ       3.0482     ZZ     -40.2074
    Octopole Moments (Debye-Ang^2)
       XXX     135.1909    XXY      -7.6408    XYY      34.5562
       YYY     -25.0771    XXZ      96.1962    XYZ       4.8738
       YYZ      93.8916    XZZ      25.0964    YZZ     -20.9988
       ZZZ     289.8593
    Hexadecapole Moments (Debye-Ang^3)
      XXXX    -476.8630   XXXY     118.7744   XXYY    -151.3242
      XYYY     103.9830   YYYY    -521.7288   XXXZ    -365.2586
      XXYZ      12.6784   XYYZ     -99.6866   YYYZ      75.4997
      XXZZ    -319.5384   XYZZ      25.0838   YYZZ    -357.7813
      XZZZ    -277.7737   YZZZ     116.0141   ZZZZ   -1647.6780
 -----------------------------------------------------------------
Archival summary:
1\1\nid00561\SP\ProcedureUnspecified\BasisUnspecified\78\meili\SunSep2622:21:552021SunSep2622:21:552021\0\\#,ProcedureUnspecified,BasisUnspecified,\\0,1\C\C,1,1.37639\H,2,1.07886,1,120.712\C,2,1.38084,1,119.958,3,178.522,0\H,4,1.0743,2,117.807,1,-177.738,0\C,4,1.37951,2,121.85,1,-0.620941,0\H,6,1.08078,4,120.265,2,-179.042,0\C,6,1.37718,4,118.936,2,-2.02926,0\H,8,1.08068,6,120.633,4,-177.897,0\C,1,1.3884,2,118.023,3,-175.015,0\H,10,1.07602,1,119.2,2,175.311,0\C,1,1.49561,2,120.502,3,-0.25383,0\H,12,1.06746,1,107.866,2,-45.6502,0\H,12,1.09089,1,109.777,2,-164.154,0\H,12,1.1,1,114.099,2,72.4303,0\\\@

 Total job time:  27565.03s(wall), 54709.31s(cpu) 
 Sun Sep 26 22:21:58 2021

        *************************************************************
        *                                                           *
        *  Thank you very much for using Q-Chem.  Have a nice day.  *
        *                                                           *
        *************************************************************


Done Job For Fragment 1
calling putenv with: QCSCRATCH=/global/cscratch1/sd/meili 
calling putenv with: QCLOCALSCR=/tmp 
calling putenv with: QCTHREADS=32 
Doing General SCFMI
 Exchange:     0.1670 Hartree-Fock + 1.0000 wB97X-V + LR-HF
 Correlation:  1.0000 wB97X-V
 Using Euler-Maclaurin-Lebedev (99,590) quadrature formula
 Nonlocal Correlation:  VV10 with C = 0.0100 and b = 6.00 and scale = 1.00000
 Grid used for NLC:  SG-1 standard quadrature
performing fock build before subrot guess so that all methods have access
Printing subrot_rss_gen Method Specification:
Occupied Subspace Method is 0
Virtual Subspace Method is 0
Energy of the unrelaxed supersystem initial determinant -543.156296662703
performing fock build before subrot guess so that all methods have access
Printing subrot_rss_gen Method Specification:
Occupied Subspace Method is 0
Virtual Subspace Method is 0
Energy of the unrelaxed supersystem initial determinant w/ solvent -543.169550896442
write pseudocanon occs and virts to disk
write pseudocanon orbital energies to disk
Tolerance of ortho_decomp_scf: 1.00e-06
GDM subspace size: 20
Beginning the Orthogonal Decomposition of the Initial Supersystem Wavefunction
    1    -543.1333182340      2.13e-02     ortho_decomp Preconditoned Steepest Descent
    2    -543.1353701565      5.67e-04     ortho_decomp BFGS Step
    3    -543.1353774697      4.53e-05     ortho_decomp BFGS Step
    4    -543.1353774850      1.98e-06     ortho_decomp BFGS Step
    5    -543.1353774850      7.72e-08     ortho_decomp 00000 Convergence criterion met
 Hartree-Fock
 Hartree-Fock
 Hartree-Fock
Doing General SCFMI
 Exchange:     0.1670 Hartree-Fock + 1.0000 wB97X-V + LR-HF
 Correlation:  1.0000 wB97X-V
 Using Euler-Maclaurin-Lebedev (99,590) quadrature formula
 Nonlocal Correlation:  VV10 with C = 0.0100 and b = 6.00 and scale = 1.00000
 Grid used for NLC:  SG-1 standard quadrature
performing fock build at end of subrot_r(subrot) constructor so that all methods have access
<S^2> of initial wavefunction before polarization iterations 0.0000000000
Beginning iterations for the determination of the polarized wavefunction
Energy prior to optimization (guess energy) = -543.169550896442
Begin Timing: Total SCF Calculation
begin iterations for algorithm: DIIS         
the SCF tolerance is set to 1.00e-08
    1    -543.1695508964      4.57e-05     00000 
    2    -543.1697426583      1.84e-05     00000 
    3    -543.1697634324      9.73e-06     00000 
    4    -543.1697701230      2.36e-06     00000 
    5    -543.1697707590      1.19e-06     00000 
    6    -543.1697709293      4.33e-07     00000 
    7    -543.1697709563      2.10e-07     00000 
    8    -543.1697709616      1.07e-07     00000 
    9    -543.1697709627      4.60e-08     00000 
   10    -543.1697709628      2.28e-08     00000 
   11    -543.1697709628      1.17e-08     00000 
   12    -543.1697709629      5.13e-09     00000 Convergence criterion met
write pseudocanon occs and virts to disk
write pseudocanon orbital energies to disk
Timing for Total SCF: 9461.00s (wall), 18849.09s (cpu)
<S^2> of polarized wavefunction after polarization iterations 0.0000000000
relaxing scfmi constraint to allow all rotations in the entire AO span
Doing General SCFMI
 Exchange:     0.1670 Hartree-Fock + 1.0000 wB97X-V + LR-HF
 Correlation:  1.0000 wB97X-V
 Using Euler-Maclaurin-Lebedev (99,590) quadrature formula
 Nonlocal Correlation:  VV10 with C = 0.0100 and b = 6.00 and scale = 1.00000
 Grid used for NLC:  SG-1 standard quadrature
performing fock build at end of subrot_r(subrot) constructor so that all methods have access
<S^2> of polarized wavefunction before ct-allowed iterations 0.0000000000
Beginning iterations for the determination of the CT-Allowed wavefunction
Energy prior to optimization (guess energy) = -543.169770962852
Begin Timing: Total SCF Calculation
begin iterations for algorithm: DIIS         
the SCF tolerance is set to 1.00e-08
    1    -543.1697709629      7.13e-05     00000 
    2    -543.1709608507      8.18e-06     00000 
    3    -543.1710009038      1.47e-06     00000 
    4    -543.1710023185      7.64e-07     00000 
    5    -543.1710024690      1.81e-07     00000 
    6    -543.1710024853      6.10e-08     00000 
    7    -543.1710024866      1.63e-08     00000 
    8    -543.1710024868      5.07e-09     00000 Convergence criterion met
write pseudocanon occs and virts to disk
write pseudocanon orbital energies to disk
Timing for Total SCF: 5846.00s (wall), 11649.12s (cpu)
<S^2> of ct_allowed wavefunction after ct-allowed iterations 0.0000000000

================================
        Results of EDA2         
================================
Basic EDA Quantities
--------------------
Fragment Energies (Ha):
1 -271.5804103612
2 -271.5784404268
--------------------
  E_prp (kJ/mol) = 0.0000
  E_sol (kJ/mol) = 1.7040
  E_frz (kJ/mol) = -5.3888
  E_pol (kJ/mol) = -0.5778
  E_vct (kJ/mol) = -3.2334
  E_int (kJ/mol) = -7.4960
--------------------


Initial Wavefunction Decomposition
--------------------
  --------------------
  Orthogonal Fragment Subspace Decomposition:
  --------------------
     E_elec   (ELEC)   (kJ/mol) = -26.3485
     E_pauli  (PAULI)  (kJ/mol) = 38.8488
     E_disp   (DISP)   (kJ/mol) = -17.8891
     --------------------
     Terms summing to E_pauli:
     --------------------
        E_kep_pauli       (kJ/mol) = 49.5352
        E_disp_free_pauli (kJ/mol) = -10.6863
  --------------------
  Classical Frozen Decomposition:
  --------------------
     E_cls_elec  (CLS ELEC)  (kJ/mol) = -11.8438
     E_cls_pauli (CLS PAULI) (kJ/mol) = 6.4550
    [E_mod_pauli (MOD PAULI) (kJ/mol) = 24.3441 (CLS PAULI - DISP from orthogonal decomposition) ]
  --------------------
--------------------

Simplified EDA Summary (kJ/mol)
--------------------
 PREPARATION     0.0000
 SOLVATION       1.7040
 FROZEN          12.5003      (does not include dispersion)
[PAULI           38.8488]     (if this is negligible, then frozen describes electrostatics)
 DISPERSION      -17.8891
 POLARIZATION    -0.5778
 CHARGE TRANSFER -3.2334
 TOTAL           -7.4960     (PRP + SOL + FRZ + DISP + POL + CT)
--------------------
 
 --------------------------------------------------------------
 
                    Orbital Energies (a.u.)
 --------------------------------------------------------------
 
 Alpha MOs
 -- Occupied --
-10.2790 -10.2725 -10.2669 -10.2658 -10.2649 -10.2648 -10.2647 -10.2622
-10.2618 -10.2612 -10.2589 -10.2588 -10.2542 -10.2495  -0.9976  -0.9937
 -0.9053  -0.9024  -0.8755  -0.8734  -0.8095  -0.8075  -0.7266  -0.7247
 -0.7018  -0.6996  -0.6263  -0.6249  -0.5710  -0.5688  -0.5608  -0.5587
 -0.5303  -0.5286  -0.5237  -0.5217  -0.5111  -0.5081  -0.4831  -0.4811
 -0.4708  -0.4707  -0.4362  -0.4353  -0.4343  -0.4302  -0.3472  -0.3440
 -0.3368  -0.3333
 -- Virtual --
  0.0606   0.0647   0.0686   0.0715   0.0754   0.0765   0.0785   0.0877
  0.0966   0.1020   0.1051   0.1086   0.1175   0.1218   0.1256   0.1356
  0.1376   0.1546   0.1640   0.1646   0.1689   0.1749   0.1808   0.1889
  0.1915   0.1985   0.2038   0.2063   0.2093   0.2106   0.2156   0.2237
  0.2320   0.2360   0.2392   0.2466   0.2494   0.2547   0.2611   0.2623
  0.2644   0.2662   0.2726   0.2739   0.2757   0.2793   0.2838   0.2882
  0.2926   0.2949   0.2960   0.2998   0.3021   0.3034   0.3073   0.3147
  0.3185   0.3219   0.3258   0.3272   0.3300   0.3328   0.3355   0.3427
  0.3450   0.3488   0.3515   0.3565   0.3574   0.3655   0.3670   0.3694
  0.3739   0.3768   0.3815   0.3835   0.3860   0.3888   0.3913   0.3940
  0.3950   0.3968   0.4034   0.4067   0.4111   0.4133   0.4148   0.4185
  0.4205   0.4255   0.4296   0.4299   0.4352   0.4398   0.4427   0.4479
  0.4483   0.4525   0.4552   0.4561   0.4591   0.4649   0.4699   0.4710
  0.4740   0.4768   0.4797   0.4837   0.4851   0.4890   0.4931   0.4989
  0.5006   0.5056   0.5074   0.5154   0.5162   0.5209   0.5237   0.5265
  0.5298   0.5327   0.5381   0.5432   0.5459   0.5500   0.5567   0.5594
  0.5629   0.5671   0.5683   0.5717   0.5748   0.5822   0.5885   0.5919
  0.5967   0.5987   0.6038   0.6108   0.6165   0.6224   0.6289   0.6299
  0.6360   0.6414   0.6466   0.6470   0.6529   0.6580   0.6615   0.6664
  0.6720   0.6794   0.6824   0.6854   0.6884   0.6958   0.6986   0.7017
  0.7090   0.7153   0.7193   0.7201   0.7218   0.7296   0.7334   0.7374
  0.7422   0.7496   0.7507   0.7580   0.7597   0.7626   0.7673   0.7751
  0.7757   0.7780   0.7836   0.7845   0.7886   0.7928   0.7966   0.7970
  0.7986   0.8024   0.8037   0.8143   0.8178   0.8207   0.8244   0.8267
  0.8329   0.8377   0.8405   0.8418   0.8444   0.8510   0.8527   0.8547
  0.8600   0.8630   0.8676   0.8729   0.8791   0.8801   0.8824   0.8866
  0.8928   0.8969   0.9043   0.9081   0.9096   0.9175   0.9234   0.9266
  0.9304   0.9367   0.9423   0.9505   0.9569   0.9610   0.9662   0.9817
  0.9882   0.9964   1.0111   1.0164   1.0240   1.0391   1.0481   1.0553
  1.0562   1.0589   1.0649   1.0781   1.0869   1.0922   1.0934   1.0968
  1.1028   1.1151   1.1229   1.1266   1.1354   1.1435   1.1542   1.1610
  1.1695   1.1721   1.1936   1.2046   1.2116   1.2185   1.2275   1.2387
  1.2740   1.2987   1.3039   1.3224   1.3372   1.3477   1.3662   1.3724
  1.3746   1.3756   1.3891   1.3976   1.3998   1.4146   1.4309   1.4492
  1.4649   1.4699   1.4778   1.4794   1.4945   1.4977   1.5095   1.5168
  1.5302   1.5418   1.5482   1.5622   1.5676   1.5890   1.6147   1.6310
  1.6365   1.6438   1.6454   1.6569   1.6617   1.6751   1.6923   1.6982
  1.7113   1.7195   1.7326   1.7707   1.7936   1.8046   1.8080   1.8202
  1.8233   1.8325   1.8349   1.8475   1.8607   1.8738   1.8932   1.9041
  1.9136   1.9196   1.9314   1.9396   1.9444   1.9501   1.9591   1.9649
  1.9682   1.9733   1.9828   1.9927   2.0058   2.0219   2.0248   2.0326
  2.0395   2.0428   2.0483   2.0641   2.0686   2.0787   2.1049   2.1088
  2.1134   2.1246   2.1291   2.1346   2.1568   2.1664   2.1862   2.1885
  2.1941   2.2062   2.2224   2.2331   2.2396   2.2452   2.2515   2.2626
  2.2772   2.2827   2.3045   2.3106   2.3181   2.3326   2.3378   2.3539
  2.3677   2.3928   2.4181   2.4267   2.4280   2.4432   2.4468   2.4570
  2.4619   2.4867   2.4931   2.5021   2.5405   2.5633   2.5713   2.5851
  2.5894   2.5986   2.6034   2.6118   2.6299   2.6375   2.6540   2.6638
  2.6700   2.6812   2.6953   2.7036   2.7087   2.7160   2.7213   2.7336
  2.7661   2.7781   2.7833   2.7962   2.7993   2.8167   2.8227   2.8239
  2.8333   2.8352   2.8438   2.8506   2.8698   2.8753   2.8779   2.8969
  2.9144   2.9237   2.9346   2.9409   2.9478   2.9581   2.9621   2.9666
  2.9889   2.9939   2.9976   3.0090   3.0170   3.0192   3.0255   3.0344
  3.0449   3.0536   3.0584   3.0668   3.0767   3.0851   3.0924   3.0991
  3.1111   3.1151   3.1329   3.1430   3.1572   3.1675   3.1950   3.2125
  3.2220   3.2244   3.2375   3.2411   3.2465   3.2655   3.2770   3.2869
  3.2892   3.2931   3.3129   3.3210   3.3324   3.3423   3.3605   3.3734
  3.3753   3.3815   3.3935   3.3995   3.4119   3.4355   3.4375   3.4481
  3.4608   3.4614   3.4654   3.4675   3.4820   3.4859   3.4887   3.4925
  3.5035   3.5148   3.5214   3.5257   3.5315   3.5463   3.5505   3.5620
  3.5642   3.5665   3.5689   3.5724   3.5792   3.5844   3.5875   3.6012
  3.6041   3.6115   3.6190   3.6310   3.6361   3.6396   3.6446   3.6674
  3.6713   3.6903   3.6974   3.7040   3.7141   3.7167   3.7255   3.7419
  3.7456   3.7617   3.7930   3.8067   3.8195   3.8281   3.8716   3.8786
  3.9083   3.9304   3.9433   3.9628   3.9659   3.9739   3.9806   3.9968
  4.0242   4.0534   4.0696   4.0763   4.0987   4.1049   4.1437   4.1729
  4.2219   4.2275   4.2829   4.2971   4.3015   4.3107   4.3191   4.3289
  4.3360   4.3500   4.3514   4.3626   4.3757   4.3824   4.3843   4.3915
  4.4045   4.4150   4.4174   4.4205   4.4308   4.4467   4.4543   4.4711
  4.4816   4.5037   4.5056   4.5450   4.5646   4.5762   4.6126   4.6335
  4.6468   4.6823   4.7652   4.7904   4.8022   4.8171   4.8358   4.8705
  4.8795   4.9099   4.9388   4.9554   4.9766   4.9827   5.0545   5.0690
  5.0776   5.0853   5.1883   5.2202   5.2835   5.2977   5.3872   5.4004
  5.4168   5.4332   5.5078   5.5269   5.5341   5.5495   5.6870   5.7300
  5.8235   5.8475  22.6470  22.6798  22.7361  22.7553  22.9400  22.9618
 22.9760  22.9957  23.0429  23.1026  23.1259  23.1612  23.4368  23.5244
 --------------------------------------------------------------
 
          Ground-State Mulliken Net Atomic Charges

     Atom                 Charge (a.u.)
  ----------------------------------------
      1 C                    -1.248184
      2 C                    -0.447894
      3 C                    -0.364187
      4 C                    -0.432964
      5 C                     0.688748
      6 C                    -0.437119
      7 C                    -0.515573
      8 H                     0.350714
      9 H                     0.426178
     10 H                     0.398185
     11 H                     0.405268
     12 H                     0.283639
     13 H                     0.307814
     14 H                     0.403011
     15 H                     0.253580
     16 C                    -1.002951
     17 C                    -0.092639
     18 C                     0.163288
     19 C                    -0.449631
     20 C                    -0.523566
     21 C                    -0.550964
     22 C                    -0.412748
     23 H                     0.443615
     24 H                     0.411111
     25 H                     0.283863
     26 H                     0.189372
     27 H                     0.422844
     28 H                     0.412214
     29 H                     0.384031
     30 H                     0.250943
  ----------------------------------------
  Sum of atomic charges =     0.000000

 -----------------------------------------------------------------
                    Cartesian Multipole Moments
 -----------------------------------------------------------------
    Charge (ESU x 10^10)
                 0.0000
    Dipole Moment (Debye)
         X      -0.1146      Y      -0.4445      Z       0.6797
       Tot       0.8202
    Quadrupole Moments (Debye-Ang)
        XX     -87.1277     XY      -2.0885     YY     -76.1488
        XZ      -1.5649     YZ       3.0204     ZZ     -78.9529
    Octopole Moments (Debye-Ang^2)
       XXX       0.5215    XXY       3.1908    XYY      -1.4617
       YYY       3.0395    XXZ     -20.0047    XYZ       5.5590
       YYZ       2.3365    XZZ     -32.3489    YZZ     -11.2015
       ZZZ       2.3081
    Hexadecapole Moments (Debye-Ang^3)
      XXXX   -1028.0295   XXXY     182.2661   XXYY    -288.8482
      XYYY     159.8033   YYYY    -837.3934   XXXZ    -587.2460
      XXYZ      35.4963   XYYZ    -154.1533   YYYZ     115.6608
      XXZZ    -766.3721   XYZZ      54.5375   YYZZ    -701.1642
      XZZZ    -504.8204   YZZZ     159.8784   ZZZZ   -3464.2385
 -----------------------------------------------------------------
Archival summary:
1\1\nid00561\SP\ProcedureUnspecified\BasisUnspecified\1416\meili\MonSep2706:23:312021MonSep2706:23:312021\0\\#,ProcedureUnspecified,BasisUnspecified,\\0,1\C\H,1,1.07602\C,1,1.3884,2,119.2\C,3,1.37639,1,118.023,2,175.311,0\H,4,1.07886,3,120.712,1,-175.015,0\C,4,1.38084,3,119.958,1,3.50791,0\H,6,1.0743,4,117.807,3,-177.738,0\C,6,1.37951,4,121.85,3,-0.620941,0\H,8,1.08078,6,120.265,4,-179.042,0\C,8,1.37718,6,118.936,4,-2.02926,0\H,10,1.08068,8,120.633,6,-177.897,0\C,3,1.49561,1,121.262,2,0.592107,0\H,12,1.06746,3,107.866,1,128.939,0\H,12,1.09089,3,109.777,1,10.4346,0\H,12,1.1,3,114.099,1,-112.981,0\C,2,2.5263,1,155.063,3,110.449,0\H,16,1.08056,2,90.2105,1,5.34664,0\C,16,1.38058,2,85.9398,1,-115,0\H,18,1.08059,16,119.494,2,88.1484,0\C,18,1.38039,16,120.267,2,-92.8577,0\H,20,1.07582,18,119.245,16,-176.695,0\C,20,1.38995,18,120.369,16,0.88095,0\H,22,1.08107,20,119.635,18,-178.956,0\C,22,1.39814,20,120.391,18,-0.406085,0\C,24,1.39833,22,118.663,20,0.0314344,0\H,25,1.07806,24,119.958,22,-178.881,0\C,24,1.50842,22,121.148,20,-177.314,0\H,27,1.08973,24,109.329,22,15.0599,0\H,27,1.09021,24,108.132,22,131.708,0\H,27,1.1,24,113.72,22,-107.475,0\\\@

 Total job time:  83674.93s(wall), 57607.39s(cpu) 
 Mon Sep 27 06:23:35 2021

        *************************************************************
        *                                                           *
        *  Thank you very much for using Q-Chem.  Have a nice day.  *
        *                                                           *
        *************************************************************


