
Running Job 1 of 1 SSI-117PHE-130HIE-1_PCM_TZVPD.in
qchem SSI-117PHE-130HIE-1_PCM_TZVPD.in_2900.0 /tmp/qchem2900/ 0
/global/common/cori/software/qchem/5.2/exe/qcprog.exe_s SSI-117PHE-130HIE-1_PCM_TZVPD.in_2900.0 /tmp/qchem2900/
                  Welcome to Q-Chem
     A Quantum Leap Into The Future Of Chemistry


 Q-Chem 5.2, Q-Chem, Inc., Pleasanton, CA (2019)

 License issued to: National Energy Research Scientific Computing Center

 Yihan Shao,  Zhengting Gan,  E. Epifanovsky,  A. T. B. Gilbert,  M. Wormit,  
 J. Kussmann,  A. W. Lange,  A. Behn,  Jia Deng,  Xintian Feng,  D. Ghosh,  
 M. Goldey,  P. R. Horn,  L. D. Jacobson,  I. Kaliman,  T. Kus,  A. Landau,  
 Jie Liu,  E. I. Proynov,  R. M. Richard,  R. P. Steele,  E. J. Sundstrom,  
 H. L. Woodcock III,  P. M. Zimmerman,  D. Zuev,  B. Albrecht,  E. Alguire,  
 S. A. Baeppler,  D. Barton,  Z. Benda,  Y. A. Bernard,  E. J. Berquist,  
 K. B. Bravaya,  H. Burton,  D. Casanova,  Chun-Min Chang,  Yunqing Chen,  
 A. Chien,  K. D. Closser,  M. P. Coons,  S. Coriani,  S. Dasgupta,  
 A. L. Dempwolff,  M. Diedenhofen,  Hainam Do,  R. G. Edgar,  Po-Tung Fang,  
 S. Faraji,  S. Fatehi,  Qingguo Feng,  K. D. Fenk,  J. Fosso-Tande,  
 J. Gayvert,  Qinghui Ge,  A. Ghysels,  G. Gidofalvi,  J. Gomes,  
 J. Gonthier,  A. Gunina,  D. Hait,  M. W. D. Hanson-Heine,  
 P. H. P. Harbach,  A. W. Hauser,  M. F. Herbst,  J. E. Herr,  
 E. G. Hohenstein,  Z. C. Holden,  Kerwin Hui,  B. C. Huynh,  T.-C. Jagau,  
 Hyunjun Ji,  B. Kaduk,  K. Khistyaev,  Jaehoon Kim,  P. Klunzinger,  K. Koh,  
 D. Kosenkov,  L. Koulias,  T. Kowalczyk,  C. M. Krauter,  A. Kunitsa,  
 Ka Un Lao,  A. Laurent,  K. V. Lawler,  Joonho Lee,  D. Lefrancois,  
 S. Lehtola,  D. S. Levine,  Yi-Pei Li,  You-Sheng Lin,  Fenglai Liu,  
 E. Livshits,  A. Luenser,  P. Manohar,  E. Mansoor,  S. F. Manzer,  
 Shan-Ping Mao,  Yuezhi Mao,  N. Mardirossian,  A. V. Marenich,  
 T. Markovich,  L. A. Martinez-Martinez,  S. A. Maurer,  N. J. Mayhall,  
 S. C. McKenzie,  J.-M. Mewes,  P. Morgante,  A. F. Morrison,  
 J. W. Mullinax,  K. Nanda,  T. S. Nguyen-Beck,  R. Olivares-Amaya,  
 J. A. Parkhill,  Zheng Pei,  T. M. Perrine,  F. Plasser,  P. Pokhilko,  
 S. Prager,  A. Prociuk,  E. Ramos,  D. R. Rehn,  F. Rob,  M. Scheurer,  
 M. Schneider,  N. Sergueev,  S. M. Sharada,  S. Sharma,  D. W. Small,  
 T. Stauch,  T. Stein,  Yu-Chuan Su,  A. J. W. Thom,  A. Tkatchenko,  
 T. Tsuchimochi,  N. M. Tubman,  L. Vogt,  M. L. Vidal,  O. Vydrov,  
 M. A. Watson,  J. Wenzel,  M. de Wergifosse,  T. A. Wesolowski,  A. White,  
 J. Witte,  A. Yamada,  Jun Yang,  K. Yao,  S. Yeganeh,  S. R. Yost,  
 Zhi-Qiang You,  A. Zech,  Igor Ying Zhang,  Xing Zhang,  Yan Zhao,  
 Ying Zhu,  B. R. Brooks,  G. K. L. Chan,  C. J. Cramer,  M. S. Gordon,  
 W. J. Hehre,  A. Klamt,  M. W. Schmidt,  C. D. Sherrill,  D. G. Truhlar,  
 A. Aspuru-Guzik,  R. Baer,  A. T. Bell,  N. A. Besley,  Jeng-Da Chai,  
 A. E. DePrince, III,  R. A. DiStasio Jr.,  A. Dreuw,  B. D. Dunietz,  
 T. R. Furlani,  Chao-Ping Hsu,  Yousung Jung,  Jing Kong,  D. S. Lambrecht,  
 WanZhen Liang,  C. Ochsenfeld,  V. A. Rassolov,  L. V. Slipchenko,  
 J. E. Subotnik,  T. Van Voorhis,  J. M. Herbert,  A. I. Krylov,  
 P. M. W. Gill,  M. Head-Gordon

 Contributors to earlier versions of Q-Chem not listed above: 
 R. D. Adamson,  B. Austin,  J. Baker,  G. J. O. Beran,  K. Brandhorst,  
 S. T. Brown,  E. F. C. Byrd,  A. K. Chakraborty,  C.-L. Cheng,  
 Siu Hung Chien,  D. M. Chipman,  D. L. Crittenden,  H. Dachsel,  
 R. J. Doerksen,  A. D. Dutoi,  L. Fusti-Molnar,  W. A. Goddard III,  
 A. Golubeva-Zadorozhnaya,  S. R. Gwaltney,  G. Hawkins,  A. Heyden,  
 S. Hirata,  G. Kedziora,  F. J. Keil,  C. Kelley,  Jihan Kim,  R. A. King,  
 R. Z. Khaliullin,  P. P. Korambath,  W. Kurlancheek,  A. M. Lee,  M. S. Lee,  
 S. V. Levchenko,  Ching Yeh Lin,  D. Liotard,  R. C. Lochan,  I. Lotan,  
 P. E. Maslen,  N. Nair,  D. P. O'Neill,  D. Neuhauser,  E. Neuscamman,  
 C. M. Oana,  R. Olson,  B. Peters,  R. Peverati,  P. A. Pieniazek,  
 Y. M. Rhee,  J. Ritchie,  M. A. Rohrdanz,  E. Rosta,  N. J. Russ,  
 H. F. Schaefer III,  N. E. Schultz,  N. Shenvi,  A. C. Simmonett,  A. Sodt,  
 D. Stuck,  K. S. Thanthiriwatte,  V. Vanovschi,  Tao Wang,  A. Warshel,  
 C. F. Williams,  Q. Wu,  X. Xu,  W. Zhang

 Please cite Q-Chem as follows:
 Y. Shao et al., Mol. Phys. 113, 184-215 (2015)
 DOI: 10.1080/00268976.2014.952696

 Q-Chem 5.2.0 for Intel X86 EM64T Linux

 Parts of Q-Chem use Armadillo 8.300.2 (Tropical Shenanigans).
 http://arma.sourceforge.net/

 Q-Chem begins on Sun Sep 26 13:54:10 2021  

Host: cori01
0

     Scratch files written to /tmp/qchem2900//
 May1019 |scratch|qcdevops|jenkins|workspace|build_RNUM -1
Processing $rem in /global/common/cori/software/qchem/5.2/config/preferences:
	 MEM_TOTAL  96000 
NAlpha2: 94
NElect   94
Mult     1
Symmetry turned off for PCM/SM12/SMD calculation

 Q-Chem warning in module libgen/rem_setup.C, line 2803:

 Neither GIA nor STOLL is specified by user. Use STOLL as the default


Checking the input file for inconsistencies... 	...done.

--------------------------------------------------------------
User input:
--------------------------------------------------------------
$comment
SSI-117PHE-130HIE-1.pdb
$end

$molecule
0 1
--
0 1
C    0.013309326418   -1.135906313511   -4.110006964170
C    0.769309326418   -0.501906313511   -0.451006964170
C    2.075309326418   -0.968906313511   -0.338006964170
C    0.112309326418   -0.552906313511   -1.678006964170
C    0.754309326418   -1.057906313511   -2.807006964170
C    2.718309326418   -1.494906313511   -1.456006964170
C    2.055309326418   -1.543906313511   -2.686006964170
H    0.241309326418   -0.154906313511    0.416993035830
H    2.576309326418   -0.950906313511    0.620993035830
H   -0.910690673582   -0.225906313511   -1.737006964170
H    3.711309326418   -1.897906313511   -1.368006964170
H   -0.966690673582   -0.669906313511   -3.991006964170
H   -0.157690673582   -2.192906313511   -4.327006964170
H    2.558309326418   -1.950906313511   -3.548006964170
H    0.520380326418   -0.681116313511   -4.973746964170
--
0 1
C   -3.079690673582    1.901093686489    1.065993035830
C    0.154309326418    1.202093686489    2.561993035830
C   -1.917690673582    1.356093686489    1.841993035830
C   -1.883690673582    0.411093686489    2.816993035830
N   -0.636690673582    1.846093686489    1.715993035830
N   -0.574690673582    0.325093686489    3.241993035830
H    1.219309326418    1.361093686489    2.680993035830
H   -0.214690673582   -0.301906313511    3.953993035830
H   -2.726690673582   -0.155906313511    3.183993035830
H   -3.798690673582    1.096093686489    0.913993035830
H   -2.740690673582    2.228093686489    0.084993035830
H   -3.571522673582    2.739083686489    1.581623035830
$end

$rem
JOBTYPE			EDA
EDA2			1
method			wB97X-V
BASIS			def2-TZVPD
XC_GRID			000099000590
NL_GRID			1
UNRESTRICTED		FALSE
MAX_SCF_CYCLES		200
SYMMETRY		FALSE
SYM_IGNORE		TRUE
MEM_STATIC		2000
BASIS_LIN_DEP_THRESH 	6
THRESH 			14
SCF_CONVERGENCE 	8
SCF_PRINT_FRGM 		TRUE
SOLVENT_METHOD          PCM
$end

$PCM
THEORY                  CPCM
METHOD                  SWIG
SOLVER                  INVERSION
RADII                   UFF
HPOINTS                 302
HEAVYPOINTS             302
PRINTLEVEL              0
$END

$SOLVENT
DIELECTRIC              78.390000 ! water
$END
--------------------------------------------------------------
 ----------------------------------------------------------------
             Standard Nuclear Orientation (Angstroms)
    I     Atom           X                Y                Z
 ----------------------------------------------------------------
    1      C       0.0133093264    -1.1359063135    -4.1100069642
    2      C       0.7693093264    -0.5019063135    -0.4510069642
    3      C       2.0753093264    -0.9689063135    -0.3380069642
    4      C       0.1123093264    -0.5529063135    -1.6780069642
    5      C       0.7543093264    -1.0579063135    -2.8070069642
    6      C       2.7183093264    -1.4949063135    -1.4560069642
    7      C       2.0553093264    -1.5439063135    -2.6860069642
    8      H       0.2413093264    -0.1549063135     0.4169930358
    9      H       2.5763093264    -0.9509063135     0.6209930358
   10      H      -0.9106906736    -0.2259063135    -1.7370069642
   11      H       3.7113093264    -1.8979063135    -1.3680069642
   12      H      -0.9666906736    -0.6699063135    -3.9910069642
   13      H      -0.1576906736    -2.1929063135    -4.3270069642
   14      H       2.5583093264    -1.9509063135    -3.5480069642
   15      H       0.5203803264    -0.6811163135    -4.9737469642
   16      C      -3.0796906736     1.9010936865     1.0659930358
   17      C       0.1543093264     1.2020936865     2.5619930358
   18      C      -1.9176906736     1.3560936865     1.8419930358
   19      C      -1.8836906736     0.4110936865     2.8169930358
   20      N      -0.6366906736     1.8460936865     1.7159930358
   21      N      -0.5746906736     0.3250936865     3.2419930358
   22      H       1.2193093264     1.3610936865     2.6809930358
   23      H      -0.2146906736    -0.3019063135     3.9539930358
   24      H      -2.7266906736    -0.1559063135     3.1839930358
   25      H      -3.7986906736     1.0960936865     0.9139930358
   26      H      -2.7406906736     2.2280936865     0.0849930358
   27      H      -3.5715226736     2.7390836865     1.5816230358
 ----------------------------------------------------------------
 Nuclear Repulsion Energy =         706.96125839 hartrees
 There are       47 alpha and       47 beta electrons
 Requested basis set is def2-TZVPD
 There are 239 shells and 607 basis functions

 Total QAlloc Memory Limit  96000 MB
 Mega-Array Size      1956 MB
 MEM_STATIC part      2000 MB
 Discretize the solute cavity surface with Lebedev spheres
	Using 302 Lebedev grid points for each H atom
	Using 302 Lebedev grid points for other atoms
	Atomic van der Waals radii will be scaled by 1.20
 Remove points where switching function is < 1.0e-08
 Keep 3156 surface tesserae and discard 4998 interior tesserae
 Molecular Surface Area = 308.872 Angst**2
 A cutoff of  1.0D-14 yielded  24372 shell pairs
 There are    157418 function pairs (    198940 Cartesian)
 Smallest overlap matrix eigenvalue = 4.79E-07
 Linear dependence detected in AO basis
 Tighter screening thresholds may be required for diffuse basis sets
 Use S2THRESH > 14 and THRESH = 14 in case of SCF convergence issues
 Number of orthogonalized atomic orbitals = 605
 Maximum deviation from orthogonality = 2.166E-10

 Scale SEOQF with 1.000000e-01/1.000000e-01/1.000000e-01

 Standard Electronic Orientation quadrupole field applied
 Nucleus-field energy     =    -0.0000000379 hartrees

 -----------------------------------------------------------------------
  General SCF calculation program by
  Eric Jon Sundstrom, Paul Horn, Yuezhi Mao, Dmitri Zuev, Alec White,
  David Stuck, Shaama M.S., Shane Yost, Joonho Lee, David Small,
  Daniel Levine, Susi Lehtola, Hugh Burton, Evgeny Epifanovsky
 -----------------------------------------------------------------------
================================================================
                 ALMO-EDA with the EDA2 driver                  
================================================================
 The second-generation ALMO-EDA (for DFT):                      
 P. R. Horn, Y. Mao and M. Head-Gordon, PCCP, 18, 23067 (2016)  
 Decomposition of the frozen energy:                            
 P. R. Horn, Y. Mao and M. Head-Gordon, JCP, 144, 114107 (2016) 
 FERF model for polarization:                                   
 P. R. Horn and M. Head-Gordon, JCP, 143, 114111 (2015)         
Using eda2 option set 1
Option set summary: Frozen orbital wavefunction, initial wavefunction decomposition, and nDQ polarization.
--------------------------------
Printing EDA Options
--------------------------------
eda_child_super_basis      0
fragmo_guess_mode          0
child_mp                   1
child_mp_orders            232
cls_elec                   1
cls_disp                   0
scfmi_mode                 1
scfmi_occs                 0
scfmi_virts                0
frz_relax                  0
frz_relax_method           0
dc_pen_start               0
dc_pen_conv                0
dc_pen_increment           0
dc_pen_steps               0
dc_pen_thresh_factor       0
dc_pen_pre_newton_thresh   0
frz_ortho_decomp           1
frz_ortho_decomp_conv      6
frgm_method                2
scfmi_freeze_ss            0
separate_rehyb             0
plot_diff_den              0
eda_nocv                   0
eda_vct_relax              1
disp_free_x                0
disp_free_c                0
eda_bsse                   0
eda_pct_a                  0
eda_covp                   0
--------------------------------
Attempting to make child job directory: /tmp/qchem2900//Frg1/
Attempting to make child job directory: /tmp/qchem2900//Frg2/
Creating input file /tmp/qchem2900/Frg1.input
using default PutDataFrgm: nothing
calling putenv with: QCSCRATCH=/tmp/qchem2900/ 
calling putenv with: QCLOCALSCR=/tmp/qchem2900/ 
Spawning Job For Fragment 0
                  Welcome to Q-Chem
     A Quantum Leap Into The Future Of Chemistry


 Q-Chem 5.2, Q-Chem, Inc., Pleasanton, CA (2019)

 License issued to: National Energy Research Scientific Computing Center

 Yihan Shao,  Zhengting Gan,  E. Epifanovsky,  A. T. B. Gilbert,  M. Wormit,  
 J. Kussmann,  A. W. Lange,  A. Behn,  Jia Deng,  Xintian Feng,  D. Ghosh,  
 M. Goldey,  P. R. Horn,  L. D. Jacobson,  I. Kaliman,  T. Kus,  A. Landau,  
 Jie Liu,  E. I. Proynov,  R. M. Richard,  R. P. Steele,  E. J. Sundstrom,  
 H. L. Woodcock III,  P. M. Zimmerman,  D. Zuev,  B. Albrecht,  E. Alguire,  
 S. A. Baeppler,  D. Barton,  Z. Benda,  Y. A. Bernard,  E. J. Berquist,  
 K. B. Bravaya,  H. Burton,  D. Casanova,  Chun-Min Chang,  Yunqing Chen,  
 A. Chien,  K. D. Closser,  M. P. Coons,  S. Coriani,  S. Dasgupta,  
 A. L. Dempwolff,  M. Diedenhofen,  Hainam Do,  R. G. Edgar,  Po-Tung Fang,  
 S. Faraji,  S. Fatehi,  Qingguo Feng,  K. D. Fenk,  J. Fosso-Tande,  
 J. Gayvert,  Qinghui Ge,  A. Ghysels,  G. Gidofalvi,  J. Gomes,  
 J. Gonthier,  A. Gunina,  D. Hait,  M. W. D. Hanson-Heine,  
 P. H. P. Harbach,  A. W. Hauser,  M. F. Herbst,  J. E. Herr,  
 E. G. Hohenstein,  Z. C. Holden,  Kerwin Hui,  B. C. Huynh,  T.-C. Jagau,  
 Hyunjun Ji,  B. Kaduk,  K. Khistyaev,  Jaehoon Kim,  P. Klunzinger,  K. Koh,  
 D. Kosenkov,  L. Koulias,  T. Kowalczyk,  C. M. Krauter,  A. Kunitsa,  
 Ka Un Lao,  A. Laurent,  K. V. Lawler,  Joonho Lee,  D. Lefrancois,  
 S. Lehtola,  D. S. Levine,  Yi-Pei Li,  You-Sheng Lin,  Fenglai Liu,  
 E. Livshits,  A. Luenser,  P. Manohar,  E. Mansoor,  S. F. Manzer,  
 Shan-Ping Mao,  Yuezhi Mao,  N. Mardirossian,  A. V. Marenich,  
 T. Markovich,  L. A. Martinez-Martinez,  S. A. Maurer,  N. J. Mayhall,  
 S. C. McKenzie,  J.-M. Mewes,  P. Morgante,  A. F. Morrison,  
 J. W. Mullinax,  K. Nanda,  T. S. Nguyen-Beck,  R. Olivares-Amaya,  
 J. A. Parkhill,  Zheng Pei,  T. M. Perrine,  F. Plasser,  P. Pokhilko,  
 S. Prager,  A. Prociuk,  E. Ramos,  D. R. Rehn,  F. Rob,  M. Scheurer,  
 M. Schneider,  N. Sergueev,  S. M. Sharada,  S. Sharma,  D. W. Small,  
 T. Stauch,  T. Stein,  Yu-Chuan Su,  A. J. W. Thom,  A. Tkatchenko,  
 T. Tsuchimochi,  N. M. Tubman,  L. Vogt,  M. L. Vidal,  O. Vydrov,  
 M. A. Watson,  J. Wenzel,  M. de Wergifosse,  T. A. Wesolowski,  A. White,  
 J. Witte,  A. Yamada,  Jun Yang,  K. Yao,  S. Yeganeh,  S. R. Yost,  
 Zhi-Qiang You,  A. Zech,  Igor Ying Zhang,  Xing Zhang,  Yan Zhao,  
 Ying Zhu,  B. R. Brooks,  G. K. L. Chan,  C. J. Cramer,  M. S. Gordon,  
 W. J. Hehre,  A. Klamt,  M. W. Schmidt,  C. D. Sherrill,  D. G. Truhlar,  
 A. Aspuru-Guzik,  R. Baer,  A. T. Bell,  N. A. Besley,  Jeng-Da Chai,  
 A. E. DePrince, III,  R. A. DiStasio Jr.,  A. Dreuw,  B. D. Dunietz,  
 T. R. Furlani,  Chao-Ping Hsu,  Yousung Jung,  Jing Kong,  D. S. Lambrecht,  
 WanZhen Liang,  C. Ochsenfeld,  V. A. Rassolov,  L. V. Slipchenko,  
 J. E. Subotnik,  T. Van Voorhis,  J. M. Herbert,  A. I. Krylov,  
 P. M. W. Gill,  M. Head-Gordon

 Contributors to earlier versions of Q-Chem not listed above: 
 R. D. Adamson,  B. Austin,  J. Baker,  G. J. O. Beran,  K. Brandhorst,  
 S. T. Brown,  E. F. C. Byrd,  A. K. Chakraborty,  C.-L. Cheng,  
 Siu Hung Chien,  D. M. Chipman,  D. L. Crittenden,  H. Dachsel,  
 R. J. Doerksen,  A. D. Dutoi,  L. Fusti-Molnar,  W. A. Goddard III,  
 A. Golubeva-Zadorozhnaya,  S. R. Gwaltney,  G. Hawkins,  A. Heyden,  
 S. Hirata,  G. Kedziora,  F. J. Keil,  C. Kelley,  Jihan Kim,  R. A. King,  
 R. Z. Khaliullin,  P. P. Korambath,  W. Kurlancheek,  A. M. Lee,  M. S. Lee,  
 S. V. Levchenko,  Ching Yeh Lin,  D. Liotard,  R. C. Lochan,  I. Lotan,  
 P. E. Maslen,  N. Nair,  D. P. O'Neill,  D. Neuhauser,  E. Neuscamman,  
 C. M. Oana,  R. Olson,  B. Peters,  R. Peverati,  P. A. Pieniazek,  
 Y. M. Rhee,  J. Ritchie,  M. A. Rohrdanz,  E. Rosta,  N. J. Russ,  
 H. F. Schaefer III,  N. E. Schultz,  N. Shenvi,  A. C. Simmonett,  A. Sodt,  
 D. Stuck,  K. S. Thanthiriwatte,  V. Vanovschi,  Tao Wang,  A. Warshel,  
 C. F. Williams,  Q. Wu,  X. Xu,  W. Zhang

 Please cite Q-Chem as follows:
 Y. Shao et al., Mol. Phys. 113, 184-215 (2015)
 DOI: 10.1080/00268976.2014.952696

 Q-Chem 5.2.0 for Intel X86 EM64T Linux

 Parts of Q-Chem use Armadillo 8.300.2 (Tropical Shenanigans).
 http://arma.sourceforge.net/

 Q-Chem begins on Sun Sep 26 13:54:16 2021  

Host: cori01
0

     Scratch files written to /tmp/qchem2900//Frg1//
 May1019 |scratch|qcdevops|jenkins|workspace|build_RNUM -1
Processing $rem in /global/common/cori/software/qchem/5.2/config/preferences:
	 MEM_TOTAL  96000 
NAlpha2: 50
NElect   50
Mult     1
Symmetry turned off for PCM/SM12/SMD calculation

Checking the input file for inconsistencies... 	...done.

--------------------------------------------------------------
User input:
--------------------------------------------------------------
$molecule
0 1
 6	0.0133093264	-1.1359063135	-4.1100069642
 6	0.7693093264	-0.5019063135	-0.4510069642
 6	2.0753093264	-0.9689063135	-0.3380069642
 6	0.1123093264	-0.5529063135	-1.6780069642
 6	0.7543093264	-1.0579063135	-2.8070069642
 6	2.7183093264	-1.4949063135	-1.4560069642
 6	2.0553093264	-1.5439063135	-2.6860069642
 1	0.2413093264	-0.1549063135	0.4169930358
 1	2.5763093264	-0.9509063135	0.6209930358
 1	-0.9106906736	-0.2259063135	-1.7370069642
 1	3.7113093264	-1.8979063135	-1.3680069642
 1	-0.9666906736	-0.6699063135	-3.9910069642
 1	-0.1576906736	-2.1929063135	-4.3270069642
 1	2.5583093264	-1.9509063135	-3.5480069642
 1	0.5203803264	-0.6811163135	-4.9737469642
$end
$rem
EDA2		1
METHOD		WB97X-V
BASIS		DEF2-TZVPD
XC_GRID		000099000590
NL_GRID		1
UNRESTRICTED		FALSE
MAX_SCF_CYCLES		200
SYMMETRY		FALSE
SYM_IGNORE		TRUE
BASIS_LIN_DEP_THRESH		6
THRESH		14
SCF_CONVERGENCE		8
SCF_PRINT_FRGM		TRUE
SOLVENT_METHOD		PCM
!required keywords
JOBTYPE		SP
SYM_IGNORE		TRUE
SUBSYSTEM		TRUE
GEN_SCFMAN		TRUE
CHILD_INSTRUCTION		2
SYM_IGNORE		TRUE
SCFMI		0
RI_K 0		
PARI_K 0		
MIN_PARI_K 0		
IARI_K 0		
OCC_RI_K 0		
PURECART		1111
MEM_STATIC		2000
MEM_TOTAL		96000
GUI		0
CHILD_MP		1
CHILD_MP_ORDERS		232
FRZ_RELAX		0
FRZ_RELAX_METHOD		0
EDA_CLS_ELEC		1
EDA_CLS_DISP		0
FRZ_ORTHO_DECOMP		1
EDA2		FALSE
FRGM_METHOD		FALSE
CIS_N_ROOTS  0
LOCAL_CIS    0
CIS_RLX_DNS  1
$end
$pcm
THEORY                  CPCM
METHOD                  SWIG
SOLVER                  INVERSION
RADII                   UFF
HPOINTS                 302
HEAVYPOINTS             302
PRINTLEVEL              0
$end
$solvent
DIELECTRIC              78.390000 ! water
$end
--------------------------------------------------------------
 ----------------------------------------------------------------
             Standard Nuclear Orientation (Angstroms)
    I     Atom           X                Y                Z
 ----------------------------------------------------------------
    1      C       0.0133093264    -1.1359063135    -4.1100069642
    2      C       0.7693093264    -0.5019063135    -0.4510069642
    3      C       2.0753093264    -0.9689063135    -0.3380069642
    4      C       0.1123093264    -0.5529063135    -1.6780069642
    5      C       0.7543093264    -1.0579063135    -2.8070069642
    6      C       2.7183093264    -1.4949063135    -1.4560069642
    7      C       2.0553093264    -1.5439063135    -2.6860069642
    8      H       0.2413093264    -0.1549063135     0.4169930358
    9      H       2.5763093264    -0.9509063135     0.6209930358
   10      H      -0.9106906736    -0.2259063135    -1.7370069642
   11      H       3.7113093264    -1.8979063135    -1.3680069642
   12      H      -0.9666906736    -0.6699063135    -3.9910069642
   13      H      -0.1576906736    -2.1929063135    -4.3270069642
   14      H       2.5583093264    -1.9509063135    -3.5480069642
   15      H       0.5203803264    -0.6811163135    -4.9737469642
 ----------------------------------------------------------------
 Nuclear Repulsion Energy =         269.86059320 hartrees
 There are       25 alpha and       25 beta electrons
 Requested basis set is def2-TZVPD
 There are 131 shells and 331 basis functions

 Total QAlloc Memory Limit  96000 MB
 Mega-Array Size      1956 MB
 MEM_STATIC part      2000 MB
 Discretize the solute cavity surface with Lebedev spheres
	Using 302 Lebedev grid points for each H atom
	Using 302 Lebedev grid points for other atoms
	Atomic van der Waals radii will be scaled by 1.20
 Remove points where switching function is < 1.0e-08
 Keep 1807 surface tesserae and discard 2723 interior tesserae
 Molecular Surface Area = 178.164 Angst**2

                       Distance Matrix (Angstroms)
             C (  1)   C (  2)   C (  3)   C (  4)   C (  5)   C (  6)
   C (  2)  3.789693
   C (  3)  4.302060  1.391580
   C (  4)  2.502861  1.392759  2.412887
   C (  5)  1.500991  2.420764  2.801593  1.393496
   C (  6)  3.806524  2.407213  1.392856  2.779907  2.423523
   C (  7)  2.522698  2.781148  2.417463  2.402789  1.394072  1.398167
   H (  8)  4.637680  1.073600  2.143870  2.136368  3.387145  3.382197
   H (  9)  5.383823  2.148496  1.082130  3.393391  3.883596  2.151750
   H ( 10)  2.704257  2.133629  3.380155  1.075611  2.146939  3.854733
   H ( 11)  4.666306  3.383056  2.144863  3.854598  3.394138  1.075268
   H ( 12)  1.091658  3.946330  4.763147  2.554975  2.124674  4.548195
   H ( 13)  1.092510  4.329225  4.732503  3.127251  2.104844  4.123254
   H ( 14)  2.730768  3.858955  3.391418  3.381452  2.144982  2.147091
   H ( 15)  1.100001  4.533129  4.898032  3.323381  2.211664  4.227013
             C (  7)   H (  8)   H (  9)   H ( 10)   H ( 11)   H ( 12)
   H (  8)  3.853379
   H (  9)  3.399903  2.475370
   H ( 10)  3.381550  2.443739  4.271412
   H ( 11)  2.145874  4.273777  2.478135  4.928958
   H ( 12)  3.405787  4.599451  5.822573  2.297997  5.501981
   H ( 13)  2.830451  5.178627  5.787921  3.338293  4.879740  1.756959
   H ( 14)  1.077823  4.931058  4.287293  4.276600  2.466702  3.776617
   H ( 15)  2.886896  5.423546  5.966636  3.568146  4.966283  1.782494
             H ( 13)   H ( 14)
   H ( 14)  2.835853
   H ( 15)  1.778640  2.792536
 
 A cutoff of  1.0D-14 yielded   8363 shell pairs
 There are     54499 function pairs (     69453 Cartesian)
 Smallest overlap matrix eigenvalue = 5.78E-07
 Linear dependence detected in AO basis
 Tighter screening thresholds may be required for diffuse basis sets
 Use S2THRESH > 14 and THRESH = 14 in case of SCF convergence issues
 Number of orthogonalized atomic orbitals = 330
 Maximum deviation from orthogonality = 1.200E-10

 Scale SEOQF with 1.000000e-01/1.000000e-01/1.000000e-01

 Standard Electronic Orientation quadrupole field applied
 Nucleus-field energy     =    -0.0000000229 hartrees
 Guess from superposition of atomic densities
 Warning:  Energy on first SCF cycle will be non-variational
 SAD guess density has 49.913408 electrons

 -----------------------------------------------------------------------
  General SCF calculation program by
  Eric Jon Sundstrom, Paul Horn, Yuezhi Mao, Dmitri Zuev, Alec White,
  David Stuck, Shaama M.S., Shane Yost, Joonho Lee, David Small,
  Daniel Levine, Susi Lehtola, Hugh Burton, Evgeny Epifanovsky
 -----------------------------------------------------------------------
 Exchange:     0.1670 Hartree-Fock + 1.0000 wB97X-V + LR-HF
 Correlation:  1.0000 wB97X-V
 Using Euler-Maclaurin-Lebedev (99,590) quadrature formula
 Nonlocal Correlation:  VV10 with C = 0.0100 and b = 6.00 and scale = 1.00000
 Grid used for NLC:  SG-1 standard quadrature
Energy prior to optimization (guess energy) = -271.519561229450
Begin Timing: Total SCF Calculation
begin iterations for algorithm: DIIS         
the SCF tolerance is set to 1.00e-08
    1    -271.5195612295      1.96e-03     00000 
    2    -271.5586832877      1.25e-03     00000 
    3    -271.5804815001      1.38e-04     00000 
    4    -271.5808984222      4.83e-05     00000 
    5    -271.5809327341      1.69e-05     00000 
    6    -271.5809375668      4.41e-06     00000 
    7    -271.5809379369      1.97e-06     00000 
    8    -271.5809380046      3.42e-07     00000 
    9    -271.5809380080      7.45e-08     00000 
   10    -271.5809380083      4.39e-08     00000 
   11    -271.5809380083      1.40e-08     00000 
   12    -271.5809380083      5.77e-09     00000 Convergence criterion met
Timing for Total SCF: 1399.00s (wall), 2780.66s (cpu)

************** Final PCM Free Energy Summary **************
 G_electrostatic  =      -0.00250961 hartree =      -1.57480455 kcal/mol
 G_cavitation     =       0.00000000 hartree =       0.00000000 kcal/mol
 G_dispersion     =       0.00000000 hartree =       0.00000000 kcal/mol
 G_repulsion      =       0.00000000 hartree =       0.00000000 kcal/mol
 --------------------------------------------------
 Non-electrostatic Free Energy =       0.00000000 hartree =       0.00000000 kcal/mol
 Total                         =      -0.00250961 hartree =      -1.57480455 kcal/mol
 --------------------------------------------------
 SCF Energy (H0 + V/2)                       =    -271.58093801 
 Solute Internal Energy (H0)                 =    -271.57842840 
 Total Free Energy (H0 + V/2 + non-elec)     =    -271.58093801 hartree
                                             = -170419.61074330 kcal/mol
***********************************************************

E_pcm = -0.0025096108
Multipole orders to be included
        2
        3
computing dipole RHS
computing quadrupole RHS
total number of RHS in solve_reponses: 8
RHS batch sizes
        8
Beginning Block Conjugate Gradient Iterations. Batch Number: 0
computing hessian-vector products by finite difference
              1      5.83e-01     00000 Conjugate Gradient Iteration
computing hessian-vector products by finite difference
              2      1.88e-01     00000 Conjugate Gradient Iteration
computing hessian-vector products by finite difference
              3      4.41e-02     00000 Conjugate Gradient Iteration
computing hessian-vector products by finite difference
              4      1.06e-02     00000 Conjugate Gradient Iteration
computing hessian-vector products by finite difference
              5      2.15e-03     00000 Conjugate Gradient Iteration
computing hessian-vector products by finite difference
              6      5.89e-04     00000 Conjugate Gradient Iteration
computing hessian-vector products by finite difference
              7      1.62e-04     00000 Conjugate Gradient Iteration
computing hessian-vector products by finite difference
              8      2.50e-05     00000 Conjugate Gradient Iteration
computing hessian-vector products by finite difference
              9      3.11e-06     00000 Conjugate Gradient Iteration
computing hessian-vector products by finite difference
             10      4.16e-07     00000 Conjugate Gradient Iteration
computing hessian-vector products by finite difference
             11      6.30e-08     00000 Conjugate Gradient Iteration
computing hessian-vector products by finite difference
             12      9.17e-09     00000 CG Converged
batch 0 complete
Done Calculating Responses
TESTING ORTHOGONALIZATION OF MULTIPOLE BASIS
Multipole virts passed orthogonality test
Virts Per Order
           75
          125
 
 --------------------------------------------------------------
 
                    Orbital Energies (a.u.)
 --------------------------------------------------------------
 
 Alpha MOs
 -- Occupied --
-10.2824 -10.2740 -10.2723 -10.2709 -10.2703 -10.2690 -10.2628  -0.9973
 -0.9080  -0.8792  -0.8137  -0.7315  -0.7067  -0.6307  -0.5740  -0.5694
 -0.5353  -0.5307  -0.5158  -0.4882  -0.4727  -0.4432  -0.4413  -0.3489
 -0.3381
 -- Virtual --
  0.0617   0.0632   0.0688   0.0790   0.0844   0.1043   0.1100   0.1133
  0.1352   0.1527   0.1653   0.1731   0.1809   0.1901   0.1941   0.1982
  0.2206   0.2301   0.2337   0.2401   0.2428   0.2563   0.2598   0.2708
  0.2777   0.2795   0.2870   0.2916   0.2932   0.3014   0.3040   0.3114
  0.3231   0.3244   0.3287   0.3405   0.3506   0.3524   0.3678   0.3695
  0.3731   0.3798   0.3852   0.3901   0.3934   0.3954   0.4019   0.4029
  0.4141   0.4252   0.4324   0.4359   0.4430   0.4458   0.4513   0.4612
  0.4672   0.4733   0.4755   0.4858   0.4959   0.4977   0.5077   0.5090
  0.5141   0.5246   0.5278   0.5399   0.5442   0.5514   0.5581   0.5637
  0.5708   0.5747   0.5850   0.5965   0.6016   0.6257   0.6349   0.6430
  0.6643   0.6771   0.6805   0.6845   0.6889   0.7002   0.7216   0.7246
  0.7274   0.7323   0.7441   0.7604   0.7633   0.7694   0.7739   0.7785
  0.7870   0.7905   0.7955   0.8030   0.8099   0.8196   0.8233   0.8279
  0.8336   0.8362   0.8500   0.8589   0.8634   0.8694   0.8751   0.8962
  0.9125   0.9273   0.9401   0.9455   0.9474   0.9991   1.0290   1.0373
  1.0512   1.0577   1.0650   1.0740   1.0867   1.0921   1.1031   1.1443
  1.1624   1.1650   1.2624   1.2754   1.3022   1.3278   1.3510   1.3542
  1.3774   1.4390   1.4495   1.4592   1.4623   1.4687   1.5276   1.5343
  1.6041   1.6097   1.6203   1.6252   1.6512   1.6783   1.7405   1.7617
  1.7820   1.7930   1.8020   1.8126   1.8387   1.8469   1.8781   1.9079
  1.9180   1.9193   1.9356   1.9709   1.9866   1.9919   2.0120   2.0271
  2.0338   2.0417   2.0698   2.0878   2.1061   2.1240   2.1721   2.1963
  2.2052   2.2234   2.2489   2.2761   2.2886   2.3124   2.3778   2.3972
  2.4076   2.4212   2.4587   2.5064   2.5449   2.5564   2.5650   2.5992
  2.6242   2.6515   2.6608   2.6764   2.6987   2.7152   2.7603   2.7709
  2.7740   2.8038   2.8132   2.8445   2.8573   2.8996   2.9086   2.9194
  2.9215   2.9442   2.9723   2.9840   2.9912   3.0171   3.0216   3.0518
  3.0615   3.0798   3.0995   3.1324   3.1586   3.1860   3.1960   3.2181
  3.2257   3.2641   3.2785   3.2889   3.3468   3.3516   3.3626   3.3767
  3.4140   3.4232   3.4345   3.4434   3.4583   3.4760   3.4800   3.4916
  3.5058   3.5311   3.5387   3.5497   3.5584   3.5644   3.5722   3.6093
  3.6231   3.6330   3.6560   3.6880   3.7279   3.7472   3.7611   3.8085
  3.8563   3.9016   3.9291   3.9456   3.9531   3.9774   4.0370   4.0578
  4.1303   4.2047   4.2719   4.2759   4.2878   4.3036   4.3229   4.3455
  4.3559   4.3696   4.3811   4.4107   4.4138   4.4477   4.4977   4.5346
  4.5981   4.6161   4.7754   4.7840   4.8124   4.8417   4.9148   4.9475
  5.0276   5.0423   5.1694   5.2685   5.3645   5.3884   5.4929   5.5332
  5.6690   5.8472  22.5897  22.6857  22.8911  22.8982  23.0122  23.0758
 23.4229
 --------------------------------------------------------------
 
          Ground-State Mulliken Net Atomic Charges

     Atom                 Charge (a.u.)
  ----------------------------------------
      1 C                    -1.019955
      2 C                    -0.545774
      3 C                    -0.474057
      4 C                    -0.395958
      5 C                     0.883839
      6 C                    -0.463592
      7 C                    -0.315599
      8 H                     0.318078
      9 H                     0.332156
     10 H                     0.282074
     11 H                     0.322406
     12 H                     0.262954
     13 H                     0.213304
     14 H                     0.348590
     15 H                     0.251533
  ----------------------------------------
  Sum of atomic charges =     0.000000

 -----------------------------------------------------------------
                    Cartesian Multipole Moments
 -----------------------------------------------------------------
    Charge (ESU x 10^10)
                 0.0000
    Dipole Moment (Debye)
         X      -0.2914      Y      -0.2145      Z      -0.4052
       Tot       0.5432
    Quadrupole Moments (Debye-Ang)
        XX     -39.9044     XY      -2.4865     YY     -44.6426
        XZ       0.6966     YZ       2.3508     ZZ     -36.6905
    Octopole Moments (Debye-Ang^2)
       XXX    -138.9938    XXY      33.8669    XYY     -48.6896
       YYY     138.9378    XXZ      82.0716    XYZ       5.4579
       YYZ      82.8861    XZZ     -45.0494    YZZ      33.3302
       ZZZ     227.3779
    Hexadecapole Moments (Debye-Ang^3)
      XXXX    -660.9767   XXXY     150.3670   XXYY    -167.8901
      XYYY     199.4000   YYYY    -396.4782   XXXZ     211.6803
      XXYZ     -80.4533   XYYZ      65.0948   YYYZ    -294.6520
      XXZZ    -361.5960   XYZZ      44.0842   YYZZ    -308.0865
      XZZZ     190.2909   YZZZ    -254.1376   ZZZZ   -1437.9304
 -----------------------------------------------------------------
Archival summary:
1\1\nid00531\SP\ProcedureUnspecified\BasisUnspecified\78\meili\SunSep2622:00:162021SunSep2622:00:162021\0\\#,ProcedureUnspecified,BasisUnspecified,\\0,1\C\C,1,1.3935\H,2,1.07561,1,120.259\C,2,1.39276,1,120.644,3,178.03,0\H,4,1.0736,2,119.479,1,-176.972,0\C,4,1.39158,2,120.13,1,-0.610608,0\H,6,1.08213,4,120.059,2,-178.517,0\C,6,1.39286,4,119.657,2,-0.401131,0\H,8,1.07527,6,120.143,4,-177.282,0\C,1,1.39407,2,119.076,3,-176.447,0\H,10,1.07782,1,119.851,2,179.086,0\C,1,1.50099,2,119.651,3,0.37051,0\H,12,1.09166,1,109.048,2,5.21931,0\H,12,1.09251,1,107.456,2,-110.552,0\H,12,1.1,1,115.632,2,128.216,0\\\@

 Total job time:  29162.10s(wall), 57835.83s(cpu) 
 Sun Sep 26 22:00:18 2021

        *************************************************************
        *                                                           *
        *  Thank you very much for using Q-Chem.  Have a nice day.  *
        *                                                           *
        *************************************************************


Done Job For Fragment 0
calling putenv with: QCSCRATCH=/global/cscratch1/sd/meili 
calling putenv with: QCLOCALSCR=/tmp 
calling putenv with: QCTHREADS=32 
Creating input file /tmp/qchem2900/Frg2.input
using default PutDataFrgm: nothing
calling putenv with: QCSCRATCH=/tmp/qchem2900/ 
calling putenv with: QCLOCALSCR=/tmp/qchem2900/ 
Spawning Job For Fragment 1
                  Welcome to Q-Chem
     A Quantum Leap Into The Future Of Chemistry


 Q-Chem 5.2, Q-Chem, Inc., Pleasanton, CA (2019)

 License issued to: National Energy Research Scientific Computing Center

 Yihan Shao,  Zhengting Gan,  E. Epifanovsky,  A. T. B. Gilbert,  M. Wormit,  
 J. Kussmann,  A. W. Lange,  A. Behn,  Jia Deng,  Xintian Feng,  D. Ghosh,  
 M. Goldey,  P. R. Horn,  L. D. Jacobson,  I. Kaliman,  T. Kus,  A. Landau,  
 Jie Liu,  E. I. Proynov,  R. M. Richard,  R. P. Steele,  E. J. Sundstrom,  
 H. L. Woodcock III,  P. M. Zimmerman,  D. Zuev,  B. Albrecht,  E. Alguire,  
 S. A. Baeppler,  D. Barton,  Z. Benda,  Y. A. Bernard,  E. J. Berquist,  
 K. B. Bravaya,  H. Burton,  D. Casanova,  Chun-Min Chang,  Yunqing Chen,  
 A. Chien,  K. D. Closser,  M. P. Coons,  S. Coriani,  S. Dasgupta,  
 A. L. Dempwolff,  M. Diedenhofen,  Hainam Do,  R. G. Edgar,  Po-Tung Fang,  
 S. Faraji,  S. Fatehi,  Qingguo Feng,  K. D. Fenk,  J. Fosso-Tande,  
 J. Gayvert,  Qinghui Ge,  A. Ghysels,  G. Gidofalvi,  J. Gomes,  
 J. Gonthier,  A. Gunina,  D. Hait,  M. W. D. Hanson-Heine,  
 P. H. P. Harbach,  A. W. Hauser,  M. F. Herbst,  J. E. Herr,  
 E. G. Hohenstein,  Z. C. Holden,  Kerwin Hui,  B. C. Huynh,  T.-C. Jagau,  
 Hyunjun Ji,  B. Kaduk,  K. Khistyaev,  Jaehoon Kim,  P. Klunzinger,  K. Koh,  
 D. Kosenkov,  L. Koulias,  T. Kowalczyk,  C. M. Krauter,  A. Kunitsa,  
 Ka Un Lao,  A. Laurent,  K. V. Lawler,  Joonho Lee,  D. Lefrancois,  
 S. Lehtola,  D. S. Levine,  Yi-Pei Li,  You-Sheng Lin,  Fenglai Liu,  
 E. Livshits,  A. Luenser,  P. Manohar,  E. Mansoor,  S. F. Manzer,  
 Shan-Ping Mao,  Yuezhi Mao,  N. Mardirossian,  A. V. Marenich,  
 T. Markovich,  L. A. Martinez-Martinez,  S. A. Maurer,  N. J. Mayhall,  
 S. C. McKenzie,  J.-M. Mewes,  P. Morgante,  A. F. Morrison,  
 J. W. Mullinax,  K. Nanda,  T. S. Nguyen-Beck,  R. Olivares-Amaya,  
 J. A. Parkhill,  Zheng Pei,  T. M. Perrine,  F. Plasser,  P. Pokhilko,  
 S. Prager,  A. Prociuk,  E. Ramos,  D. R. Rehn,  F. Rob,  M. Scheurer,  
 M. Schneider,  N. Sergueev,  S. M. Sharada,  S. Sharma,  D. W. Small,  
 T. Stauch,  T. Stein,  Yu-Chuan Su,  A. J. W. Thom,  A. Tkatchenko,  
 T. Tsuchimochi,  N. M. Tubman,  L. Vogt,  M. L. Vidal,  O. Vydrov,  
 M. A. Watson,  J. Wenzel,  M. de Wergifosse,  T. A. Wesolowski,  A. White,  
 J. Witte,  A. Yamada,  Jun Yang,  K. Yao,  S. Yeganeh,  S. R. Yost,  
 Zhi-Qiang You,  A. Zech,  Igor Ying Zhang,  Xing Zhang,  Yan Zhao,  
 Ying Zhu,  B. R. Brooks,  G. K. L. Chan,  C. J. Cramer,  M. S. Gordon,  
 W. J. Hehre,  A. Klamt,  M. W. Schmidt,  C. D. Sherrill,  D. G. Truhlar,  
 A. Aspuru-Guzik,  R. Baer,  A. T. Bell,  N. A. Besley,  Jeng-Da Chai,  
 A. E. DePrince, III,  R. A. DiStasio Jr.,  A. Dreuw,  B. D. Dunietz,  
 T. R. Furlani,  Chao-Ping Hsu,  Yousung Jung,  Jing Kong,  D. S. Lambrecht,  
 WanZhen Liang,  C. Ochsenfeld,  V. A. Rassolov,  L. V. Slipchenko,  
 J. E. Subotnik,  T. Van Voorhis,  J. M. Herbert,  A. I. Krylov,  
 P. M. W. Gill,  M. Head-Gordon

 Contributors to earlier versions of Q-Chem not listed above: 
 R. D. Adamson,  B. Austin,  J. Baker,  G. J. O. Beran,  K. Brandhorst,  
 S. T. Brown,  E. F. C. Byrd,  A. K. Chakraborty,  C.-L. Cheng,  
 Siu Hung Chien,  D. M. Chipman,  D. L. Crittenden,  H. Dachsel,  
 R. J. Doerksen,  A. D. Dutoi,  L. Fusti-Molnar,  W. A. Goddard III,  
 A. Golubeva-Zadorozhnaya,  S. R. Gwaltney,  G. Hawkins,  A. Heyden,  
 S. Hirata,  G. Kedziora,  F. J. Keil,  C. Kelley,  Jihan Kim,  R. A. King,  
 R. Z. Khaliullin,  P. P. Korambath,  W. Kurlancheek,  A. M. Lee,  M. S. Lee,  
 S. V. Levchenko,  Ching Yeh Lin,  D. Liotard,  R. C. Lochan,  I. Lotan,  
 P. E. Maslen,  N. Nair,  D. P. O'Neill,  D. Neuhauser,  E. Neuscamman,  
 C. M. Oana,  R. Olson,  B. Peters,  R. Peverati,  P. A. Pieniazek,  
 Y. M. Rhee,  J. Ritchie,  M. A. Rohrdanz,  E. Rosta,  N. J. Russ,  
 H. F. Schaefer III,  N. E. Schultz,  N. Shenvi,  A. C. Simmonett,  A. Sodt,  
 D. Stuck,  K. S. Thanthiriwatte,  V. Vanovschi,  Tao Wang,  A. Warshel,  
 C. F. Williams,  Q. Wu,  X. Xu,  W. Zhang

 Please cite Q-Chem as follows:
 Y. Shao et al., Mol. Phys. 113, 184-215 (2015)
 DOI: 10.1080/00268976.2014.952696

 Q-Chem 5.2.0 for Intel X86 EM64T Linux

 Parts of Q-Chem use Armadillo 8.300.2 (Tropical Shenanigans).
 http://arma.sourceforge.net/

 Q-Chem begins on Sun Sep 26 22:00:20 2021  

Host: cori01
0

     Scratch files written to /tmp/qchem2900//Frg2//
 May1019 |scratch|qcdevops|jenkins|workspace|build_RNUM -1
Processing $rem in /global/common/cori/software/qchem/5.2/config/preferences:
	 MEM_TOTAL  96000 
NAlpha2: 44
NElect   44
Mult     1
Symmetry turned off for PCM/SM12/SMD calculation

Checking the input file for inconsistencies... 	...done.

--------------------------------------------------------------
User input:
--------------------------------------------------------------
$molecule
0 1
 6	-3.0796906736	1.9010936865	1.0659930358
 6	0.1543093264	1.2020936865	2.5619930358
 6	-1.9176906736	1.3560936865	1.8419930358
 6	-1.8836906736	0.4110936865	2.8169930358
 7	-0.6366906736	1.8460936865	1.7159930358
 7	-0.5746906736	0.3250936865	3.2419930358
 1	1.2193093264	1.3610936865	2.6809930358
 1	-0.2146906736	-0.3019063135	3.9539930358
 1	-2.7266906736	-0.1559063135	3.1839930358
 1	-3.7986906736	1.0960936865	0.9139930358
 1	-2.7406906736	2.2280936865	0.0849930358
 1	-3.5715226736	2.7390836865	1.5816230358
$end
$rem
EDA2		1
METHOD		WB97X-V
BASIS		DEF2-TZVPD
XC_GRID		000099000590
NL_GRID		1
UNRESTRICTED		FALSE
MAX_SCF_CYCLES		200
SYMMETRY		FALSE
SYM_IGNORE		TRUE
BASIS_LIN_DEP_THRESH		6
THRESH		14
SCF_CONVERGENCE		8
SCF_PRINT_FRGM		TRUE
SOLVENT_METHOD		PCM
!required keywords
JOBTYPE		SP
SYM_IGNORE		TRUE
SUBSYSTEM		TRUE
GEN_SCFMAN		TRUE
CHILD_INSTRUCTION		2
SYM_IGNORE		TRUE
SCFMI		0
RI_K 0		
PARI_K 0		
MIN_PARI_K 0		
IARI_K 0		
OCC_RI_K 0		
PURECART		1111
MEM_STATIC		2000
MEM_TOTAL		96000
GUI		0
CHILD_MP		1
CHILD_MP_ORDERS		232
FRZ_RELAX		0
FRZ_RELAX_METHOD		0
EDA_CLS_ELEC		1
EDA_CLS_DISP		0
FRZ_ORTHO_DECOMP		1
EDA2		FALSE
FRGM_METHOD		FALSE
CIS_N_ROOTS  0
LOCAL_CIS    0
CIS_RLX_DNS  1
$end
$pcm
THEORY                  CPCM
METHOD                  SWIG
SOLVER                  INVERSION
RADII                   UFF
HPOINTS                 302
HEAVYPOINTS             302
PRINTLEVEL              0
$end
$solvent
DIELECTRIC              78.390000 ! water
$end
--------------------------------------------------------------
 ----------------------------------------------------------------
             Standard Nuclear Orientation (Angstroms)
    I     Atom           X                Y                Z
 ----------------------------------------------------------------
    1      C      -3.0796906736     1.9010936865     1.0659930358
    2      C       0.1543093264     1.2020936865     2.5619930358
    3      C      -1.9176906736     1.3560936865     1.8419930358
    4      C      -1.8836906736     0.4110936865     2.8169930358
    5      N      -0.6366906736     1.8460936865     1.7159930358
    6      N      -0.5746906736     0.3250936865     3.2419930358
    7      H       1.2193093264     1.3610936865     2.6809930358
    8      H      -0.2146906736    -0.3019063135     3.9539930358
    9      H      -2.7266906736    -0.1559063135     3.1839930358
   10      H      -3.7986906736     1.0960936865     0.9139930358
   11      H      -2.7406906736     2.2280936865     0.0849930358
   12      H      -3.5715226736     2.7390836865     1.5816230358
 ----------------------------------------------------------------
 Nuclear Repulsion Energy =         224.78790616 hartrees
 There are       22 alpha and       22 beta electrons
 Requested basis set is def2-TZVPD
 There are 108 shells and 276 basis functions

 Total QAlloc Memory Limit  96000 MB
 Mega-Array Size      1956 MB
 MEM_STATIC part      2000 MB
 Discretize the solute cavity surface with Lebedev spheres
	Using 302 Lebedev grid points for each H atom
	Using 302 Lebedev grid points for other atoms
	Atomic van der Waals radii will be scaled by 1.20
 Remove points where switching function is < 1.0e-08
 Keep 1521 surface tesserae and discard 2103 interior tesserae
 Molecular Surface Area = 157.086 Angst**2

                       Distance Matrix (Angstroms)
             C (  1)   C (  2)   C (  3)   C (  4)   N (  5)   N (  6)
   C (  2)  3.631167
   C (  3)  1.499815  2.198932
   C (  4)  2.591624  2.200943  1.358236
   N (  5)  2.528591  1.325192  1.377293  2.196915
   N (  6)  3.673388  1.327769  2.196955  1.378950  2.155449
   H (  7)  4.623984  1.083359  3.247263  3.248016  2.147367  2.146265
   H (  8)  4.626227  2.082268  3.179578  2.141658  3.130596  1.014728
   H (  9)  2.973513  3.245182  2.177519  1.080198  3.245170  2.205862
   H ( 10)  1.089995  4.284081  2.113515  2.785293  3.347230  4.050704
   H ( 11)  1.088215  3.945786  2.127149  3.391130  2.689405  4.275467
   H ( 12)  1.100000  4.147926  2.171546  3.129609  3.070623  4.191083
             H (  7)   H (  8)   H (  9)   H ( 10)   H ( 11)
   H (  8)  2.538199
   H (  9)  4.257372  2.631418
   H ( 10)  5.326616  4.903168  2.805279
   H ( 11)  4.813783  5.267897  3.909917  1.757279
   H ( 12)  5.104855  5.113128  3.415011  1.787946  1.786419
 
 A cutoff of  1.0D-14 yielded   5736 shell pairs
 There are     38170 function pairs (     48949 Cartesian)
 Smallest overlap matrix eigenvalue = 1.80E-06

 Scale SEOQF with 1.000000e-01/1.000000e-01/1.000000e-01

 Standard Electronic Orientation quadrupole field applied
 Nucleus-field energy     =    -0.0000000150 hartrees
 Guess from superposition of atomic densities
 Warning:  Energy on first SCF cycle will be non-variational
 SAD guess density has 43.559167 electrons

 -----------------------------------------------------------------------
  General SCF calculation program by
  Eric Jon Sundstrom, Paul Horn, Yuezhi Mao, Dmitri Zuev, Alec White,
  David Stuck, Shaama M.S., Shane Yost, Joonho Lee, David Small,
  Daniel Levine, Susi Lehtola, Hugh Burton, Evgeny Epifanovsky
 -----------------------------------------------------------------------
 Exchange:     0.1670 Hartree-Fock + 1.0000 wB97X-V + LR-HF
 Correlation:  1.0000 wB97X-V
 Using Euler-Maclaurin-Lebedev (99,590) quadrature formula
 Nonlocal Correlation:  VV10 with C = 0.0100 and b = 6.00 and scale = 1.00000
 Grid used for NLC:  SG-1 standard quadrature
Energy prior to optimization (guess energy) = -265.142401854529
Begin Timing: Total SCF Calculation
begin iterations for algorithm: DIIS         
the SCF tolerance is set to 1.00e-08
    1    -265.1424018545      7.23e-03     00000 
    2    -265.0957194318      7.42e-03     00000 
    3    -265.5590651150      7.24e-04     00000 
    4    -265.5626343086      4.19e-04     00000 
    5    -265.5640773900      8.47e-05     00000 
    6    -265.5641621098      3.04e-05     00000 
    7    -265.5641750340      9.32e-06     00000 
    8    -265.5641764258      3.16e-06     00000 
    9    -265.5641766092      1.27e-06     00000 
   10    -265.5641766497      3.53e-07     00000 
   11    -265.5641766541      8.18e-08     00000 
   12    -265.5641766543      5.04e-08     00000 
   13    -265.5641766543      1.01e-08     00000 
   14    -265.5641766543      3.45e-09     00000 Convergence criterion met
Timing for Total SCF: 985.00s (wall), 1955.44s (cpu)

************** Final PCM Free Energy Summary **************
 G_electrostatic  =      -0.01064649 hartree =      -6.68077233 kcal/mol
 G_cavitation     =       0.00000000 hartree =       0.00000000 kcal/mol
 G_dispersion     =       0.00000000 hartree =       0.00000000 kcal/mol
 G_repulsion      =       0.00000000 hartree =       0.00000000 kcal/mol
 --------------------------------------------------
 Non-electrostatic Free Energy =       0.00000000 hartree =       0.00000000 kcal/mol
 Total                         =      -0.01064649 hartree =      -6.68077233 kcal/mol
 --------------------------------------------------
 SCF Energy (H0 + V/2)                       =    -265.56417665 
 Solute Internal Energy (H0)                 =    -265.55353017 
 Total Free Energy (H0 + V/2 + non-elec)     =    -265.56417665 hartree
                                             = -166644.03600891 kcal/mol
***********************************************************

E_pcm = -0.0106464884
Multipole orders to be included
        2
        3
computing dipole RHS
computing quadrupole RHS
total number of RHS in solve_reponses: 8
RHS batch sizes
        8
Beginning Block Conjugate Gradient Iterations. Batch Number: 0
computing hessian-vector products by finite difference
              1      5.50e-01     00000 Conjugate Gradient Iteration
computing hessian-vector products by finite difference
              2      1.75e-01     00000 Conjugate Gradient Iteration
computing hessian-vector products by finite difference
              3      4.16e-02     00000 Conjugate Gradient Iteration
computing hessian-vector products by finite difference
              4      1.23e-02     00000 Conjugate Gradient Iteration
computing hessian-vector products by finite difference
              5      2.57e-03     00000 Conjugate Gradient Iteration
computing hessian-vector products by finite difference
              6      5.03e-04     00000 Conjugate Gradient Iteration
computing hessian-vector products by finite difference
              7      1.02e-04     00000 Conjugate Gradient Iteration
computing hessian-vector products by finite difference
              8      1.57e-05     00000 Conjugate Gradient Iteration
computing hessian-vector products by finite difference
              9      2.41e-06     00000 Conjugate Gradient Iteration
computing hessian-vector products by finite difference
             10      4.31e-07     00000 Conjugate Gradient Iteration
computing hessian-vector products by finite difference
             11      7.26e-08     00000 Conjugate Gradient Iteration
computing hessian-vector products by finite difference
             12      1.21e-08     00000 Conjugate Gradient Iteration
computing hessian-vector products by finite difference
             13      2.74e-09     00000 CG Converged
batch 0 complete
Done Calculating Responses
TESTING ORTHOGONALIZATION OF MULTIPOLE BASIS
Multipole virts passed orthogonality test
Virts Per Order
           66
          110
 
 --------------------------------------------------------------
 
                    Orbital Energies (a.u.)
 --------------------------------------------------------------
 
 Alpha MOs
 -- Occupied --
-14.4673 -14.3869 -10.3222 -10.2896 -10.2866 -10.2643  -1.1577  -0.9984
 -0.9007  -0.8293  -0.7298  -0.6882  -0.6708  -0.5669  -0.5601  -0.5449
 -0.5162  -0.5016  -0.4821  -0.3798  -0.3744  -0.3255
 -- Virtual --
  0.0642   0.0819   0.0927   0.1014   0.1136   0.1240   0.1320   0.1426
  0.1653   0.1700   0.1735   0.1824   0.1945   0.2000   0.2216   0.2405
  0.2415   0.2487   0.2550   0.2573   0.2643   0.2871   0.2932   0.3018
  0.3074   0.3114   0.3177   0.3227   0.3267   0.3371   0.3448   0.3526
  0.3539   0.3643   0.3761   0.3792   0.3910   0.3914   0.4080   0.4149
  0.4161   0.4229   0.4299   0.4497   0.4571   0.4659   0.4680   0.4778
  0.4839   0.4897   0.4941   0.5174   0.5195   0.5397   0.5508   0.5583
  0.5651   0.5784   0.5825   0.5892   0.6063   0.6087   0.6162   0.6277
  0.6502   0.6578   0.6631   0.6799   0.6934   0.6987   0.7029   0.7249
  0.7291   0.7388   0.7686   0.7730   0.7804   0.7821   0.7881   0.7893
  0.8029   0.8168   0.8237   0.8357   0.8666   0.8753   0.8791   0.8894
  0.9143   0.9322   0.9576   0.9862   1.0003   1.0035   1.0159   1.0387
  1.0668   1.0749   1.0916   1.0958   1.1312   1.1663   1.1734   1.2080
  1.2278   1.2325   1.2755   1.3205   1.3366   1.3570   1.3782   1.4228
  1.4493   1.4608   1.5189   1.5518   1.6104   1.6330   1.6520   1.6754
  1.6957   1.7411   1.7995   1.8275   1.8389   1.8511   1.8713   1.8774
  1.9059   1.9375   1.9422   1.9479   1.9639   1.9896   2.0009   2.0089
  2.0269   2.0595   2.0893   2.1247   2.1806   2.2318   2.2468   2.2615
  2.3006   2.3177   2.3845   2.3975   2.4263   2.4531   2.4653   2.5019
  2.5372   2.5728   2.5862   2.6249   2.6376   2.6577   2.6824   2.7152
  2.7523   2.7647   2.7993   2.8268   2.8540   2.8935   2.9154   2.9902
  3.0053   3.0253   3.0485   3.0656   3.0826   3.1134   3.1374   3.1762
  3.1783   3.2121   3.2297   3.2424   3.2683   3.2869   3.3172   3.3314
  3.3565   3.3602   3.3810   3.4033   3.4068   3.4272   3.4701   3.4848
  3.4972   3.5372   3.5606   3.5981   3.6180   3.6562   3.6852   3.7137
  3.7422   3.7837   3.8251   3.8640   3.8982   3.9420   3.9662   4.0368
  4.0809   4.1099   4.1248   4.2371   4.2960   4.3637   4.4268   4.4727
  4.5057   4.5775   4.5968   4.7502   4.7680   4.8155   4.8298   4.8672
  4.9219   4.9586   5.0196   5.0405   5.0539   5.0843   5.1561   5.1960
  5.2396   5.3044   5.3774   5.4450   5.4865   5.5346   5.5808   5.6046
  5.6669   5.6983   5.7450   5.7933   5.8743   6.0316   6.2274   6.2890
 22.6161  22.8651  23.1242  23.3869  32.6449  32.7774
 --------------------------------------------------------------
 
          Ground-State Mulliken Net Atomic Charges

     Atom                 Charge (a.u.)
  ----------------------------------------
      1 C                    -0.760273
      2 C                    -0.229753
      3 C                     0.573095
      4 C                    -0.543907
      5 N                    -0.489982
      6 N                     0.093066
      7 H                     0.292510
      8 H                     0.169569
      9 H                     0.257080
     10 H                     0.234897
     11 H                     0.218632
     12 H                     0.185066
  ----------------------------------------
  Sum of atomic charges =     0.000000

 -----------------------------------------------------------------
                    Cartesian Multipole Moments
 -----------------------------------------------------------------
    Charge (ESU x 10^10)
                 0.0000
    Dipole Moment (Debye)
         X      -0.0550      Y      -3.1562      Z       3.1779
       Tot       4.4793
    Quadrupole Moments (Debye-Ang)
        XX     -29.8488     XY       1.3491     YY     -43.6489
        XZ       0.5083     YZ      -6.0604     ZZ     -20.2064
    Octopole Moments (Debye-Ang^2)
       XXX     135.8152    XXY     -37.8761    XYY      51.8826
       YYY    -149.8745    XXZ     -65.0703    XYZ       6.4727
       YYZ     -88.8965    XZZ      52.2052    YZZ     -60.3285
       ZZZ    -169.7421
    Hexadecapole Moments (Debye-Ang^3)
      XXXX    -723.2791   XXXY     197.2768   XXYY    -191.2320
      XYYY     204.8303   YYYY    -510.5812   XXXZ     233.5570
      XXYZ     -70.5459   XYYZ      94.1677   YYYZ    -255.1340
      XXZZ    -299.9752   XYZZ      91.6057   YYZZ    -293.5500
      XZZZ     272.0379   YZZZ    -290.5877   ZZZZ    -947.2993
 -----------------------------------------------------------------
Archival summary:
1\1\nid00531\SP\ProcedureUnspecified\BasisUnspecified\246\meili\MonSep2702:30:422021MonSep2702:30:422021\0\\#,ProcedureUnspecified,BasisUnspecified,\\0,1\N\C,1,1.32519\H,2,1.08336,1,125.844\N,2,1.32777,1,108.676,3,-179.93,0\H,4,1.01473,2,124.938,1,179.785,0\C,1,1.37729,2,108.897,3,179.146,0\C,6,1.35824,1,106.853,2,1.34273,0\H,7,1.0802,6,126.126,1,178.454,0\C,6,1.49981,1,122.955,2,177.589,0\H,9,1.08821,6,109.528,1,33.3047,0\H,9,1.09,6,108.351,1,150.364,0\H,9,1.1,6,112.377,1,-88.5686,0\\\@

 Total job time:  16223.39s(wall), 32162.31s(cpu) 
 Mon Sep 27 02:30:43 2021

        *************************************************************
        *                                                           *
        *  Thank you very much for using Q-Chem.  Have a nice day.  *
        *                                                           *
        *************************************************************


Done Job For Fragment 1
calling putenv with: QCSCRATCH=/global/cscratch1/sd/meili 
calling putenv with: QCLOCALSCR=/tmp 
calling putenv with: QCTHREADS=32 
Doing General SCFMI
 Exchange:     0.1670 Hartree-Fock + 1.0000 wB97X-V + LR-HF
 Correlation:  1.0000 wB97X-V
 Using Euler-Maclaurin-Lebedev (99,590) quadrature formula
 Nonlocal Correlation:  VV10 with C = 0.0100 and b = 6.00 and scale = 1.00000
 Grid used for NLC:  SG-1 standard quadrature
performing fock build before subrot guess so that all methods have access
Printing subrot_rss_gen Method Specification:
Occupied Subspace Method is 0
Virtual Subspace Method is 0
Energy of the unrelaxed supersystem initial determinant -537.132474507005
performing fock build before subrot guess so that all methods have access
Printing subrot_rss_gen Method Specification:
Occupied Subspace Method is 0
Virtual Subspace Method is 0
Energy of the unrelaxed supersystem initial determinant w/ solvent -537.145931564333
write pseudocanon occs and virts to disk
write pseudocanon orbital energies to disk
Tolerance of ortho_decomp_scf: 1.00e-06
GDM subspace size: 20
Beginning the Orthogonal Decomposition of the Initial Supersystem Wavefunction
    1    -537.1143926840      2.43e-02     ortho_decomp Preconditoned Steepest Descent
    2    -537.1165018260      6.62e-04     ortho_decomp BFGS Step
    3    -537.1165102446      5.76e-05     ortho_decomp BFGS Step
    4    -537.1165102641      2.67e-06     ortho_decomp BFGS Step
    5    -537.1165102642      1.17e-07     ortho_decomp 00000 Convergence criterion met
 Hartree-Fock
 Hartree-Fock
 Hartree-Fock
Doing General SCFMI
 Exchange:     0.1670 Hartree-Fock + 1.0000 wB97X-V + LR-HF
 Correlation:  1.0000 wB97X-V
 Using Euler-Maclaurin-Lebedev (99,590) quadrature formula
 Nonlocal Correlation:  VV10 with C = 0.0100 and b = 6.00 and scale = 1.00000
 Grid used for NLC:  SG-1 standard quadrature
performing fock build at end of subrot_r(subrot) constructor so that all methods have access
<S^2> of initial wavefunction before polarization iterations 0.0000000000
Beginning iterations for the determination of the polarized wavefunction
Energy prior to optimization (guess energy) = -537.145931564333
Begin Timing: Total SCF Calculation
begin iterations for algorithm: DIIS         
the SCF tolerance is set to 1.00e-08
    1    -537.1459315643      5.76e-05     00000 
    2    -537.1462235163      2.54e-05     00000 
    3    -537.1462527363      1.50e-05     00000 
    4    -537.1462647028      3.85e-06     00000 
    5    -537.1462656609      1.91e-06     00000 
    6    -537.1462658945      7.53e-07     00000 
    7    -537.1462659416      2.89e-07     00000 
    8    -537.1462659471      1.38e-07     00000 
    9    -537.1462659481      5.16e-08     00000 
   10    -537.1462659482      2.71e-08     00000 
   11    -537.1462659483      1.44e-08     00000 
   12    -537.1462659483      6.56e-09     00000 Convergence criterion met
write pseudocanon occs and virts to disk
write pseudocanon orbital energies to disk
Timing for Total SCF: 7985.00s (wall), 15885.51s (cpu)
<S^2> of polarized wavefunction after polarization iterations 0.0000000000
relaxing scfmi constraint to allow all rotations in the entire AO span
Doing General SCFMI
 Exchange:     0.1670 Hartree-Fock + 1.0000 wB97X-V + LR-HF
 Correlation:  1.0000 wB97X-V
 Using Euler-Maclaurin-Lebedev (99,590) quadrature formula
 Nonlocal Correlation:  VV10 with C = 0.0100 and b = 6.00 and scale = 1.00000
 Grid used for NLC:  SG-1 standard quadrature
performing fock build at end of subrot_r(subrot) constructor so that all methods have access
<S^2> of polarized wavefunction before ct-allowed iterations 0.0000000000
Beginning iterations for the determination of the CT-Allowed wavefunction
Energy prior to optimization (guess energy) = -537.146265948284
Begin Timing: Total SCF Calculation
begin iterations for algorithm: DIIS         
the SCF tolerance is set to 1.00e-08
    1    -537.1462659483      6.95e-05     00000 
    2    -537.1471849362      7.90e-06     00000 
    3    -537.1472142021      1.63e-06     00000 
    4    -537.1472150503      1.35e-06     00000 
    5    -537.1472153513      1.99e-07     00000 
    6    -537.1472153623      1.14e-07     00000 
    7    -537.1472153652      2.14e-08     00000 
    8    -537.1472153653      1.01e-08     00000 
    9    -537.1472153654      3.00e-09     00000 Convergence criterion met
write pseudocanon occs and virts to disk
write pseudocanon orbital energies to disk
Timing for Total SCF: 5832.00s (wall), 11603.57s (cpu)
<S^2> of ct_allowed wavefunction after ct-allowed iterations 0.0000000000

================================
        Results of EDA2         
================================
Basic EDA Quantities
--------------------
Fragment Energies (Ha):
1 -271.5809380083
2 -265.5641766543
--------------------
  E_prp (kJ/mol) = 0.0000
  E_sol (kJ/mol) = -0.7902
  E_frz (kJ/mol) = -1.3546
  E_pol (kJ/mol) = -0.8779
  E_vct (kJ/mol) = -2.4927
  E_int (kJ/mol) = -5.5155
--------------------


Initial Wavefunction Decomposition
--------------------
  --------------------
  Orthogonal Fragment Subspace Decomposition:
  --------------------
     E_elec   (ELEC)   (kJ/mol) = -19.0335
     E_pauli  (PAULI)  (kJ/mol) = 31.7902
     E_disp   (DISP)   (kJ/mol) = -14.1113
     --------------------
     Terms summing to E_pauli:
     --------------------
        E_kep_pauli       (kJ/mol) = 40.5600
        E_disp_free_pauli (kJ/mol) = -8.7698
  --------------------
  Classical Frozen Decomposition:
  --------------------
     E_cls_elec  (CLS ELEC)  (kJ/mol) = -6.3677
     E_cls_pauli (CLS PAULI) (kJ/mol) = 5.0131
    [E_mod_pauli (MOD PAULI) (kJ/mol) = 19.1244 (CLS PAULI - DISP from orthogonal decomposition) ]
  --------------------
--------------------

Simplified EDA Summary (kJ/mol)
--------------------
 PREPARATION     0.0000
 SOLVATION       -0.7902
 FROZEN          12.7567      (does not include dispersion)
[PAULI           31.7902]     (if this is negligible, then frozen describes electrostatics)
 DISPERSION      -14.1113
 POLARIZATION    -0.8779
 CHARGE TRANSFER -2.4927
 TOTAL           -5.5155     (PRP + SOL + FRZ + DISP + POL + CT)
--------------------
 
 --------------------------------------------------------------
 
                    Orbital Energies (a.u.)
 --------------------------------------------------------------
 
 Alpha MOs
 -- Occupied --
-14.4693 -14.3879 -10.3235 -10.2915 -10.2883 -10.2811 -10.2728 -10.2692
-10.2688 -10.2680 -10.2670 -10.2651 -10.2622  -1.1597  -1.0001  -0.9955
 -0.9067  -0.9022  -0.8772  -0.8305  -0.8126  -0.7316  -0.7296  -0.7050
 -0.6897  -0.6723  -0.6296  -0.5765  -0.5725  -0.5619  -0.5612  -0.5464
 -0.5345  -0.5276  -0.5172  -0.5138  -0.5027  -0.4873  -0.4829  -0.4713
 -0.4415  -0.4394  -0.3809  -0.3756  -0.3468  -0.3367  -0.3269
 -- Virtual --
  0.0563   0.0637   0.0683   0.0708   0.0731   0.0873   0.0896   0.0920
  0.1018   0.1079   0.1148   0.1161   0.1200   0.1272   0.1393   0.1399
  0.1482   0.1520   0.1637   0.1679   0.1715   0.1767   0.1794   0.1879
  0.1923   0.1954   0.2013   0.2096   0.2183   0.2243   0.2263   0.2322
  0.2360   0.2396   0.2441   0.2474   0.2502   0.2525   0.2616   0.2640
  0.2723   0.2753   0.2784   0.2820   0.2888   0.2894   0.2930   0.2950
  0.3018   0.3053   0.3087   0.3126   0.3140   0.3161   0.3194   0.3228
  0.3288   0.3324   0.3356   0.3402   0.3438   0.3502   0.3503   0.3522
  0.3549   0.3612   0.3646   0.3689   0.3706   0.3736   0.3772   0.3801
  0.3829   0.3839   0.3874   0.3922   0.3937   0.3988   0.4027   0.4028
  0.4084   0.4152   0.4185   0.4205   0.4259   0.4300   0.4346   0.4374
  0.4395   0.4424   0.4447   0.4482   0.4560   0.4602   0.4627   0.4673
  0.4691   0.4763   0.4782   0.4834   0.4871   0.4931   0.4959   0.4973
  0.5010   0.5064   0.5111   0.5145   0.5169   0.5255   0.5282   0.5316
  0.5373   0.5426   0.5436   0.5514   0.5569   0.5577   0.5612   0.5682
  0.5694   0.5736   0.5768   0.5823   0.5924   0.5951   0.5999   0.6071
  0.6097   0.6116   0.6178   0.6227   0.6303   0.6320   0.6408   0.6458
  0.6562   0.6580   0.6610   0.6694   0.6725   0.6770   0.6817   0.6883
  0.6908   0.6994   0.7024   0.7060   0.7127   0.7174   0.7181   0.7286
  0.7338   0.7420   0.7448   0.7499   0.7524   0.7562   0.7605   0.7627
  0.7754   0.7771   0.7847   0.7869   0.7885   0.7930   0.7962   0.7993
  0.8013   0.8028   0.8067   0.8138   0.8205   0.8217   0.8268   0.8291
  0.8315   0.8372   0.8415   0.8488   0.8540   0.8582   0.8615   0.8674
  0.8706   0.8786   0.8863   0.8926   0.8939   0.8979   0.9060   0.9133
  0.9201   0.9235   0.9334   0.9396   0.9415   0.9518   0.9608   0.9680
  0.9777   0.9832   0.9915   1.0102   1.0135   1.0249   1.0330   1.0398
  1.0435   1.0563   1.0616   1.0734   1.0799   1.0819   1.0882   1.0958
  1.1001   1.1043   1.1119   1.1177   1.1287   1.1308   1.1346   1.1584
  1.1637   1.1695   1.1851   1.1918   1.2018   1.2213   1.2340   1.2483
  1.2594   1.2841   1.2950   1.3035   1.3162   1.3171   1.3381   1.3480
  1.3675   1.3711   1.3768   1.3938   1.4100   1.4198   1.4233   1.4516
  1.4608   1.4696   1.4749   1.4793   1.4862   1.4984   1.5201   1.5480
  1.5589   1.5684   1.5809   1.6084   1.6260   1.6287   1.6492   1.6532
  1.6558   1.6792   1.6844   1.6938   1.7078   1.7189   1.7501   1.7642
  1.7680   1.8016   1.8052   1.8262   1.8374   1.8492   1.8541   1.8624
  1.8760   1.8863   1.8924   1.9102   1.9249   1.9380   1.9415   1.9495
  1.9580   1.9604   1.9672   1.9811   1.9821   1.9981   2.0048   2.0082
  2.0111   2.0216   2.0320   2.0423   2.0516   2.0586   2.0674   2.0760
  2.0894   2.1001   2.1122   2.1205   2.1353   2.1368   2.1487   2.1602
  2.1945   2.2123   2.2243   2.2339   2.2541   2.2587   2.2622   2.2738
  2.2759   2.2985   2.3051   2.3291   2.3383   2.3479   2.3610   2.4020
  2.4145   2.4167   2.4292   2.4334   2.4419   2.4584   2.4804   2.4984
  2.5046   2.5239   2.5539   2.5661   2.5810   2.5855   2.5956   2.6124
  2.6219   2.6332   2.6397   2.6520   2.6658   2.6775   2.6950   2.6973
  2.7122   2.7173   2.7277   2.7398   2.7554   2.7712   2.7794   2.7869
  2.7936   2.8109   2.8135   2.8240   2.8344   2.8624   2.8680   2.8819
  2.8877   2.9119   2.9131   2.9211   2.9347   2.9375   2.9483   2.9600
  2.9908   3.0025   3.0108   3.0186   3.0250   3.0308   3.0524   3.0607
  3.0704   3.0819   3.0872   3.1002   3.1050   3.1102   3.1290   3.1398
  3.1516   3.1663   3.1788   3.1960   3.2027   3.2036   3.2067   3.2442
  3.2490   3.2576   3.2676   3.2779   3.2876   3.2985   3.2995   3.3177
  3.3231   3.3470   3.3564   3.3585   3.3659   3.3790   3.3847   3.3942
  3.3962   3.4203   3.4214   3.4305   3.4404   3.4418   3.4499   3.4584
  3.4695   3.4761   3.4816   3.4914   3.5004   3.5049   3.5193   3.5309
  3.5392   3.5485   3.5572   3.5597   3.5632   3.5759   3.5840   3.5903
  3.6079   3.6246   3.6360   3.6374   3.6458   3.6583   3.6726   3.6789
  3.7017   3.7066   3.7208   3.7331   3.7608   3.7705   3.7754   3.8090
  3.8281   3.8570   3.8625   3.8764   3.9018   3.9155   3.9397   3.9546
  3.9584   3.9679   3.9804   3.9873   4.0417   4.0656   4.0762   4.1029
  4.1181   4.1360   4.1520   4.2261   4.2483   4.2836   4.2915   4.3058
  4.3153   4.3251   4.3385   4.3576   4.3632   4.3773   4.3830   4.3978
  4.4214   4.4370   4.4432   4.4730   4.4878   4.5131   4.5235   4.5484
  4.5922   4.6029   4.6103   4.6340   4.7595   4.7806   4.7897   4.7938
  4.8191   4.8216   4.8411   4.8464   4.8855   4.9310   4.9325   4.9727
  4.9804   5.0310   5.0510   5.0547   5.0653   5.0785   5.0970   5.1734
  5.1935   5.2268   5.2766   5.2922   5.3383   5.3745   5.3887   5.4019
  5.4626   5.4969   5.5134   5.5379   5.5519   5.5933   5.6188   5.6786
  5.6956   5.7186   5.7869   5.8191   5.8393   5.8921   6.0581   6.2332
  6.2947  22.6297  22.6605  22.6915  22.8943  22.9271  22.9476  23.0353
 23.1089  23.1678  23.4092  23.4391  32.7003  32.8216
 --------------------------------------------------------------
 
          Ground-State Mulliken Net Atomic Charges

     Atom                 Charge (a.u.)
  ----------------------------------------
      1 C                    -1.075747
      2 C                    -0.145270
      3 C                    -0.430051
      4 C                    -0.494986
      5 C                     0.511017
      6 C                    -0.475800
      7 C                    -0.412321
      8 H                     0.381571
      9 H                     0.362357
     10 H                     0.308232
     11 H                     0.338757
     12 H                     0.270808
     13 H                     0.220585
     14 H                     0.370363
     15 H                     0.258078
     16 C                    -0.838681
     17 C                    -0.398172
     18 C                     0.757081
     19 C                    -0.627518
     20 N                    -0.436852
     21 N                     0.171076
     22 H                     0.280605
     23 H                     0.175409
     24 H                     0.271975
     25 H                     0.241535
     26 H                     0.193565
     27 H                     0.222384
  ----------------------------------------
  Sum of atomic charges =     0.000000

 -----------------------------------------------------------------
                    Cartesian Multipole Moments
 -----------------------------------------------------------------
    Charge (ESU x 10^10)
                -0.0000
    Dipole Moment (Debye)
         X      -0.4948      Y      -3.1869      Z       2.9813
       Tot       4.3920
    Quadrupole Moments (Debye-Ang)
        XX     -69.8783     XY      -1.0639     YY     -88.3428
        XZ       1.1637     YZ      -3.7562     ZZ     -56.9876
    Octopole Moments (Debye-Ang^2)
       XXX      -4.9836    XXY      -3.1396    XYY       2.6256
       YYY     -10.0616    XXZ      18.0638    XYZ      11.5542
       YYZ      -5.4229    XZZ       6.1098    YZZ     -26.1824
       ZZZ      60.6267
    Hexadecapole Moments (Debye-Ang^3)
      XXXX   -1385.3384   XXXY     347.9504   XXYY    -359.3080
      XYYY     404.4263   YYYY    -907.4049   XXXZ     445.0182
      XXYZ    -151.2146   XYYZ     159.4730   YYYZ    -550.2065
      XXZZ    -661.6722   XYZZ     136.1310   YYZZ    -602.4591
      XZZZ     461.6970   YZZZ    -546.0871   ZZZZ   -2386.4769
 -----------------------------------------------------------------
Archival summary:
1\1\nid00531\SP\ProcedureUnspecified\BasisUnspecified\21114\meili\MonSep2709:11:462021MonSep2709:11:462021\0\\#,ProcedureUnspecified,BasisUnspecified,\\0,1\N\C,1,1.32519\H,2,1.08336,1,125.844\N,2,1.32777,1,108.676,3,-179.93,0\H,4,1.01473,2,124.938,1,179.785,0\C,1,1.37729,2,108.897,3,179.146,0\C,6,1.35824,1,106.853,2,1.34273,0\H,7,1.0802,6,126.126,1,178.454,0\C,6,1.49981,1,122.955,2,177.589,0\H,9,1.08821,6,109.528,1,33.3047,0\H,9,1.09,6,108.351,1,150.364,0\H,9,1.1,6,112.377,1,-88.5686,0\H,2,2.53969,1,74.9847,3,-88.9612,0\C,13,1.0736,2,150.738,1,109.874,0\C,14,1.39158,13,120.29,2,45.2533,0\H,15,1.08213,14,120.059,13,-2.18526,0\C,14,1.39276,13,119.479,2,-138.392,0\H,17,1.07561,14,119.068,13,1.08128,0\C,15,1.39286,14,119.657,13,175.93,0\H,19,1.07527,15,120.143,14,-177.282,0\C,17,1.3935,14,120.644,13,-176.972,0\C,21,1.39407,17,119.076,14,1.58308,0\H,22,1.07782,21,119.851,17,179.086,0\C,21,1.50099,17,119.651,14,178.4,0\H,24,1.09166,21,109.048,17,5.21931,0\H,24,1.09251,21,107.456,17,-110.552,0\H,24,1.1,21,115.632,17,128.216,0\\\@

 Total job time:  69457.49s(wall), 47934.10s(cpu) 
 Mon Sep 27 09:11:47 2021

        *************************************************************
        *                                                           *
        *  Thank you very much for using Q-Chem.  Have a nice day.  *
        *                                                           *
        *************************************************************


