
Running Job 1 of 1 SSI-047ARG-050GLU-1_SMD_TZVPD.in
qchem SSI-047ARG-050GLU-1_SMD_TZVPD.in_51129.0 /tmp/qchem51129/ 0
/global/common/cori/software/qchem/5.2/exe/qcprog.exe_s SSI-047ARG-050GLU-1_SMD_TZVPD.in_51129.0 /tmp/qchem51129/
                  Welcome to Q-Chem
     A Quantum Leap Into The Future Of Chemistry


 Q-Chem 5.2, Q-Chem, Inc., Pleasanton, CA (2019)

 License issued to: National Energy Research Scientific Computing Center

 Yihan Shao,  Zhengting Gan,  E. Epifanovsky,  A. T. B. Gilbert,  M. Wormit,  
 J. Kussmann,  A. W. Lange,  A. Behn,  Jia Deng,  Xintian Feng,  D. Ghosh,  
 M. Goldey,  P. R. Horn,  L. D. Jacobson,  I. Kaliman,  T. Kus,  A. Landau,  
 Jie Liu,  E. I. Proynov,  R. M. Richard,  R. P. Steele,  E. J. Sundstrom,  
 H. L. Woodcock III,  P. M. Zimmerman,  D. Zuev,  B. Albrecht,  E. Alguire,  
 S. A. Baeppler,  D. Barton,  Z. Benda,  Y. A. Bernard,  E. J. Berquist,  
 K. B. Bravaya,  H. Burton,  D. Casanova,  Chun-Min Chang,  Yunqing Chen,  
 A. Chien,  K. D. Closser,  M. P. Coons,  S. Coriani,  S. Dasgupta,  
 A. L. Dempwolff,  M. Diedenhofen,  Hainam Do,  R. G. Edgar,  Po-Tung Fang,  
 S. Faraji,  S. Fatehi,  Qingguo Feng,  K. D. Fenk,  J. Fosso-Tande,  
 J. Gayvert,  Qinghui Ge,  A. Ghysels,  G. Gidofalvi,  J. Gomes,  
 J. Gonthier,  A. Gunina,  D. Hait,  M. W. D. Hanson-Heine,  
 P. H. P. Harbach,  A. W. Hauser,  M. F. Herbst,  J. E. Herr,  
 E. G. Hohenstein,  Z. C. Holden,  Kerwin Hui,  B. C. Huynh,  T.-C. Jagau,  
 Hyunjun Ji,  B. Kaduk,  K. Khistyaev,  Jaehoon Kim,  P. Klunzinger,  K. Koh,  
 D. Kosenkov,  L. Koulias,  T. Kowalczyk,  C. M. Krauter,  A. Kunitsa,  
 Ka Un Lao,  A. Laurent,  K. V. Lawler,  Joonho Lee,  D. Lefrancois,  
 S. Lehtola,  D. S. Levine,  Yi-Pei Li,  You-Sheng Lin,  Fenglai Liu,  
 E. Livshits,  A. Luenser,  P. Manohar,  E. Mansoor,  S. F. Manzer,  
 Shan-Ping Mao,  Yuezhi Mao,  N. Mardirossian,  A. V. Marenich,  
 T. Markovich,  L. A. Martinez-Martinez,  S. A. Maurer,  N. J. Mayhall,  
 S. C. McKenzie,  J.-M. Mewes,  P. Morgante,  A. F. Morrison,  
 J. W. Mullinax,  K. Nanda,  T. S. Nguyen-Beck,  R. Olivares-Amaya,  
 J. A. Parkhill,  Zheng Pei,  T. M. Perrine,  F. Plasser,  P. Pokhilko,  
 S. Prager,  A. Prociuk,  E. Ramos,  D. R. Rehn,  F. Rob,  M. Scheurer,  
 M. Schneider,  N. Sergueev,  S. M. Sharada,  S. Sharma,  D. W. Small,  
 T. Stauch,  T. Stein,  Yu-Chuan Su,  A. J. W. Thom,  A. Tkatchenko,  
 T. Tsuchimochi,  N. M. Tubman,  L. Vogt,  M. L. Vidal,  O. Vydrov,  
 M. A. Watson,  J. Wenzel,  M. de Wergifosse,  T. A. Wesolowski,  A. White,  
 J. Witte,  A. Yamada,  Jun Yang,  K. Yao,  S. Yeganeh,  S. R. Yost,  
 Zhi-Qiang You,  A. Zech,  Igor Ying Zhang,  Xing Zhang,  Yan Zhao,  
 Ying Zhu,  B. R. Brooks,  G. K. L. Chan,  C. J. Cramer,  M. S. Gordon,  
 W. J. Hehre,  A. Klamt,  M. W. Schmidt,  C. D. Sherrill,  D. G. Truhlar,  
 A. Aspuru-Guzik,  R. Baer,  A. T. Bell,  N. A. Besley,  Jeng-Da Chai,  
 A. E. DePrince, III,  R. A. DiStasio Jr.,  A. Dreuw,  B. D. Dunietz,  
 T. R. Furlani,  Chao-Ping Hsu,  Yousung Jung,  Jing Kong,  D. S. Lambrecht,  
 WanZhen Liang,  C. Ochsenfeld,  V. A. Rassolov,  L. V. Slipchenko,  
 J. E. Subotnik,  T. Van Voorhis,  J. M. Herbert,  A. I. Krylov,  
 P. M. W. Gill,  M. Head-Gordon

 Contributors to earlier versions of Q-Chem not listed above: 
 R. D. Adamson,  B. Austin,  J. Baker,  G. J. O. Beran,  K. Brandhorst,  
 S. T. Brown,  E. F. C. Byrd,  A. K. Chakraborty,  C.-L. Cheng,  
 Siu Hung Chien,  D. M. Chipman,  D. L. Crittenden,  H. Dachsel,  
 R. J. Doerksen,  A. D. Dutoi,  L. Fusti-Molnar,  W. A. Goddard III,  
 A. Golubeva-Zadorozhnaya,  S. R. Gwaltney,  G. Hawkins,  A. Heyden,  
 S. Hirata,  G. Kedziora,  F. J. Keil,  C. Kelley,  Jihan Kim,  R. A. King,  
 R. Z. Khaliullin,  P. P. Korambath,  W. Kurlancheek,  A. M. Lee,  M. S. Lee,  
 S. V. Levchenko,  Ching Yeh Lin,  D. Liotard,  R. C. Lochan,  I. Lotan,  
 P. E. Maslen,  N. Nair,  D. P. O'Neill,  D. Neuhauser,  E. Neuscamman,  
 C. M. Oana,  R. Olson,  B. Peters,  R. Peverati,  P. A. Pieniazek,  
 Y. M. Rhee,  J. Ritchie,  M. A. Rohrdanz,  E. Rosta,  N. J. Russ,  
 H. F. Schaefer III,  N. E. Schultz,  N. Shenvi,  A. C. Simmonett,  A. Sodt,  
 D. Stuck,  K. S. Thanthiriwatte,  V. Vanovschi,  Tao Wang,  A. Warshel,  
 C. F. Williams,  Q. Wu,  X. Xu,  W. Zhang

 Please cite Q-Chem as follows:
 Y. Shao et al., Mol. Phys. 113, 184-215 (2015)
 DOI: 10.1080/00268976.2014.952696

 Q-Chem 5.2.0 for Intel X86 EM64T Linux

 Parts of Q-Chem use Armadillo 8.300.2 (Tropical Shenanigans).
 http://arma.sourceforge.net/

 Q-Chem begins on Sun Sep 26 07:54:25 2021  

Host: cori01
0

     Scratch files written to /tmp/qchem51129//
 May1019 |scratch|qcdevops|jenkins|workspace|build_RNUM -1
Processing $rem in /global/common/cori/software/qchem/5.2/config/preferences:
	 MEM_TOTAL  96000 
NAlpha2: 72
NElect   72
Mult     1
Symmetry turned off for PCM/SM12/SMD calculation

 Q-Chem warning in module libgen/rem_setup.C, line 2803:

 Neither GIA nor STOLL is specified by user. Use STOLL as the default


Checking the input file for inconsistencies... 	...done.

--------------------------------------------------------------
User input:
--------------------------------------------------------------
$comment
SSI-047ARG-050GLU-1.pdb
$end

$molecule
0 1
--
1 1
C    0.734215693642    3.052160975511    2.573945923522
C    0.789215693642    0.918160975511    1.326945923522
N    0.665215693642    0.330160975511    0.157945923522
N    0.577215693642    2.225160975511    1.378945923522
N    1.139215693642    0.215160975511    2.399945923522
H    0.729215693642    0.871160975511   -0.688054076478
H    0.720215693642   -0.673839024489    0.086945923522
H    0.310215693642    2.684160975511    0.521945923522
H    1.243215693642    0.681160975511    3.285945923522
H    1.304215693642   -0.775839024489    2.326945923522
H    1.787215693642    3.053160975511    2.864945923522
H    0.147215693642    2.646160975511    3.401945923522
H    0.430215693642    4.093414975511    2.391255923522
--
-1 1
C   -2.046784306358   -1.165839024489   -2.794054076478
C   -0.930784306358   -1.697839024489   -1.916054076478
O   -1.180784306358   -2.011839024489   -0.737054076478
O    0.204215693642   -1.837839024489   -2.421054076478
H   -2.614784306358   -2.019839024489   -3.169054076478
H   -1.599784306358   -0.671839024489   -3.661054076478
H   -2.735580306358   -0.461359024489   -2.304904076478
$end

$rem
JOBTYPE			EDA
EDA2			1
method			wB97X-V
BASIS			def2-TZVPD
XC_GRID			000099000590
NL_GRID			1
UNRESTRICTED		FALSE
MAX_SCF_CYCLES		200
SYMMETRY		FALSE
SYM_IGNORE		TRUE
MEM_STATIC		2000
BASIS_LIN_DEP_THRESH 	6
THRESH 			14
SCF_CONVERGENCE 	8
SCF_PRINT_FRGM 		TRUE
SOLVENT_METHOD          SMD
$end

$SMX
SOLVENT			WATER
$END
--------------------------------------------------------------
 ----------------------------------------------------------------
             Standard Nuclear Orientation (Angstroms)
    I     Atom           X                Y                Z
 ----------------------------------------------------------------
    1      C       0.7342156936     3.0521609755     2.5739459235
    2      C       0.7892156936     0.9181609755     1.3269459235
    3      N       0.6652156936     0.3301609755     0.1579459235
    4      N       0.5772156936     2.2251609755     1.3789459235
    5      N       1.1392156936     0.2151609755     2.3999459235
    6      H       0.7292156936     0.8711609755    -0.6880540765
    7      H       0.7202156936    -0.6738390245     0.0869459235
    8      H       0.3102156936     2.6841609755     0.5219459235
    9      H       1.2432156936     0.6811609755     3.2859459235
   10      H       1.3042156936    -0.7758390245     2.3269459235
   11      H       1.7872156936     3.0531609755     2.8649459235
   12      H       0.1472156936     2.6461609755     3.4019459235
   13      H       0.4302156936     4.0934149755     2.3912559235
   14      C      -2.0467843064    -1.1658390245    -2.7940540765
   15      C      -0.9307843064    -1.6978390245    -1.9160540765
   16      O      -1.1807843064    -2.0118390245    -0.7370540765
   17      O       0.2042156936    -1.8378390245    -2.4210540765
   18      H      -2.6147843064    -2.0198390245    -3.1690540765
   19      H      -1.5997843064    -0.6718390245    -3.6610540765
   20      H      -2.7355803064    -0.4613590245    -2.3049040765
 ----------------------------------------------------------------
 Nuclear Repulsion Energy =         443.31811896 hartrees
 There are       36 alpha and       36 beta electrons
 Requested basis set is def2-TZVPD
 There are 174 shells and 438 basis functions

 Total QAlloc Memory Limit  96000 MB
 Mega-Array Size      1956 MB
 MEM_STATIC part      2000 MB
 
 Citation of the SMD model:
 Marenich, A.V.; Cramer, C.J.; Truhlar, D.G.
 J. Phys. Chem. B 2009, 113, 6378-6396.
 iSolventCode=           1
 Solvent: water                                                           
 
 vradii
            1           2           3           4           5           6
    1   1.8500000   1.8500000   1.8900000   1.8900000   1.8900000   1.2000000
            7           8           9          10          11          12
    1   1.2000000   1.2000000   1.2000000   1.2000000   1.2000000   1.2000000
           13          14          15          16          17          18
    1   1.2000000   1.8500000   1.8500000   1.5200000   1.5200000   1.2000000
           19          20
    1   1.2000000   1.2000000
 Changing PCM_VDW_RADII to SMD_RADIUS
 Discretize the solute cavity surface with Lebedev spheres
	Using 110 Lebedev grid points for each H atom
	Using 194 Lebedev grid points for other atoms
	Atomic van der Waals radii will be scaled by 1.20
 Remove points where switching function is < 1.0e-08
 Keep 1543 surface tesserae and discard 1413 interior tesserae
 Molecular Surface Area = 186.677 Angst**2
 A cutoff of  1.0D-14 yielded  13174 shell pairs
 There are     83550 function pairs (    104665 Cartesian)
 Smallest overlap matrix eigenvalue = 1.17E-05

 Scale SEOQF with 1.000000e-01/1.000000e-01/1.000000e-01

 Standard Electronic Orientation quadrupole field applied
 Nucleus-field energy     =    -0.0000000122 hartrees

 -----------------------------------------------------------------------
  General SCF calculation program by
  Eric Jon Sundstrom, Paul Horn, Yuezhi Mao, Dmitri Zuev, Alec White,
  David Stuck, Shaama M.S., Shane Yost, Joonho Lee, David Small,
  Daniel Levine, Susi Lehtola, Hugh Burton, Evgeny Epifanovsky
 -----------------------------------------------------------------------
================================================================
                 ALMO-EDA with the EDA2 driver                  
================================================================
 The second-generation ALMO-EDA (for DFT):                      
 P. R. Horn, Y. Mao and M. Head-Gordon, PCCP, 18, 23067 (2016)  
 Decomposition of the frozen energy:                            
 P. R. Horn, Y. Mao and M. Head-Gordon, JCP, 144, 114107 (2016) 
 FERF model for polarization:                                   
 P. R. Horn and M. Head-Gordon, JCP, 143, 114111 (2015)         
Using eda2 option set 1
Option set summary: Frozen orbital wavefunction, initial wavefunction decomposition, and nDQ polarization.
--------------------------------
Printing EDA Options
--------------------------------
eda_child_super_basis      0
fragmo_guess_mode          0
child_mp                   1
child_mp_orders            232
cls_elec                   1
cls_disp                   0
scfmi_mode                 1
scfmi_occs                 0
scfmi_virts                0
frz_relax                  0
frz_relax_method           0
dc_pen_start               0
dc_pen_conv                0
dc_pen_increment           0
dc_pen_steps               0
dc_pen_thresh_factor       0
dc_pen_pre_newton_thresh   0
frz_ortho_decomp           1
frz_ortho_decomp_conv      6
frgm_method                2
scfmi_freeze_ss            0
separate_rehyb             0
plot_diff_den              0
eda_nocv                   0
eda_vct_relax              1
disp_free_x                0
disp_free_c                0
eda_bsse                   0
eda_pct_a                  0
eda_covp                   0
--------------------------------
Attempting to make child job directory: /tmp/qchem51129//Frg1/
Attempting to make child job directory: /tmp/qchem51129//Frg2/
Creating input file /tmp/qchem51129/Frg1.input
using default PutDataFrgm: nothing
calling putenv with: QCSCRATCH=/tmp/qchem51129/ 
calling putenv with: QCLOCALSCR=/tmp/qchem51129/ 
Spawning Job For Fragment 0
                  Welcome to Q-Chem
     A Quantum Leap Into The Future Of Chemistry


 Q-Chem 5.2, Q-Chem, Inc., Pleasanton, CA (2019)

 License issued to: National Energy Research Scientific Computing Center

 Yihan Shao,  Zhengting Gan,  E. Epifanovsky,  A. T. B. Gilbert,  M. Wormit,  
 J. Kussmann,  A. W. Lange,  A. Behn,  Jia Deng,  Xintian Feng,  D. Ghosh,  
 M. Goldey,  P. R. Horn,  L. D. Jacobson,  I. Kaliman,  T. Kus,  A. Landau,  
 Jie Liu,  E. I. Proynov,  R. M. Richard,  R. P. Steele,  E. J. Sundstrom,  
 H. L. Woodcock III,  P. M. Zimmerman,  D. Zuev,  B. Albrecht,  E. Alguire,  
 S. A. Baeppler,  D. Barton,  Z. Benda,  Y. A. Bernard,  E. J. Berquist,  
 K. B. Bravaya,  H. Burton,  D. Casanova,  Chun-Min Chang,  Yunqing Chen,  
 A. Chien,  K. D. Closser,  M. P. Coons,  S. Coriani,  S. Dasgupta,  
 A. L. Dempwolff,  M. Diedenhofen,  Hainam Do,  R. G. Edgar,  Po-Tung Fang,  
 S. Faraji,  S. Fatehi,  Qingguo Feng,  K. D. Fenk,  J. Fosso-Tande,  
 J. Gayvert,  Qinghui Ge,  A. Ghysels,  G. Gidofalvi,  J. Gomes,  
 J. Gonthier,  A. Gunina,  D. Hait,  M. W. D. Hanson-Heine,  
 P. H. P. Harbach,  A. W. Hauser,  M. F. Herbst,  J. E. Herr,  
 E. G. Hohenstein,  Z. C. Holden,  Kerwin Hui,  B. C. Huynh,  T.-C. Jagau,  
 Hyunjun Ji,  B. Kaduk,  K. Khistyaev,  Jaehoon Kim,  P. Klunzinger,  K. Koh,  
 D. Kosenkov,  L. Koulias,  T. Kowalczyk,  C. M. Krauter,  A. Kunitsa,  
 Ka Un Lao,  A. Laurent,  K. V. Lawler,  Joonho Lee,  D. Lefrancois,  
 S. Lehtola,  D. S. Levine,  Yi-Pei Li,  You-Sheng Lin,  Fenglai Liu,  
 E. Livshits,  A. Luenser,  P. Manohar,  E. Mansoor,  S. F. Manzer,  
 Shan-Ping Mao,  Yuezhi Mao,  N. Mardirossian,  A. V. Marenich,  
 T. Markovich,  L. A. Martinez-Martinez,  S. A. Maurer,  N. J. Mayhall,  
 S. C. McKenzie,  J.-M. Mewes,  P. Morgante,  A. F. Morrison,  
 J. W. Mullinax,  K. Nanda,  T. S. Nguyen-Beck,  R. Olivares-Amaya,  
 J. A. Parkhill,  Zheng Pei,  T. M. Perrine,  F. Plasser,  P. Pokhilko,  
 S. Prager,  A. Prociuk,  E. Ramos,  D. R. Rehn,  F. Rob,  M. Scheurer,  
 M. Schneider,  N. Sergueev,  S. M. Sharada,  S. Sharma,  D. W. Small,  
 T. Stauch,  T. Stein,  Yu-Chuan Su,  A. J. W. Thom,  A. Tkatchenko,  
 T. Tsuchimochi,  N. M. Tubman,  L. Vogt,  M. L. Vidal,  O. Vydrov,  
 M. A. Watson,  J. Wenzel,  M. de Wergifosse,  T. A. Wesolowski,  A. White,  
 J. Witte,  A. Yamada,  Jun Yang,  K. Yao,  S. Yeganeh,  S. R. Yost,  
 Zhi-Qiang You,  A. Zech,  Igor Ying Zhang,  Xing Zhang,  Yan Zhao,  
 Ying Zhu,  B. R. Brooks,  G. K. L. Chan,  C. J. Cramer,  M. S. Gordon,  
 W. J. Hehre,  A. Klamt,  M. W. Schmidt,  C. D. Sherrill,  D. G. Truhlar,  
 A. Aspuru-Guzik,  R. Baer,  A. T. Bell,  N. A. Besley,  Jeng-Da Chai,  
 A. E. DePrince, III,  R. A. DiStasio Jr.,  A. Dreuw,  B. D. Dunietz,  
 T. R. Furlani,  Chao-Ping Hsu,  Yousung Jung,  Jing Kong,  D. S. Lambrecht,  
 WanZhen Liang,  C. Ochsenfeld,  V. A. Rassolov,  L. V. Slipchenko,  
 J. E. Subotnik,  T. Van Voorhis,  J. M. Herbert,  A. I. Krylov,  
 P. M. W. Gill,  M. Head-Gordon

 Contributors to earlier versions of Q-Chem not listed above: 
 R. D. Adamson,  B. Austin,  J. Baker,  G. J. O. Beran,  K. Brandhorst,  
 S. T. Brown,  E. F. C. Byrd,  A. K. Chakraborty,  C.-L. Cheng,  
 Siu Hung Chien,  D. M. Chipman,  D. L. Crittenden,  H. Dachsel,  
 R. J. Doerksen,  A. D. Dutoi,  L. Fusti-Molnar,  W. A. Goddard III,  
 A. Golubeva-Zadorozhnaya,  S. R. Gwaltney,  G. Hawkins,  A. Heyden,  
 S. Hirata,  G. Kedziora,  F. J. Keil,  C. Kelley,  Jihan Kim,  R. A. King,  
 R. Z. Khaliullin,  P. P. Korambath,  W. Kurlancheek,  A. M. Lee,  M. S. Lee,  
 S. V. Levchenko,  Ching Yeh Lin,  D. Liotard,  R. C. Lochan,  I. Lotan,  
 P. E. Maslen,  N. Nair,  D. P. O'Neill,  D. Neuhauser,  E. Neuscamman,  
 C. M. Oana,  R. Olson,  B. Peters,  R. Peverati,  P. A. Pieniazek,  
 Y. M. Rhee,  J. Ritchie,  M. A. Rohrdanz,  E. Rosta,  N. J. Russ,  
 H. F. Schaefer III,  N. E. Schultz,  N. Shenvi,  A. C. Simmonett,  A. Sodt,  
 D. Stuck,  K. S. Thanthiriwatte,  V. Vanovschi,  Tao Wang,  A. Warshel,  
 C. F. Williams,  Q. Wu,  X. Xu,  W. Zhang

 Please cite Q-Chem as follows:
 Y. Shao et al., Mol. Phys. 113, 184-215 (2015)
 DOI: 10.1080/00268976.2014.952696

 Q-Chem 5.2.0 for Intel X86 EM64T Linux

 Parts of Q-Chem use Armadillo 8.300.2 (Tropical Shenanigans).
 http://arma.sourceforge.net/

 Q-Chem begins on Sun Sep 26 07:54:29 2021  

Host: cori01
0

     Scratch files written to /tmp/qchem51129//Frg1//
 May1019 |scratch|qcdevops|jenkins|workspace|build_RNUM -1
Processing $rem in /global/common/cori/software/qchem/5.2/config/preferences:
	 MEM_TOTAL  96000 
NAlpha2: 40
NElect   40
Mult     1
Symmetry turned off for PCM/SM12/SMD calculation

Checking the input file for inconsistencies... 	...done.

--------------------------------------------------------------
User input:
--------------------------------------------------------------
$molecule
1 1
 6	0.7342156936	3.0521609755	2.5739459235
 6	0.7892156936	0.9181609755	1.3269459235
 7	0.6652156936	0.3301609755	0.1579459235
 7	0.5772156936	2.2251609755	1.3789459235
 7	1.1392156936	0.2151609755	2.3999459235
 1	0.7292156936	0.8711609755	-0.6880540765
 1	0.7202156936	-0.6738390245	0.0869459235
 1	0.3102156936	2.6841609755	0.5219459235
 1	1.2432156936	0.6811609755	3.2859459235
 1	1.3042156936	-0.7758390245	2.3269459235
 1	1.7872156936	3.0531609755	2.8649459235
 1	0.1472156936	2.6461609755	3.4019459235
 1	0.4302156936	4.0934149755	2.3912559235
$end
$rem
EDA2		1
METHOD		WB97X-V
BASIS		DEF2-TZVPD
XC_GRID		000099000590
NL_GRID		1
UNRESTRICTED		FALSE
MAX_SCF_CYCLES		200
SYMMETRY		FALSE
SYM_IGNORE		TRUE
BASIS_LIN_DEP_THRESH		6
THRESH		14
SCF_CONVERGENCE		8
SCF_PRINT_FRGM		TRUE
SOLVENT_METHOD		SMD
!required keywords
JOBTYPE		SP
SYM_IGNORE		TRUE
SUBSYSTEM		TRUE
GEN_SCFMAN		TRUE
CHILD_INSTRUCTION		2
SYM_IGNORE		TRUE
SCFMI		0
RI_K 0		
PARI_K 0		
MIN_PARI_K 0		
IARI_K 0		
OCC_RI_K 0		
PURECART		1111
MEM_STATIC		2000
MEM_TOTAL		96000
GUI		0
CHILD_MP		1
CHILD_MP_ORDERS		232
FRZ_RELAX		0
FRZ_RELAX_METHOD		0
EDA_CLS_ELEC		1
EDA_CLS_DISP		0
FRZ_ORTHO_DECOMP		1
EDA2		FALSE
FRGM_METHOD		FALSE
CIS_N_ROOTS  0
LOCAL_CIS    0
CIS_RLX_DNS  1
$end
$smx
SOLVENT			WATER
$end
--------------------------------------------------------------
 ----------------------------------------------------------------
             Standard Nuclear Orientation (Angstroms)
    I     Atom           X                Y                Z
 ----------------------------------------------------------------
    1      C       0.7342156936     3.0521609755     2.5739459235
    2      C       0.7892156936     0.9181609755     1.3269459235
    3      N       0.6652156936     0.3301609755     0.1579459235
    4      N       0.5772156936     2.2251609755     1.3789459235
    5      N       1.1392156936     0.2151609755     2.3999459235
    6      H       0.7292156936     0.8711609755    -0.6880540765
    7      H       0.7202156936    -0.6738390245     0.0869459235
    8      H       0.3102156936     2.6841609755     0.5219459235
    9      H       1.2432156936     0.6811609755     3.2859459235
   10      H       1.3042156936    -0.7758390245     2.3269459235
   11      H       1.7872156936     3.0531609755     2.8649459235
   12      H       0.1472156936     2.6461609755     3.4019459235
   13      H       0.4302156936     4.0934149755     2.3912559235
 ----------------------------------------------------------------
 Nuclear Repulsion Energy =         194.15764525 hartrees
 There are       20 alpha and       20 beta electrons
 Requested basis set is def2-TZVPD
 There are 105 shells and 257 basis functions

 Total QAlloc Memory Limit  96000 MB
 Mega-Array Size      1956 MB
 MEM_STATIC part      2000 MB
 
 Citation of the SMD model:
 Marenich, A.V.; Cramer, C.J.; Truhlar, D.G.
 J. Phys. Chem. B 2009, 113, 6378-6396.
 iSolventCode=           1
 Solvent: water                                                           
 
 vradii
            1           2           3           4           5           6
    1   1.8500000   1.8500000   1.8900000   1.8900000   1.8900000   1.2000000
            7           8           9          10          11          12
    1   1.2000000   1.2000000   1.2000000   1.2000000   1.2000000   1.2000000
           13
    1   1.2000000
 Changing PCM_VDW_RADII to SMD_RADIUS
 Discretize the solute cavity surface with Lebedev spheres
	Using 110 Lebedev grid points for each H atom
	Using 194 Lebedev grid points for other atoms
	Atomic van der Waals radii will be scaled by 1.20
 Remove points where switching function is < 1.0e-08
 Keep 911 surface tesserae and discard 939 interior tesserae
 Molecular Surface Area = 113.900 Angst**2

                       Distance Matrix (Angstroms)
             C (  1)   C (  2)   N (  3)   N (  4)   N (  5)   H (  6)
   C (  2)  2.472244
   N (  3)  3.640206  1.314413
   N (  4)  1.461712  1.325103  2.256016
   N (  5)  2.871040  1.329676  2.294442  2.323442
   H (  6)  3.923956  2.016441  1.006227  2.475663  3.183423
   H (  7)  4.479781  2.019115  1.008009  3.177092  2.513136  1.728505
   H (  8)  2.127417  1.999055  2.408285  1.008176  3.210932  2.219601
   H (  9)  2.527383  2.024837  3.200261  2.542468  1.006463  4.011605
   H ( 10)  3.878079  2.033436  2.517165  3.230052  1.007291  3.483311
   H ( 11)  1.092470  2.814191  4.000183  2.087554  2.947944  4.301662
   H ( 12)  1.093156  2.775567  4.019417  2.110609  2.810308  4.496382
   H ( 13)  1.100001  3.368067  4.382349  2.129966  3.942539  4.467043
             H (  7)   H (  8)   H (  9)   H ( 10)   H ( 11)   H ( 12)
   H (  8)  3.410790
   H (  9)  3.513283  3.538671
   H ( 10)  2.317123  4.027116  1.745351
   H ( 11)  4.769308  2.794162  2.469729  3.896662
   H ( 12)  4.726516  2.884859  2.252975  3.768867  1.773025
   H ( 13)  5.302891  2.344081  3.620071  4.947489  1.774249  1.787772

 
 A cutoff of  1.0D-14 yielded   5443 shell pairs
 There are     33175 function pairs (     41511 Cartesian)
 Smallest overlap matrix eigenvalue = 1.66E-05

 Scale SEOQF with 1.000000e-01/1.000000e-01/1.000000e-01

 Standard Electronic Orientation quadrupole field applied
 Nucleus-field energy     =    -0.0000000047 hartrees
 Guess from superposition of atomic densities
 Warning:  Energy on first SCF cycle will be non-variational
 SAD guess density has 40.388232 electrons

 -----------------------------------------------------------------------
  General SCF calculation program by
  Eric Jon Sundstrom, Paul Horn, Yuezhi Mao, Dmitri Zuev, Alec White,
  David Stuck, Shaama M.S., Shane Yost, Joonho Lee, David Small,
  Daniel Levine, Susi Lehtola, Hugh Burton, Evgeny Epifanovsky
 -----------------------------------------------------------------------
 Exchange:     0.1670 Hartree-Fock + 1.0000 wB97X-V + LR-HF
 Correlation:  1.0000 wB97X-V
 Using Euler-Maclaurin-Lebedev (99,590) quadrature formula
 Nonlocal Correlation:  VV10 with C = 0.0100 and b = 6.00 and scale = 1.00000
 Grid used for NLC:  SG-1 standard quadrature
Energy prior to optimization (guess energy) = -244.726001734363
Begin Timing: Total SCF Calculation
begin iterations for algorithm: DIIS         
the SCF tolerance is set to 1.00e-08
    1    -244.7260017344      7.93e-03     00000 
    2    -244.9655142850      6.23e-03     00000 
    3    -245.2043000350      3.35e-04     00000 
    4    -245.2052447162      1.74e-04     00000 
    5    -245.2054804418      4.58e-05     00000 
    6    -245.2054983576      1.92e-05     00000 
    7    -245.2055014658      3.36e-06     00000 
    8    -245.2055016578      9.83e-07     00000 
    9    -245.2055016734      4.26e-07     00000 
   10    -245.2055016764      1.24e-07     00000 
   11    -245.2055016767      5.72e-08     00000 
   12    -245.2055016768      1.60e-08     00000 
   13    -245.2055016768      2.15e-09     00000 Convergence criterion met
Timing for Total SCF: 712.00s (wall), 1414.27s (cpu)
(3)  G-ENP(liq) elect-nuc-pol free energy of system     -245.205501677 a.u.
(4)  G-CDS(liq) cavity-dispersion-solvent structure 
     free energy                                                2.7459 kcal/mol
(6)  G-S(liq) free energy of system                     -245.201125732 a.u.
E_pcm = -0.1079927422
E_cds = 0.0043759444
Multipole orders to be included
        2
        3
computing dipole RHS
computing quadrupole RHS
total number of RHS in solve_reponses: 8
RHS batch sizes
        8
Beginning Block Conjugate Gradient Iterations. Batch Number: 0
computing hessian-vector products by finite difference
              1      4.85e-01     00000 Conjugate Gradient Iteration
computing hessian-vector products by finite difference
              2      1.84e-01     00000 Conjugate Gradient Iteration
computing hessian-vector products by finite difference
              3      5.40e-02     00000 Conjugate Gradient Iteration
computing hessian-vector products by finite difference
              4      1.50e-02     00000 Conjugate Gradient Iteration
computing hessian-vector products by finite difference
              5      2.05e-03     00000 Conjugate Gradient Iteration
computing hessian-vector products by finite difference
              6      3.37e-04     00000 Conjugate Gradient Iteration
computing hessian-vector products by finite difference
              7      4.91e-05     00000 Conjugate Gradient Iteration
computing hessian-vector products by finite difference
              8      7.00e-06     00000 Conjugate Gradient Iteration
computing hessian-vector products by finite difference
              9      1.10e-06     00000 Conjugate Gradient Iteration
computing hessian-vector products by finite difference
             10      1.15e-07     00000 Conjugate Gradient Iteration
computing hessian-vector products by finite difference
             11      1.45e-08     00000 Conjugate Gradient Iteration
computing hessian-vector products by finite difference
             12      2.41e-09     00000 CG Converged
batch 0 complete
Done Calculating Responses
TESTING ORTHOGONALIZATION OF MULTIPOLE BASIS
Multipole virts passed orthogonality test
Virts Per Order
           60
          100
 
 --------------------------------------------------------------
 
                    Orbital Energies (a.u.)
 --------------------------------------------------------------
 
 Alpha MOs
 -- Occupied --
-14.4547 -14.4503 -14.4429 -10.4231 -10.3043  -1.1731  -1.0550  -1.0433
 -0.8521  -0.7663  -0.7214  -0.6867  -0.6207  -0.6175  -0.5902  -0.5683
 -0.5226  -0.5062  -0.4006  -0.3754
 -- Virtual --
  0.0586   0.0850   0.0977   0.0989   0.1244   0.1250   0.1382   0.1501
  0.1742   0.1831   0.1888   0.1950   0.2030   0.2094   0.2242   0.2389
  0.2442   0.2453   0.2520   0.2744   0.2808   0.2860   0.2969   0.3025
  0.3115   0.3224   0.3245   0.3295   0.3377   0.3423   0.3534   0.3560
  0.3640   0.3767   0.3828   0.4028   0.4059   0.4100   0.4158   0.4314
  0.4400   0.4474   0.4544   0.4556   0.4672   0.4770   0.4890   0.4988
  0.4993   0.5109   0.5188   0.5233   0.5310   0.5384   0.5458   0.5583
  0.5626   0.5686   0.5730   0.5879   0.6217   0.6275   0.6462   0.6555
  0.6611   0.6781   0.6810   0.7032   0.7220   0.7344   0.7519   0.7555
  0.7892   0.7969   0.8188   0.8367   0.8380   0.8479   0.8570   0.8734
  0.8767   0.8943   0.9112   0.9245   0.9373   0.9789   0.9855   1.0239
  1.0372   1.0568   1.0609   1.0879   1.1058   1.1100   1.1260   1.1493
  1.1641   1.1734   1.2363   1.2496   1.2709   1.3344   1.3725   1.4261
  1.4308   1.4394   1.4794   1.5040   1.5499   1.5996   1.6441   1.6648
  1.6870   1.7366   1.7512   1.7924   1.8445   1.8509   1.8633   1.8829
  1.8993   1.9171   1.9260   1.9745   1.9942   2.0150   2.0287   2.0968
  2.1025   2.1331   2.1512   2.2070   2.2095   2.2277   2.2657   2.3015
  2.3313   2.3440   2.4029   2.4182   2.4576   2.4716   2.5119   2.5367
  2.5615   2.5928   2.6269   2.6327   2.6536   2.6800   2.7176   2.7598
  2.7968   2.8200   2.8325   2.8792   2.9105   2.9210   2.9309   2.9748
  3.0599   3.1083   3.1342   3.1636   3.1702   3.1943   3.2179   3.2542
  3.2688   3.3108   3.3154   3.3524   3.3583   3.3901   3.4213   3.4400
  3.4635   3.4911   3.5268   3.5862   3.6242   3.6581   3.6787   3.7526
  3.8029   3.8481   3.9642   3.9710   4.0463   4.1309   4.1624   4.2555
  4.2973   4.3182   4.3320   4.3725   4.4475   4.4915   4.5911   4.6330
  4.6667   4.8410   4.8535   4.8745   4.9501   4.9927   5.0189   5.0529
  5.1011   5.1123   5.1317   5.1567   5.1717   5.2232   5.3064   5.3609
  5.3973   5.4028   5.4590   5.4831   5.5004   5.5256   5.5763   5.6400
  5.7048   5.7693   5.8090   5.8881   6.1825   6.2067   6.3660   6.4704
 22.6931  23.6472  32.3339  32.4633  32.8121
 --------------------------------------------------------------
 
          Ground-State Mulliken Net Atomic Charges

     Atom                 Charge (a.u.)
  ----------------------------------------
      1 C                    -0.802498
      2 C                     0.386694
      3 N                    -0.316519
      4 N                    -0.109343
      5 N                    -0.278602
      6 H                     0.259728
      7 H                     0.253706
      8 H                     0.288646
      9 H                     0.231807
     10 H                     0.244821
     11 H                     0.279650
     12 H                     0.288089
     13 H                     0.273821
  ----------------------------------------
  Sum of atomic charges =     1.000000

 -----------------------------------------------------------------
                    Cartesian Multipole Moments
 -----------------------------------------------------------------
    Charge (ESU x 10^10)
                 4.8032
    Dipole Moment (Debye)
         X       4.2860      Y       5.0052      Z       6.5309
       Tot       9.2776
    Quadrupole Moments (Debye-Ang)
        XX     -27.9936     XY       2.0072     YY      -9.4286
        XZ       7.7342     YZ       7.7538     ZZ      -7.8165
    Octopole Moments (Debye-Ang^2)
       XXX     -71.1499    XXY     -42.7521    XYY     -12.3905
       YYY     -70.6330    XXZ     -41.1669    XYZ       5.0406
       YYZ     -16.8245    XZZ       1.8033    YZZ     -15.8000
       ZZZ     -80.4118
    Hexadecapole Moments (Debye-Ang^3)
      XXXX    -160.7423   XXXY     -88.4605   XXYY    -129.4043
      XYYY     -67.0570   YYYY    -452.6811   XXXZ    -117.7115
      XXYZ     -80.4912   XYYZ     -17.4078   YYYZ    -156.4516
      XXZZ    -111.6826   XYZZ      -9.9593   YYZZ    -138.4557
      XZZZ     -48.7481   YZZZ    -172.8530   ZZZZ    -462.2382
 -----------------------------------------------------------------
Archival summary:
1\1\nid00571\SP\ProcedureUnspecified\BasisUnspecified\328(1+,1)\meili\SunSep2611:21:032021SunSep2611:21:032021\0\\#,ProcedureUnspecified,BasisUnspecified,\\1,1\C\N,1,1.31441\H,2,1.00623,1,120.082\H,2,1.00801,1,120.203,3,165.794,0\N,1,1.3251,2,117.455,3,20.7126,0\H,5,1.00818,1,117.263,2,1.54501,0\N,1,1.32968,2,120.398,3,-158.07,0\H,7,1.00646,1,119.524,2,179.125,0\H,7,1.00729,1,120.317,2,-0.547502,0\C,5,1.46171,1,124.956,2,-176.82,0\H,10,1.09247,5,108.772,1,65.0585,0\H,10,1.09316,5,110.575,1,-53.9053,0\H,10,1.1,5,111.722,1,-175.761,0\\\@

 Total job time:  12394.53s(wall), 24519.57s(cpu) 
 Sun Sep 26 11:21:04 2021

        *************************************************************
        *                                                           *
        *  Thank you very much for using Q-Chem.  Have a nice day.  *
        *                                                           *
        *************************************************************


Done Job For Fragment 0
calling putenv with: QCSCRATCH=/global/cscratch1/sd/meili 
calling putenv with: QCLOCALSCR=/tmp 
calling putenv with: QCTHREADS=32 
Creating input file /tmp/qchem51129/Frg2.input
using default PutDataFrgm: nothing
calling putenv with: QCSCRATCH=/tmp/qchem51129/ 
calling putenv with: QCLOCALSCR=/tmp/qchem51129/ 
Spawning Job For Fragment 1
                  Welcome to Q-Chem
     A Quantum Leap Into The Future Of Chemistry


 Q-Chem 5.2, Q-Chem, Inc., Pleasanton, CA (2019)

 License issued to: National Energy Research Scientific Computing Center

 Yihan Shao,  Zhengting Gan,  E. Epifanovsky,  A. T. B. Gilbert,  M. Wormit,  
 J. Kussmann,  A. W. Lange,  A. Behn,  Jia Deng,  Xintian Feng,  D. Ghosh,  
 M. Goldey,  P. R. Horn,  L. D. Jacobson,  I. Kaliman,  T. Kus,  A. Landau,  
 Jie Liu,  E. I. Proynov,  R. M. Richard,  R. P. Steele,  E. J. Sundstrom,  
 H. L. Woodcock III,  P. M. Zimmerman,  D. Zuev,  B. Albrecht,  E. Alguire,  
 S. A. Baeppler,  D. Barton,  Z. Benda,  Y. A. Bernard,  E. J. Berquist,  
 K. B. Bravaya,  H. Burton,  D. Casanova,  Chun-Min Chang,  Yunqing Chen,  
 A. Chien,  K. D. Closser,  M. P. Coons,  S. Coriani,  S. Dasgupta,  
 A. L. Dempwolff,  M. Diedenhofen,  Hainam Do,  R. G. Edgar,  Po-Tung Fang,  
 S. Faraji,  S. Fatehi,  Qingguo Feng,  K. D. Fenk,  J. Fosso-Tande,  
 J. Gayvert,  Qinghui Ge,  A. Ghysels,  G. Gidofalvi,  J. Gomes,  
 J. Gonthier,  A. Gunina,  D. Hait,  M. W. D. Hanson-Heine,  
 P. H. P. Harbach,  A. W. Hauser,  M. F. Herbst,  J. E. Herr,  
 E. G. Hohenstein,  Z. C. Holden,  Kerwin Hui,  B. C. Huynh,  T.-C. Jagau,  
 Hyunjun Ji,  B. Kaduk,  K. Khistyaev,  Jaehoon Kim,  P. Klunzinger,  K. Koh,  
 D. Kosenkov,  L. Koulias,  T. Kowalczyk,  C. M. Krauter,  A. Kunitsa,  
 Ka Un Lao,  A. Laurent,  K. V. Lawler,  Joonho Lee,  D. Lefrancois,  
 S. Lehtola,  D. S. Levine,  Yi-Pei Li,  You-Sheng Lin,  Fenglai Liu,  
 E. Livshits,  A. Luenser,  P. Manohar,  E. Mansoor,  S. F. Manzer,  
 Shan-Ping Mao,  Yuezhi Mao,  N. Mardirossian,  A. V. Marenich,  
 T. Markovich,  L. A. Martinez-Martinez,  S. A. Maurer,  N. J. Mayhall,  
 S. C. McKenzie,  J.-M. Mewes,  P. Morgante,  A. F. Morrison,  
 J. W. Mullinax,  K. Nanda,  T. S. Nguyen-Beck,  R. Olivares-Amaya,  
 J. A. Parkhill,  Zheng Pei,  T. M. Perrine,  F. Plasser,  P. Pokhilko,  
 S. Prager,  A. Prociuk,  E. Ramos,  D. R. Rehn,  F. Rob,  M. Scheurer,  
 M. Schneider,  N. Sergueev,  S. M. Sharada,  S. Sharma,  D. W. Small,  
 T. Stauch,  T. Stein,  Yu-Chuan Su,  A. J. W. Thom,  A. Tkatchenko,  
 T. Tsuchimochi,  N. M. Tubman,  L. Vogt,  M. L. Vidal,  O. Vydrov,  
 M. A. Watson,  J. Wenzel,  M. de Wergifosse,  T. A. Wesolowski,  A. White,  
 J. Witte,  A. Yamada,  Jun Yang,  K. Yao,  S. Yeganeh,  S. R. Yost,  
 Zhi-Qiang You,  A. Zech,  Igor Ying Zhang,  Xing Zhang,  Yan Zhao,  
 Ying Zhu,  B. R. Brooks,  G. K. L. Chan,  C. J. Cramer,  M. S. Gordon,  
 W. J. Hehre,  A. Klamt,  M. W. Schmidt,  C. D. Sherrill,  D. G. Truhlar,  
 A. Aspuru-Guzik,  R. Baer,  A. T. Bell,  N. A. Besley,  Jeng-Da Chai,  
 A. E. DePrince, III,  R. A. DiStasio Jr.,  A. Dreuw,  B. D. Dunietz,  
 T. R. Furlani,  Chao-Ping Hsu,  Yousung Jung,  Jing Kong,  D. S. Lambrecht,  
 WanZhen Liang,  C. Ochsenfeld,  V. A. Rassolov,  L. V. Slipchenko,  
 J. E. Subotnik,  T. Van Voorhis,  J. M. Herbert,  A. I. Krylov,  
 P. M. W. Gill,  M. Head-Gordon

 Contributors to earlier versions of Q-Chem not listed above: 
 R. D. Adamson,  B. Austin,  J. Baker,  G. J. O. Beran,  K. Brandhorst,  
 S. T. Brown,  E. F. C. Byrd,  A. K. Chakraborty,  C.-L. Cheng,  
 Siu Hung Chien,  D. M. Chipman,  D. L. Crittenden,  H. Dachsel,  
 R. J. Doerksen,  A. D. Dutoi,  L. Fusti-Molnar,  W. A. Goddard III,  
 A. Golubeva-Zadorozhnaya,  S. R. Gwaltney,  G. Hawkins,  A. Heyden,  
 S. Hirata,  G. Kedziora,  F. J. Keil,  C. Kelley,  Jihan Kim,  R. A. King,  
 R. Z. Khaliullin,  P. P. Korambath,  W. Kurlancheek,  A. M. Lee,  M. S. Lee,  
 S. V. Levchenko,  Ching Yeh Lin,  D. Liotard,  R. C. Lochan,  I. Lotan,  
 P. E. Maslen,  N. Nair,  D. P. O'Neill,  D. Neuhauser,  E. Neuscamman,  
 C. M. Oana,  R. Olson,  B. Peters,  R. Peverati,  P. A. Pieniazek,  
 Y. M. Rhee,  J. Ritchie,  M. A. Rohrdanz,  E. Rosta,  N. J. Russ,  
 H. F. Schaefer III,  N. E. Schultz,  N. Shenvi,  A. C. Simmonett,  A. Sodt,  
 D. Stuck,  K. S. Thanthiriwatte,  V. Vanovschi,  Tao Wang,  A. Warshel,  
 C. F. Williams,  Q. Wu,  X. Xu,  W. Zhang

 Please cite Q-Chem as follows:
 Y. Shao et al., Mol. Phys. 113, 184-215 (2015)
 DOI: 10.1080/00268976.2014.952696

 Q-Chem 5.2.0 for Intel X86 EM64T Linux

 Parts of Q-Chem use Armadillo 8.300.2 (Tropical Shenanigans).
 http://arma.sourceforge.net/

 Q-Chem begins on Sun Sep 26 11:21:05 2021  

Host: cori01
0

     Scratch files written to /tmp/qchem51129//Frg2//
 May1019 |scratch|qcdevops|jenkins|workspace|build_RNUM -1
Processing $rem in /global/common/cori/software/qchem/5.2/config/preferences:
	 MEM_TOTAL  96000 
NAlpha2: 32
NElect   32
Mult     1
Symmetry turned off for PCM/SM12/SMD calculation

Checking the input file for inconsistencies... 	...done.

--------------------------------------------------------------
User input:
--------------------------------------------------------------
$molecule
-1 1
 6	-2.0467843064	-1.1658390245	-2.7940540765
 6	-0.9307843064	-1.6978390245	-1.9160540765
 8	-1.1807843064	-2.0118390245	-0.7370540765
 8	0.2042156936	-1.8378390245	-2.4210540765
 1	-2.6147843064	-2.0198390245	-3.1690540765
 1	-1.5997843064	-0.6718390245	-3.6610540765
 1	-2.7355803064	-0.4613590245	-2.3049040765
$end
$rem
EDA2		1
METHOD		WB97X-V
BASIS		DEF2-TZVPD
XC_GRID		000099000590
NL_GRID		1
UNRESTRICTED		FALSE
MAX_SCF_CYCLES		200
SYMMETRY		FALSE
SYM_IGNORE		TRUE
BASIS_LIN_DEP_THRESH		6
THRESH		14
SCF_CONVERGENCE		8
SCF_PRINT_FRGM		TRUE
SOLVENT_METHOD		SMD
!required keywords
JOBTYPE		SP
SYM_IGNORE		TRUE
SUBSYSTEM		TRUE
GEN_SCFMAN		TRUE
CHILD_INSTRUCTION		2
SYM_IGNORE		TRUE
SCFMI		0
RI_K 0		
PARI_K 0		
MIN_PARI_K 0		
IARI_K 0		
OCC_RI_K 0		
PURECART		1111
MEM_STATIC		2000
MEM_TOTAL		96000
GUI		0
CHILD_MP		1
CHILD_MP_ORDERS		232
FRZ_RELAX		0
FRZ_RELAX_METHOD		0
EDA_CLS_ELEC		1
EDA_CLS_DISP		0
FRZ_ORTHO_DECOMP		1
EDA2		FALSE
FRGM_METHOD		FALSE
CIS_N_ROOTS  0
LOCAL_CIS    0
CIS_RLX_DNS  1
$end
$smx
SOLVENT			WATER
$end
--------------------------------------------------------------
 ----------------------------------------------------------------
             Standard Nuclear Orientation (Angstroms)
    I     Atom           X                Y                Z
 ----------------------------------------------------------------
    1      C      -2.0467843064    -1.1658390245    -2.7940540765
    2      C      -0.9307843064    -1.6978390245    -1.9160540765
    3      O      -1.1807843064    -2.0118390245    -0.7370540765
    4      O       0.2042156936    -1.8378390245    -2.4210540765
    5      H      -2.6147843064    -2.0198390245    -3.1690540765
    6      H      -1.5997843064    -0.6718390245    -3.6610540765
    7      H      -2.7355803064    -0.4613590245    -2.3049040765
 ----------------------------------------------------------------
 Nuclear Repulsion Energy =         112.91826030 hartrees
 There are       16 alpha and       16 beta electrons
 Requested basis set is def2-TZVPD
 There are 69 shells and 181 basis functions

 Total QAlloc Memory Limit  96000 MB
 Mega-Array Size      1956 MB
 MEM_STATIC part      2000 MB
 
 Citation of the SMD model:
 Marenich, A.V.; Cramer, C.J.; Truhlar, D.G.
 J. Phys. Chem. B 2009, 113, 6378-6396.
 iSolventCode=           1
 Solvent: water                                                           
 
 vradii
            1           2           3           4           5           6
    1   1.8500000   1.8500000   1.5200000   1.5200000   1.2000000   1.2000000
            7
    1   1.2000000
 Changing PCM_VDW_RADII to SMD_RADIUS
 Discretize the solute cavity surface with Lebedev spheres
	Using 110 Lebedev grid points for each H atom
	Using 194 Lebedev grid points for other atoms
	Atomic van der Waals radii will be scaled by 1.20
 Remove points where switching function is < 1.0e-08
 Keep 645 surface tesserae and discard 461 interior tesserae
 Molecular Surface Area = 79.854 Angst**2

                       Distance Matrix (Angstroms)
             C (  1)   C (  2)   O (  3)   O (  4)   H (  5)   H (  6)
   C (  2)  1.516365
   O (  3)  2.386822  1.245447
   O (  4)  2.378595  1.250140  2.187317
   H (  5)  1.092046  2.123570  2.823304  2.922223
   H (  6)  1.093405  2.131962  3.243599  2.480236  1.757667
   H (  7)  1.100000  2.222021  2.698061  3.248167  1.786115  1.781426

 
 A cutoff of  1.0D-14 yielded   2391 shell pairs
 There are     16695 function pairs (     21491 Cartesian)
 Smallest overlap matrix eigenvalue = 1.68E-05

 Scale SEOQF with 1.000000e-01/1.000000e-01/1.000000e-01

 Standard Electronic Orientation quadrupole field applied
 Nucleus-field energy     =    -0.0000000075 hartrees
 Guess from superposition of atomic densities
 Warning:  Energy on first SCF cycle will be non-variational
 SAD guess density has 30.625312 electrons

 -----------------------------------------------------------------------
  General SCF calculation program by
  Eric Jon Sundstrom, Paul Horn, Yuezhi Mao, Dmitri Zuev, Alec White,
  David Stuck, Shaama M.S., Shane Yost, Joonho Lee, David Small,
  Daniel Levine, Susi Lehtola, Hugh Burton, Evgeny Epifanovsky
 -----------------------------------------------------------------------
 Exchange:     0.1670 Hartree-Fock + 1.0000 wB97X-V + LR-HF
 Correlation:  1.0000 wB97X-V
 Using Euler-Maclaurin-Lebedev (99,590) quadrature formula
 Nonlocal Correlation:  VV10 with C = 0.0100 and b = 6.00 and scale = 1.00000
 Grid used for NLC:  SG-1 standard quadrature
Energy prior to optimization (guess energy) = -227.762566217588
Begin Timing: Total SCF Calculation
begin iterations for algorithm: DIIS         
the SCF tolerance is set to 1.00e-08
    1    -227.7625662176      1.66e-02     00000 
    2    -225.6284957970      2.50e-02     00000 
    3    -228.6058332880      4.07e-03     00000 
    4    -228.6586066831      1.38e-03     00000 
    5    -228.6645156437      2.59e-04     00000 
    6    -228.6647657550      1.78e-04     00000 
    7    -228.6648484581      5.28e-05     00000 
    8    -228.6648587580      1.33e-05     00000 
    9    -228.6648598736      3.78e-06     00000 
   10    -228.6648599811      1.10e-06     00000 
   11    -228.6648599900      2.14e-07     00000 
   12    -228.6648599904      4.58e-08     00000 
   13    -228.6648599904      1.08e-08     00000 
   14    -228.6648599904      2.73e-09     00000 Convergence criterion met
Timing for Total SCF: 276.00s (wall), 541.50s (cpu)
(3)  G-ENP(liq) elect-nuc-pol free energy of system     -228.664859990 a.u.
(4)  G-CDS(liq) cavity-dispersion-solvent structure 
     free energy                                                3.9167 kcal/mol
(6)  G-S(liq) free energy of system                     -228.658618267 a.u.
E_pcm = -0.1312190797
E_cds = 0.0062417233
Multipole orders to be included
        2
        3
computing dipole RHS
computing quadrupole RHS
total number of RHS in solve_reponses: 8
RHS batch sizes
        8
Beginning Block Conjugate Gradient Iterations. Batch Number: 0
computing hessian-vector products by finite difference
              1      6.85e-01     00000 Conjugate Gradient Iteration
computing hessian-vector products by finite difference
              2      2.18e-01     00000 Conjugate Gradient Iteration
computing hessian-vector products by finite difference
              3      5.90e-02     00000 Conjugate Gradient Iteration
computing hessian-vector products by finite difference
              4      1.56e-02     00000 Conjugate Gradient Iteration
computing hessian-vector products by finite difference
              5      2.29e-03     00000 Conjugate Gradient Iteration
computing hessian-vector products by finite difference
              6      5.87e-04     00000 Conjugate Gradient Iteration
computing hessian-vector products by finite difference
              7      8.56e-05     00000 Conjugate Gradient Iteration
computing hessian-vector products by finite difference
              8      1.05e-05     00000 Conjugate Gradient Iteration
computing hessian-vector products by finite difference
              9      1.91e-06     00000 Conjugate Gradient Iteration
computing hessian-vector products by finite difference
             10      3.95e-07     00000 Conjugate Gradient Iteration
computing hessian-vector products by finite difference
             11      6.73e-08     00000 Conjugate Gradient Iteration
computing hessian-vector products by finite difference
             12      8.01e-09     00000 CG Converged
batch 0 complete
Done Calculating Responses
TESTING ORTHOGONALIZATION OF MULTIPOLE BASIS
Multipole virts passed orthogonality test
Virts Per Order
        48
        80
 
 --------------------------------------------------------------
 
                    Orbital Energies (a.u.)
 --------------------------------------------------------------
 
 Alpha MOs
 -- Occupied --
-19.1520 -19.1518 -10.3528 -10.2466  -1.1675  -1.0658  -0.8410  -0.6178
 -0.5485  -0.5480  -0.5412  -0.4805  -0.4632  -0.3653  -0.3585  -0.3437
 -- Virtual --
  0.0671   0.1001   0.1006   0.1073   0.1352   0.1439   0.1461   0.1511
  0.1571   0.1897   0.2039   0.2220   0.2353   0.2409   0.2585   0.2672
  0.2983   0.3137   0.3330   0.3455   0.3554   0.3624   0.3713   0.3804
  0.3858   0.4042   0.4175   0.4233   0.4307   0.4535   0.4655   0.4740
  0.4834   0.4869   0.5065   0.5110   0.5493   0.5672   0.5779   0.5974
  0.6142   0.6306   0.6343   0.6420   0.6500   0.6692   0.6868   0.6943
  0.7084   0.7207   0.7744   0.7945   0.8076   0.8094   0.8363   0.8453
  0.8589   0.9566   0.9735   0.9841   0.9914   1.0251   1.0479   1.0906
  1.1308   1.2152   1.2378   1.2558   1.2652   1.3015   1.3378   1.3665
  1.4258   1.5397   1.5839   1.7398   1.8059   1.8544   1.8585   1.8982
  1.9157   1.9355   1.9470   1.9572   2.0061   2.0932   2.1112   2.1755
  2.1766   2.2090   2.2860   2.3193   2.4040   2.4454   2.4532   2.4757
  2.5616   2.5736   2.6318   2.6424   2.7692   2.8005   2.8608   2.8947
  2.9412   3.0052   3.0535   3.1412   3.2040   3.2224   3.2619   3.2848
  3.3300   3.3337   3.3755   3.3932   3.4046   3.5084   3.5596   3.5769
  3.5937   3.6577   3.6875   3.7241   3.7417   3.8367   3.9505   4.0458
  4.0843   4.2073   4.3275   4.5380   4.6275   4.6502   4.7727   4.8049
  4.9713   5.2962   5.3238   5.3335   5.3426   5.4702   5.6855   5.7516
  5.7984   6.0061   6.2130   6.3166   6.3368   6.5976   6.5991   6.6935
  6.7177   6.7306   6.9333   6.9502   7.0144   7.2214   7.3228   7.3627
  7.3868  22.5849  23.7332  44.1928  44.3410
 --------------------------------------------------------------
 
          Ground-State Mulliken Net Atomic Charges

     Atom                 Charge (a.u.)
  ----------------------------------------
      1 C                    -0.599780
      2 C                     0.501359
      3 O                    -0.770999
      4 O                    -0.772506
      5 H                     0.192724
      6 H                     0.205103
      7 H                     0.244100
  ----------------------------------------
  Sum of atomic charges =    -1.000000

 -----------------------------------------------------------------
                    Cartesian Multipole Moments
 -----------------------------------------------------------------
    Charge (ESU x 10^10)
                -4.8032
    Dipole Moment (Debye)
         X       0.6040      Y      10.0506      Z       6.2444
       Tot      11.8479
    Quadrupole Moments (Debye-Ang)
        XX     -28.2453     XY      -2.3432     YY     -45.8185
        XZ       5.5400     YZ     -12.7100     ZZ     -38.9935
    Octopole Moments (Debye-Ang^2)
       XXX      82.8548    XXY      48.9857    XYY      31.8774
       YYY     166.9119    XXZ      48.3118    XYZ      -9.3570
       YYZ      75.8163    XZZ       9.8026    YZZ      68.3716
       ZZZ     190.1886
    Hexadecapole Moments (Debye-Ang^3)
      XXXX    -320.6383   XXXY    -124.5955   XXYY    -143.5175
      XYYY    -125.9798   YYYY    -550.5783   XXXZ    -161.3259
      XXYZ     -72.9491   XYYZ     -37.0397   YYYZ    -282.1204
      XXZZ    -167.6509   XYZZ      -6.3301   YYZZ    -252.8165
      XZZZ    -127.1350   YZZZ    -306.2340   ZZZZ    -860.7830
 -----------------------------------------------------------------
Archival summary:
1\1\nid00571\SP\ProcedureUnspecified\BasisUnspecified\223(1-,1)\meili\SunSep2612:35:372021SunSep2612:35:372021\0\\#,ProcedureUnspecified,BasisUnspecified,\\-1,1\C\O,1,1.24545\O,1,1.25014,2,122.44\C,1,1.51637,2,119.265,3,178.019,0\H,4,1.09205,1,107.894,2,-81.2213,0\H,4,1.0934,1,108.467,2,163.11,0\H,4,1.1,1,115.345,2,41.0638,0\\\@

 Total job time:  4473.24s(wall), 8789.41s(cpu) 
 Sun Sep 26 12:35:38 2021

        *************************************************************
        *                                                           *
        *  Thank you very much for using Q-Chem.  Have a nice day.  *
        *                                                           *
        *************************************************************


Done Job For Fragment 1
calling putenv with: QCSCRATCH=/global/cscratch1/sd/meili 
calling putenv with: QCLOCALSCR=/tmp 
calling putenv with: QCTHREADS=32 
Doing General SCFMI
 Exchange:     0.1670 Hartree-Fock + 1.0000 wB97X-V + LR-HF
 Correlation:  1.0000 wB97X-V
 Using Euler-Maclaurin-Lebedev (99,590) quadrature formula
 Nonlocal Correlation:  VV10 with C = 0.0100 and b = 6.00 and scale = 1.00000
 Grid used for NLC:  SG-1 standard quadrature
performing fock build before subrot guess so that all methods have access
Printing subrot_rss_gen Method Specification:
Occupied Subspace Method is 0
Virtual Subspace Method is 0
Energy of the unrelaxed supersystem initial determinant -473.757808738823
performing fock build before subrot guess so that all methods have access
Printing subrot_rss_gen Method Specification:
Occupied Subspace Method is 0
Virtual Subspace Method is 0
Energy of the unrelaxed supersystem initial determinant w/ solvent -473.872836100877
write pseudocanon occs and virts to disk
write pseudocanon orbital energies to disk
Tolerance of ortho_decomp_scf: 1.00e-06
GDM subspace size: 20
Beginning the Orthogonal Decomposition of the Initial Supersystem Wavefunction
    1    -473.6121643969      3.99e-02     ortho_decomp Preconditoned Steepest Descent
    2    -473.6147526825      9.50e-04     ortho_decomp BFGS Step
    3    -473.6147604210      6.71e-05     ortho_decomp BFGS Step
    4    -473.6147604317      2.47e-06     ortho_decomp BFGS Step
    5    -473.6147604317      8.54e-08     ortho_decomp 00000 Convergence criterion met
 Hartree-Fock
 Hartree-Fock
 Hartree-Fock
Doing General SCFMI
 Exchange:     0.1670 Hartree-Fock + 1.0000 wB97X-V + LR-HF
 Correlation:  1.0000 wB97X-V
 Using Euler-Maclaurin-Lebedev (99,590) quadrature formula
 Nonlocal Correlation:  VV10 with C = 0.0100 and b = 6.00 and scale = 1.00000
 Grid used for NLC:  SG-1 standard quadrature
performing fock build at end of subrot_r(subrot) constructor so that all methods have access
<S^2> of initial wavefunction before polarization iterations 0.0000000000
Beginning iterations for the determination of the polarized wavefunction
Energy prior to optimization (guess energy) = -473.872836100877
Begin Timing: Total SCF Calculation
begin iterations for algorithm: DIIS         
the SCF tolerance is set to 1.00e-08
    1    -473.8728361009      5.80e-05     00000 
    2    -473.8729799117      3.88e-05     00000 
    3    -473.8730091043      1.46e-05     00000 
    4    -473.8730161058      5.33e-06     00000 
    5    -473.8730168960      2.36e-06     00000 
    6    -473.8730171031      1.03e-06     00000 
    7    -473.8730171361      3.70e-07     00000 
    8    -473.8730171403      1.45e-07     00000 
    9    -473.8730171407      5.43e-08     00000 
   10    -473.8730171408      1.52e-08     00000 
   11    -473.8730171408      7.81e-09     00000 Convergence criterion met
write pseudocanon occs and virts to disk
write pseudocanon orbital energies to disk
Timing for Total SCF: 2201.00s (wall), 4380.11s (cpu)
<S^2> of polarized wavefunction after polarization iterations 0.0000000000
relaxing scfmi constraint to allow all rotations in the entire AO span
Doing General SCFMI
 Exchange:     0.1670 Hartree-Fock + 1.0000 wB97X-V + LR-HF
 Correlation:  1.0000 wB97X-V
 Using Euler-Maclaurin-Lebedev (99,590) quadrature formula
 Nonlocal Correlation:  VV10 with C = 0.0100 and b = 6.00 and scale = 1.00000
 Grid used for NLC:  SG-1 standard quadrature
performing fock build at end of subrot_r(subrot) constructor so that all methods have access
<S^2> of polarized wavefunction before ct-allowed iterations 0.0000000000
Beginning iterations for the determination of the CT-Allowed wavefunction
Energy prior to optimization (guess energy) = -473.873017140831
Begin Timing: Total SCF Calculation
begin iterations for algorithm: DIIS         
the SCF tolerance is set to 1.00e-08
    1    -473.8730171408      8.86e-05     00000 
    2    -473.8738493400      1.10e-05     00000 
    3    -473.8738812084      2.91e-06     00000 
    4    -473.8738823471      2.65e-06     00000 
    5    -473.8738828527      3.61e-07     00000 
    6    -473.8738828748      2.38e-07     00000 
    7    -473.8738828812      6.07e-08     00000 
    8    -473.8738828817      2.11e-08     00000 
    9    -473.8738828818      5.94e-09     00000 Convergence criterion met
write pseudocanon occs and virts to disk
write pseudocanon orbital energies to disk
Timing for Total SCF: 1795.00s (wall), 3552.99s (cpu)
<S^2> of ct_allowed wavefunction after ct-allowed iterations 0.0000000000

================================
        Results of EDA2         
================================
Basic EDA Quantities
--------------------
Fragment Energies (Ha):
1 -245.2011257323
2 -228.6586182671
--------------------
  E_prp (kJ/mol) = 0.0000
  E_sol (kJ/mol) = 323.3920
  E_frz (kJ/mol) = -332.5469
  E_pol (kJ/mol) = -0.4753
  E_vct (kJ/mol) = -2.2730
  E_int (kJ/mol) = -11.9032
--------------------


Initial Wavefunction Decomposition
--------------------
  --------------------
  Orthogonal Fragment Subspace Decomposition:
  --------------------
     E_elec   (ELEC)   (kJ/mol) = -356.1154
     E_pauli  (PAULI)  (kJ/mol) = 34.4926
     E_disp   (DISP)   (kJ/mol) = -10.9240
     --------------------
     Terms summing to E_pauli:
     --------------------
        E_kep_pauli       (kJ/mol) = 43.0309
        E_disp_free_pauli (kJ/mol) = -8.5383
  --------------------
  Classical Frozen Decomposition:
  --------------------
     E_cls_elec  (CLS ELEC)  (kJ/mol) = -338.9934
     E_cls_pauli (CLS PAULI) (kJ/mol) = 6.4465
    [E_mod_pauli (MOD PAULI) (kJ/mol) = 17.3706 (CLS PAULI - DISP from orthogonal decomposition) ]
  --------------------
--------------------

Simplified EDA Summary (kJ/mol)
--------------------
 PREPARATION     0.0000
 SOLVATION       323.3920
 FROZEN          -321.6228      (does not include dispersion)
[PAULI           34.4926]     (if this is negligible, then frozen describes electrostatics)
 DISPERSION      -10.9240
 POLARIZATION    -0.4753
 CHARGE TRANSFER -2.2730
 TOTAL           -11.9032     (PRP + SOL + FRZ + DISP + POL + CT)
--------------------
 
 --------------------------------------------------------------
 
                    Orbital Energies (a.u.)
 --------------------------------------------------------------
 
 Alpha MOs
 -- Occupied --
-19.1545 -19.1542 -14.4523 -14.4481 -14.4377 -10.4200 -10.3546 -10.3029
-10.2480  -1.1709  -1.1692  -1.0681  -1.0524  -1.0400  -0.8501  -0.8425
 -0.7639  -0.7188  -0.6838  -0.6211  -0.6168  -0.6148  -0.5879  -0.5671
 -0.5502  -0.5489  -0.5430  -0.5205  -0.5048  -0.4822  -0.4646  -0.3981
 -0.3752  -0.3646  -0.3602  -0.3459
 -- Virtual --
  0.0562   0.0741   0.0890   0.0898   0.0953   0.1063   0.1101   0.1195
  0.1257   0.1299   0.1372   0.1453   0.1508   0.1532   0.1625   0.1655
  0.1810   0.1874   0.1905   0.1937   0.1979   0.2043   0.2132   0.2215
  0.2278   0.2359   0.2434   0.2449   0.2483   0.2535   0.2624   0.2646
  0.2780   0.2814   0.2859   0.2922   0.3013   0.3027   0.3138   0.3173
  0.3186   0.3265   0.3316   0.3348   0.3411   0.3463   0.3495   0.3550
  0.3596   0.3619   0.3653   0.3669   0.3733   0.3786   0.3816   0.3897
  0.3988   0.4014   0.4061   0.4088   0.4118   0.4158   0.4247   0.4366
  0.4421   0.4424   0.4513   0.4573   0.4577   0.4616   0.4675   0.4728
  0.4776   0.4829   0.4929   0.4953   0.4999   0.5013   0.5070   0.5155
  0.5194   0.5226   0.5301   0.5336   0.5410   0.5443   0.5504   0.5618
  0.5633   0.5706   0.5803   0.5860   0.5879   0.5917   0.5965   0.6081
  0.6156   0.6244   0.6270   0.6289   0.6495   0.6537   0.6594   0.6655
  0.6731   0.6847   0.6952   0.6985   0.7005   0.7220   0.7247   0.7294
  0.7368   0.7421   0.7447   0.7608   0.7650   0.7719   0.7762   0.7897
  0.8038   0.8076   0.8138   0.8208   0.8277   0.8384   0.8434   0.8512
  0.8580   0.8637   0.8652   0.8755   0.8784   0.8899   0.9001   0.9226
  0.9257   0.9302   0.9409   0.9541   0.9751   0.9800   0.9936   1.0029
  1.0079   1.0213   1.0334   1.0549   1.0596   1.0711   1.0994   1.1066
  1.1081   1.1146   1.1271   1.1348   1.1415   1.1567   1.1721   1.1879
  1.1953   1.2031   1.2394   1.2428   1.2587   1.2784   1.2923   1.3007
  1.3073   1.3404   1.3493   1.3635   1.3850   1.3950   1.4048   1.4444
  1.4565   1.4661   1.4802   1.5087   1.5558   1.5650   1.5850   1.6127
  1.6237   1.6616   1.6831   1.7373   1.7515   1.7525   1.7652   1.8155
  1.8574   1.8602   1.8698   1.8794   1.8895   1.8983   1.9119   1.9278
  1.9331   1.9442   1.9578   1.9614   1.9742   1.9872   1.9989   2.0081
  2.0176   2.0317   2.0416   2.0745   2.1017   2.1125   2.1313   2.1543
  2.1669   2.1910   2.2053   2.2238   2.2306   2.2402   2.2535   2.2815
  2.3040   2.3115   2.3168   2.3386   2.3666   2.3839   2.4162   2.4406
  2.4560   2.4648   2.4748   2.4848   2.5048   2.5294   2.5490   2.5668
  2.5928   2.5958   2.6140   2.6215   2.6413   2.6456   2.6585   2.6658
  2.6830   2.6966   2.7305   2.7695   2.7852   2.8138   2.8278   2.8362
  2.8429   2.8770   2.9021   2.9142   2.9315   2.9364   2.9552   2.9713
  2.9896   3.0750   3.0966   3.1268   3.1464   3.1571   3.1654   3.1810
  3.1985   3.2129   3.2235   3.2329   3.2461   3.2671   3.2797   3.2979
  3.3056   3.3269   3.3397   3.3524   3.3547   3.3689   3.3796   3.4004
  3.4116   3.4186   3.4252   3.4335   3.4595   3.4706   3.5011   3.5286
  3.5402   3.5986   3.6004   3.6191   3.6292   3.6451   3.6725   3.6893
  3.6982   3.7196   3.7420   3.7607   3.7721   3.8298   3.8523   3.8584
  3.9550   3.9728   3.9902   4.0519   4.0711   4.1020   4.1391   4.1780
  4.2122   4.2645   4.3089   4.3231   4.3412   4.3463   4.3924   4.4614
  4.5052   4.5530   4.6009   4.6406   4.6469   4.6607   4.6762   4.8011
  4.8186   4.8523   4.8679   4.9051   4.9832   4.9976   5.0212   5.0464
  5.0678   5.1181   5.1314   5.1417   5.1702   5.1853   5.2376   5.2984
  5.3266   5.3354   5.3436   5.3487   5.3841   5.4144   5.4333   5.4675
  5.4742   5.5094   5.5143   5.5423   5.6013   5.6563   5.6864   5.7205
  5.7577   5.7832   5.8006   5.8257   5.9042   6.0092   6.1962   6.2203
  6.2312   6.3224   6.3422   6.3923   6.4887   6.6061   6.6550   6.7199
  6.7506   6.7640   6.9413   6.9908   7.0383   7.2355   7.3251   7.3829
  7.3975  22.6017  22.7002  23.6727  23.7563  32.3706  32.5178  32.8368
 44.3153  44.3989
 --------------------------------------------------------------
 
          Ground-State Mulliken Net Atomic Charges

     Atom                 Charge (a.u.)
  ----------------------------------------
      1 C                    -0.812294
      2 C                     0.391120
      3 N                    -0.246862
      4 N                    -0.114224
      5 N                    -0.270637
      6 H                     0.249755
      7 H                     0.177028
      8 H                     0.286273
      9 H                     0.225321
     10 H                     0.250288
     11 H                     0.281763
     12 H                     0.293765
     13 H                     0.269790
     14 C                    -0.724514
     15 C                     0.613120
     16 O                    -0.773273
     17 O                    -0.785215
     18 H                     0.236565
     19 H                     0.215666
     20 H                     0.236566
  ----------------------------------------
  Sum of atomic charges =     0.000000

 -----------------------------------------------------------------
                    Cartesian Multipole Moments
 -----------------------------------------------------------------
    Charge (ESU x 10^10)
                 0.0000
    Dipole Moment (Debye)
         X       4.7968      Y      14.9198      Z      12.6577
       Tot      20.1452
    Quadrupole Moments (Debye-Ang)
        XX     -56.2676     XY      -0.3347     YY     -55.3757
        XZ      13.2618     YZ      -4.9835     ZZ     -46.8806
    Octopole Moments (Debye-Ang^2)
       XXX      11.2916    XXY       5.9861    XYY      19.1915
       YYY      95.3668    XXZ       6.8476    XYZ      -4.5086
       YYZ      58.3199    XZZ      11.1924    YZZ      51.8348
       ZZZ     108.4972
    Hexadecapole Moments (Debye-Ang^3)
      XXXX    -481.3347   XXXY    -212.8737   XXYY    -272.9649
      XYYY    -193.2370   YYYY   -1005.1993   XXXZ    -278.8225
      XXYZ    -153.3801   XYYZ     -54.6296   YYYZ    -439.4458
      XXZZ    -279.2576   XYZZ     -16.3565   YYZZ    -391.7258
      XZZZ    -175.9633   YZZZ    -479.0731   ZZZZ   -1323.2849
 -----------------------------------------------------------------
Archival summary:
1\1\nid00571\SP\ProcedureUnspecified\BasisUnspecified\23411\meili\SunSep2614:36:352021SunSep2614:36:352021\0\\#,ProcedureUnspecified,BasisUnspecified,\\0,1\N\H,1,1.00623\H,1,1.00801,2,118.218\C,1,1.31441,2,120.082,3,166.072,0\N,4,1.3251,1,117.455,2,20.7126,0\H,5,1.00818,4,117.263,1,1.54501,0\N,4,1.32968,1,120.398,2,-158.07,0\H,7,1.00646,4,119.524,1,179.125,0\H,7,1.00729,4,120.317,1,-0.547502,0\C,5,1.46171,4,124.956,1,-176.82,0\H,10,1.09247,5,108.772,4,65.0585,0\H,10,1.09316,5,110.575,4,-53.9053,0\H,10,1.1,5,111.722,4,-175.761,0\O,3,2.46638,1,121.454,2,-75.601,0\C,14,1.24545,3,91.4199,1,77.3736,0\O,15,1.25014,14,122.44,3,52.1785,0\C,15,1.51637,14,119.265,3,-129.802,0\H,17,1.09205,15,107.894,14,-81.2213,0\H,17,1.0934,15,108.467,14,163.11,0\H,17,1.1,15,115.345,14,41.0638,0\\\@

 Total job time:  24131.89s(wall), 14436.94s(cpu) 
 Sun Sep 26 14:36:36 2021

        *************************************************************
        *                                                           *
        *  Thank you very much for using Q-Chem.  Have a nice day.  *
        *                                                           *
        *************************************************************


