
Running Job 1 of 1 SSI-112PHE-125HIE-1_PCM_TZVPD.in
qchem SSI-112PHE-125HIE-1_PCM_TZVPD.in_23669.0 /tmp/qchem23669/ 0
/global/common/cori/software/qchem/5.2/exe/qcprog.exe_s SSI-112PHE-125HIE-1_PCM_TZVPD.in_23669.0 /tmp/qchem23669/
                  Welcome to Q-Chem
     A Quantum Leap Into The Future Of Chemistry


 Q-Chem 5.2, Q-Chem, Inc., Pleasanton, CA (2019)

 License issued to: National Energy Research Scientific Computing Center

 Yihan Shao,  Zhengting Gan,  E. Epifanovsky,  A. T. B. Gilbert,  M. Wormit,  
 J. Kussmann,  A. W. Lange,  A. Behn,  Jia Deng,  Xintian Feng,  D. Ghosh,  
 M. Goldey,  P. R. Horn,  L. D. Jacobson,  I. Kaliman,  T. Kus,  A. Landau,  
 Jie Liu,  E. I. Proynov,  R. M. Richard,  R. P. Steele,  E. J. Sundstrom,  
 H. L. Woodcock III,  P. M. Zimmerman,  D. Zuev,  B. Albrecht,  E. Alguire,  
 S. A. Baeppler,  D. Barton,  Z. Benda,  Y. A. Bernard,  E. J. Berquist,  
 K. B. Bravaya,  H. Burton,  D. Casanova,  Chun-Min Chang,  Yunqing Chen,  
 A. Chien,  K. D. Closser,  M. P. Coons,  S. Coriani,  S. Dasgupta,  
 A. L. Dempwolff,  M. Diedenhofen,  Hainam Do,  R. G. Edgar,  Po-Tung Fang,  
 S. Faraji,  S. Fatehi,  Qingguo Feng,  K. D. Fenk,  J. Fosso-Tande,  
 J. Gayvert,  Qinghui Ge,  A. Ghysels,  G. Gidofalvi,  J. Gomes,  
 J. Gonthier,  A. Gunina,  D. Hait,  M. W. D. Hanson-Heine,  
 P. H. P. Harbach,  A. W. Hauser,  M. F. Herbst,  J. E. Herr,  
 E. G. Hohenstein,  Z. C. Holden,  Kerwin Hui,  B. C. Huynh,  T.-C. Jagau,  
 Hyunjun Ji,  B. Kaduk,  K. Khistyaev,  Jaehoon Kim,  P. Klunzinger,  K. Koh,  
 D. Kosenkov,  L. Koulias,  T. Kowalczyk,  C. M. Krauter,  A. Kunitsa,  
 Ka Un Lao,  A. Laurent,  K. V. Lawler,  Joonho Lee,  D. Lefrancois,  
 S. Lehtola,  D. S. Levine,  Yi-Pei Li,  You-Sheng Lin,  Fenglai Liu,  
 E. Livshits,  A. Luenser,  P. Manohar,  E. Mansoor,  S. F. Manzer,  
 Shan-Ping Mao,  Yuezhi Mao,  N. Mardirossian,  A. V. Marenich,  
 T. Markovich,  L. A. Martinez-Martinez,  S. A. Maurer,  N. J. Mayhall,  
 S. C. McKenzie,  J.-M. Mewes,  P. Morgante,  A. F. Morrison,  
 J. W. Mullinax,  K. Nanda,  T. S. Nguyen-Beck,  R. Olivares-Amaya,  
 J. A. Parkhill,  Zheng Pei,  T. M. Perrine,  F. Plasser,  P. Pokhilko,  
 S. Prager,  A. Prociuk,  E. Ramos,  D. R. Rehn,  F. Rob,  M. Scheurer,  
 M. Schneider,  N. Sergueev,  S. M. Sharada,  S. Sharma,  D. W. Small,  
 T. Stauch,  T. Stein,  Yu-Chuan Su,  A. J. W. Thom,  A. Tkatchenko,  
 T. Tsuchimochi,  N. M. Tubman,  L. Vogt,  M. L. Vidal,  O. Vydrov,  
 M. A. Watson,  J. Wenzel,  M. de Wergifosse,  T. A. Wesolowski,  A. White,  
 J. Witte,  A. Yamada,  Jun Yang,  K. Yao,  S. Yeganeh,  S. R. Yost,  
 Zhi-Qiang You,  A. Zech,  Igor Ying Zhang,  Xing Zhang,  Yan Zhao,  
 Ying Zhu,  B. R. Brooks,  G. K. L. Chan,  C. J. Cramer,  M. S. Gordon,  
 W. J. Hehre,  A. Klamt,  M. W. Schmidt,  C. D. Sherrill,  D. G. Truhlar,  
 A. Aspuru-Guzik,  R. Baer,  A. T. Bell,  N. A. Besley,  Jeng-Da Chai,  
 A. E. DePrince, III,  R. A. DiStasio Jr.,  A. Dreuw,  B. D. Dunietz,  
 T. R. Furlani,  Chao-Ping Hsu,  Yousung Jung,  Jing Kong,  D. S. Lambrecht,  
 WanZhen Liang,  C. Ochsenfeld,  V. A. Rassolov,  L. V. Slipchenko,  
 J. E. Subotnik,  T. Van Voorhis,  J. M. Herbert,  A. I. Krylov,  
 P. M. W. Gill,  M. Head-Gordon

 Contributors to earlier versions of Q-Chem not listed above: 
 R. D. Adamson,  B. Austin,  J. Baker,  G. J. O. Beran,  K. Brandhorst,  
 S. T. Brown,  E. F. C. Byrd,  A. K. Chakraborty,  C.-L. Cheng,  
 Siu Hung Chien,  D. M. Chipman,  D. L. Crittenden,  H. Dachsel,  
 R. J. Doerksen,  A. D. Dutoi,  L. Fusti-Molnar,  W. A. Goddard III,  
 A. Golubeva-Zadorozhnaya,  S. R. Gwaltney,  G. Hawkins,  A. Heyden,  
 S. Hirata,  G. Kedziora,  F. J. Keil,  C. Kelley,  Jihan Kim,  R. A. King,  
 R. Z. Khaliullin,  P. P. Korambath,  W. Kurlancheek,  A. M. Lee,  M. S. Lee,  
 S. V. Levchenko,  Ching Yeh Lin,  D. Liotard,  R. C. Lochan,  I. Lotan,  
 P. E. Maslen,  N. Nair,  D. P. O'Neill,  D. Neuhauser,  E. Neuscamman,  
 C. M. Oana,  R. Olson,  B. Peters,  R. Peverati,  P. A. Pieniazek,  
 Y. M. Rhee,  J. Ritchie,  M. A. Rohrdanz,  E. Rosta,  N. J. Russ,  
 H. F. Schaefer III,  N. E. Schultz,  N. Shenvi,  A. C. Simmonett,  A. Sodt,  
 D. Stuck,  K. S. Thanthiriwatte,  V. Vanovschi,  Tao Wang,  A. Warshel,  
 C. F. Williams,  Q. Wu,  X. Xu,  W. Zhang

 Please cite Q-Chem as follows:
 Y. Shao et al., Mol. Phys. 113, 184-215 (2015)
 DOI: 10.1080/00268976.2014.952696

 Q-Chem 5.2.0 for Intel X86 EM64T Linux

 Parts of Q-Chem use Armadillo 8.300.2 (Tropical Shenanigans).
 http://arma.sourceforge.net/

 Q-Chem begins on Sun Sep 26 13:45:17 2021  

Host: cori01
0

     Scratch files written to /tmp/qchem23669//
 May1019 |scratch|qcdevops|jenkins|workspace|build_RNUM -1
Processing $rem in /global/common/cori/software/qchem/5.2/config/preferences:
	 MEM_TOTAL  96000 
NAlpha2: 94
NElect   94
Mult     1
Symmetry turned off for PCM/SM12/SMD calculation

 Q-Chem warning in module libgen/rem_setup.C, line 2803:

 Neither GIA nor STOLL is specified by user. Use STOLL as the default


Checking the input file for inconsistencies... 	...done.

--------------------------------------------------------------
User input:
--------------------------------------------------------------
$comment
SSI-112PHE-125HIE-1.pdb
$end

$molecule
0 1
--
0 1
C   -1.435776681497   -2.242673196494    3.613863075722
C   -0.999776681497   -0.121673196494    0.531863075722
C   -1.645776681497    1.051326803506    0.887863075722
C   -0.946776681497   -1.177673196494    1.425863075722
C   -1.503776681497   -1.065673196494    2.691863075722
C   -2.213776681497    1.170326803506    2.146863075722
C   -2.153776681497    0.112326803506    3.044863075722
H   -0.550776681497   -0.217673196494   -0.447136924278
H   -1.696776681497    1.874326803506    0.187863075722
H   -0.459776681497   -2.092673196494    1.121863075722
H   -2.701776681497    2.093326803506    2.414863075722
H   -0.642776681497   -2.904673196494    3.261863075722
H   -2.376776681497   -2.789673196494    3.527863075722
H   -2.562776681497    0.210326803506    4.031863075722
H   -1.252518681497   -2.016296196494    4.674603075722
--
0 1
C    3.140223318503   -1.216673196494   -1.742136924278
C    1.056223318503    1.746326803506   -2.068136924278
C    2.171223318503   -0.146673196494   -2.170136924278
C    1.427223318503   -0.031673196494   -3.307136924278
N    1.915223318503    0.977326803506   -1.411136924278
N    0.744223318503    1.162326803506   -3.220136924278
H    0.668223318503    2.697326803506   -1.724136924278
H    0.093223318503    1.540326803506   -3.900136924278
H    1.400223318503   -0.743673196494   -4.119136924278
H    2.748223318503   -2.180673196494   -2.064136924278
H    3.199223318503   -1.229673196494   -0.653136924278
H    4.148823318503   -1.079973196494   -2.159317924278
$end

$rem
JOBTYPE			EDA
EDA2			1
method			wB97X-V
BASIS			def2-TZVPD
XC_GRID			000099000590
NL_GRID			1
UNRESTRICTED		FALSE
MAX_SCF_CYCLES		200
SYMMETRY		FALSE
SYM_IGNORE		TRUE
MEM_STATIC		2000
BASIS_LIN_DEP_THRESH 	6
THRESH 			14
SCF_CONVERGENCE 	8
SCF_PRINT_FRGM 		TRUE
SOLVENT_METHOD          PCM
$end

$PCM
THEORY                  CPCM
METHOD                  SWIG
SOLVER                  INVERSION
RADII                   UFF
HPOINTS                 302
HEAVYPOINTS             302
PRINTLEVEL              0
$END

$SOLVENT
DIELECTRIC              78.390000 ! water
$END
--------------------------------------------------------------
 ----------------------------------------------------------------
             Standard Nuclear Orientation (Angstroms)
    I     Atom           X                Y                Z
 ----------------------------------------------------------------
    1      C      -1.4357766815    -2.2426731965     3.6138630757
    2      C      -0.9997766815    -0.1216731965     0.5318630757
    3      C      -1.6457766815     1.0513268035     0.8878630757
    4      C      -0.9467766815    -1.1776731965     1.4258630757
    5      C      -1.5037766815    -1.0656731965     2.6918630757
    6      C      -2.2137766815     1.1703268035     2.1468630757
    7      C      -2.1537766815     0.1123268035     3.0448630757
    8      H      -0.5507766815    -0.2176731965    -0.4471369243
    9      H      -1.6967766815     1.8743268035     0.1878630757
   10      H      -0.4597766815    -2.0926731965     1.1218630757
   11      H      -2.7017766815     2.0933268035     2.4148630757
   12      H      -0.6427766815    -2.9046731965     3.2618630757
   13      H      -2.3767766815    -2.7896731965     3.5278630757
   14      H      -2.5627766815     0.2103268035     4.0318630757
   15      H      -1.2525186815    -2.0162961965     4.6746030757
   16      C       3.1402233185    -1.2166731965    -1.7421369243
   17      C       1.0562233185     1.7463268035    -2.0681369243
   18      C       2.1712233185    -0.1466731965    -2.1701369243
   19      C       1.4272233185    -0.0316731965    -3.3071369243
   20      N       1.9152233185     0.9773268035    -1.4111369243
   21      N       0.7442233185     1.1623268035    -3.2201369243
   22      H       0.6682233185     2.6973268035    -1.7241369243
   23      H       0.0932233185     1.5403268035    -3.9001369243
   24      H       1.4002233185    -0.7436731965    -4.1191369243
   25      H       2.7482233185    -2.1806731965    -2.0641369243
   26      H       3.1992233185    -1.2296731965    -0.6531369243
   27      H       4.1488233185    -1.0799731965    -2.1593179243
 ----------------------------------------------------------------
 Nuclear Repulsion Energy =         700.42271410 hartrees
 There are       47 alpha and       47 beta electrons
 Requested basis set is def2-TZVPD
 There are 239 shells and 607 basis functions

 Total QAlloc Memory Limit  96000 MB
 Mega-Array Size      1956 MB
 MEM_STATIC part      2000 MB
 Discretize the solute cavity surface with Lebedev spheres
	Using 302 Lebedev grid points for each H atom
	Using 302 Lebedev grid points for other atoms
	Atomic van der Waals radii will be scaled by 1.20
 Remove points where switching function is < 1.0e-08
 Keep 3136 surface tesserae and discard 5018 interior tesserae
 Molecular Surface Area = 310.725 Angst**2
 A cutoff of  1.0D-14 yielded  24182 shell pairs
 There are    155604 function pairs (    196396 Cartesian)
 Smallest overlap matrix eigenvalue = 4.78E-07
 Linear dependence detected in AO basis
 Tighter screening thresholds may be required for diffuse basis sets
 Use S2THRESH > 14 and THRESH = 14 in case of SCF convergence issues
 Number of orthogonalized atomic orbitals = 605
 Maximum deviation from orthogonality = 1.659E-10

 Scale SEOQF with 1.000000e-01/1.000000e-01/1.000000e-01

 Standard Electronic Orientation quadrupole field applied
 Nucleus-field energy     =    -0.0000000381 hartrees

 -----------------------------------------------------------------------
  General SCF calculation program by
  Eric Jon Sundstrom, Paul Horn, Yuezhi Mao, Dmitri Zuev, Alec White,
  David Stuck, Shaama M.S., Shane Yost, Joonho Lee, David Small,
  Daniel Levine, Susi Lehtola, Hugh Burton, Evgeny Epifanovsky
 -----------------------------------------------------------------------
================================================================
                 ALMO-EDA with the EDA2 driver                  
================================================================
 The second-generation ALMO-EDA (for DFT):                      
 P. R. Horn, Y. Mao and M. Head-Gordon, PCCP, 18, 23067 (2016)  
 Decomposition of the frozen energy:                            
 P. R. Horn, Y. Mao and M. Head-Gordon, JCP, 144, 114107 (2016) 
 FERF model for polarization:                                   
 P. R. Horn and M. Head-Gordon, JCP, 143, 114111 (2015)         
Using eda2 option set 1
Option set summary: Frozen orbital wavefunction, initial wavefunction decomposition, and nDQ polarization.
--------------------------------
Printing EDA Options
--------------------------------
eda_child_super_basis      0
fragmo_guess_mode          0
child_mp                   1
child_mp_orders            232
cls_elec                   1
cls_disp                   0
scfmi_mode                 1
scfmi_occs                 0
scfmi_virts                0
frz_relax                  0
frz_relax_method           0
dc_pen_start               0
dc_pen_conv                0
dc_pen_increment           0
dc_pen_steps               0
dc_pen_thresh_factor       0
dc_pen_pre_newton_thresh   0
frz_ortho_decomp           1
frz_ortho_decomp_conv      6
frgm_method                2
scfmi_freeze_ss            0
separate_rehyb             0
plot_diff_den              0
eda_nocv                   0
eda_vct_relax              1
disp_free_x                0
disp_free_c                0
eda_bsse                   0
eda_pct_a                  0
eda_covp                   0
--------------------------------
Attempting to make child job directory: /tmp/qchem23669//Frg1/
Attempting to make child job directory: /tmp/qchem23669//Frg2/
Creating input file /tmp/qchem23669/Frg1.input
using default PutDataFrgm: nothing
calling putenv with: QCSCRATCH=/tmp/qchem23669/ 
calling putenv with: QCLOCALSCR=/tmp/qchem23669/ 
Spawning Job For Fragment 0
                  Welcome to Q-Chem
     A Quantum Leap Into The Future Of Chemistry


 Q-Chem 5.2, Q-Chem, Inc., Pleasanton, CA (2019)

 License issued to: National Energy Research Scientific Computing Center

 Yihan Shao,  Zhengting Gan,  E. Epifanovsky,  A. T. B. Gilbert,  M. Wormit,  
 J. Kussmann,  A. W. Lange,  A. Behn,  Jia Deng,  Xintian Feng,  D. Ghosh,  
 M. Goldey,  P. R. Horn,  L. D. Jacobson,  I. Kaliman,  T. Kus,  A. Landau,  
 Jie Liu,  E. I. Proynov,  R. M. Richard,  R. P. Steele,  E. J. Sundstrom,  
 H. L. Woodcock III,  P. M. Zimmerman,  D. Zuev,  B. Albrecht,  E. Alguire,  
 S. A. Baeppler,  D. Barton,  Z. Benda,  Y. A. Bernard,  E. J. Berquist,  
 K. B. Bravaya,  H. Burton,  D. Casanova,  Chun-Min Chang,  Yunqing Chen,  
 A. Chien,  K. D. Closser,  M. P. Coons,  S. Coriani,  S. Dasgupta,  
 A. L. Dempwolff,  M. Diedenhofen,  Hainam Do,  R. G. Edgar,  Po-Tung Fang,  
 S. Faraji,  S. Fatehi,  Qingguo Feng,  K. D. Fenk,  J. Fosso-Tande,  
 J. Gayvert,  Qinghui Ge,  A. Ghysels,  G. Gidofalvi,  J. Gomes,  
 J. Gonthier,  A. Gunina,  D. Hait,  M. W. D. Hanson-Heine,  
 P. H. P. Harbach,  A. W. Hauser,  M. F. Herbst,  J. E. Herr,  
 E. G. Hohenstein,  Z. C. Holden,  Kerwin Hui,  B. C. Huynh,  T.-C. Jagau,  
 Hyunjun Ji,  B. Kaduk,  K. Khistyaev,  Jaehoon Kim,  P. Klunzinger,  K. Koh,  
 D. Kosenkov,  L. Koulias,  T. Kowalczyk,  C. M. Krauter,  A. Kunitsa,  
 Ka Un Lao,  A. Laurent,  K. V. Lawler,  Joonho Lee,  D. Lefrancois,  
 S. Lehtola,  D. S. Levine,  Yi-Pei Li,  You-Sheng Lin,  Fenglai Liu,  
 E. Livshits,  A. Luenser,  P. Manohar,  E. Mansoor,  S. F. Manzer,  
 Shan-Ping Mao,  Yuezhi Mao,  N. Mardirossian,  A. V. Marenich,  
 T. Markovich,  L. A. Martinez-Martinez,  S. A. Maurer,  N. J. Mayhall,  
 S. C. McKenzie,  J.-M. Mewes,  P. Morgante,  A. F. Morrison,  
 J. W. Mullinax,  K. Nanda,  T. S. Nguyen-Beck,  R. Olivares-Amaya,  
 J. A. Parkhill,  Zheng Pei,  T. M. Perrine,  F. Plasser,  P. Pokhilko,  
 S. Prager,  A. Prociuk,  E. Ramos,  D. R. Rehn,  F. Rob,  M. Scheurer,  
 M. Schneider,  N. Sergueev,  S. M. Sharada,  S. Sharma,  D. W. Small,  
 T. Stauch,  T. Stein,  Yu-Chuan Su,  A. J. W. Thom,  A. Tkatchenko,  
 T. Tsuchimochi,  N. M. Tubman,  L. Vogt,  M. L. Vidal,  O. Vydrov,  
 M. A. Watson,  J. Wenzel,  M. de Wergifosse,  T. A. Wesolowski,  A. White,  
 J. Witte,  A. Yamada,  Jun Yang,  K. Yao,  S. Yeganeh,  S. R. Yost,  
 Zhi-Qiang You,  A. Zech,  Igor Ying Zhang,  Xing Zhang,  Yan Zhao,  
 Ying Zhu,  B. R. Brooks,  G. K. L. Chan,  C. J. Cramer,  M. S. Gordon,  
 W. J. Hehre,  A. Klamt,  M. W. Schmidt,  C. D. Sherrill,  D. G. Truhlar,  
 A. Aspuru-Guzik,  R. Baer,  A. T. Bell,  N. A. Besley,  Jeng-Da Chai,  
 A. E. DePrince, III,  R. A. DiStasio Jr.,  A. Dreuw,  B. D. Dunietz,  
 T. R. Furlani,  Chao-Ping Hsu,  Yousung Jung,  Jing Kong,  D. S. Lambrecht,  
 WanZhen Liang,  C. Ochsenfeld,  V. A. Rassolov,  L. V. Slipchenko,  
 J. E. Subotnik,  T. Van Voorhis,  J. M. Herbert,  A. I. Krylov,  
 P. M. W. Gill,  M. Head-Gordon

 Contributors to earlier versions of Q-Chem not listed above: 
 R. D. Adamson,  B. Austin,  J. Baker,  G. J. O. Beran,  K. Brandhorst,  
 S. T. Brown,  E. F. C. Byrd,  A. K. Chakraborty,  C.-L. Cheng,  
 Siu Hung Chien,  D. M. Chipman,  D. L. Crittenden,  H. Dachsel,  
 R. J. Doerksen,  A. D. Dutoi,  L. Fusti-Molnar,  W. A. Goddard III,  
 A. Golubeva-Zadorozhnaya,  S. R. Gwaltney,  G. Hawkins,  A. Heyden,  
 S. Hirata,  G. Kedziora,  F. J. Keil,  C. Kelley,  Jihan Kim,  R. A. King,  
 R. Z. Khaliullin,  P. P. Korambath,  W. Kurlancheek,  A. M. Lee,  M. S. Lee,  
 S. V. Levchenko,  Ching Yeh Lin,  D. Liotard,  R. C. Lochan,  I. Lotan,  
 P. E. Maslen,  N. Nair,  D. P. O'Neill,  D. Neuhauser,  E. Neuscamman,  
 C. M. Oana,  R. Olson,  B. Peters,  R. Peverati,  P. A. Pieniazek,  
 Y. M. Rhee,  J. Ritchie,  M. A. Rohrdanz,  E. Rosta,  N. J. Russ,  
 H. F. Schaefer III,  N. E. Schultz,  N. Shenvi,  A. C. Simmonett,  A. Sodt,  
 D. Stuck,  K. S. Thanthiriwatte,  V. Vanovschi,  Tao Wang,  A. Warshel,  
 C. F. Williams,  Q. Wu,  X. Xu,  W. Zhang

 Please cite Q-Chem as follows:
 Y. Shao et al., Mol. Phys. 113, 184-215 (2015)
 DOI: 10.1080/00268976.2014.952696

 Q-Chem 5.2.0 for Intel X86 EM64T Linux

 Parts of Q-Chem use Armadillo 8.300.2 (Tropical Shenanigans).
 http://arma.sourceforge.net/

 Q-Chem begins on Sun Sep 26 13:45:25 2021  

Host: cori01
0

     Scratch files written to /tmp/qchem23669//Frg1//
 May1019 |scratch|qcdevops|jenkins|workspace|build_RNUM -1
Processing $rem in /global/common/cori/software/qchem/5.2/config/preferences:
	 MEM_TOTAL  96000 
NAlpha2: 50
NElect   50
Mult     1
Symmetry turned off for PCM/SM12/SMD calculation

Checking the input file for inconsistencies... 	...done.

--------------------------------------------------------------
User input:
--------------------------------------------------------------
$molecule
0 1
 6	-1.4357766815	-2.2426731965	3.6138630757
 6	-0.9997766815	-0.1216731965	0.5318630757
 6	-1.6457766815	1.0513268035	0.8878630757
 6	-0.9467766815	-1.1776731965	1.4258630757
 6	-1.5037766815	-1.0656731965	2.6918630757
 6	-2.2137766815	1.1703268035	2.1468630757
 6	-2.1537766815	0.1123268035	3.0448630757
 1	-0.5507766815	-0.2176731965	-0.4471369243
 1	-1.6967766815	1.8743268035	0.1878630757
 1	-0.4597766815	-2.0926731965	1.1218630757
 1	-2.7017766815	2.0933268035	2.4148630757
 1	-0.6427766815	-2.9046731965	3.2618630757
 1	-2.3767766815	-2.7896731965	3.5278630757
 1	-2.5627766815	0.2103268035	4.0318630757
 1	-1.2525186815	-2.0162961965	4.6746030757
$end
$rem
EDA2		1
METHOD		WB97X-V
BASIS		DEF2-TZVPD
XC_GRID		000099000590
NL_GRID		1
UNRESTRICTED		FALSE
MAX_SCF_CYCLES		200
SYMMETRY		FALSE
SYM_IGNORE		TRUE
BASIS_LIN_DEP_THRESH		6
THRESH		14
SCF_CONVERGENCE		8
SCF_PRINT_FRGM		TRUE
SOLVENT_METHOD		PCM
!required keywords
JOBTYPE		SP
SYM_IGNORE		TRUE
SUBSYSTEM		TRUE
GEN_SCFMAN		TRUE
CHILD_INSTRUCTION		2
SYM_IGNORE		TRUE
SCFMI		0
RI_K 0		
PARI_K 0		
MIN_PARI_K 0		
IARI_K 0		
OCC_RI_K 0		
PURECART		1111
MEM_STATIC		2000
MEM_TOTAL		96000
GUI		0
CHILD_MP		1
CHILD_MP_ORDERS		232
FRZ_RELAX		0
FRZ_RELAX_METHOD		0
EDA_CLS_ELEC		1
EDA_CLS_DISP		0
FRZ_ORTHO_DECOMP		1
EDA2		FALSE
FRGM_METHOD		FALSE
CIS_N_ROOTS  0
LOCAL_CIS    0
CIS_RLX_DNS  1
$end
$pcm
THEORY                  CPCM
METHOD                  SWIG
SOLVER                  INVERSION
RADII                   UFF
HPOINTS                 302
HEAVYPOINTS             302
PRINTLEVEL              0
$end
$solvent
DIELECTRIC              78.390000 ! water
$end
--------------------------------------------------------------
 ----------------------------------------------------------------
             Standard Nuclear Orientation (Angstroms)
    I     Atom           X                Y                Z
 ----------------------------------------------------------------
    1      C      -1.4357766815    -2.2426731965     3.6138630757
    2      C      -0.9997766815    -0.1216731965     0.5318630757
    3      C      -1.6457766815     1.0513268035     0.8878630757
    4      C      -0.9467766815    -1.1776731965     1.4258630757
    5      C      -1.5037766815    -1.0656731965     2.6918630757
    6      C      -2.2137766815     1.1703268035     2.1468630757
    7      C      -2.1537766815     0.1123268035     3.0448630757
    8      H      -0.5507766815    -0.2176731965    -0.4471369243
    9      H      -1.6967766815     1.8743268035     0.1878630757
   10      H      -0.4597766815    -2.0926731965     1.1218630757
   11      H      -2.7017766815     2.0933268035     2.4148630757
   12      H      -0.6427766815    -2.9046731965     3.2618630757
   13      H      -2.3767766815    -2.7896731965     3.5278630757
   14      H      -2.5627766815     0.2103268035     4.0318630757
   15      H      -1.2525186815    -2.0162961965     4.6746030757
 ----------------------------------------------------------------
 Nuclear Repulsion Energy =         270.83185703 hartrees
 There are       25 alpha and       25 beta electrons
 Requested basis set is def2-TZVPD
 There are 131 shells and 331 basis functions

 Total QAlloc Memory Limit  96000 MB
 Mega-Array Size      1956 MB
 MEM_STATIC part      2000 MB
 Discretize the solute cavity surface with Lebedev spheres
	Using 302 Lebedev grid points for each H atom
	Using 302 Lebedev grid points for other atoms
	Atomic van der Waals radii will be scaled by 1.20
 Remove points where switching function is < 1.0e-08
 Keep 1783 surface tesserae and discard 2747 interior tesserae
 Molecular Surface Area = 177.842 Angst**2

                       Distance Matrix (Angstroms)
             C (  1)   C (  2)   C (  3)   C (  4)   C (  5)   C (  6)
   C (  2)  3.766625
   C (  3)  4.280842  1.385634
   C (  4)  2.482074  1.384623  2.397183
   C (  5)  1.496675  2.410550  2.785008  1.387642
   C (  6)  3.795516  2.398184  1.386314  2.763736  2.408489
   C (  7)  2.526917  2.775183  2.406748  2.396270  1.390968  1.389017
   H (  8)  4.623372  1.081322  2.142804  2.141622  3.388308  3.379489
   H (  9)  5.362396  2.141999  1.081633  3.377847  3.866635  2.144898
   H ( 10)  2.680511  2.127097  3.368395  1.080190  2.146990  3.843736
   H ( 11)  4.673463  3.368786  2.128997  3.841560  3.389869  1.077913
   H ( 12)  1.091328  3.914772  4.721422  2.538866  2.109062  4.507426
   H ( 13)  1.091827  4.241506  4.717758  3.010290  2.105517  4.197062
   H ( 14)  2.731678  3.847492  3.381258  3.365893  2.131961  2.143974
   H ( 15)  1.100000  4.562430  4.889209  3.369136  2.213159  4.179480
             C (  7)   H (  8)   H (  9)   H ( 10)   H ( 11)   H ( 12)
   H (  8)  3.856498
   H (  9)  3.387616  2.468401
   H ( 10)  3.380768  2.446562  4.259063
   H ( 11)  2.149783  4.261287  2.453062  4.921484
   H ( 12)  3.381198  4.580951  5.779207  2.296178  5.471462
   H ( 13)  2.950360  5.074454  5.776755  3.154288  5.018773  1.758049
   H ( 14)  1.072872  4.928770  4.277287  4.265503  2.485900  3.739321
   H ( 15)  2.828313  5.473546  5.955262  3.640911  4.908745  1.776748
             H ( 13)   H ( 14)
   H ( 14)  3.047722
   H ( 15)  1.782437  2.662281
 
 A cutoff of  1.0D-14 yielded   8371 shell pairs
 There are     54521 function pairs (     69475 Cartesian)
 Smallest overlap matrix eigenvalue = 5.47E-07
 Linear dependence detected in AO basis
 Tighter screening thresholds may be required for diffuse basis sets
 Use S2THRESH > 14 and THRESH = 14 in case of SCF convergence issues
 Number of orthogonalized atomic orbitals = 330
 Maximum deviation from orthogonality = 1.986E-10

 Scale SEOQF with 1.000000e-01/1.000000e-01/1.000000e-01

 Standard Electronic Orientation quadrupole field applied
 Nucleus-field energy     =    -0.0000000198 hartrees
 Guess from superposition of atomic densities
 Warning:  Energy on first SCF cycle will be non-variational
 SAD guess density has 49.913408 electrons

 -----------------------------------------------------------------------
  General SCF calculation program by
  Eric Jon Sundstrom, Paul Horn, Yuezhi Mao, Dmitri Zuev, Alec White,
  David Stuck, Shaama M.S., Shane Yost, Joonho Lee, David Small,
  Daniel Levine, Susi Lehtola, Hugh Burton, Evgeny Epifanovsky
 -----------------------------------------------------------------------
 Exchange:     0.1670 Hartree-Fock + 1.0000 wB97X-V + LR-HF
 Correlation:  1.0000 wB97X-V
 Using Euler-Maclaurin-Lebedev (99,590) quadrature formula
 Nonlocal Correlation:  VV10 with C = 0.0100 and b = 6.00 and scale = 1.00000
 Grid used for NLC:  SG-1 standard quadrature
Energy prior to optimization (guess energy) = -271.517599125964
Begin Timing: Total SCF Calculation
begin iterations for algorithm: DIIS         
the SCF tolerance is set to 1.00e-08
    1    -271.5175991260      2.00e-03     00000 
    2    -271.5573291064      1.29e-03     00000 
    3    -271.5802885367      1.40e-04     00000 
    4    -271.5807032020      4.96e-05     00000 
    5    -271.5807390314      1.64e-05     00000 
    6    -271.5807436927      4.22e-06     00000 
    7    -271.5807440374      1.92e-06     00000 
    8    -271.5807441006      3.49e-07     00000 
    9    -271.5807441038      6.76e-08     00000 
   10    -271.5807441040      3.82e-08     00000 
   11    -271.5807441040      8.68e-09     00000 Convergence criterion met
Timing for Total SCF: 1269.00s (wall), 2501.00s (cpu)

************** Final PCM Free Energy Summary **************
 G_electrostatic  =      -0.00242689 hartree =      -1.52289610 kcal/mol
 G_cavitation     =       0.00000000 hartree =       0.00000000 kcal/mol
 G_dispersion     =       0.00000000 hartree =       0.00000000 kcal/mol
 G_repulsion      =       0.00000000 hartree =       0.00000000 kcal/mol
 --------------------------------------------------
 Non-electrostatic Free Energy =       0.00000000 hartree =       0.00000000 kcal/mol
 Total                         =      -0.00242689 hartree =      -1.52289610 kcal/mol
 --------------------------------------------------
 SCF Energy (H0 + V/2)                       =    -271.58074410 
 Solute Internal Energy (H0)                 =    -271.57831721 
 Total Free Energy (H0 + V/2 + non-elec)     =    -271.58074410 hartree
                                             = -170419.48906649 kcal/mol
***********************************************************

E_pcm = -0.0024268894
Multipole orders to be included
        2
        3
computing dipole RHS
computing quadrupole RHS
total number of RHS in solve_reponses: 8
RHS batch sizes
        8
Beginning Block Conjugate Gradient Iterations. Batch Number: 0
computing hessian-vector products by finite difference
              1      5.70e-01     00000 Conjugate Gradient Iteration
computing hessian-vector products by finite difference
              2      1.84e-01     00000 Conjugate Gradient Iteration
computing hessian-vector products by finite difference
              3      4.30e-02     00000 Conjugate Gradient Iteration
computing hessian-vector products by finite difference
              4      1.00e-02     00000 Conjugate Gradient Iteration
computing hessian-vector products by finite difference
              5      2.05e-03     00000 Conjugate Gradient Iteration
computing hessian-vector products by finite difference
              6      6.02e-04     00000 Conjugate Gradient Iteration
computing hessian-vector products by finite difference
              7      1.45e-04     00000 Conjugate Gradient Iteration
computing hessian-vector products by finite difference
              8      2.21e-05     00000 Conjugate Gradient Iteration
computing hessian-vector products by finite difference
              9      3.67e-06     00000 Conjugate Gradient Iteration
computing hessian-vector products by finite difference
             10      5.29e-07     00000 Conjugate Gradient Iteration
computing hessian-vector products by finite difference
             11      8.08e-08     00000 Conjugate Gradient Iteration
computing hessian-vector products by finite difference
             12      1.53e-08     00000 Conjugate Gradient Iteration
computing hessian-vector products by finite difference
             13      3.46e-09     00000 CG Converged
batch 0 complete
Done Calculating Responses
TESTING ORTHOGONALIZATION OF MULTIPOLE BASIS
Multipole virts passed orthogonality test
Virts Per Order
           75
          125
 
 --------------------------------------------------------------
 
                    Orbital Energies (a.u.)
 --------------------------------------------------------------
 
 Alpha MOs
 -- Occupied --
-10.2805 -10.2720 -10.2710 -10.2684 -10.2683 -10.2671 -10.2621  -1.0002
 -0.9094  -0.8807  -0.8142  -0.7319  -0.7064  -0.6319  -0.5756  -0.5677
 -0.5365  -0.5311  -0.5160  -0.4875  -0.4741  -0.4423  -0.4416  -0.3503
 -0.3380
 -- Virtual --
  0.0629   0.0642   0.0696   0.0790   0.0843   0.1044   0.1103   0.1136
  0.1350   0.1513   0.1650   0.1680   0.1864   0.1895   0.1946   0.2002
  0.2211   0.2288   0.2347   0.2402   0.2436   0.2585   0.2599   0.2696
  0.2753   0.2801   0.2826   0.2918   0.2946   0.3021   0.3054   0.3126
  0.3232   0.3244   0.3303   0.3349   0.3485   0.3544   0.3674   0.3718
  0.3773   0.3824   0.3829   0.3889   0.3917   0.3975   0.4037   0.4077
  0.4126   0.4259   0.4315   0.4352   0.4442   0.4469   0.4518   0.4589
  0.4662   0.4707   0.4753   0.4821   0.4903   0.4979   0.5113   0.5156
  0.5190   0.5247   0.5328   0.5361   0.5428   0.5477   0.5499   0.5682
  0.5826   0.5862   0.5910   0.6004   0.6048   0.6212   0.6426   0.6497
  0.6660   0.6751   0.6771   0.6806   0.6883   0.7013   0.7197   0.7230
  0.7256   0.7297   0.7423   0.7622   0.7634   0.7684   0.7759   0.7847
  0.7918   0.7972   0.7996   0.8001   0.8096   0.8226   0.8243   0.8331
  0.8353   0.8373   0.8490   0.8574   0.8605   0.8716   0.8820   0.8886
  0.9162   0.9246   0.9354   0.9481   0.9491   0.9992   1.0192   1.0431
  1.0461   1.0622   1.0714   1.0772   1.0854   1.0958   1.1038   1.1481
  1.1686   1.1720   1.2458   1.2841   1.2993   1.3214   1.3490   1.3517
  1.3845   1.4375   1.4463   1.4640   1.4700   1.4762   1.5291   1.5413
  1.6000   1.6029   1.6195   1.6228   1.6666   1.6789   1.7390   1.7805
  1.7843   1.7953   1.8036   1.8178   1.8345   1.8628   1.8740   1.9067
  1.9202   1.9333   1.9533   1.9661   1.9838   2.0005   2.0151   2.0256
  2.0374   2.0445   2.0683   2.0957   2.1125   2.1241   2.1703   2.1830
  2.2002   2.2196   2.2558   2.2659   2.2901   2.3156   2.3858   2.4047
  2.4123   2.4147   2.4718   2.5009   2.5477   2.5514   2.5731   2.5946
  2.6342   2.6443   2.6464   2.6816   2.7054   2.7142   2.7614   2.7763
  2.7898   2.8163   2.8265   2.8457   2.8624   2.9040   2.9090   2.9146
  2.9277   2.9435   2.9633   2.9872   2.9940   3.0146   3.0206   3.0560
  3.0657   3.0824   3.0995   3.1511   3.1714   3.1850   3.1993   3.2173
  3.2278   3.2516   3.2873   3.3084   3.3407   3.3531   3.3652   3.3807
  3.4026   3.4352   3.4402   3.4528   3.4600   3.4844   3.4941   3.5039
  3.5106   3.5367   3.5401   3.5522   3.5606   3.5735   3.5810   3.6059
  3.6250   3.6372   3.6663   3.6968   3.7213   3.7499   3.7787   3.8235
  3.8362   3.9048   3.9127   3.9597   3.9690   3.9832   4.0416   4.0725
  4.1236   4.2047   4.2707   4.2841   4.2997   4.3155   4.3265   4.3440
  4.3624   4.3799   4.3962   4.4224   4.4529   4.4571   4.4912   4.5453
  4.6123   4.6489   4.7641   4.7724   4.8367   4.8846   4.9123   4.9534
  5.0369   5.0501   5.1799   5.2765   5.3922   5.4040   5.4997   5.5355
  5.6816   5.8516  22.5749  22.6798  22.9054  22.9186  23.0385  23.1024
 23.4538
 --------------------------------------------------------------
 
          Ground-State Mulliken Net Atomic Charges

     Atom                 Charge (a.u.)
  ----------------------------------------
      1 C                    -1.056150
      2 C                    -0.531095
      3 C                    -0.464259
      4 C                    -0.350790
      5 C                     0.898575
      6 C                    -0.443391
      7 C                    -0.393524
      8 H                     0.306474
      9 H                     0.326888
     10 H                     0.290115
     11 H                     0.315241
     12 H                     0.270584
     13 H                     0.209413
     14 H                     0.345638
     15 H                     0.276281
  ----------------------------------------
  Sum of atomic charges =     0.000000

 -----------------------------------------------------------------
                    Cartesian Multipole Moments
 -----------------------------------------------------------------
    Charge (ESU x 10^10)
                 0.0000
    Dipole Moment (Debye)
         X      -0.0105      Y      -0.4115      Z       0.2866
       Tot       0.5015
    Quadrupole Moments (Debye-Ang)
        XX     -44.3098     XY      -1.7188     YY     -38.8764
        XZ      -2.8930     YZ      -2.0889     ZZ     -37.8886
    Octopole Moments (Debye-Ang^2)
       XXX     206.5616    XXY      21.2164    XYY      59.6999
       YYY      47.4960    XXZ     -83.3862    XYZ      -0.8083
       YYZ     -82.3353    XZZ      51.0073    YZZ       9.5719
       ZZZ    -241.9272
    Hexadecapole Moments (Debye-Ang^3)
      XXXX    -773.6379   XXXY     -39.1573   XXYY    -191.0849
      XYYY     -40.4877   YYYY    -489.7725   XXXZ     442.4354
      XXYZ      72.9324   XYYZ     134.9283   YYYZ     190.4810
      XXZZ    -343.8658   XYZZ      -9.8927   YYZZ    -321.8215
      XZZZ     381.6225   YZZZ     170.2963   ZZZZ   -1396.7489
 -----------------------------------------------------------------
Archival summary:
1\1\nid00507\SP\ProcedureUnspecified\BasisUnspecified\78\meili\SunSep2621:40:412021SunSep2621:40:412021\0\\#,ProcedureUnspecified,BasisUnspecified,\\0,1\C\C,1,1.38764\H,2,1.08019,1,120.404\C,2,1.38462,1,120.807,3,-179.784,0\H,4,1.08132,2,120.064,1,179.223,0\C,4,1.38563,2,119.841,1,-1.68213,0\H,6,1.08163,4,119.989,2,-179.418,0\C,6,1.38631,4,119.802,2,1.21321,0\H,8,1.07791,6,118.999,4,179.198,0\C,8,1.38902,6,120.268,4,-0.894319,0\H,10,1.07287,8,120.578,6,177.949,0\C,1,1.49668,2,118.706,3,-1.02315,0\H,12,1.09133,1,108.141,2,19.7533,0\H,12,1.09183,1,107.837,2,-95.9484,0\H,12,1.1,1,116.089,2,141.711,0\\\@

 Total job time:  28519.34s(wall), 56267.80s(cpu) 
 Sun Sep 26 21:40:44 2021

        *************************************************************
        *                                                           *
        *  Thank you very much for using Q-Chem.  Have a nice day.  *
        *                                                           *
        *************************************************************


Done Job For Fragment 0
calling putenv with: QCSCRATCH=/global/cscratch1/sd/meili 
calling putenv with: QCLOCALSCR=/tmp 
calling putenv with: QCTHREADS=32 
Creating input file /tmp/qchem23669/Frg2.input
using default PutDataFrgm: nothing
calling putenv with: QCSCRATCH=/tmp/qchem23669/ 
calling putenv with: QCLOCALSCR=/tmp/qchem23669/ 
Spawning Job For Fragment 1
                  Welcome to Q-Chem
     A Quantum Leap Into The Future Of Chemistry


 Q-Chem 5.2, Q-Chem, Inc., Pleasanton, CA (2019)

 License issued to: National Energy Research Scientific Computing Center

 Yihan Shao,  Zhengting Gan,  E. Epifanovsky,  A. T. B. Gilbert,  M. Wormit,  
 J. Kussmann,  A. W. Lange,  A. Behn,  Jia Deng,  Xintian Feng,  D. Ghosh,  
 M. Goldey,  P. R. Horn,  L. D. Jacobson,  I. Kaliman,  T. Kus,  A. Landau,  
 Jie Liu,  E. I. Proynov,  R. M. Richard,  R. P. Steele,  E. J. Sundstrom,  
 H. L. Woodcock III,  P. M. Zimmerman,  D. Zuev,  B. Albrecht,  E. Alguire,  
 S. A. Baeppler,  D. Barton,  Z. Benda,  Y. A. Bernard,  E. J. Berquist,  
 K. B. Bravaya,  H. Burton,  D. Casanova,  Chun-Min Chang,  Yunqing Chen,  
 A. Chien,  K. D. Closser,  M. P. Coons,  S. Coriani,  S. Dasgupta,  
 A. L. Dempwolff,  M. Diedenhofen,  Hainam Do,  R. G. Edgar,  Po-Tung Fang,  
 S. Faraji,  S. Fatehi,  Qingguo Feng,  K. D. Fenk,  J. Fosso-Tande,  
 J. Gayvert,  Qinghui Ge,  A. Ghysels,  G. Gidofalvi,  J. Gomes,  
 J. Gonthier,  A. Gunina,  D. Hait,  M. W. D. Hanson-Heine,  
 P. H. P. Harbach,  A. W. Hauser,  M. F. Herbst,  J. E. Herr,  
 E. G. Hohenstein,  Z. C. Holden,  Kerwin Hui,  B. C. Huynh,  T.-C. Jagau,  
 Hyunjun Ji,  B. Kaduk,  K. Khistyaev,  Jaehoon Kim,  P. Klunzinger,  K. Koh,  
 D. Kosenkov,  L. Koulias,  T. Kowalczyk,  C. M. Krauter,  A. Kunitsa,  
 Ka Un Lao,  A. Laurent,  K. V. Lawler,  Joonho Lee,  D. Lefrancois,  
 S. Lehtola,  D. S. Levine,  Yi-Pei Li,  You-Sheng Lin,  Fenglai Liu,  
 E. Livshits,  A. Luenser,  P. Manohar,  E. Mansoor,  S. F. Manzer,  
 Shan-Ping Mao,  Yuezhi Mao,  N. Mardirossian,  A. V. Marenich,  
 T. Markovich,  L. A. Martinez-Martinez,  S. A. Maurer,  N. J. Mayhall,  
 S. C. McKenzie,  J.-M. Mewes,  P. Morgante,  A. F. Morrison,  
 J. W. Mullinax,  K. Nanda,  T. S. Nguyen-Beck,  R. Olivares-Amaya,  
 J. A. Parkhill,  Zheng Pei,  T. M. Perrine,  F. Plasser,  P. Pokhilko,  
 S. Prager,  A. Prociuk,  E. Ramos,  D. R. Rehn,  F. Rob,  M. Scheurer,  
 M. Schneider,  N. Sergueev,  S. M. Sharada,  S. Sharma,  D. W. Small,  
 T. Stauch,  T. Stein,  Yu-Chuan Su,  A. J. W. Thom,  A. Tkatchenko,  
 T. Tsuchimochi,  N. M. Tubman,  L. Vogt,  M. L. Vidal,  O. Vydrov,  
 M. A. Watson,  J. Wenzel,  M. de Wergifosse,  T. A. Wesolowski,  A. White,  
 J. Witte,  A. Yamada,  Jun Yang,  K. Yao,  S. Yeganeh,  S. R. Yost,  
 Zhi-Qiang You,  A. Zech,  Igor Ying Zhang,  Xing Zhang,  Yan Zhao,  
 Ying Zhu,  B. R. Brooks,  G. K. L. Chan,  C. J. Cramer,  M. S. Gordon,  
 W. J. Hehre,  A. Klamt,  M. W. Schmidt,  C. D. Sherrill,  D. G. Truhlar,  
 A. Aspuru-Guzik,  R. Baer,  A. T. Bell,  N. A. Besley,  Jeng-Da Chai,  
 A. E. DePrince, III,  R. A. DiStasio Jr.,  A. Dreuw,  B. D. Dunietz,  
 T. R. Furlani,  Chao-Ping Hsu,  Yousung Jung,  Jing Kong,  D. S. Lambrecht,  
 WanZhen Liang,  C. Ochsenfeld,  V. A. Rassolov,  L. V. Slipchenko,  
 J. E. Subotnik,  T. Van Voorhis,  J. M. Herbert,  A. I. Krylov,  
 P. M. W. Gill,  M. Head-Gordon

 Contributors to earlier versions of Q-Chem not listed above: 
 R. D. Adamson,  B. Austin,  J. Baker,  G. J. O. Beran,  K. Brandhorst,  
 S. T. Brown,  E. F. C. Byrd,  A. K. Chakraborty,  C.-L. Cheng,  
 Siu Hung Chien,  D. M. Chipman,  D. L. Crittenden,  H. Dachsel,  
 R. J. Doerksen,  A. D. Dutoi,  L. Fusti-Molnar,  W. A. Goddard III,  
 A. Golubeva-Zadorozhnaya,  S. R. Gwaltney,  G. Hawkins,  A. Heyden,  
 S. Hirata,  G. Kedziora,  F. J. Keil,  C. Kelley,  Jihan Kim,  R. A. King,  
 R. Z. Khaliullin,  P. P. Korambath,  W. Kurlancheek,  A. M. Lee,  M. S. Lee,  
 S. V. Levchenko,  Ching Yeh Lin,  D. Liotard,  R. C. Lochan,  I. Lotan,  
 P. E. Maslen,  N. Nair,  D. P. O'Neill,  D. Neuhauser,  E. Neuscamman,  
 C. M. Oana,  R. Olson,  B. Peters,  R. Peverati,  P. A. Pieniazek,  
 Y. M. Rhee,  J. Ritchie,  M. A. Rohrdanz,  E. Rosta,  N. J. Russ,  
 H. F. Schaefer III,  N. E. Schultz,  N. Shenvi,  A. C. Simmonett,  A. Sodt,  
 D. Stuck,  K. S. Thanthiriwatte,  V. Vanovschi,  Tao Wang,  A. Warshel,  
 C. F. Williams,  Q. Wu,  X. Xu,  W. Zhang

 Please cite Q-Chem as follows:
 Y. Shao et al., Mol. Phys. 113, 184-215 (2015)
 DOI: 10.1080/00268976.2014.952696

 Q-Chem 5.2.0 for Intel X86 EM64T Linux

 Parts of Q-Chem use Armadillo 8.300.2 (Tropical Shenanigans).
 http://arma.sourceforge.net/

 Q-Chem begins on Sun Sep 26 21:41:42 2021  

Host: cori01
0

     Scratch files written to /tmp/qchem23669//Frg2//
 May1019 |scratch|qcdevops|jenkins|workspace|build_RNUM -1
Processing $rem in /global/common/cori/software/qchem/5.2/config/preferences:
	 MEM_TOTAL  96000 
NAlpha2: 44
NElect   44
Mult     1
Symmetry turned off for PCM/SM12/SMD calculation

Checking the input file for inconsistencies... 	...done.

--------------------------------------------------------------
User input:
--------------------------------------------------------------
$molecule
0 1
 6	3.1402233185	-1.2166731965	-1.7421369243
 6	1.0562233185	1.7463268035	-2.0681369243
 6	2.1712233185	-0.1466731965	-2.1701369243
 6	1.4272233185	-0.0316731965	-3.3071369243
 7	1.9152233185	0.9773268035	-1.4111369243
 7	0.7442233185	1.1623268035	-3.2201369243
 1	0.6682233185	2.6973268035	-1.7241369243
 1	0.0932233185	1.5403268035	-3.9001369243
 1	1.4002233185	-0.7436731965	-4.1191369243
 1	2.7482233185	-2.1806731965	-2.0641369243
 1	3.1992233185	-1.2296731965	-0.6531369243
 1	4.1488233185	-1.0799731965	-2.1593179243
$end
$rem
EDA2		1
METHOD		WB97X-V
BASIS		DEF2-TZVPD
XC_GRID		000099000590
NL_GRID		1
UNRESTRICTED		FALSE
MAX_SCF_CYCLES		200
SYMMETRY		FALSE
SYM_IGNORE		TRUE
BASIS_LIN_DEP_THRESH		6
THRESH		14
SCF_CONVERGENCE		8
SCF_PRINT_FRGM		TRUE
SOLVENT_METHOD		PCM
!required keywords
JOBTYPE		SP
SYM_IGNORE		TRUE
SUBSYSTEM		TRUE
GEN_SCFMAN		TRUE
CHILD_INSTRUCTION		2
SYM_IGNORE		TRUE
SCFMI		0
RI_K 0		
PARI_K 0		
MIN_PARI_K 0		
IARI_K 0		
OCC_RI_K 0		
PURECART		1111
MEM_STATIC		2000
MEM_TOTAL		96000
GUI		0
CHILD_MP		1
CHILD_MP_ORDERS		232
FRZ_RELAX		0
FRZ_RELAX_METHOD		0
EDA_CLS_ELEC		1
EDA_CLS_DISP		0
FRZ_ORTHO_DECOMP		1
EDA2		FALSE
FRGM_METHOD		FALSE
CIS_N_ROOTS  0
LOCAL_CIS    0
CIS_RLX_DNS  1
$end
$pcm
THEORY                  CPCM
METHOD                  SWIG
SOLVER                  INVERSION
RADII                   UFF
HPOINTS                 302
HEAVYPOINTS             302
PRINTLEVEL              0
$end
$solvent
DIELECTRIC              78.390000 ! water
$end
--------------------------------------------------------------
 ----------------------------------------------------------------
             Standard Nuclear Orientation (Angstroms)
    I     Atom           X                Y                Z
 ----------------------------------------------------------------
    1      C       3.1402233185    -1.2166731965    -1.7421369243
    2      C       1.0562233185     1.7463268035    -2.0681369243
    3      C       2.1712233185    -0.1466731965    -2.1701369243
    4      C       1.4272233185    -0.0316731965    -3.3071369243
    5      N       1.9152233185     0.9773268035    -1.4111369243
    6      N       0.7442233185     1.1623268035    -3.2201369243
    7      H       0.6682233185     2.6973268035    -1.7241369243
    8      H       0.0932233185     1.5403268035    -3.9001369243
    9      H       1.4002233185    -0.7436731965    -4.1191369243
   10      H       2.7482233185    -2.1806731965    -2.0641369243
   11      H       3.1992233185    -1.2296731965    -0.6531369243
   12      H       4.1488233185    -1.0799731965    -2.1593179243
 ----------------------------------------------------------------
 Nuclear Repulsion Energy =         224.38034788 hartrees
 There are       22 alpha and       22 beta electrons
 Requested basis set is def2-TZVPD
 There are 108 shells and 276 basis functions

 Total QAlloc Memory Limit  96000 MB
 Mega-Array Size      1956 MB
 MEM_STATIC part      2000 MB
 Discretize the solute cavity surface with Lebedev spheres
	Using 302 Lebedev grid points for each H atom
	Using 302 Lebedev grid points for other atoms
	Atomic van der Waals radii will be scaled by 1.20
 Remove points where switching function is < 1.0e-08
 Keep 1506 surface tesserae and discard 2118 interior tesserae
 Molecular Surface Area = 157.410 Angst**2

                       Distance Matrix (Angstroms)
             C (  1)   C (  2)   C (  3)   C (  4)   N (  5)   N (  6)
   C (  2)  3.637128
   C (  3)  1.505671  2.199336
   C (  4)  2.605344  2.198646  1.363646
   N (  5)  2.534526  1.326986  1.380215  2.202508
   N (  6)  3.685775  1.328723  2.202796  1.378294  2.162856
   H (  7)  4.629309  1.083181  3.247501  3.244905  2.147412  2.144765
   H (  8)  4.641360  2.079911  3.186997  2.145318  3.135566  1.014438
   H (  9)  2.983531  3.244231  2.179324  1.080286  3.249666  2.207119
   H ( 10)  1.089332  4.276004  2.116913  2.812168  3.330655  4.065464
   H ( 11)  1.090675  3.930808  2.128606  3.408651  2.663469  4.282310
   H ( 12)  1.100000  4.190520  2.186794  3.134251  3.127495  4.212428
             H (  7)   H (  8)   H (  9)   H ( 10)   H ( 11)
   H (  8)  2.530662
   H (  9)  4.255858  2.640618
   H ( 10)  5.313839  4.926029  2.846945
   H ( 11)  4.793155  5.278555  3.935194  1.760319
   H ( 12)  5.154799  5.132671  3.392461  1.783895  1.786822
 
 A cutoff of  1.0D-14 yielded   5735 shell pairs
 There are     38169 function pairs (     48948 Cartesian)
 Smallest overlap matrix eigenvalue = 1.89E-06

 Scale SEOQF with 1.000000e-01/1.000000e-01/1.000000e-01

 Standard Electronic Orientation quadrupole field applied
 Nucleus-field energy     =    -0.0000000182 hartrees
 Guess from superposition of atomic densities
 Warning:  Energy on first SCF cycle will be non-variational
 SAD guess density has 43.559167 electrons

 -----------------------------------------------------------------------
  General SCF calculation program by
  Eric Jon Sundstrom, Paul Horn, Yuezhi Mao, Dmitri Zuev, Alec White,
  David Stuck, Shaama M.S., Shane Yost, Joonho Lee, David Small,
  Daniel Levine, Susi Lehtola, Hugh Burton, Evgeny Epifanovsky
 -----------------------------------------------------------------------
 Exchange:     0.1670 Hartree-Fock + 1.0000 wB97X-V + LR-HF
 Correlation:  1.0000 wB97X-V
 Using Euler-Maclaurin-Lebedev (99,590) quadrature formula
 Nonlocal Correlation:  VV10 with C = 0.0100 and b = 6.00 and scale = 1.00000
 Grid used for NLC:  SG-1 standard quadrature
Energy prior to optimization (guess energy) = -265.144491072619
Begin Timing: Total SCF Calculation
begin iterations for algorithm: DIIS         
the SCF tolerance is set to 1.00e-08
    1    -265.1444910726      7.21e-03     00000 
    2    -265.0998590962      7.39e-03     00000 
    3    -265.5591714543      7.21e-04     00000 
    4    -265.5627229672      4.16e-04     00000 
    5    -265.5641451951      8.49e-05     00000 
    6    -265.5642296037      3.04e-05     00000 
    7    -265.5642425181      9.35e-06     00000 
    8    -265.5642439140      3.18e-06     00000 
    9    -265.5642441002      1.28e-06     00000 
   10    -265.5642441417      3.55e-07     00000 
   11    -265.5642441462      8.26e-08     00000 
   12    -265.5642441465      5.07e-08     00000 
   13    -265.5642441465      1.01e-08     00000 
   14    -265.5642441465      3.58e-09     00000 Convergence criterion met
Timing for Total SCF: 933.00s (wall), 1849.24s (cpu)

************** Final PCM Free Energy Summary **************
 G_electrostatic  =      -0.01065173 hartree =      -6.68406429 kcal/mol
 G_cavitation     =       0.00000000 hartree =       0.00000000 kcal/mol
 G_dispersion     =       0.00000000 hartree =       0.00000000 kcal/mol
 G_repulsion      =       0.00000000 hartree =       0.00000000 kcal/mol
 --------------------------------------------------
 Non-electrostatic Free Energy =       0.00000000 hartree =       0.00000000 kcal/mol
 Total                         =      -0.01065173 hartree =      -6.68406429 kcal/mol
 --------------------------------------------------
 SCF Energy (H0 + V/2)                       =    -265.56424415 
 Solute Internal Energy (H0)                 =    -265.55359241 
 Total Free Energy (H0 + V/2 + non-elec)     =    -265.56424415 hartree
                                             = -166644.07836089 kcal/mol
***********************************************************

E_pcm = -0.0106517345
Multipole orders to be included
        2
        3
computing dipole RHS
computing quadrupole RHS
total number of RHS in solve_reponses: 8
RHS batch sizes
        8
Beginning Block Conjugate Gradient Iterations. Batch Number: 0
computing hessian-vector products by finite difference
              1      5.93e-01     00000 Conjugate Gradient Iteration
computing hessian-vector products by finite difference
              2      1.97e-01     00000 Conjugate Gradient Iteration
computing hessian-vector products by finite difference
              3      4.57e-02     00000 Conjugate Gradient Iteration
computing hessian-vector products by finite difference
              4      1.33e-02     00000 Conjugate Gradient Iteration
computing hessian-vector products by finite difference
              5      2.86e-03     00000 Conjugate Gradient Iteration
computing hessian-vector products by finite difference
              6      5.25e-04     00000 Conjugate Gradient Iteration
computing hessian-vector products by finite difference
              7      9.30e-05     00000 Conjugate Gradient Iteration
computing hessian-vector products by finite difference
              8      1.57e-05     00000 Conjugate Gradient Iteration
computing hessian-vector products by finite difference
              9      2.29e-06     00000 Conjugate Gradient Iteration
computing hessian-vector products by finite difference
             10      4.25e-07     00000 Conjugate Gradient Iteration
computing hessian-vector products by finite difference
             11      6.41e-08     00000 Conjugate Gradient Iteration
computing hessian-vector products by finite difference
             12      1.00e-08     00000 CG Converged
batch 0 complete
Done Calculating Responses
TESTING ORTHOGONALIZATION OF MULTIPOLE BASIS
Multipole virts passed orthogonality test
Virts Per Order
           66
          110
 
 --------------------------------------------------------------
 
                    Orbital Energies (a.u.)
 --------------------------------------------------------------
 
 Alpha MOs
 -- Occupied --
-14.4680 -14.3879 -10.3223 -10.2905 -10.2882 -10.2652  -1.1569  -0.9985
 -0.8993  -0.8290  -0.7297  -0.6879  -0.6712  -0.5661  -0.5599  -0.5444
 -0.5157  -0.5008  -0.4820  -0.3802  -0.3752  -0.3248
 -- Virtual --
  0.0642   0.0818   0.0927   0.1007   0.1137   0.1243   0.1318   0.1423
  0.1656   0.1691   0.1741   0.1823   0.1944   0.1991   0.2210   0.2404
  0.2407   0.2493   0.2547   0.2567   0.2645   0.2870   0.2930   0.3016
  0.3057   0.3121   0.3170   0.3222   0.3277   0.3383   0.3445   0.3519
  0.3536   0.3631   0.3768   0.3779   0.3902   0.3919   0.4081   0.4154
  0.4159   0.4220   0.4299   0.4485   0.4559   0.4670   0.4723   0.4755
  0.4824   0.4885   0.4940   0.5141   0.5165   0.5422   0.5523   0.5572
  0.5639   0.5788   0.5835   0.5879   0.6027   0.6075   0.6146   0.6273
  0.6489   0.6577   0.6625   0.6801   0.6912   0.6981   0.7044   0.7249
  0.7319   0.7422   0.7650   0.7743   0.7794   0.7812   0.7839   0.7890
  0.8032   0.8161   0.8238   0.8327   0.8670   0.8744   0.8820   0.8943
  0.9130   0.9336   0.9554   0.9861   0.9988   1.0043   1.0156   1.0404
  1.0640   1.0750   1.0849   1.0912   1.1287   1.1687   1.1751   1.2069
  1.2235   1.2385   1.2716   1.3148   1.3379   1.3549   1.3828   1.4228
  1.4496   1.4578   1.5184   1.5552   1.6105   1.6298   1.6484   1.6760
  1.6926   1.7395   1.7987   1.8267   1.8359   1.8519   1.8637   1.8770
  1.9046   1.9334   1.9393   1.9464   1.9627   1.9912   1.9995   2.0066
  2.0311   2.0534   2.0899   2.1259   2.1824   2.2298   2.2439   2.2616
  2.2980   2.3013   2.3858   2.3975   2.4284   2.4520   2.4642   2.5046
  2.5289   2.5729   2.5755   2.6217   2.6370   2.6581   2.6821   2.7149
  2.7569   2.7610   2.7993   2.8246   2.8471   2.8861   2.9233   2.9857
  2.9981   3.0212   3.0471   3.0644   3.0863   3.1055   3.1365   3.1757
  3.1807   3.2104   3.2295   3.2403   3.2698   3.2934   3.3210   3.3284
  3.3492   3.3565   3.3814   3.4004   3.4155   3.4239   3.4667   3.4812
  3.4922   3.5294   3.5678   3.5898   3.6174   3.6581   3.6745   3.7053
  3.7390   3.7801   3.8231   3.8606   3.9016   3.9358   3.9624   4.0347
  4.0763   4.1080   4.1212   4.2367   4.2927   4.3527   4.4295   4.4605
  4.4993   4.5683   4.5914   4.7509   4.7620   4.8126   4.8209   4.8644
  4.9112   4.9571   5.0153   5.0369   5.0496   5.0856   5.1540   5.1978
  5.2344   5.3018   5.3724   5.4385   5.4829   5.5323   5.5747   5.5991
  5.6657   5.6962   5.7464   5.7919   5.8697   6.0301   6.2172   6.2880
 22.6066  22.8615  23.1196  23.3684  32.6431  32.7713
 --------------------------------------------------------------
 
          Ground-State Mulliken Net Atomic Charges

     Atom                 Charge (a.u.)
  ----------------------------------------
      1 C                    -0.761830
      2 C                    -0.234063
      3 C                     0.573729
      4 C                    -0.547530
      5 N                    -0.485010
      6 N                     0.094198
      7 H                     0.293970
      8 H                     0.170844
      9 H                     0.258070
     10 H                     0.233993
     11 H                     0.214021
     12 H                     0.189607
  ----------------------------------------
  Sum of atomic charges =     0.000000

 -----------------------------------------------------------------
                    Cartesian Multipole Moments
 -----------------------------------------------------------------
    Charge (ESU x 10^10)
                 0.0000
    Dipole Moment (Debye)
         X      -2.3549      Y       0.2251      Z      -3.8040
       Tot       4.4796
    Quadrupole Moments (Debye-Ang)
        XX     -41.3708     XY      -6.3380     YY     -30.9527
        XZ       1.4505     YZ      -4.1122     ZZ     -18.4992
    Octopole Moments (Debye-Ang^2)
       XXX    -203.8219    XXY     -29.3362    XYY     -67.9632
       YYY     -24.7458    XXZ      87.0779    XYZ      10.7157
       YYZ      66.6141    XZZ     -66.7736    YZZ       3.5907
       ZZZ     175.5606
    Hexadecapole Moments (Debye-Ang^3)
      XXXX    -914.5147   XXXY     -22.4275   XXYY    -220.9102
      XYYY      15.2288   YYYY    -289.1750   XXXZ     406.5699
      XXYZ      57.6571   XYYZ     136.9051   YYYZ      66.7501
      XXZZ    -380.8977   XYZZ     -24.2520   YYZZ    -221.9065
      XZZZ     412.8199   YZZZ      33.7498   ZZZZ   -1014.7752
 -----------------------------------------------------------------
Archival summary:
1\1\nid00507\SP\ProcedureUnspecified\BasisUnspecified\246\meili\MonSep2701:59:132021MonSep2701:59:132021\0\\#,ProcedureUnspecified,BasisUnspecified,\\0,1\N\C,1,1.32699\H,2,1.08318,1,125.692\N,2,1.32872,1,109.06,3,-179.939,0\H,4,1.01444,2,124.616,1,178.944,0\C,4,1.37829,2,108.61,1,0.135683,0\H,6,1.08029,4,127.302,2,-179.575,0\C,6,1.36365,4,106.905,2,-0.37636,0\C,8,1.50567,6,130.396,4,-177.821,0\H,9,1.08933,8,108.256,6,-37.8369,0\H,9,1.09067,8,109.093,6,-154.773,0\H,9,1.1,8,113.202,6,83.2923,0\\\@

 Total job time:  15454.43s(wall), 30688.66s(cpu) 
 Mon Sep 27 01:59:17 2021

        *************************************************************
        *                                                           *
        *  Thank you very much for using Q-Chem.  Have a nice day.  *
        *                                                           *
        *************************************************************


Done Job For Fragment 1
calling putenv with: QCSCRATCH=/global/cscratch1/sd/meili 
calling putenv with: QCLOCALSCR=/tmp 
calling putenv with: QCTHREADS=32 
Doing General SCFMI
 Exchange:     0.1670 Hartree-Fock + 1.0000 wB97X-V + LR-HF
 Correlation:  1.0000 wB97X-V
 Using Euler-Maclaurin-Lebedev (99,590) quadrature formula
 Nonlocal Correlation:  VV10 with C = 0.0100 and b = 6.00 and scale = 1.00000
 Grid used for NLC:  SG-1 standard quadrature
performing fock build before subrot guess so that all methods have access
Printing subrot_rss_gen Method Specification:
Occupied Subspace Method is 0
Virtual Subspace Method is 0
Energy of the unrelaxed supersystem initial determinant -537.133226604860
performing fock build before subrot guess so that all methods have access
Printing subrot_rss_gen Method Specification:
Occupied Subspace Method is 0
Virtual Subspace Method is 0
Energy of the unrelaxed supersystem initial determinant w/ solvent -537.147036202331
write pseudocanon occs and virts to disk
write pseudocanon orbital energies to disk
Tolerance of ortho_decomp_scf: 1.00e-06
GDM subspace size: 20
Beginning the Orthogonal Decomposition of the Initial Supersystem Wavefunction
    1    -537.1240280039      1.59e-02     ortho_decomp Preconditoned Steepest Descent
    2    -537.1249086048      3.92e-04     ortho_decomp BFGS Step
    3    -537.1249115296      3.14e-05     ortho_decomp BFGS Step
    4    -537.1249115353      1.31e-06     ortho_decomp BFGS Step
    5    -537.1249115353      5.11e-08     ortho_decomp 00000 Convergence criterion met
 Hartree-Fock
 Hartree-Fock
 Hartree-Fock
Doing General SCFMI
 Exchange:     0.1670 Hartree-Fock + 1.0000 wB97X-V + LR-HF
 Correlation:  1.0000 wB97X-V
 Using Euler-Maclaurin-Lebedev (99,590) quadrature formula
 Nonlocal Correlation:  VV10 with C = 0.0100 and b = 6.00 and scale = 1.00000
 Grid used for NLC:  SG-1 standard quadrature
performing fock build at end of subrot_r(subrot) constructor so that all methods have access
<S^2> of initial wavefunction before polarization iterations 0.0000000000
Beginning iterations for the determination of the polarized wavefunction
Energy prior to optimization (guess energy) = -537.147036202332
Begin Timing: Total SCF Calculation
begin iterations for algorithm: DIIS         
the SCF tolerance is set to 1.00e-08
    1    -537.1470362023      3.40e-05     00000 
    2    -537.1471362155      1.78e-05     00000 
    3    -537.1471497734      9.34e-06     00000 
    4    -537.1471546112      2.40e-06     00000 
    5    -537.1471549719      1.22e-06     00000 
    6    -537.1471550643      3.64e-07     00000 
    7    -537.1471550759      1.53e-07     00000 
    8    -537.1471550776      5.14e-08     00000 
    9    -537.1471550778      1.74e-08     00000 
   10    -537.1471550778      7.27e-09     00000 Convergence criterion met
write pseudocanon occs and virts to disk
write pseudocanon orbital energies to disk
Timing for Total SCF: 5936.00s (wall), 11822.54s (cpu)
<S^2> of polarized wavefunction after polarization iterations 0.0000000000
relaxing scfmi constraint to allow all rotations in the entire AO span
Doing General SCFMI
 Exchange:     0.1670 Hartree-Fock + 1.0000 wB97X-V + LR-HF
 Correlation:  1.0000 wB97X-V
 Using Euler-Maclaurin-Lebedev (99,590) quadrature formula
 Nonlocal Correlation:  VV10 with C = 0.0100 and b = 6.00 and scale = 1.00000
 Grid used for NLC:  SG-1 standard quadrature
performing fock build at end of subrot_r(subrot) constructor so that all methods have access
<S^2> of polarized wavefunction before ct-allowed iterations 0.0000000000
Beginning iterations for the determination of the CT-Allowed wavefunction
Energy prior to optimization (guess energy) = -537.147155077802
Begin Timing: Total SCF Calculation
begin iterations for algorithm: DIIS         
the SCF tolerance is set to 1.00e-08
    1    -537.1471550778      4.61e-05     00000 
    2    -537.1475102974      4.30e-06     00000 
    3    -537.1475202021      7.94e-07     00000 
    4    -537.1475205267      5.70e-07     00000 
    5    -537.1475205805      1.04e-07     00000 
    6    -537.1475205835      5.32e-08     00000 
    7    -537.1475205841      9.42e-09     00000 Convergence criterion met
write pseudocanon occs and virts to disk
write pseudocanon orbital energies to disk
Timing for Total SCF: 4005.00s (wall), 7976.40s (cpu)
<S^2> of ct_allowed wavefunction after ct-allowed iterations 0.0000000000

================================
        Results of EDA2         
================================
Basic EDA Quantities
--------------------
Fragment Energies (Ha):
1 -271.5807441040
2 -265.5642441465
--------------------
  E_prp (kJ/mol) = 0.0000
  E_sol (kJ/mol) = -1.9192
  E_frz (kJ/mol) = -3.4578
  E_pol (kJ/mol) = -0.3121
  E_vct (kJ/mol) = -0.9596
  E_int (kJ/mol) = -6.6487
--------------------


Initial Wavefunction Decomposition
--------------------
  --------------------
  Orthogonal Fragment Subspace Decomposition:
  --------------------
     E_elec   (ELEC)   (kJ/mol) = -6.9639
     E_pauli  (PAULI)  (kJ/mol) = 13.9547
     E_disp   (DISP)   (kJ/mol) = -10.4486
     --------------------
     Terms summing to E_pauli:
     --------------------
        E_kep_pauli       (kJ/mol) = 18.3737
        E_disp_free_pauli (kJ/mol) = -4.4190
  --------------------
  Classical Frozen Decomposition:
  --------------------
     E_cls_elec  (CLS ELEC)  (kJ/mol) = 0.0786
     E_cls_pauli (CLS PAULI) (kJ/mol) = -3.5364
    [E_mod_pauli (MOD PAULI) (kJ/mol) = 6.9123 (CLS PAULI - DISP from orthogonal decomposition) ]
  --------------------
--------------------

Simplified EDA Summary (kJ/mol)
--------------------
 PREPARATION     0.0000
 SOLVATION       -1.9192
 FROZEN          6.9909      (does not include dispersion)
[PAULI           13.9547]     (if this is negligible, then frozen describes electrostatics)
 DISPERSION      -10.4486
 POLARIZATION    -0.3121
 CHARGE TRANSFER -0.9596
 TOTAL           -6.6487     (PRP + SOL + FRZ + DISP + POL + CT)
--------------------
 
 --------------------------------------------------------------
 
                    Orbital Energies (a.u.)
 --------------------------------------------------------------
 
 Alpha MOs
 -- Occupied --
-14.4687 -14.3880 -10.3226 -10.2912 -10.2887 -10.2797 -10.2712 -10.2689
-10.2673 -10.2671 -10.2658 -10.2654 -10.2617  -1.1575  -0.9992  -0.9987
 -0.9084  -0.8997  -0.8793  -0.8294  -0.8134  -0.7307  -0.7300  -0.7052
 -0.6883  -0.6717  -0.6310  -0.5747  -0.5708  -0.5626  -0.5603  -0.5449
 -0.5360  -0.5293  -0.5166  -0.5145  -0.5011  -0.4869  -0.4822  -0.4731
 -0.4412  -0.4403  -0.3805  -0.3754  -0.3486  -0.3370  -0.3252
 -- Virtual --
  0.0568   0.0656   0.0679   0.0706   0.0739   0.0855   0.0887   0.0928
  0.1015   0.1094   0.1114   0.1159   0.1185   0.1258   0.1350   0.1420
  0.1493   0.1507   0.1625   0.1664   0.1673   0.1713   0.1754   0.1783
  0.1926   0.1951   0.2051   0.2114   0.2165   0.2235   0.2250   0.2305
  0.2321   0.2364   0.2436   0.2455   0.2478   0.2532   0.2555   0.2621
  0.2691   0.2718   0.2760   0.2817   0.2845   0.2875   0.2913   0.2954
  0.3010   0.3053   0.3072   0.3102   0.3112   0.3172   0.3186   0.3231
  0.3271   0.3302   0.3325   0.3354   0.3424   0.3437   0.3492   0.3505
  0.3571   0.3590   0.3626   0.3668   0.3669   0.3702   0.3724   0.3784
  0.3822   0.3852   0.3882   0.3898   0.3924   0.3985   0.4003   0.4013
  0.4044   0.4105   0.4163   0.4210   0.4247   0.4268   0.4341   0.4352
  0.4387   0.4428   0.4453   0.4480   0.4503   0.4567   0.4587   0.4665
  0.4688   0.4709   0.4741   0.4776   0.4807   0.4839   0.4883   0.4961
  0.4969   0.5066   0.5083   0.5165   0.5176   0.5212   0.5228   0.5291
  0.5326   0.5342   0.5415   0.5454   0.5506   0.5524   0.5541   0.5600
  0.5614   0.5665   0.5738   0.5763   0.5883   0.5893   0.5945   0.5980
  0.6054   0.6080   0.6102   0.6159   0.6197   0.6271   0.6335   0.6352
  0.6395   0.6465   0.6559   0.6600   0.6660   0.6684   0.6792   0.6842
  0.6884   0.6907   0.6966   0.6981   0.7121   0.7160   0.7196   0.7232
  0.7286   0.7306   0.7315   0.7462   0.7475   0.7518   0.7568   0.7624
  0.7682   0.7709   0.7799   0.7836   0.7896   0.7917   0.7948   0.7970
  0.8037   0.8045   0.8100   0.8128   0.8149   0.8174   0.8197   0.8249
  0.8282   0.8342   0.8368   0.8388   0.8479   0.8529   0.8609   0.8633
  0.8677   0.8736   0.8792   0.8839   0.8896   0.8930   0.8983   0.9032
  0.9046   0.9164   0.9190   0.9218   0.9301   0.9385   0.9480   0.9579
  0.9666   0.9694   0.9824   0.9928   0.9970   1.0075   1.0099   1.0176
  1.0327   1.0460   1.0474   1.0601   1.0647   1.0734   1.0835   1.0877
  1.0948   1.0991   1.1058   1.1155   1.1231   1.1292   1.1388   1.1518
  1.1705   1.1732   1.1801   1.1899   1.2024   1.2176   1.2268   1.2425
  1.2514   1.2615   1.2624   1.2858   1.2950   1.3105   1.3299   1.3444
  1.3602   1.3694   1.3702   1.3887   1.3985   1.4069   1.4204   1.4518
  1.4608   1.4661   1.4747   1.4787   1.4890   1.4915   1.5007   1.5440
  1.5533   1.5716   1.5784   1.6093   1.6206   1.6250   1.6377   1.6475
  1.6585   1.6690   1.6725   1.6962   1.7047   1.7158   1.7456   1.7596
  1.7806   1.7989   1.8035   1.8099   1.8280   1.8447   1.8496   1.8670
  1.8721   1.8862   1.8916   1.8939   1.9174   1.9285   1.9373   1.9440
  1.9508   1.9520   1.9624   1.9635   1.9784   1.9835   1.9909   1.9982
  2.0036   2.0220   2.0305   2.0386   2.0461   2.0502   2.0590   2.0692
  2.0785   2.0821   2.1018   2.1159   2.1272   2.1349   2.1448   2.1530
  2.1940   2.2026   2.2043   2.2186   2.2323   2.2451   2.2628   2.2684
  2.2719   2.2823   2.2864   2.3185   2.3280   2.3340   2.3485   2.3968
  2.4076   2.4188   2.4251   2.4332   2.4402   2.4462   2.4723   2.4790
  2.4904   2.5104   2.5444   2.5669   2.5824   2.5838   2.5948   2.6060
  2.6076   2.6343   2.6415   2.6473   2.6581   2.6693   2.6812   2.6960
  2.6997   2.7086   2.7218   2.7252   2.7483   2.7654   2.7755   2.7856
  2.7889   2.8034   2.8178   2.8329   2.8355   2.8548   2.8628   2.8727
  2.8744   2.8986   2.9161   2.9268   2.9327   2.9350   2.9431   2.9614
  2.9757   2.9905   3.0071   3.0110   3.0222   3.0290   3.0364   3.0451
  3.0676   3.0734   3.0915   3.0935   3.1059   3.1168   3.1211   3.1283
  3.1574   3.1683   3.1807   3.1909   3.1986   3.2090   3.2099   3.2315
  3.2419   3.2453   3.2557   3.2674   3.2885   3.2992   3.3147   3.3224
  3.3301   3.3365   3.3502   3.3565   3.3656   3.3720   3.3780   3.3860
  3.3959   3.4081   3.4120   3.4203   3.4394   3.4490   3.4563   3.4571
  3.4664   3.4738   3.4823   3.4938   3.4960   3.5088   3.5189   3.5233
  3.5324   3.5452   3.5551   3.5612   3.5682   3.5716   3.5806   3.5892
  3.5940   3.6125   3.6323   3.6340   3.6392   3.6534   3.6724   3.6777
  3.6914   3.7022   3.7057   3.7280   3.7312   3.7604   3.7859   3.8037
  3.8325   3.8407   3.8435   3.8718   3.9058   3.9161   3.9222   3.9441
  3.9655   3.9727   3.9769   3.9923   4.0479   4.0561   4.0823   4.0955
  4.1169   4.1294   4.1432   4.2212   4.2479   4.2865   4.2964   4.3024
  4.3155   4.3219   4.3346   4.3528   4.3683   4.3696   4.3914   4.4081
  4.4367   4.4418   4.4604   4.4678   4.4713   4.5063   4.5194   4.5579
  4.5765   4.5989   4.6210   4.6564   4.7583   4.7689   4.7739   4.7813
  4.8176   4.8296   4.8403   4.8820   4.8902   4.9182   4.9254   4.9677
  4.9708   5.0249   5.0511   5.0545   5.0590   5.0665   5.0940   5.1653
  5.1900   5.2254   5.2639   5.2925   5.3309   5.3841   5.4011   5.4068
  5.4521   5.4926   5.5059   5.5367   5.5446   5.5842   5.6112   5.6779
  5.6974   5.7176   5.7844   5.8114   5.8241   5.8795   6.0478   6.2207
  6.2937  22.6161  22.6190  22.6849  22.8888  22.9297  22.9462  23.0568
 23.1218  23.1405  23.3865  23.4643  32.6858  32.8150
 --------------------------------------------------------------
 
          Ground-State Mulliken Net Atomic Charges

     Atom                 Charge (a.u.)
  ----------------------------------------
      1 C                    -1.103199
      2 C                    -0.214153
      3 C                    -0.401011
      4 C                    -0.504322
      5 C                     0.688870
      6 C                    -0.445701
      7 C                    -0.419522
      8 H                     0.253214
      9 H                     0.345112
     10 H                     0.322524
     11 H                     0.325655
     12 H                     0.278727
     13 H                     0.211020
     14 H                     0.364430
     15 H                     0.279628
     16 C                    -0.836515
     17 C                    -0.299797
     18 C                     0.677473
     19 C                    -0.613019
     20 N                    -0.420870
     21 N                     0.131287
     22 H                     0.275894
     23 H                     0.174912
     24 H                     0.271187
     25 H                     0.242143
     26 H                     0.194714
     27 H                     0.221318
  ----------------------------------------
  Sum of atomic charges =     0.000000

 -----------------------------------------------------------------
                    Cartesian Multipole Moments
 -----------------------------------------------------------------
    Charge (ESU x 10^10)
                 0.0000
    Dipole Moment (Debye)
         X      -2.2394      Y      -0.1647      Z      -3.6169
       Tot       4.2572
    Quadrupole Moments (Debye-Ang)
        XX     -85.8508     XY      -8.0471     YY     -70.0003
        XZ      -1.3520     YZ      -6.1654     ZZ     -56.6193
    Octopole Moments (Debye-Ang^2)
       XXX       3.6081    XXY      -8.2694    XYY      -8.0001
       YYY      22.8011    XXZ       3.0896    XYZ       9.9325
       YYZ     -16.0037    XZZ     -14.9353    YZZ      13.3090
       ZZZ     -67.8927
    Hexadecapole Moments (Debye-Ang^3)
      XXXX   -1689.7440   XXXY     -61.7942   XXYY    -412.6892
      XYYY     -25.3696   YYYY    -780.4781   XXXZ     849.9156
      XXYZ     130.8019   XYYZ     272.2998   YYYZ     257.7410
      XXZZ    -725.9856   XYZZ     -34.3714   YYZZ    -544.7495
      XZZZ     795.9003   YZZZ     204.6806   ZZZZ   -2414.4694
 -----------------------------------------------------------------
Archival summary:
1\1\nid00507\SP\ProcedureUnspecified\BasisUnspecified\21114\meili\MonSep2707:23:112021MonSep2707:23:112021\0\\#,ProcedureUnspecified,BasisUnspecified,\\0,1\N\C,1,1.32699\H,2,1.08318,1,125.692\N,2,1.32872,1,109.06,3,-179.939,0\H,4,1.01444,2,124.616,1,178.944,0\C,4,1.37829,2,108.61,1,0.135683,0\H,6,1.08029,4,127.302,2,-179.575,0\C,6,1.36365,4,106.905,2,-0.37636,0\C,8,1.50567,6,130.396,4,-177.821,0\H,9,1.08933,8,108.256,6,-37.8369,0\H,9,1.09067,8,109.093,6,-154.773,0\H,9,1.1,8,113.202,6,83.2923,0\H,1,2.90491,2,81.5568,3,92.6658,0\C,13,1.08132,1,128.055,2,-106.294,0\C,14,1.38462,13,120.064,1,-105.901,0\H,15,1.08019,14,118.789,13,-0.56458,0\C,14,1.38563,13,120.09,1,75.0066,0\H,17,1.08163,14,119.989,13,-0.3234,0\C,17,1.38631,14,119.802,13,-179.692,0\H,19,1.07791,17,118.999,14,179.198,0\C,15,1.38764,14,120.807,13,179.223,0\C,19,1.38902,17,120.268,14,-0.894319,0\H,22,1.07287,19,120.578,17,177.949,0\C,21,1.49668,15,118.706,14,179.193,0\H,24,1.09133,21,108.141,15,19.7533,0\H,24,1.09183,21,107.837,15,-95.9484,0\H,24,1.1,21,116.089,15,141.711,0\\\@

 Total job time:  63477.90s(wall), 38743.53s(cpu) 
 Mon Sep 27 07:23:15 2021

        *************************************************************
        *                                                           *
        *  Thank you very much for using Q-Chem.  Have a nice day.  *
        *                                                           *
        *************************************************************


