
Running Job 1 of 1 SSI-043ASP-054HIE-1_SMD_TZVPD.in
qchem SSI-043ASP-054HIE-1_SMD_TZVPD.in_55709.0 /tmp/qchem55709/ 0
/global/common/cori/software/qchem/5.2/exe/qcprog.exe_s SSI-043ASP-054HIE-1_SMD_TZVPD.in_55709.0 /tmp/qchem55709/
                  Welcome to Q-Chem
     A Quantum Leap Into The Future Of Chemistry


 Q-Chem 5.2, Q-Chem, Inc., Pleasanton, CA (2019)

 License issued to: National Energy Research Scientific Computing Center

 Yihan Shao,  Zhengting Gan,  E. Epifanovsky,  A. T. B. Gilbert,  M. Wormit,  
 J. Kussmann,  A. W. Lange,  A. Behn,  Jia Deng,  Xintian Feng,  D. Ghosh,  
 M. Goldey,  P. R. Horn,  L. D. Jacobson,  I. Kaliman,  T. Kus,  A. Landau,  
 Jie Liu,  E. I. Proynov,  R. M. Richard,  R. P. Steele,  E. J. Sundstrom,  
 H. L. Woodcock III,  P. M. Zimmerman,  D. Zuev,  B. Albrecht,  E. Alguire,  
 S. A. Baeppler,  D. Barton,  Z. Benda,  Y. A. Bernard,  E. J. Berquist,  
 K. B. Bravaya,  H. Burton,  D. Casanova,  Chun-Min Chang,  Yunqing Chen,  
 A. Chien,  K. D. Closser,  M. P. Coons,  S. Coriani,  S. Dasgupta,  
 A. L. Dempwolff,  M. Diedenhofen,  Hainam Do,  R. G. Edgar,  Po-Tung Fang,  
 S. Faraji,  S. Fatehi,  Qingguo Feng,  K. D. Fenk,  J. Fosso-Tande,  
 J. Gayvert,  Qinghui Ge,  A. Ghysels,  G. Gidofalvi,  J. Gomes,  
 J. Gonthier,  A. Gunina,  D. Hait,  M. W. D. Hanson-Heine,  
 P. H. P. Harbach,  A. W. Hauser,  M. F. Herbst,  J. E. Herr,  
 E. G. Hohenstein,  Z. C. Holden,  Kerwin Hui,  B. C. Huynh,  T.-C. Jagau,  
 Hyunjun Ji,  B. Kaduk,  K. Khistyaev,  Jaehoon Kim,  P. Klunzinger,  K. Koh,  
 D. Kosenkov,  L. Koulias,  T. Kowalczyk,  C. M. Krauter,  A. Kunitsa,  
 Ka Un Lao,  A. Laurent,  K. V. Lawler,  Joonho Lee,  D. Lefrancois,  
 S. Lehtola,  D. S. Levine,  Yi-Pei Li,  You-Sheng Lin,  Fenglai Liu,  
 E. Livshits,  A. Luenser,  P. Manohar,  E. Mansoor,  S. F. Manzer,  
 Shan-Ping Mao,  Yuezhi Mao,  N. Mardirossian,  A. V. Marenich,  
 T. Markovich,  L. A. Martinez-Martinez,  S. A. Maurer,  N. J. Mayhall,  
 S. C. McKenzie,  J.-M. Mewes,  P. Morgante,  A. F. Morrison,  
 J. W. Mullinax,  K. Nanda,  T. S. Nguyen-Beck,  R. Olivares-Amaya,  
 J. A. Parkhill,  Zheng Pei,  T. M. Perrine,  F. Plasser,  P. Pokhilko,  
 S. Prager,  A. Prociuk,  E. Ramos,  D. R. Rehn,  F. Rob,  M. Scheurer,  
 M. Schneider,  N. Sergueev,  S. M. Sharada,  S. Sharma,  D. W. Small,  
 T. Stauch,  T. Stein,  Yu-Chuan Su,  A. J. W. Thom,  A. Tkatchenko,  
 T. Tsuchimochi,  N. M. Tubman,  L. Vogt,  M. L. Vidal,  O. Vydrov,  
 M. A. Watson,  J. Wenzel,  M. de Wergifosse,  T. A. Wesolowski,  A. White,  
 J. Witte,  A. Yamada,  Jun Yang,  K. Yao,  S. Yeganeh,  S. R. Yost,  
 Zhi-Qiang You,  A. Zech,  Igor Ying Zhang,  Xing Zhang,  Yan Zhao,  
 Ying Zhu,  B. R. Brooks,  G. K. L. Chan,  C. J. Cramer,  M. S. Gordon,  
 W. J. Hehre,  A. Klamt,  M. W. Schmidt,  C. D. Sherrill,  D. G. Truhlar,  
 A. Aspuru-Guzik,  R. Baer,  A. T. Bell,  N. A. Besley,  Jeng-Da Chai,  
 A. E. DePrince, III,  R. A. DiStasio Jr.,  A. Dreuw,  B. D. Dunietz,  
 T. R. Furlani,  Chao-Ping Hsu,  Yousung Jung,  Jing Kong,  D. S. Lambrecht,  
 WanZhen Liang,  C. Ochsenfeld,  V. A. Rassolov,  L. V. Slipchenko,  
 J. E. Subotnik,  T. Van Voorhis,  J. M. Herbert,  A. I. Krylov,  
 P. M. W. Gill,  M. Head-Gordon

 Contributors to earlier versions of Q-Chem not listed above: 
 R. D. Adamson,  B. Austin,  J. Baker,  G. J. O. Beran,  K. Brandhorst,  
 S. T. Brown,  E. F. C. Byrd,  A. K. Chakraborty,  C.-L. Cheng,  
 Siu Hung Chien,  D. M. Chipman,  D. L. Crittenden,  H. Dachsel,  
 R. J. Doerksen,  A. D. Dutoi,  L. Fusti-Molnar,  W. A. Goddard III,  
 A. Golubeva-Zadorozhnaya,  S. R. Gwaltney,  G. Hawkins,  A. Heyden,  
 S. Hirata,  G. Kedziora,  F. J. Keil,  C. Kelley,  Jihan Kim,  R. A. King,  
 R. Z. Khaliullin,  P. P. Korambath,  W. Kurlancheek,  A. M. Lee,  M. S. Lee,  
 S. V. Levchenko,  Ching Yeh Lin,  D. Liotard,  R. C. Lochan,  I. Lotan,  
 P. E. Maslen,  N. Nair,  D. P. O'Neill,  D. Neuhauser,  E. Neuscamman,  
 C. M. Oana,  R. Olson,  B. Peters,  R. Peverati,  P. A. Pieniazek,  
 Y. M. Rhee,  J. Ritchie,  M. A. Rohrdanz,  E. Rosta,  N. J. Russ,  
 H. F. Schaefer III,  N. E. Schultz,  N. Shenvi,  A. C. Simmonett,  A. Sodt,  
 D. Stuck,  K. S. Thanthiriwatte,  V. Vanovschi,  Tao Wang,  A. Warshel,  
 C. F. Williams,  Q. Wu,  X. Xu,  W. Zhang

 Please cite Q-Chem as follows:
 Y. Shao et al., Mol. Phys. 113, 184-215 (2015)
 DOI: 10.1080/00268976.2014.952696

 Q-Chem 5.2.0 for Intel X86 EM64T Linux

 Parts of Q-Chem use Armadillo 8.300.2 (Tropical Shenanigans).
 http://arma.sourceforge.net/

 Q-Chem begins on Sun Sep 26 07:30:12 2021  

Host: cori01
0

     Scratch files written to /tmp/qchem55709//
 May1019 |scratch|qcdevops|jenkins|workspace|build_RNUM -1
Processing $rem in /global/common/cori/software/qchem/5.2/config/preferences:
	 MEM_TOTAL  96000 
NAlpha2: 76
NElect   76
Mult     1
Symmetry turned off for PCM/SM12/SMD calculation

 Q-Chem warning in module libgen/rem_setup.C, line 2803:

 Neither GIA nor STOLL is specified by user. Use STOLL as the default


Checking the input file for inconsistencies... 	...done.

--------------------------------------------------------------
User input:
--------------------------------------------------------------
$comment
SSI-043ASP-054HIE-1.pdb
$end

$molecule
-1 1
--
-1 1
C   -4.097488184234   -0.384307113126   -0.951939532545
C   -2.601488184234   -0.589307113126   -0.738939532545
O   -1.821488184234    0.192692886874   -1.312939532545
O   -2.208488184234   -1.512307113126    0.009060467455
H   -4.308488184234   -0.269307113126   -2.016939532545
H   -4.395488184234    0.537692886874   -0.453939532545
H   -4.695436184234   -1.213395113126   -0.545650532545
--
0 1
C    3.230511815766    1.107692886874    2.182060467455
C    1.670511815766   -0.448307113126   -0.699939532545
C    1.038511815766    1.031692886874    0.798060467455
C    2.315511815766    0.665692886874    1.080060467455
N    0.663511815766    0.324692886874   -0.318939532545
N    2.694511815766   -0.261307113126    0.128060467455
H   -0.266488184234    0.319692886874   -0.735939532545
H    1.654511815766   -1.124307113126   -1.547939532545
H    0.438511815766    1.737692886874    1.351060467455
H    3.510511815766    0.224692886874    2.752060467455
H    2.691511815766    1.781692886874    2.850060467455
H    4.144076815766    1.599058886874    1.816057887455
$end

$rem
JOBTYPE			EDA
EDA2			1
method			wB97X-V
BASIS			def2-TZVPD
XC_GRID			000099000590
NL_GRID			1
UNRESTRICTED		FALSE
MAX_SCF_CYCLES		200
SYMMETRY		FALSE
SYM_IGNORE		TRUE
MEM_STATIC		2000
BASIS_LIN_DEP_THRESH 	6
THRESH 			14
SCF_CONVERGENCE 	8
SCF_PRINT_FRGM 		TRUE
SOLVENT_METHOD          SMD
$end

$SMX
SOLVENT			WATER
$END
--------------------------------------------------------------
 ----------------------------------------------------------------
             Standard Nuclear Orientation (Angstroms)
    I     Atom           X                Y                Z
 ----------------------------------------------------------------
    1      C      -4.0974881842    -0.3843071131    -0.9519395325
    2      C      -2.6014881842    -0.5893071131    -0.7389395325
    3      O      -1.8214881842     0.1926928869    -1.3129395325
    4      O      -2.2084881842    -1.5123071131     0.0090604675
    5      H      -4.3084881842    -0.2693071131    -2.0169395325
    6      H      -4.3954881842     0.5376928869    -0.4539395325
    7      H      -4.6954361842    -1.2133951131    -0.5456505325
    8      C       3.2305118158     1.1076928869     2.1820604675
    9      C       1.6705118158    -0.4483071131    -0.6999395325
   10      C       1.0385118158     1.0316928869     0.7980604675
   11      C       2.3155118158     0.6656928869     1.0800604675
   12      N       0.6635118158     0.3246928869    -0.3189395325
   13      N       2.6945118158    -0.2613071131     0.1280604675
   14      H      -0.2664881842     0.3196928869    -0.7359395325
   15      H       1.6545118158    -1.1243071131    -1.5479395325
   16      H       0.4385118158     1.7376928869     1.3510604675
   17      H       3.5105118158     0.2246928869     2.7520604675
   18      H       2.6915118158     1.7816928869     2.8500604675
   19      H       4.1440768158     1.5990588869     1.8160578875
 ----------------------------------------------------------------
 Nuclear Repulsion Energy =         489.21649810 hartrees
 There are       38 alpha and       38 beta electrons
 Requested basis set is def2-TZVPD
 There are 177 shells and 457 basis functions

 Total QAlloc Memory Limit  96000 MB
 Mega-Array Size      1956 MB
 MEM_STATIC part      2000 MB
 
 Citation of the SMD model:
 Marenich, A.V.; Cramer, C.J.; Truhlar, D.G.
 J. Phys. Chem. B 2009, 113, 6378-6396.
 iSolventCode=           1
 Solvent: water                                                           
 
 vradii
            1           2           3           4           5           6
    1   1.8500000   1.8500000   1.5200000   1.5200000   1.2000000   1.2000000
            7           8           9          10          11          12
    1   1.2000000   1.8500000   1.8500000   1.8500000   1.8500000   1.8900000
           13          14          15          16          17          18
    1   1.8900000   1.2000000   1.2000000   1.2000000   1.2000000   1.2000000
           19
    1   1.2000000
 Changing PCM_VDW_RADII to SMD_RADIUS
 Discretize the solute cavity surface with Lebedev spheres
	Using 110 Lebedev grid points for each H atom
	Using 194 Lebedev grid points for other atoms
	Atomic van der Waals radii will be scaled by 1.20
 Remove points where switching function is < 1.0e-08
 Keep 1498 surface tesserae and discard 1432 interior tesserae
 Molecular Surface Area = 186.330 Angst**2
 A cutoff of  1.0D-14 yielded  13687 shell pairs
 There are     92151 function pairs (    117357 Cartesian)
 Smallest overlap matrix eigenvalue = 1.29E-06

 Scale SEOQF with 1.000000e-01/1.000000e-01/1.000000e-01

 Standard Electronic Orientation quadrupole field applied
 Nucleus-field energy     =     0.0000000108 hartrees

 -----------------------------------------------------------------------
  General SCF calculation program by
  Eric Jon Sundstrom, Paul Horn, Yuezhi Mao, Dmitri Zuev, Alec White,
  David Stuck, Shaama M.S., Shane Yost, Joonho Lee, David Small,
  Daniel Levine, Susi Lehtola, Hugh Burton, Evgeny Epifanovsky
 -----------------------------------------------------------------------
================================================================
                 ALMO-EDA with the EDA2 driver                  
================================================================
 The second-generation ALMO-EDA (for DFT):                      
 P. R. Horn, Y. Mao and M. Head-Gordon, PCCP, 18, 23067 (2016)  
 Decomposition of the frozen energy:                            
 P. R. Horn, Y. Mao and M. Head-Gordon, JCP, 144, 114107 (2016) 
 FERF model for polarization:                                   
 P. R. Horn and M. Head-Gordon, JCP, 143, 114111 (2015)         
Using eda2 option set 1
Option set summary: Frozen orbital wavefunction, initial wavefunction decomposition, and nDQ polarization.
--------------------------------
Printing EDA Options
--------------------------------
eda_child_super_basis      0
fragmo_guess_mode          0
child_mp                   1
child_mp_orders            232
cls_elec                   1
cls_disp                   0
scfmi_mode                 1
scfmi_occs                 0
scfmi_virts                0
frz_relax                  0
frz_relax_method           0
dc_pen_start               0
dc_pen_conv                0
dc_pen_increment           0
dc_pen_steps               0
dc_pen_thresh_factor       0
dc_pen_pre_newton_thresh   0
frz_ortho_decomp           1
frz_ortho_decomp_conv      6
frgm_method                2
scfmi_freeze_ss            0
separate_rehyb             0
plot_diff_den              0
eda_nocv                   0
eda_vct_relax              1
disp_free_x                0
disp_free_c                0
eda_bsse                   0
eda_pct_a                  0
eda_covp                   0
--------------------------------
Attempting to make child job directory: /tmp/qchem55709//Frg1/
Attempting to make child job directory: /tmp/qchem55709//Frg2/
Creating input file /tmp/qchem55709/Frg1.input
using default PutDataFrgm: nothing
calling putenv with: QCSCRATCH=/tmp/qchem55709/ 
calling putenv with: QCLOCALSCR=/tmp/qchem55709/ 
Spawning Job For Fragment 0
                  Welcome to Q-Chem
     A Quantum Leap Into The Future Of Chemistry


 Q-Chem 5.2, Q-Chem, Inc., Pleasanton, CA (2019)

 License issued to: National Energy Research Scientific Computing Center

 Yihan Shao,  Zhengting Gan,  E. Epifanovsky,  A. T. B. Gilbert,  M. Wormit,  
 J. Kussmann,  A. W. Lange,  A. Behn,  Jia Deng,  Xintian Feng,  D. Ghosh,  
 M. Goldey,  P. R. Horn,  L. D. Jacobson,  I. Kaliman,  T. Kus,  A. Landau,  
 Jie Liu,  E. I. Proynov,  R. M. Richard,  R. P. Steele,  E. J. Sundstrom,  
 H. L. Woodcock III,  P. M. Zimmerman,  D. Zuev,  B. Albrecht,  E. Alguire,  
 S. A. Baeppler,  D. Barton,  Z. Benda,  Y. A. Bernard,  E. J. Berquist,  
 K. B. Bravaya,  H. Burton,  D. Casanova,  Chun-Min Chang,  Yunqing Chen,  
 A. Chien,  K. D. Closser,  M. P. Coons,  S. Coriani,  S. Dasgupta,  
 A. L. Dempwolff,  M. Diedenhofen,  Hainam Do,  R. G. Edgar,  Po-Tung Fang,  
 S. Faraji,  S. Fatehi,  Qingguo Feng,  K. D. Fenk,  J. Fosso-Tande,  
 J. Gayvert,  Qinghui Ge,  A. Ghysels,  G. Gidofalvi,  J. Gomes,  
 J. Gonthier,  A. Gunina,  D. Hait,  M. W. D. Hanson-Heine,  
 P. H. P. Harbach,  A. W. Hauser,  M. F. Herbst,  J. E. Herr,  
 E. G. Hohenstein,  Z. C. Holden,  Kerwin Hui,  B. C. Huynh,  T.-C. Jagau,  
 Hyunjun Ji,  B. Kaduk,  K. Khistyaev,  Jaehoon Kim,  P. Klunzinger,  K. Koh,  
 D. Kosenkov,  L. Koulias,  T. Kowalczyk,  C. M. Krauter,  A. Kunitsa,  
 Ka Un Lao,  A. Laurent,  K. V. Lawler,  Joonho Lee,  D. Lefrancois,  
 S. Lehtola,  D. S. Levine,  Yi-Pei Li,  You-Sheng Lin,  Fenglai Liu,  
 E. Livshits,  A. Luenser,  P. Manohar,  E. Mansoor,  S. F. Manzer,  
 Shan-Ping Mao,  Yuezhi Mao,  N. Mardirossian,  A. V. Marenich,  
 T. Markovich,  L. A. Martinez-Martinez,  S. A. Maurer,  N. J. Mayhall,  
 S. C. McKenzie,  J.-M. Mewes,  P. Morgante,  A. F. Morrison,  
 J. W. Mullinax,  K. Nanda,  T. S. Nguyen-Beck,  R. Olivares-Amaya,  
 J. A. Parkhill,  Zheng Pei,  T. M. Perrine,  F. Plasser,  P. Pokhilko,  
 S. Prager,  A. Prociuk,  E. Ramos,  D. R. Rehn,  F. Rob,  M. Scheurer,  
 M. Schneider,  N. Sergueev,  S. M. Sharada,  S. Sharma,  D. W. Small,  
 T. Stauch,  T. Stein,  Yu-Chuan Su,  A. J. W. Thom,  A. Tkatchenko,  
 T. Tsuchimochi,  N. M. Tubman,  L. Vogt,  M. L. Vidal,  O. Vydrov,  
 M. A. Watson,  J. Wenzel,  M. de Wergifosse,  T. A. Wesolowski,  A. White,  
 J. Witte,  A. Yamada,  Jun Yang,  K. Yao,  S. Yeganeh,  S. R. Yost,  
 Zhi-Qiang You,  A. Zech,  Igor Ying Zhang,  Xing Zhang,  Yan Zhao,  
 Ying Zhu,  B. R. Brooks,  G. K. L. Chan,  C. J. Cramer,  M. S. Gordon,  
 W. J. Hehre,  A. Klamt,  M. W. Schmidt,  C. D. Sherrill,  D. G. Truhlar,  
 A. Aspuru-Guzik,  R. Baer,  A. T. Bell,  N. A. Besley,  Jeng-Da Chai,  
 A. E. DePrince, III,  R. A. DiStasio Jr.,  A. Dreuw,  B. D. Dunietz,  
 T. R. Furlani,  Chao-Ping Hsu,  Yousung Jung,  Jing Kong,  D. S. Lambrecht,  
 WanZhen Liang,  C. Ochsenfeld,  V. A. Rassolov,  L. V. Slipchenko,  
 J. E. Subotnik,  T. Van Voorhis,  J. M. Herbert,  A. I. Krylov,  
 P. M. W. Gill,  M. Head-Gordon

 Contributors to earlier versions of Q-Chem not listed above: 
 R. D. Adamson,  B. Austin,  J. Baker,  G. J. O. Beran,  K. Brandhorst,  
 S. T. Brown,  E. F. C. Byrd,  A. K. Chakraborty,  C.-L. Cheng,  
 Siu Hung Chien,  D. M. Chipman,  D. L. Crittenden,  H. Dachsel,  
 R. J. Doerksen,  A. D. Dutoi,  L. Fusti-Molnar,  W. A. Goddard III,  
 A. Golubeva-Zadorozhnaya,  S. R. Gwaltney,  G. Hawkins,  A. Heyden,  
 S. Hirata,  G. Kedziora,  F. J. Keil,  C. Kelley,  Jihan Kim,  R. A. King,  
 R. Z. Khaliullin,  P. P. Korambath,  W. Kurlancheek,  A. M. Lee,  M. S. Lee,  
 S. V. Levchenko,  Ching Yeh Lin,  D. Liotard,  R. C. Lochan,  I. Lotan,  
 P. E. Maslen,  N. Nair,  D. P. O'Neill,  D. Neuhauser,  E. Neuscamman,  
 C. M. Oana,  R. Olson,  B. Peters,  R. Peverati,  P. A. Pieniazek,  
 Y. M. Rhee,  J. Ritchie,  M. A. Rohrdanz,  E. Rosta,  N. J. Russ,  
 H. F. Schaefer III,  N. E. Schultz,  N. Shenvi,  A. C. Simmonett,  A. Sodt,  
 D. Stuck,  K. S. Thanthiriwatte,  V. Vanovschi,  Tao Wang,  A. Warshel,  
 C. F. Williams,  Q. Wu,  X. Xu,  W. Zhang

 Please cite Q-Chem as follows:
 Y. Shao et al., Mol. Phys. 113, 184-215 (2015)
 DOI: 10.1080/00268976.2014.952696

 Q-Chem 5.2.0 for Intel X86 EM64T Linux

 Parts of Q-Chem use Armadillo 8.300.2 (Tropical Shenanigans).
 http://arma.sourceforge.net/

 Q-Chem begins on Sun Sep 26 07:30:15 2021  

Host: cori01
0

     Scratch files written to /tmp/qchem55709//Frg1//
 May1019 |scratch|qcdevops|jenkins|workspace|build_RNUM -1
Processing $rem in /global/common/cori/software/qchem/5.2/config/preferences:
	 MEM_TOTAL  96000 
NAlpha2: 32
NElect   32
Mult     1
Symmetry turned off for PCM/SM12/SMD calculation

Checking the input file for inconsistencies... 	...done.

--------------------------------------------------------------
User input:
--------------------------------------------------------------
$molecule
-1 1
 6	-4.0974881842	-0.3843071131	-0.9519395325
 6	-2.6014881842	-0.5893071131	-0.7389395325
 8	-1.8214881842	0.1926928869	-1.3129395325
 8	-2.2084881842	-1.5123071131	0.0090604675
 1	-4.3084881842	-0.2693071131	-2.0169395325
 1	-4.3954881842	0.5376928869	-0.4539395325
 1	-4.6954361842	-1.2133951131	-0.5456505325
$end
$rem
EDA2		1
METHOD		WB97X-V
BASIS		DEF2-TZVPD
XC_GRID		000099000590
NL_GRID		1
UNRESTRICTED		FALSE
MAX_SCF_CYCLES		200
SYMMETRY		FALSE
SYM_IGNORE		TRUE
BASIS_LIN_DEP_THRESH		6
THRESH		14
SCF_CONVERGENCE		8
SCF_PRINT_FRGM		TRUE
SOLVENT_METHOD		SMD
!required keywords
JOBTYPE		SP
SYM_IGNORE		TRUE
SUBSYSTEM		TRUE
GEN_SCFMAN		TRUE
CHILD_INSTRUCTION		2
SYM_IGNORE		TRUE
SCFMI		0
RI_K 0		
PARI_K 0		
MIN_PARI_K 0		
IARI_K 0		
OCC_RI_K 0		
PURECART		1111
MEM_STATIC		2000
MEM_TOTAL		96000
GUI		0
CHILD_MP		1
CHILD_MP_ORDERS		232
FRZ_RELAX		0
FRZ_RELAX_METHOD		0
EDA_CLS_ELEC		1
EDA_CLS_DISP		0
FRZ_ORTHO_DECOMP		1
EDA2		FALSE
FRGM_METHOD		FALSE
CIS_N_ROOTS  0
LOCAL_CIS    0
CIS_RLX_DNS  1
$end
$smx
SOLVENT			WATER
$end
--------------------------------------------------------------
 ----------------------------------------------------------------
             Standard Nuclear Orientation (Angstroms)
    I     Atom           X                Y                Z
 ----------------------------------------------------------------
    1      C      -4.0974881842    -0.3843071131    -0.9519395325
    2      C      -2.6014881842    -0.5893071131    -0.7389395325
    3      O      -1.8214881842     0.1926928869    -1.3129395325
    4      O      -2.2084881842    -1.5123071131     0.0090604675
    5      H      -4.3084881842    -0.2693071131    -2.0169395325
    6      H      -4.3954881842     0.5376928869    -0.4539395325
    7      H      -4.6954361842    -1.2133951131    -0.5456505325
 ----------------------------------------------------------------
 Nuclear Repulsion Energy =         112.75511416 hartrees
 There are       16 alpha and       16 beta electrons
 Requested basis set is def2-TZVPD
 There are 69 shells and 181 basis functions

 Total QAlloc Memory Limit  96000 MB
 Mega-Array Size      1956 MB
 MEM_STATIC part      2000 MB
 
 Citation of the SMD model:
 Marenich, A.V.; Cramer, C.J.; Truhlar, D.G.
 J. Phys. Chem. B 2009, 113, 6378-6396.
 iSolventCode=           1
 Solvent: water                                                           
 
 vradii
            1           2           3           4           5           6
    1   1.8500000   1.8500000   1.5200000   1.5200000   1.2000000   1.2000000
            7
    1   1.2000000
 Changing PCM_VDW_RADII to SMD_RADIUS
 Discretize the solute cavity surface with Lebedev spheres
	Using 110 Lebedev grid points for each H atom
	Using 194 Lebedev grid points for other atoms
	Atomic van der Waals radii will be scaled by 1.20
 Remove points where switching function is < 1.0e-08
 Keep 640 surface tesserae and discard 466 interior tesserae
 Molecular Surface Area = 79.915 Angst**2

                       Distance Matrix (Angstroms)
             C (  1)   C (  2)   O (  3)   O (  4)   H (  5)   H (  6)
   C (  2)  1.524930
   O (  3)  2.375590  1.244749
   O (  4)  2.400880  1.251352  2.191912
   H (  5)  1.091774  2.156278  2.625686  3.171707
   H (  6)  1.089446  2.137707  2.735394  3.033123  1.761189
   H (  7)  1.100000  2.193505  3.290196  2.565534  1.790453  1.778957

 
 A cutoff of  1.0D-14 yielded   2391 shell pairs
 There are     16695 function pairs (     21491 Cartesian)
 Smallest overlap matrix eigenvalue = 1.67E-05

 Scale SEOQF with 1.000000e-01/1.000000e-01/1.000000e-01

 Standard Electronic Orientation quadrupole field applied
 Nucleus-field energy     =     0.0000000083 hartrees
 Guess from superposition of atomic densities
 Warning:  Energy on first SCF cycle will be non-variational
 SAD guess density has 30.625312 electrons

 -----------------------------------------------------------------------
  General SCF calculation program by
  Eric Jon Sundstrom, Paul Horn, Yuezhi Mao, Dmitri Zuev, Alec White,
  David Stuck, Shaama M.S., Shane Yost, Joonho Lee, David Small,
  Daniel Levine, Susi Lehtola, Hugh Burton, Evgeny Epifanovsky
 -----------------------------------------------------------------------
 Exchange:     0.1670 Hartree-Fock + 1.0000 wB97X-V + LR-HF
 Correlation:  1.0000 wB97X-V
 Using Euler-Maclaurin-Lebedev (99,590) quadrature formula
 Nonlocal Correlation:  VV10 with C = 0.0100 and b = 6.00 and scale = 1.00000
 Grid used for NLC:  SG-1 standard quadrature
Energy prior to optimization (guess energy) = -227.765405216259
Begin Timing: Total SCF Calculation
begin iterations for algorithm: DIIS         
the SCF tolerance is set to 1.00e-08
    1    -227.7654052163      1.66e-02     00000 
    2    -225.6407622198      2.49e-02     00000 
    3    -228.6062881996      4.09e-03     00000 
    4    -228.6589604156      1.46e-03     00000 
    5    -228.6652137197      4.00e-04     00000 
    6    -228.6656299991      2.38e-04     00000 
    7    -228.6657889958      4.53e-05     00000 
    8    -228.6657979981      1.33e-05     00000 
    9    -228.6657991212      3.84e-06     00000 
   10    -228.6657992325      1.12e-06     00000 
   11    -228.6657992431      2.24e-07     00000 
   12    -228.6657992435      4.92e-08     00000 
   13    -228.6657992435      1.24e-08     00000 
   14    -228.6657992435      3.17e-09     00000 Convergence criterion met
Timing for Total SCF: 296.00s (wall), 582.85s (cpu)
(3)  G-ENP(liq) elect-nuc-pol free energy of system     -228.665799244 a.u.
(4)  G-CDS(liq) cavity-dispersion-solvent structure 
     free energy                                                3.9248 kcal/mol
(6)  G-S(liq) free energy of system                     -228.659544755 a.u.
E_pcm = -0.1308827063
E_cds = 0.0062544886
Multipole orders to be included
        2
        3
computing dipole RHS
computing quadrupole RHS
total number of RHS in solve_reponses: 8
RHS batch sizes
        8
Beginning Block Conjugate Gradient Iterations. Batch Number: 0
computing hessian-vector products by finite difference
              1      6.83e-01     00000 Conjugate Gradient Iteration
computing hessian-vector products by finite difference
              2      2.05e-01     00000 Conjugate Gradient Iteration
computing hessian-vector products by finite difference
              3      5.57e-02     00000 Conjugate Gradient Iteration
computing hessian-vector products by finite difference
              4      1.48e-02     00000 Conjugate Gradient Iteration
computing hessian-vector products by finite difference
              5      2.18e-03     00000 Conjugate Gradient Iteration
computing hessian-vector products by finite difference
              6      5.72e-04     00000 Conjugate Gradient Iteration
computing hessian-vector products by finite difference
              7      8.09e-05     00000 Conjugate Gradient Iteration
computing hessian-vector products by finite difference
              8      9.89e-06     00000 Conjugate Gradient Iteration
computing hessian-vector products by finite difference
              9      1.52e-06     00000 Conjugate Gradient Iteration
computing hessian-vector products by finite difference
             10      1.51e-07     00000 Conjugate Gradient Iteration
computing hessian-vector products by finite difference
             11      2.22e-08     00000 Conjugate Gradient Iteration
computing hessian-vector products by finite difference
             12      6.62e-09     00000 CG Converged
batch 0 complete
Done Calculating Responses
TESTING ORTHOGONALIZATION OF MULTIPOLE BASIS
Multipole virts passed orthogonality test
Virts Per Order
        48
        80
 
 --------------------------------------------------------------
 
                    Orbital Energies (a.u.)
 --------------------------------------------------------------
 
 Alpha MOs
 -- Occupied --
-19.1527 -19.1523 -10.3534 -10.2465  -1.1672  -1.0664  -0.8396  -0.6172
 -0.5476  -0.5468  -0.5418  -0.4827  -0.4631  -0.3657  -0.3575  -0.3449
 -- Virtual --
  0.0671   0.0999   0.1007   0.1077   0.1352   0.1446   0.1458   0.1500
  0.1575   0.1908   0.2029   0.2250   0.2337   0.2387   0.2603   0.2652
  0.2990   0.3148   0.3333   0.3466   0.3530   0.3620   0.3712   0.3841
  0.3869   0.3985   0.4152   0.4252   0.4289   0.4551   0.4669   0.4732
  0.4827   0.4901   0.5041   0.5101   0.5476   0.5619   0.5816   0.6005
  0.6114   0.6257   0.6279   0.6449   0.6566   0.6672   0.6817   0.6962
  0.7077   0.7245   0.7712   0.7928   0.8073   0.8113   0.8348   0.8468
  0.8618   0.9551   0.9701   0.9790   0.9857   1.0321   1.0400   1.1042
  1.1490   1.1928   1.2419   1.2625   1.2760   1.3010   1.3314   1.3467
  1.4364   1.5539   1.5829   1.7343   1.8056   1.8435   1.8551   1.8969
  1.9081   1.9391   1.9506   1.9568   2.0084   2.0969   2.1136   2.1549
  2.1939   2.2037   2.2961   2.3214   2.3990   2.4266   2.4608   2.4823
  2.5664   2.5733   2.6086   2.6534   2.7781   2.8073   2.8715   2.9099
  2.9358   2.9870   3.0161   3.1630   3.1894   3.2408   3.2592   3.2981
  3.3277   3.3354   3.3820   3.3945   3.4170   3.5175   3.5472   3.5622
  3.5902   3.6430   3.6833   3.7179   3.7546   3.8634   3.9358   4.0346
  4.0712   4.1777   4.3425   4.5520   4.6066   4.6522   4.7714   4.8089
  4.9745   5.2966   5.3235   5.3337   5.3406   5.4698   5.6859   5.7449
  5.7955   6.0010   6.2149   6.3165   6.3300   6.5973   6.5994   6.6899
  6.7130   6.7278   6.9306   6.9467   7.0115   7.2190   7.3266   7.3610
  7.3863  22.5855  23.7327  44.1910  44.3245
 --------------------------------------------------------------
 
          Ground-State Mulliken Net Atomic Charges

     Atom                 Charge (a.u.)
  ----------------------------------------
      1 C                    -0.590851
      2 C                     0.501348
      3 O                    -0.770332
      4 O                    -0.772362
      5 H                     0.217138
      6 H                     0.198211
      7 H                     0.216847
  ----------------------------------------
  Sum of atomic charges =    -1.000000

 -----------------------------------------------------------------
                    Cartesian Multipole Moments
 -----------------------------------------------------------------
    Charge (ESU x 10^10)
                -4.8032
    Dipole Moment (Debye)
         X       7.4275      Y       3.5357      Z       2.7815
       Tot       8.6837
    Quadrupole Moments (Debye-Ang)
        XX     -34.9694     XY      -7.4095     YY     -34.1732
        XZ      -2.8242     YZ       3.0831     ZZ     -30.5309
    Octopole Moments (Debye-Ang^2)
       XXX     214.8880    XXY      29.7209    XYY      88.6325
       YYY      57.1097    XXZ      18.5162    XYZ      -7.3006
       YYZ      18.8288    XZZ      77.2435    YZZ      11.1503
       ZZZ      64.6759
    Hexadecapole Moments (Debye-Ang^3)
      XXXX   -1304.8449   XXXY    -145.7894   XXYY    -284.0647
      XYYY    -147.4535   YYYY    -168.3211   XXXZ    -147.5124
      XXYZ      14.9145   XYYZ     -53.9509   YYYZ      -6.6685
      XXZZ    -255.4661   XYZZ     -31.6966   YYZZ     -51.4298
      XZZZ    -171.4171   YZZZ      -3.3050   ZZZZ    -168.2717
 -----------------------------------------------------------------
Archival summary:
1\1\nid00522\SP\ProcedureUnspecified\BasisUnspecified\223(1-,1)\meili\SunSep2608:51:072021SunSep2608:51:072021\0\\#,ProcedureUnspecified,BasisUnspecified,\\-1,1\C\O,1,1.24475\O,1,1.25135,2,122.836\C,1,1.52493,2,117.767,3,179.042,0\H,4,1.08945,1,108.558,2,-69.2089,0\H,4,1.09177,1,109.878,2,48.3238,0\H,4,1.1,1,112.356,2,170.562,0\\\@

 Total job time:  4851.88s(wall), 9422.39s(cpu) 
 Sun Sep 26 08:51:07 2021

        *************************************************************
        *                                                           *
        *  Thank you very much for using Q-Chem.  Have a nice day.  *
        *                                                           *
        *************************************************************


Done Job For Fragment 0
calling putenv with: QCSCRATCH=/global/cscratch1/sd/meili 
calling putenv with: QCLOCALSCR=/tmp 
calling putenv with: QCTHREADS=32 
Creating input file /tmp/qchem55709/Frg2.input
using default PutDataFrgm: nothing
calling putenv with: QCSCRATCH=/tmp/qchem55709/ 
calling putenv with: QCLOCALSCR=/tmp/qchem55709/ 
Spawning Job For Fragment 1
                  Welcome to Q-Chem
     A Quantum Leap Into The Future Of Chemistry


 Q-Chem 5.2, Q-Chem, Inc., Pleasanton, CA (2019)

 License issued to: National Energy Research Scientific Computing Center

 Yihan Shao,  Zhengting Gan,  E. Epifanovsky,  A. T. B. Gilbert,  M. Wormit,  
 J. Kussmann,  A. W. Lange,  A. Behn,  Jia Deng,  Xintian Feng,  D. Ghosh,  
 M. Goldey,  P. R. Horn,  L. D. Jacobson,  I. Kaliman,  T. Kus,  A. Landau,  
 Jie Liu,  E. I. Proynov,  R. M. Richard,  R. P. Steele,  E. J. Sundstrom,  
 H. L. Woodcock III,  P. M. Zimmerman,  D. Zuev,  B. Albrecht,  E. Alguire,  
 S. A. Baeppler,  D. Barton,  Z. Benda,  Y. A. Bernard,  E. J. Berquist,  
 K. B. Bravaya,  H. Burton,  D. Casanova,  Chun-Min Chang,  Yunqing Chen,  
 A. Chien,  K. D. Closser,  M. P. Coons,  S. Coriani,  S. Dasgupta,  
 A. L. Dempwolff,  M. Diedenhofen,  Hainam Do,  R. G. Edgar,  Po-Tung Fang,  
 S. Faraji,  S. Fatehi,  Qingguo Feng,  K. D. Fenk,  J. Fosso-Tande,  
 J. Gayvert,  Qinghui Ge,  A. Ghysels,  G. Gidofalvi,  J. Gomes,  
 J. Gonthier,  A. Gunina,  D. Hait,  M. W. D. Hanson-Heine,  
 P. H. P. Harbach,  A. W. Hauser,  M. F. Herbst,  J. E. Herr,  
 E. G. Hohenstein,  Z. C. Holden,  Kerwin Hui,  B. C. Huynh,  T.-C. Jagau,  
 Hyunjun Ji,  B. Kaduk,  K. Khistyaev,  Jaehoon Kim,  P. Klunzinger,  K. Koh,  
 D. Kosenkov,  L. Koulias,  T. Kowalczyk,  C. M. Krauter,  A. Kunitsa,  
 Ka Un Lao,  A. Laurent,  K. V. Lawler,  Joonho Lee,  D. Lefrancois,  
 S. Lehtola,  D. S. Levine,  Yi-Pei Li,  You-Sheng Lin,  Fenglai Liu,  
 E. Livshits,  A. Luenser,  P. Manohar,  E. Mansoor,  S. F. Manzer,  
 Shan-Ping Mao,  Yuezhi Mao,  N. Mardirossian,  A. V. Marenich,  
 T. Markovich,  L. A. Martinez-Martinez,  S. A. Maurer,  N. J. Mayhall,  
 S. C. McKenzie,  J.-M. Mewes,  P. Morgante,  A. F. Morrison,  
 J. W. Mullinax,  K. Nanda,  T. S. Nguyen-Beck,  R. Olivares-Amaya,  
 J. A. Parkhill,  Zheng Pei,  T. M. Perrine,  F. Plasser,  P. Pokhilko,  
 S. Prager,  A. Prociuk,  E. Ramos,  D. R. Rehn,  F. Rob,  M. Scheurer,  
 M. Schneider,  N. Sergueev,  S. M. Sharada,  S. Sharma,  D. W. Small,  
 T. Stauch,  T. Stein,  Yu-Chuan Su,  A. J. W. Thom,  A. Tkatchenko,  
 T. Tsuchimochi,  N. M. Tubman,  L. Vogt,  M. L. Vidal,  O. Vydrov,  
 M. A. Watson,  J. Wenzel,  M. de Wergifosse,  T. A. Wesolowski,  A. White,  
 J. Witte,  A. Yamada,  Jun Yang,  K. Yao,  S. Yeganeh,  S. R. Yost,  
 Zhi-Qiang You,  A. Zech,  Igor Ying Zhang,  Xing Zhang,  Yan Zhao,  
 Ying Zhu,  B. R. Brooks,  G. K. L. Chan,  C. J. Cramer,  M. S. Gordon,  
 W. J. Hehre,  A. Klamt,  M. W. Schmidt,  C. D. Sherrill,  D. G. Truhlar,  
 A. Aspuru-Guzik,  R. Baer,  A. T. Bell,  N. A. Besley,  Jeng-Da Chai,  
 A. E. DePrince, III,  R. A. DiStasio Jr.,  A. Dreuw,  B. D. Dunietz,  
 T. R. Furlani,  Chao-Ping Hsu,  Yousung Jung,  Jing Kong,  D. S. Lambrecht,  
 WanZhen Liang,  C. Ochsenfeld,  V. A. Rassolov,  L. V. Slipchenko,  
 J. E. Subotnik,  T. Van Voorhis,  J. M. Herbert,  A. I. Krylov,  
 P. M. W. Gill,  M. Head-Gordon

 Contributors to earlier versions of Q-Chem not listed above: 
 R. D. Adamson,  B. Austin,  J. Baker,  G. J. O. Beran,  K. Brandhorst,  
 S. T. Brown,  E. F. C. Byrd,  A. K. Chakraborty,  C.-L. Cheng,  
 Siu Hung Chien,  D. M. Chipman,  D. L. Crittenden,  H. Dachsel,  
 R. J. Doerksen,  A. D. Dutoi,  L. Fusti-Molnar,  W. A. Goddard III,  
 A. Golubeva-Zadorozhnaya,  S. R. Gwaltney,  G. Hawkins,  A. Heyden,  
 S. Hirata,  G. Kedziora,  F. J. Keil,  C. Kelley,  Jihan Kim,  R. A. King,  
 R. Z. Khaliullin,  P. P. Korambath,  W. Kurlancheek,  A. M. Lee,  M. S. Lee,  
 S. V. Levchenko,  Ching Yeh Lin,  D. Liotard,  R. C. Lochan,  I. Lotan,  
 P. E. Maslen,  N. Nair,  D. P. O'Neill,  D. Neuhauser,  E. Neuscamman,  
 C. M. Oana,  R. Olson,  B. Peters,  R. Peverati,  P. A. Pieniazek,  
 Y. M. Rhee,  J. Ritchie,  M. A. Rohrdanz,  E. Rosta,  N. J. Russ,  
 H. F. Schaefer III,  N. E. Schultz,  N. Shenvi,  A. C. Simmonett,  A. Sodt,  
 D. Stuck,  K. S. Thanthiriwatte,  V. Vanovschi,  Tao Wang,  A. Warshel,  
 C. F. Williams,  Q. Wu,  X. Xu,  W. Zhang

 Please cite Q-Chem as follows:
 Y. Shao et al., Mol. Phys. 113, 184-215 (2015)
 DOI: 10.1080/00268976.2014.952696

 Q-Chem 5.2.0 for Intel X86 EM64T Linux

 Parts of Q-Chem use Armadillo 8.300.2 (Tropical Shenanigans).
 http://arma.sourceforge.net/

 Q-Chem begins on Sun Sep 26 08:51:08 2021  

Host: cori01
0

     Scratch files written to /tmp/qchem55709//Frg2//
 May1019 |scratch|qcdevops|jenkins|workspace|build_RNUM -1
Processing $rem in /global/common/cori/software/qchem/5.2/config/preferences:
	 MEM_TOTAL  96000 
NAlpha2: 44
NElect   44
Mult     1
Symmetry turned off for PCM/SM12/SMD calculation

Checking the input file for inconsistencies... 	...done.

--------------------------------------------------------------
User input:
--------------------------------------------------------------
$molecule
0 1
 6	3.2305118158	1.1076928869	2.1820604675
 6	1.6705118158	-0.4483071131	-0.6999395325
 6	1.0385118158	1.0316928869	0.7980604675
 6	2.3155118158	0.6656928869	1.0800604675
 7	0.6635118158	0.3246928869	-0.3189395325
 7	2.6945118158	-0.2613071131	0.1280604675
 1	-0.2664881842	0.3196928869	-0.7359395325
 1	1.6545118158	-1.1243071131	-1.5479395325
 1	0.4385118158	1.7376928869	1.3510604675
 1	3.5105118158	0.2246928869	2.7520604675
 1	2.6915118158	1.7816928869	2.8500604675
 1	4.1440768158	1.5990588869	1.8160578875
$end
$rem
EDA2		1
METHOD		WB97X-V
BASIS		DEF2-TZVPD
XC_GRID		000099000590
NL_GRID		1
UNRESTRICTED		FALSE
MAX_SCF_CYCLES		200
SYMMETRY		FALSE
SYM_IGNORE		TRUE
BASIS_LIN_DEP_THRESH		6
THRESH		14
SCF_CONVERGENCE		8
SCF_PRINT_FRGM		TRUE
SOLVENT_METHOD		SMD
!required keywords
JOBTYPE		SP
SYM_IGNORE		TRUE
SUBSYSTEM		TRUE
GEN_SCFMAN		TRUE
CHILD_INSTRUCTION		2
SYM_IGNORE		TRUE
SCFMI		0
RI_K 0		
PARI_K 0		
MIN_PARI_K 0		
IARI_K 0		
OCC_RI_K 0		
PURECART		1111
MEM_STATIC		2000
MEM_TOTAL		96000
GUI		0
CHILD_MP		1
CHILD_MP_ORDERS		232
FRZ_RELAX		0
FRZ_RELAX_METHOD		0
EDA_CLS_ELEC		1
EDA_CLS_DISP		0
FRZ_ORTHO_DECOMP		1
EDA2		FALSE
FRGM_METHOD		FALSE
CIS_N_ROOTS  0
LOCAL_CIS    0
CIS_RLX_DNS  1
$end
$smx
SOLVENT			WATER
$end
--------------------------------------------------------------
 ----------------------------------------------------------------
             Standard Nuclear Orientation (Angstroms)
    I     Atom           X                Y                Z
 ----------------------------------------------------------------
    1      C       3.2305118158     1.1076928869     2.1820604675
    2      C       1.6705118158    -0.4483071131    -0.6999395325
    3      C       1.0385118158     1.0316928869     0.7980604675
    4      C       2.3155118158     0.6656928869     1.0800604675
    5      N       0.6635118158     0.3246928869    -0.3189395325
    6      N       2.6945118158    -0.2613071131     0.1280604675
    7      H      -0.2664881842     0.3196928869    -0.7359395325
    8      H       1.6545118158    -1.1243071131    -1.5479395325
    9      H       0.4385118158     1.7376928869     1.3510604675
   10      H       3.5105118158     0.2246928869     2.7520604675
   11      H       2.6915118158     1.7816928869     2.8500604675
   12      H       4.1440768158     1.5990588869     1.8160578875
 ----------------------------------------------------------------
 Nuclear Repulsion Energy =         224.76198932 hartrees
 There are       22 alpha and       22 beta electrons
 Requested basis set is def2-TZVPD
 There are 108 shells and 276 basis functions

 Total QAlloc Memory Limit  96000 MB
 Mega-Array Size      1956 MB
 MEM_STATIC part      2000 MB
 
 Citation of the SMD model:
 Marenich, A.V.; Cramer, C.J.; Truhlar, D.G.
 J. Phys. Chem. B 2009, 113, 6378-6396.
 iSolventCode=           1
 Solvent: water                                                           
 
 vradii
            1           2           3           4           5           6
    1   1.8500000   1.8500000   1.8500000   1.8500000   1.8900000   1.8900000
            7           8           9          10          11          12
    1   1.2000000   1.2000000   1.2000000   1.2000000   1.2000000   1.2000000
 Changing PCM_VDW_RADII to SMD_RADIUS
 Discretize the solute cavity surface with Lebedev spheres
	Using 110 Lebedev grid points for each H atom
	Using 194 Lebedev grid points for other atoms
	Atomic van der Waals radii will be scaled by 1.20
 Remove points where switching function is < 1.0e-08
 Keep 904 surface tesserae and discard 920 interior tesserae
 Molecular Surface Area = 116.207 Angst**2

                       Distance Matrix (Angstroms)
             C (  1)   C (  2)   C (  3)   C (  4)   N (  5)   N (  6)
   C (  2)  3.627762
   C (  3)  2.593472  2.198597
   C (  4)  1.498997  2.196684  1.358017
   N (  5)  3.668457  1.325420  1.374104  2.191480
   N (  6)  2.525940  1.330086  2.205240  1.381765  2.160594
   H (  7)  4.622194  2.084008  2.136147  3.175578  1.019222  3.138722
   H (  8)  4.623689  1.084590  3.245228  3.247677  2.142924  2.152985
   H (  9)  2.980390  3.240836  1.079002  2.178475  2.199112  3.252886
   H ( 10)  1.087653  3.969236  3.252714  2.101925  4.188848  2.790596
   H ( 11)  1.091339  4.314840  2.739637  2.125966  4.034624  3.403402
   H ( 12)  1.100000  4.079274  3.317040  2.180943  4.277447  2.900265
             H (  7)   H (  8)   H (  9)   H ( 10)   H ( 11)
   H (  8)  2.536675
   H (  9)  2.619794  4.251341
   H ( 10)  5.142071  4.873863  3.699886
   H ( 11)  4.873049  5.372393  2.706464  1.761991
   H ( 12)  5.253813  4.993109  3.737199  1.779435  1.792334
 
 A cutoff of  1.0D-14 yielded   5737 shell pairs
 There are     38169 function pairs (     48948 Cartesian)
 Smallest overlap matrix eigenvalue = 1.74E-06

 Scale SEOQF with 1.000000e-01/1.000000e-01/1.000000e-01

 Standard Electronic Orientation quadrupole field applied
 Nucleus-field energy     =     0.0000000025 hartrees
 Guess from superposition of atomic densities
 Warning:  Energy on first SCF cycle will be non-variational
 SAD guess density has 43.559167 electrons

 -----------------------------------------------------------------------
  General SCF calculation program by
  Eric Jon Sundstrom, Paul Horn, Yuezhi Mao, Dmitri Zuev, Alec White,
  David Stuck, Shaama M.S., Shane Yost, Joonho Lee, David Small,
  Daniel Levine, Susi Lehtola, Hugh Burton, Evgeny Epifanovsky
 -----------------------------------------------------------------------
 Exchange:     0.1670 Hartree-Fock + 1.0000 wB97X-V + LR-HF
 Correlation:  1.0000 wB97X-V
 Using Euler-Maclaurin-Lebedev (99,590) quadrature formula
 Nonlocal Correlation:  VV10 with C = 0.0100 and b = 6.00 and scale = 1.00000
 Grid used for NLC:  SG-1 standard quadrature
Energy prior to optimization (guess energy) = -265.143203015220
Begin Timing: Total SCF Calculation
begin iterations for algorithm: DIIS         
the SCF tolerance is set to 1.00e-08
    1    -265.1432030152      7.22e-03     00000 
    2    -265.1012368760      7.39e-03     00000 
    3    -265.5677380912      7.36e-04     00000 
    4    -265.5725281734      3.85e-04     00000 
    5    -265.5739712706      1.12e-04     00000 
    6    -265.5741337709      4.20e-05     00000 
    7    -265.5741587226      1.18e-05     00000 
    8    -265.5741614008      3.39e-06     00000 
    9    -265.5741616956      1.67e-06     00000 
   10    -265.5741617463      4.06e-07     00000 
   11    -265.5741617514      7.87e-08     00000 
   12    -265.5741617517      4.05e-08     00000 
   13    -265.5741617517      1.08e-08     00000 
   14    -265.5741617517      4.19e-09     00000 Convergence criterion met
Timing for Total SCF: 980.00s (wall), 1948.97s (cpu)
(3)  G-ENP(liq) elect-nuc-pol free energy of system     -265.574161752 a.u.
(4)  G-CDS(liq) cavity-dispersion-solvent structure 
     free energy                                                2.0717 kcal/mol
(6)  G-S(liq) free energy of system                     -265.570860241 a.u.
E_pcm = -0.0230125192
E_cds = 0.0033015107
Multipole orders to be included
        2
        3
computing dipole RHS
computing quadrupole RHS
total number of RHS in solve_reponses: 8
RHS batch sizes
        8
Beginning Block Conjugate Gradient Iterations. Batch Number: 0
computing hessian-vector products by finite difference
              1      6.55e-01     00000 Conjugate Gradient Iteration
computing hessian-vector products by finite difference
              2      2.07e-01     00000 Conjugate Gradient Iteration
computing hessian-vector products by finite difference
              3      4.77e-02     00000 Conjugate Gradient Iteration
computing hessian-vector products by finite difference
              4      1.36e-02     00000 Conjugate Gradient Iteration
computing hessian-vector products by finite difference
              5      2.96e-03     00000 Conjugate Gradient Iteration
computing hessian-vector products by finite difference
              6      5.75e-04     00000 Conjugate Gradient Iteration
computing hessian-vector products by finite difference
              7      1.01e-04     00000 Conjugate Gradient Iteration
computing hessian-vector products by finite difference
              8      1.53e-05     00000 Conjugate Gradient Iteration
computing hessian-vector products by finite difference
              9      2.30e-06     00000 Conjugate Gradient Iteration
computing hessian-vector products by finite difference
             10      4.39e-07     00000 Conjugate Gradient Iteration
computing hessian-vector products by finite difference
             11      7.39e-08     00000 Conjugate Gradient Iteration
computing hessian-vector products by finite difference
             12      1.37e-08     00000 Conjugate Gradient Iteration
computing hessian-vector products by finite difference
             13      3.01e-09     00000 CG Converged
batch 0 complete
Done Calculating Responses
TESTING ORTHOGONALIZATION OF MULTIPOLE BASIS
Multipole virts passed orthogonality test
Virts Per Order
           66
          110
 
 --------------------------------------------------------------
 
                    Orbital Energies (a.u.)
 --------------------------------------------------------------
 
 Alpha MOs
 -- Occupied --
-14.4588 -14.3857 -10.3172 -10.2829 -10.2822 -10.2570  -1.1524  -0.9929
 -0.8953  -0.8224  -0.7215  -0.6824  -0.6623  -0.5629  -0.5516  -0.5367
 -0.5086  -0.4942  -0.4766  -0.3773  -0.3755  -0.3216
 -- Virtual --
  0.0686   0.0878   0.0980   0.1088   0.1186   0.1311   0.1352   0.1470
  0.1723   0.1731   0.1805   0.1873   0.2031   0.2051   0.2275   0.2403
  0.2484   0.2518   0.2637   0.2677   0.2721   0.2916   0.3015   0.3083
  0.3146   0.3187   0.3224   0.3268   0.3310   0.3381   0.3509   0.3617
  0.3627   0.3671   0.3798   0.3833   0.3977   0.4029   0.4093   0.4165
  0.4256   0.4261   0.4304   0.4493   0.4582   0.4702   0.4738   0.4806
  0.4924   0.4990   0.5019   0.5183   0.5368   0.5477   0.5532   0.5627
  0.5652   0.5790   0.5949   0.5951   0.6096   0.6144   0.6318   0.6385
  0.6437   0.6517   0.6752   0.6874   0.6904   0.7085   0.7093   0.7153
  0.7331   0.7419   0.7596   0.7721   0.7821   0.7871   0.7932   0.8064
  0.8112   0.8187   0.8279   0.8334   0.8640   0.8692   0.8823   0.9028
  0.9173   0.9416   0.9813   0.9937   0.9970   1.0079   1.0201   1.0288
  1.0695   1.0914   1.1106   1.1244   1.1309   1.1525   1.1877   1.2123
  1.2301   1.2495   1.2808   1.3336   1.3449   1.3518   1.3838   1.4271
  1.4423   1.4636   1.5479   1.5573   1.6125   1.6442   1.6517   1.6771
  1.7012   1.7373   1.7949   1.8285   1.8337   1.8585   1.8655   1.8965
  1.9189   1.9507   1.9561   1.9647   1.9754   1.9858   2.0000   2.0139
  2.0236   2.0696   2.0938   2.1362   2.1797   2.2424   2.2722   2.2793
  2.3107   2.3620   2.3698   2.3958   2.4452   2.4629   2.4663   2.4970
  2.5595   2.6018   2.6152   2.6165   2.6333   2.6555   2.6903   2.7268
  2.7543   2.7749   2.7878   2.8474   2.8678   2.8793   2.9078   2.9933
  3.0214   3.0495   3.0694   3.0713   3.0918   3.1284   3.1400   3.1675
  3.1868   3.1977   3.2146   3.2213   3.2731   3.3000   3.3083   3.3334
  3.3531   3.3703   3.3899   3.4013   3.4247   3.4485   3.4739   3.5008
  3.5207   3.5483   3.5826   3.6027   3.6341   3.6566   3.7163   3.7430
  3.7510   3.7975   3.8200   3.8446   3.8851   3.9456   3.9603   4.0435
  4.0862   4.1032   4.1417   4.2336   4.2969   4.4315   4.4480   4.4965
  4.5419   4.5598   4.6200   4.6955   4.7521   4.7925   4.8706   4.8887
  4.9543   4.9723   5.0160   5.0349   5.0429   5.0758   5.1700   5.2000
  5.2272   5.3035   5.3817   5.4526   5.4974   5.5344   5.5872   5.6019
  5.6733   5.6949   5.7519   5.7951   5.8784   6.0377   6.2410   6.2786
 22.6375  22.8847  23.1290  23.3865  32.6569  32.7790
 --------------------------------------------------------------
 
          Ground-State Mulliken Net Atomic Charges

     Atom                 Charge (a.u.)
  ----------------------------------------
      1 C                    -0.801506
      2 C                    -0.251988
      3 C                    -0.580842
      4 C                     0.530206
      5 N                     0.070226
      6 N                    -0.543724
      7 H                     0.213657
      8 H                     0.334867
      9 H                     0.324661
     10 H                     0.225628
     11 H                     0.235011
     12 H                     0.243805
  ----------------------------------------
  Sum of atomic charges =     0.000000

 -----------------------------------------------------------------
                    Cartesian Multipole Moments
 -----------------------------------------------------------------
    Charge (ESU x 10^10)
                 0.0000
    Dipole Moment (Debye)
         X      -4.8181      Y       1.3048      Z      -0.7987
       Tot       5.0552
    Quadrupole Moments (Debye-Ang)
        XX     -50.7357     XY       2.6406     YY     -35.4212
        XZ       1.5805     YZ       4.1057     ZZ     -31.6428
    Octopole Moments (Debye-Ang^2)
       XXX    -265.7934    XXY      -2.5544    XYY     -73.1122
       YYY     -46.0122    XXZ     -15.4875    XYZ       6.6895
       YYZ     -19.2369    XZZ     -64.1394    YZZ     -13.9484
       ZZZ     -63.3801
    Hexadecapole Moments (Debye-Ang^3)
      XXXX   -1279.2107   XXXY     -46.2597   XXYY    -217.8951
      XYYY     -99.9744   YYYY    -182.5693   XXXZ    -172.0936
      XXYZ     -16.1933   XYYZ     -65.0491   YYYZ     -81.5403
      XXZZ    -227.0234   XYZZ     -33.1214   YYZZ     -78.9691
      XZZZ    -190.5555   YZZZ     -78.9854   ZZZZ    -352.7558
 -----------------------------------------------------------------
Archival summary:
1\1\nid00522\SP\ProcedureUnspecified\BasisUnspecified\246\meili\SunSep2613:34:222021SunSep2613:34:222021\0\\#,ProcedureUnspecified,BasisUnspecified,\\0,1\N\C,1,1.33009\H,2,1.08459,1,125.853\N,2,1.32542,1,108.904,3,179.783,0\H,4,1.01922,2,124.944,1,-174.791,0\C,4,1.3741,2,109.05,1,-0.420023,0\H,6,1.079,4,126.978,2,-179.403,0\C,6,1.35802,4,106.664,2,0.310625,0\C,8,1.499,6,130.33,4,-179.833,0\H,9,1.08765,8,107.64,6,120.946,0\H,9,1.09134,8,109.306,6,3.97321,0\H,9,1.1,8,113.207,6,-118.699,0\\\@

 Total job time:  16994.01s(wall), 33777.20s(cpu) 
 Sun Sep 26 13:34:22 2021

        *************************************************************
        *                                                           *
        *  Thank you very much for using Q-Chem.  Have a nice day.  *
        *                                                           *
        *************************************************************


Done Job For Fragment 1
calling putenv with: QCSCRATCH=/global/cscratch1/sd/meili 
calling putenv with: QCLOCALSCR=/tmp 
calling putenv with: QCTHREADS=32 
Doing General SCFMI
 Exchange:     0.1670 Hartree-Fock + 1.0000 wB97X-V + LR-HF
 Correlation:  1.0000 wB97X-V
 Using Euler-Maclaurin-Lebedev (99,590) quadrature formula
 Nonlocal Correlation:  VV10 with C = 0.0100 and b = 6.00 and scale = 1.00000
 Grid used for NLC:  SG-1 standard quadrature
performing fock build before subrot guess so that all methods have access
Printing subrot_rss_gen Method Specification:
Occupied Subspace Method is 0
Virtual Subspace Method is 0
Energy of the unrelaxed supersystem initial determinant -494.113641610733
performing fock build before subrot guess so that all methods have access
Printing subrot_rss_gen Method Specification:
Occupied Subspace Method is 0
Virtual Subspace Method is 0
Energy of the unrelaxed supersystem initial determinant w/ solvent -494.231982103190
write pseudocanon occs and virts to disk
write pseudocanon orbital energies to disk
Tolerance of ortho_decomp_scf: 1.00e-06
GDM subspace size: 20
Beginning the Orthogonal Decomposition of the Initial Supersystem Wavefunction
    1    -493.9926311617      1.00e-01     ortho_decomp Preconditoned Steepest Descent
    2    -494.0097376505      2.84e-03     ortho_decomp BFGS Step
    3    -494.0098133552      2.67e-04     ortho_decomp BFGS Step
    4    -494.0098135438      1.28e-05     ortho_decomp BFGS Step
    5    -494.0098135444      5.13e-07     ortho_decomp 00000 Convergence criterion met
 Hartree-Fock
 Hartree-Fock
 Hartree-Fock
Doing General SCFMI
 Exchange:     0.1670 Hartree-Fock + 1.0000 wB97X-V + LR-HF
 Correlation:  1.0000 wB97X-V
 Using Euler-Maclaurin-Lebedev (99,590) quadrature formula
 Nonlocal Correlation:  VV10 with C = 0.0100 and b = 6.00 and scale = 1.00000
 Grid used for NLC:  SG-1 standard quadrature
performing fock build at end of subrot_r(subrot) constructor so that all methods have access
<S^2> of initial wavefunction before polarization iterations 0.0000000000
Beginning iterations for the determination of the polarized wavefunction
Energy prior to optimization (guess energy) = -494.231982103189
Begin Timing: Total SCF Calculation
begin iterations for algorithm: DIIS         
the SCF tolerance is set to 1.00e-08
    1    -494.2319821032      2.50e-04     00000 
    2    -494.2352659224      1.10e-04     00000 
    3    -494.2356458085      7.39e-05     00000 
    4    -494.2358209422      1.90e-05     00000 
    5    -494.2358425008      1.03e-05     00000 
    6    -494.2358495637      4.59e-06     00000 
    7    -494.2358510654      2.14e-06     00000 
    8    -494.2358513955      8.46e-07     00000 
    9    -494.2358514321      3.61e-07     00000 
   10    -494.2358514369      1.15e-07     00000 
   11    -494.2358514378      5.42e-08     00000 
   12    -494.2358514379      3.06e-08     00000 
   13    -494.2358514379      1.07e-08     00000 
   14    -494.2358514379      5.68e-09     00000 Convergence criterion met
write pseudocanon occs and virts to disk
write pseudocanon orbital energies to disk
Timing for Total SCF: 3690.00s (wall), 7336.39s (cpu)
<S^2> of polarized wavefunction after polarization iterations 0.0000000000
relaxing scfmi constraint to allow all rotations in the entire AO span
Doing General SCFMI
 Exchange:     0.1670 Hartree-Fock + 1.0000 wB97X-V + LR-HF
 Correlation:  1.0000 wB97X-V
 Using Euler-Maclaurin-Lebedev (99,590) quadrature formula
 Nonlocal Correlation:  VV10 with C = 0.0100 and b = 6.00 and scale = 1.00000
 Grid used for NLC:  SG-1 standard quadrature
performing fock build at end of subrot_r(subrot) constructor so that all methods have access
<S^2> of polarized wavefunction before ct-allowed iterations 0.0000000000
Beginning iterations for the determination of the CT-Allowed wavefunction
Energy prior to optimization (guess energy) = -494.235851437907
Begin Timing: Total SCF Calculation
begin iterations for algorithm: DIIS         
the SCF tolerance is set to 1.00e-08
    1    -494.2358514379      2.75e-04     00000 
    2    -494.2448745522      4.71e-05     00000 
    3    -494.2452440738      2.72e-05     00000 
    4    -494.2452959459      9.77e-06     00000 
    5    -494.2453060296      2.67e-06     00000 
    6    -494.2453067259      9.22e-07     00000 
    7    -494.2453068547      3.61e-07     00000 
    8    -494.2453068731      8.42e-08     00000 
    9    -494.2453068752      4.30e-08     00000 
   10    -494.2453068755      1.50e-08     00000 
   11    -494.2453068756      4.17e-09     00000 Convergence criterion met
write pseudocanon occs and virts to disk
write pseudocanon orbital energies to disk
Timing for Total SCF: 2862.00s (wall), 5694.53s (cpu)
<S^2> of ct_allowed wavefunction after ct-allowed iterations 0.0000000000

================================
        Results of EDA2         
================================
Basic EDA Quantities
--------------------
Fragment Energies (Ha):
1 -228.6595447549
2 -265.5708602410
--------------------
  E_prp (kJ/mol) = 0.0000
  E_sol (kJ/mol) = 89.8574
  E_frz (kJ/mol) = -72.4012
  E_pol (kJ/mol) = -10.1591
  E_vct (kJ/mol) = -24.8255
  E_int (kJ/mol) = -17.5285
--------------------


Initial Wavefunction Decomposition
--------------------
  --------------------
  Orthogonal Fragment Subspace Decomposition:
  --------------------
     E_elec   (ELEC)   (kJ/mol) = -221.6455
     E_pauli  (PAULI)  (kJ/mol) = 168.3227
     E_disp   (DISP)   (kJ/mol) = -19.0784
     --------------------
     Terms summing to E_pauli:
     --------------------
        E_kep_pauli       (kJ/mol) = 200.2026
        E_disp_free_pauli (kJ/mol) = -31.8799
  --------------------
  Classical Frozen Decomposition:
  --------------------
     E_cls_elec  (CLS ELEC)  (kJ/mol) = -165.6781
     E_cls_pauli (CLS PAULI) (kJ/mol) = 93.2768
    [E_mod_pauli (MOD PAULI) (kJ/mol) = 112.3552 (CLS PAULI - DISP from orthogonal decomposition) ]
  --------------------
--------------------

Simplified EDA Summary (kJ/mol)
--------------------
 PREPARATION     0.0000
 SOLVATION       89.8574
 FROZEN          -53.3228      (does not include dispersion)
[PAULI           168.3227]     (if this is negligible, then frozen describes electrostatics)
 DISPERSION      -19.0784
 POLARIZATION    -10.1591
 CHARGE TRANSFER -24.8255
 TOTAL           -17.5285     (PRP + SOL + FRZ + DISP + POL + CT)
--------------------
 
 --------------------------------------------------------------
 
                    Orbital Energies (a.u.)
 --------------------------------------------------------------
 
 Alpha MOs
 -- Occupied --
-19.1608 -19.1571 -14.4332 -14.3783 -10.3597 -10.3075 -10.2756 -10.2739
-10.2541 -10.2485  -1.1759  -1.1401  -1.0744  -0.9813  -0.8888  -0.8430
 -0.8157  -0.7129  -0.6745  -0.6580  -0.6195  -0.5577  -0.5563  -0.5513
 -0.5509  -0.5356  -0.5271  -0.5037  -0.4903  -0.4834  -0.4720  -0.4663
 -0.3758  -0.3723  -0.3663  -0.3561  -0.3515  -0.3147
 -- Virtual --
  0.0630   0.0804   0.0907   0.0940   0.1015   0.1112   0.1170   0.1240
  0.1287   0.1332   0.1401   0.1458   0.1467   0.1493   0.1565   0.1722
  0.1775   0.1807   0.1875   0.1944   0.2041   0.2125   0.2194   0.2278
  0.2286   0.2329   0.2455   0.2477   0.2569   0.2650   0.2717   0.2813
  0.2855   0.2876   0.2975   0.2994   0.3043   0.3132   0.3181   0.3252
  0.3288   0.3303   0.3312   0.3345   0.3379   0.3460   0.3521   0.3547
  0.3572   0.3664   0.3691   0.3725   0.3754   0.3812   0.3824   0.3889
  0.3934   0.3974   0.4003   0.4075   0.4127   0.4217   0.4253   0.4304
  0.4307   0.4334   0.4416   0.4444   0.4564   0.4625   0.4691   0.4759
  0.4782   0.4834   0.4873   0.4931   0.4978   0.5008   0.5048   0.5056
  0.5130   0.5250   0.5297   0.5309   0.5366   0.5495   0.5525   0.5633
  0.5717   0.5745   0.5757   0.5790   0.5929   0.5990   0.6073   0.6135
  0.6191   0.6248   0.6307   0.6343   0.6480   0.6532   0.6608   0.6623
  0.6746   0.6759   0.6789   0.6848   0.6994   0.7036   0.7057   0.7113
  0.7277   0.7297   0.7336   0.7425   0.7490   0.7520   0.7557   0.7619
  0.7756   0.7798   0.7859   0.7906   0.7996   0.8072   0.8113   0.8138
  0.8198   0.8272   0.8303   0.8384   0.8419   0.8554   0.8646   0.8717
  0.8796   0.8870   0.8999   0.9048   0.9266   0.9306   0.9420   0.9613
  0.9736   0.9811   0.9950   1.0128   1.0167   1.0255   1.0332   1.0410
  1.0534   1.0565   1.0848   1.0956   1.1098   1.1164   1.1203   1.1265
  1.1359   1.1482   1.1518   1.1728   1.1831   1.1971   1.2129   1.2466
  1.2571   1.2717   1.2858   1.2929   1.3068   1.3207   1.3313   1.3458
  1.3517   1.3692   1.3781   1.3852   1.4026   1.4292   1.4454   1.4659
  1.4697   1.4908   1.5016   1.5741   1.5950   1.6363   1.6445   1.6569
  1.6645   1.6829   1.7015   1.7393   1.7434   1.7510   1.8340   1.8447
  1.8510   1.8588   1.8659   1.8782   1.8960   1.9079   1.9222   1.9326
  1.9386   1.9458   1.9603   1.9675   1.9733   1.9817   1.9867   1.9983
  2.0156   2.0270   2.0297   2.0495   2.0581   2.0832   2.0901   2.1222
  2.1343   2.1618   2.1692   2.1975   2.2086   2.2315   2.2418   2.2786
  2.2884   2.3249   2.3294   2.3494   2.3602   2.4071   2.4134   2.4239
  2.4425   2.4698   2.4781   2.4858   2.5061   2.5295   2.5451   2.5626
  2.5840   2.5924   2.6082   2.6369   2.6462   2.6618   2.6645   2.6857
  2.6905   2.7357   2.7489   2.7770   2.7891   2.8150   2.8183   2.8314
  2.8644   2.8744   2.8846   2.8991   2.9159   2.9338   2.9569   2.9697
  3.0154   3.0316   3.0552   3.0806   3.0867   3.1072   3.1103   3.1318
  3.1553   3.1727   3.1917   3.2008   3.2104   3.2211   3.2345   3.2427
  3.2532   3.2639   3.2939   3.3176   3.3203   3.3319   3.3383   3.3428
  3.3501   3.3725   3.3810   3.3934   3.4065   3.4126   3.4245   3.4368
  3.4407   3.4572   3.4715   3.4933   3.5140   3.5386   3.5434   3.5697
  3.5766   3.5951   3.5995   3.6197   3.6449   3.6646   3.6740   3.6988
  3.7164   3.7277   3.7617   3.7638   3.7746   3.7820   3.8301   3.8521
  3.8598   3.8839   3.9117   3.9540   3.9692   4.0024   4.0571   4.0753
  4.0804   4.1001   4.1235   4.1629   4.1954   4.2557   4.3132   4.3574
  4.4434   4.4639   4.5174   4.5550   4.5598   4.5752   4.6170   4.6406
  4.6581   4.7046   4.7689   4.8182   4.8230   4.8359   4.9000   4.9430
  4.9754   5.0004   5.0342   5.0423   5.0522   5.0635   5.1038   5.2034
  5.2402   5.2728   5.3029   5.3239   5.3364   5.3436   5.3755   5.4377
  5.4719   5.4869   5.5228   5.5513   5.6184   5.6395   5.6793   5.7272
  5.7385   5.7565   5.7928   5.8189   5.8882   5.9214   6.0202   6.0552
  6.2284   6.2769   6.3249   6.3479   6.3617   6.6226   6.6427   6.7171
  6.7443   6.8152   6.9800   6.9936   7.0480   7.2374   7.3553   7.4181
  7.4493  22.5985  22.6482  22.9465  23.1934  23.4073  23.7651  32.8061
 32.8778  44.2457  44.4058
 --------------------------------------------------------------
 
          Ground-State Mulliken Net Atomic Charges

     Atom                 Charge (a.u.)
  ----------------------------------------
      1 C                    -0.748222
      2 C                     0.619496
      3 O                    -0.845872
      4 O                    -0.768202
      5 H                     0.239832
      6 H                     0.210026
      7 H                     0.229512
      8 C                    -0.871226
      9 C                    -0.204645
     10 C                    -0.429597
     11 C                     0.321445
     12 N                     0.250595
     13 N                    -0.584703
     14 H                     0.166032
     15 H                     0.352607
     16 H                     0.342419
     17 H                     0.236636
     18 H                     0.232741
     19 H                     0.251128
  ----------------------------------------
  Sum of atomic charges =    -1.000000

 -----------------------------------------------------------------
                    Cartesian Multipole Moments
 -----------------------------------------------------------------
    Charge (ESU x 10^10)
                -4.8032
    Dipole Moment (Debye)
         X       1.4473      Y       4.6589      Z       1.6183
       Tot       5.1399
    Quadrupole Moments (Debye-Ang)
        XX     -86.0084     XY      -4.6305     YY     -69.6764
        XZ      -1.1511     YZ       6.9038     ZZ     -62.3029
    Octopole Moments (Debye-Ang^2)
       XXX     -63.5100    XXY      25.9774    XYY      13.5117
       YYY      10.0945    XXZ       0.3290    XYZ      -1.0481
       YYZ      -0.9893    XZZ      10.3915    YZZ      -3.2050
       ZZZ      -0.7023
    Hexadecapole Moments (Debye-Ang^3)
      XXXX   -2581.7916   XXXY    -190.3931   XXYY    -502.1550
      XYYY    -246.7650   YYYY    -351.3383   XXXZ    -319.5996
      XXYZ      -2.9417   XYYZ    -119.4232   YYYZ     -89.3622
      XXZZ    -484.3585   XYZZ     -65.6732   YYZZ    -131.1790
      XZZZ    -362.5968   YZZZ     -83.9136   ZZZZ    -522.7459
 -----------------------------------------------------------------
Archival summary:
1\1\nid00522\SP\ProcedureUnspecified\BasisUnspecified\2269(1-,1)\meili\SunSep2616:35:522021SunSep2616:35:522021\0\\#,ProcedureUnspecified,BasisUnspecified,\\-1,1\N\H,1,1.01922\C,1,1.32542,2,124.944\H,3,1.08459,1,125.243,2,4.99294,0\N,3,1.33009,1,108.904,2,-174.791,0\C,1,1.3741,2,125.741,3,-173.441,0\H,6,1.079,1,126.978,2,-5.08764,0\C,6,1.35802,1,106.664,2,174.626,0\C,8,1.499,6,130.33,1,-179.833,0\H,9,1.08765,8,107.64,6,120.946,0\H,9,1.09134,8,109.306,6,3.97321,0\H,9,1.1,8,113.207,6,-118.699,0\O,2,1.66346,1,174.419,3,87.0679,0\C,13,1.24475,2,118.28,1,4.74241,0\O,14,1.25135,13,122.836,2,-18.5444,0\C,14,1.52493,13,117.767,2,160.498,0\H,16,1.08945,14,108.558,13,-69.2089,0\H,16,1.09177,14,109.878,13,48.3238,0\H,16,1.1,14,112.356,13,170.562,0\\\@

 Total job time:  32741.00s(wall), 21686.25s(cpu) 
 Sun Sep 26 16:35:53 2021

        *************************************************************
        *                                                           *
        *  Thank you very much for using Q-Chem.  Have a nice day.  *
        *                                                           *
        *************************************************************


