                  Welcome to Q-Chem
     A Quantum Leap Into The Future Of Chemistry


 Q-Chem 5.2 (devel), Q-Chem, Inc., Pleasanton, CA (2019)

 Yihan Shao,  Zhengting Gan,  E. Epifanovsky,  A. T. B. Gilbert,  M. Wormit,  
 J. Kussmann,  A. W. Lange,  A. Behn,  Jia Deng,  Xintian Feng,  D. Ghosh,  
 M. Goldey,  P. R. Horn,  L. D. Jacobson,  I. Kaliman,  T. Kus,  A. Landau,  
 Jie Liu,  E. I. Proynov,  R. M. Richard,  R. P. Steele,  E. J. Sundstrom,  
 H. L. Woodcock III,  P. M. Zimmerman,  D. Zuev,  B. Albrecht,  E. Alguire,  
 S. A. Baeppler,  D. Barton,  Z. Benda,  Y. A. Bernard,  E. J. Berquist,  
 K. B. Bravaya,  H. Burton,  D. Casanova,  Chun-Min Chang,  Yunqing Chen,  
 A. Chien,  K. D. Closser,  M. P. Coons,  S. Coriani,  S. Dasgupta,  
 A. L. Dempwolff,  M. Diedenhofen,  Hainam Do,  R. G. Edgar,  Po-Tung Fang,  
 S. Faraji,  S. Fatehi,  Qingguo Feng,  K. D. Fenk,  J. Fosso-Tande,  
 J. Gayvert,  Qinghui Ge,  A. Ghysels,  G. Gidofalvi,  J. Gomes,  
 J. Gonthier,  A. Gunina,  D. Hait,  M. W. D. Hanson-Heine,  
 P. H. P. Harbach,  A. W. Hauser,  M. F. Herbst,  J. E. Herr,  
 E. G. Hohenstein,  Z. C. Holden,  Kerwin Hui,  B. C. Huynh,  T.-C. Jagau,  
 Hyunjun Ji,  B. Kaduk,  K. Khistyaev,  Jaehoon Kim,  P. Klunzinger,  K. Koh,  
 D. Kosenkov,  L. Koulias,  T. Kowalczyk,  C. M. Krauter,  A. Kunitsa,  
 Ka Un Lao,  A. Laurent,  K. V. Lawler,  Joonho Lee,  D. Lefrancois,  
 S. Lehtola,  D. S. Levine,  Yi-Pei Li,  You-Sheng Lin,  Fenglai Liu,  
 E. Livshits,  A. Luenser,  P. Manohar,  E. Mansoor,  S. F. Manzer,  
 Shan-Ping Mao,  Yuezhi Mao,  N. Mardirossian,  A. V. Marenich,  
 T. Markovich,  L. A. Martinez-Martinez,  S. A. Maurer,  N. J. Mayhall,  
 S. C. McKenzie,  J.-M. Mewes,  P. Morgante,  A. F. Morrison,  
 J. W. Mullinax,  K. Nanda,  T. S. Nguyen-Beck,  R. Olivares-Amaya,  
 J. A. Parkhill,  Zheng Pei,  T. M. Perrine,  F. Plasser,  P. Pokhilko,  
 S. Prager,  A. Prociuk,  E. Ramos,  D. R. Rehn,  F. Rob,  M. Scheurer,  
 M. Schneider,  N. Sergueev,  S. M. Sharada,  S. Sharma,  D. W. Small,  
 T. Stauch,  T. Stein,  Yu-Chuan Su,  A. J. W. Thom,  A. Tkatchenko,  
 T. Tsuchimochi,  N. M. Tubman,  L. Vogt,  M. L. Vidal,  O. Vydrov,  
 M. A. Watson,  J. Wenzel,  M. de Wergifosse,  T. A. Wesolowski,  A. White,  
 J. Witte,  A. Yamada,  Jun Yang,  K. Yao,  S. Yeganeh,  S. R. Yost,  
 Zhi-Qiang You,  A. Zech,  Igor Ying Zhang,  Xing Zhang,  Yan Zhao,  
 Ying Zhu,  B. R. Brooks,  G. K. L. Chan,  C. J. Cramer,  M. S. Gordon,  
 W. J. Hehre,  A. Klamt,  M. W. Schmidt,  C. D. Sherrill,  D. G. Truhlar,  
 A. Aspuru-Guzik,  R. Baer,  A. T. Bell,  N. A. Besley,  Jeng-Da Chai,  
 A. E. DePrince, III,  R. A. DiStasio Jr.,  A. Dreuw,  B. D. Dunietz,  
 T. R. Furlani,  Chao-Ping Hsu,  Yousung Jung,  Jing Kong,  D. S. Lambrecht,  
 WanZhen Liang,  C. Ochsenfeld,  V. A. Rassolov,  L. V. Slipchenko,  
 J. E. Subotnik,  T. Van Voorhis,  J. M. Herbert,  A. I. Krylov,  
 P. M. W. Gill,  M. Head-Gordon

 Contributors to earlier versions of Q-Chem not listed above: 
 R. D. Adamson,  B. Austin,  J. Baker,  G. J. O. Beran,  K. Brandhorst,  
 S. T. Brown,  E. F. C. Byrd,  A. K. Chakraborty,  C.-L. Cheng,  
 Siu Hung Chien,  D. M. Chipman,  D. L. Crittenden,  H. Dachsel,  
 R. J. Doerksen,  A. D. Dutoi,  L. Fusti-Molnar,  W. A. Goddard III,  
 A. Golubeva-Zadorozhnaya,  S. R. Gwaltney,  G. Hawkins,  A. Heyden,  
 S. Hirata,  G. Kedziora,  F. J. Keil,  C. Kelley,  Jihan Kim,  R. A. King,  
 R. Z. Khaliullin,  P. P. Korambath,  W. Kurlancheek,  A. M. Lee,  M. S. Lee,  
 S. V. Levchenko,  Ching Yeh Lin,  D. Liotard,  R. C. Lochan,  I. Lotan,  
 P. E. Maslen,  N. Nair,  D. P. O'Neill,  D. Neuhauser,  E. Neuscamman,  
 C. M. Oana,  R. Olson,  B. Peters,  R. Peverati,  P. A. Pieniazek,  
 Y. M. Rhee,  J. Ritchie,  M. A. Rohrdanz,  E. Rosta,  N. J. Russ,  
 H. F. Schaefer III,  N. E. Schultz,  N. Shenvi,  A. C. Simmonett,  A. Sodt,  
 D. Stuck,  K. S. Thanthiriwatte,  V. Vanovschi,  Tao Wang,  A. Warshel,  
 C. F. Williams,  Q. Wu,  X. Xu,  W. Zhang

 Please cite Q-Chem as follows:
 Y. Shao et al., Mol. Phys. 113, 184-215 (2015)
 DOI: 10.1080/00268976.2014.952696

 Q-Chem 5.2.1 for Intel X86 EM64T Linux

 Parts of Q-Chem use Armadillo 8.300.2 (Tropical Shenanigans).
 http://arma.sourceforge.net/

 Q-Chem begins on Wed Sep 29 09:45:46 2021  

compute-0-6.local
Host: 0

     Scratch files written to /home/meili/scratch/qchem33853//
NAlpha2: 98
NElect   98
Mult     1
Symmetry turned off for PCM/SM12/SMD calculation

 Q-Chem warning in module libgen/rem_setup.C, line 2813:

 Neither GIA nor STOLL is specified by user. Use STOLL as the default


Checking the input file for inconsistencies... 	...done.

--------------------------------------------------------------
User input:
--------------------------------------------------------------
$comment
SSI-053TYR-083ASP-1.pdb
$end

$molecule
-1 1
--
0 1
C    2.521597245296    4.467889157014    0.792399966544
C    0.934597245296    0.642889157014   -0.497600033456
C    0.070597245296    1.645889157014   -0.049600033456
C    2.312597245296    0.870889157014   -0.515600033456
C    0.588597245296    2.877889157014    0.376399966544
C    2.823597245296    2.104889157014   -0.084600033456
C    1.967597245296    3.121889157014    0.361399966544
O    0.436597245296   -0.550110842986   -0.932600033456
H   -0.520402754704   -0.635110842986   -0.728600033456
H   -0.994402754704    1.467889157014   -0.036600033456
H    2.973597245296    0.096889157014   -0.876600033456
H   -0.088402754704    3.650889157014    0.718399966544
H    3.893597245296    2.265889157014   -0.093600033456
H    3.529597245296    4.312889157014    1.178399966544
H    1.928597245296    4.845889157014    1.626399966544
H    2.570137245296    5.216609157014   -0.012000033456
--
-1 1
C   -1.142402754704   -3.164110842986    0.295399966544
C   -1.613402754704   -4.544110842986    0.755399966544
C   -2.303402754704   -2.258110842986   -0.055600033456
O   -3.449402754704   -2.742110842986   -0.047600033456
O   -2.052402754704   -1.069110842986   -0.353600033456
H   -0.520402754704   -2.701110842986    1.064399966544
H   -0.531402754704   -3.273110842986   -0.601600033456
H   -2.570402754704   -4.794110842986    0.301399966544
H   -1.698252754704   -4.575650842986    1.851669966544
H   -0.929062754704   -5.313820842986    0.369099966544
$end

$rem
JOBTYPE			EDA
EDA2			1
method			wB97X-V
BASIS			def2-TZVPD
XC_GRID			000099000590
NL_GRID			1
UNRESTRICTED		FALSE
MAX_SCF_CYCLES		200
SYMMETRY		FALSE
SYM_IGNORE		TRUE
MEM_STATIC		2000
BASIS_LIN_DEP_THRESH 	6
THRESH 			14
SCF_CONVERGENCE 	8
SCF_PRINT_FRGM 		TRUE
SOLVENT_METHOD          PCM
$end

$PCM
THEORY                  CPCM
METHOD                  SWIG
SOLVER                  INVERSION
RADII                   UFF
HPOINTS                 302
HEAVYPOINTS             302
PRINTLEVEL              0
$END

$SOLVENT
DIELECTRIC              78.390000 ! water
$END
--------------------------------------------------------------
 ----------------------------------------------------------------
             Standard Nuclear Orientation (Angstroms)
    I     Atom           X                Y                Z
 ----------------------------------------------------------------
    1      C       2.5215972453     4.4678891570     0.7923999665
    2      C       0.9345972453     0.6428891570    -0.4976000335
    3      C       0.0705972453     1.6458891570    -0.0496000335
    4      C       2.3125972453     0.8708891570    -0.5156000335
    5      C       0.5885972453     2.8778891570     0.3763999665
    6      C       2.8235972453     2.1048891570    -0.0846000335
    7      C       1.9675972453     3.1218891570     0.3613999665
    8      O       0.4365972453    -0.5501108430    -0.9326000335
    9      H      -0.5204027547    -0.6351108430    -0.7286000335
   10      H      -0.9944027547     1.4678891570    -0.0366000335
   11      H       2.9735972453     0.0968891570    -0.8766000335
   12      H      -0.0884027547     3.6508891570     0.7183999665
   13      H       3.8935972453     2.2658891570    -0.0936000335
   14      H       3.5295972453     4.3128891570     1.1783999665
   15      H       1.9285972453     4.8458891570     1.6263999665
   16      H       2.5701372453     5.2166091570    -0.0120000335
   17      C      -1.1424027547    -3.1641108430     0.2953999665
   18      C      -1.6134027547    -4.5441108430     0.7553999665
   19      C      -2.3034027547    -2.2581108430    -0.0556000335
   20      O      -3.4494027547    -2.7421108430    -0.0476000335
   21      O      -2.0524027547    -1.0691108430    -0.3536000335
   22      H      -0.5204027547    -2.7011108430     1.0643999665
   23      H      -0.5314027547    -3.2731108430    -0.6016000335
   24      H      -2.5704027547    -4.7941108430     0.3013999665
   25      H      -1.6982527547    -4.5756508430     1.8516699665
   26      H      -0.9290627547    -5.3138208430     0.3690999665
 ----------------------------------------------------------------
 Nuclear Repulsion Energy =         729.62140138 hartrees
 There are       49 alpha and       49 beta electrons
 Requested basis set is def2-TZVPD
 There are 237 shells and 607 basis functions

 Total QAlloc Memory Limit   2000 MB
 Mega-Array Size      1956 MB
 MEM_STATIC part      2000 MB
 Discretize the solute cavity surface with Lebedev spheres
	Using 302 Lebedev grid points for each H atom
	Using 302 Lebedev grid points for other atoms
	Atomic van der Waals radii will be scaled by 1.20
 Remove points where switching function is < 1.0e-08
 Keep 2928 surface tesserae and discard 4924 interior tesserae
 Molecular Surface Area = 295.631 Angst**2
 A cutoff of  1.0D-14 yielded  23132 shell pairs
 There are    152420 function pairs (    192688 Cartesian)
 Smallest overlap matrix eigenvalue = 5.18E-07
 Linear dependence detected in AO basis
 Tighter screening thresholds may be required for diffuse basis sets
 Use S2THRESH > 14 and THRESH = 14 in case of SCF convergence issues
 Number of orthogonalized atomic orbitals = 606
 Maximum deviation from orthogonality = 1.940E-10

 Scale SEOQF with 1.000000e-01/1.000000e-02/1.000000e-01

 Standard Electronic Orientation quadrupole field applied
 Nucleus-field energy     =     0.0000000160 hartrees

 -----------------------------------------------------------------------
  General SCF calculation program by
  Eric Jon Sundstrom, Paul Horn, Yuezhi Mao, Dmitri Zuev, Alec White,
  David Stuck, Shaama M.S., Shane Yost, Joonho Lee, David Small,
  Daniel Levine, Susi Lehtola, Hugh Burton, Evgeny Epifanovsky,
  Bang C. Huynh
 -----------------------------------------------------------------------
================================================================
                 ALMO-EDA with the EDA2 driver                  
================================================================
 The second-generation ALMO-EDA (for DFT):                      
 P. R. Horn, Y. Mao and M. Head-Gordon, PCCP, 18, 23067 (2016)  
 Decomposition of the frozen energy:                            
 P. R. Horn, Y. Mao and M. Head-Gordon, JCP, 144, 114107 (2016) 
 FERF model for polarization:                                   
 P. R. Horn and M. Head-Gordon, JCP, 143, 114111 (2015)         
Using eda2 option set 1
Option set summary: Frozen orbital wavefunction, initial wavefunction decomposition, and nDQ polarization.
--------------------------------
Printing EDA Options
--------------------------------
eda_child_super_basis      0
fragmo_guess_mode          0
child_mp                   1
child_mp_orders            232
cls_elec                   1
cls_disp                   0
scfmi_mode                 1
scfmi_occs                 0
scfmi_virts                0
frz_relax                  0
frz_relax_method           0
dc_pen_start               0
dc_pen_conv                0
dc_pen_increment           0
dc_pen_steps               0
dc_pen_thresh_factor       0
dc_pen_pre_newton_thresh   0
frz_ortho_decomp           1
frz_ortho_decomp_conv      6
frgm_method                2
scfmi_freeze_ss            0
separate_rehyb             0
plot_diff_den              0
eda_nocv                   0
eda_vct_relax              1
disp_free_x                0
disp_free_c                0
eda_bsse                   0
eda_pct_a                  0
eda_covp                   0
--------------------------------
Attempting to make child job directory: /home/meili/scratch/qchem33853//Frg1/
Attempting to make child job directory: /home/meili/scratch/qchem33853//Frg2/
Creating input file /home/meili/scratch/qchem33853/Frg1.input
using default PutDataFrgm: nothing
calling putenv with: QCSCRATCH=/home/meili/scratch/qchem33853/ 
Spawning Job For Fragment 0
                  Welcome to Q-Chem
     A Quantum Leap Into The Future Of Chemistry


 Q-Chem 5.2 (devel), Q-Chem, Inc., Pleasanton, CA (2019)

 Yihan Shao,  Zhengting Gan,  E. Epifanovsky,  A. T. B. Gilbert,  M. Wormit,  
 J. Kussmann,  A. W. Lange,  A. Behn,  Jia Deng,  Xintian Feng,  D. Ghosh,  
 M. Goldey,  P. R. Horn,  L. D. Jacobson,  I. Kaliman,  T. Kus,  A. Landau,  
 Jie Liu,  E. I. Proynov,  R. M. Richard,  R. P. Steele,  E. J. Sundstrom,  
 H. L. Woodcock III,  P. M. Zimmerman,  D. Zuev,  B. Albrecht,  E. Alguire,  
 S. A. Baeppler,  D. Barton,  Z. Benda,  Y. A. Bernard,  E. J. Berquist,  
 K. B. Bravaya,  H. Burton,  D. Casanova,  Chun-Min Chang,  Yunqing Chen,  
 A. Chien,  K. D. Closser,  M. P. Coons,  S. Coriani,  S. Dasgupta,  
 A. L. Dempwolff,  M. Diedenhofen,  Hainam Do,  R. G. Edgar,  Po-Tung Fang,  
 S. Faraji,  S. Fatehi,  Qingguo Feng,  K. D. Fenk,  J. Fosso-Tande,  
 J. Gayvert,  Qinghui Ge,  A. Ghysels,  G. Gidofalvi,  J. Gomes,  
 J. Gonthier,  A. Gunina,  D. Hait,  M. W. D. Hanson-Heine,  
 P. H. P. Harbach,  A. W. Hauser,  M. F. Herbst,  J. E. Herr,  
 E. G. Hohenstein,  Z. C. Holden,  Kerwin Hui,  B. C. Huynh,  T.-C. Jagau,  
 Hyunjun Ji,  B. Kaduk,  K. Khistyaev,  Jaehoon Kim,  P. Klunzinger,  K. Koh,  
 D. Kosenkov,  L. Koulias,  T. Kowalczyk,  C. M. Krauter,  A. Kunitsa,  
 Ka Un Lao,  A. Laurent,  K. V. Lawler,  Joonho Lee,  D. Lefrancois,  
 S. Lehtola,  D. S. Levine,  Yi-Pei Li,  You-Sheng Lin,  Fenglai Liu,  
 E. Livshits,  A. Luenser,  P. Manohar,  E. Mansoor,  S. F. Manzer,  
 Shan-Ping Mao,  Yuezhi Mao,  N. Mardirossian,  A. V. Marenich,  
 T. Markovich,  L. A. Martinez-Martinez,  S. A. Maurer,  N. J. Mayhall,  
 S. C. McKenzie,  J.-M. Mewes,  P. Morgante,  A. F. Morrison,  
 J. W. Mullinax,  K. Nanda,  T. S. Nguyen-Beck,  R. Olivares-Amaya,  
 J. A. Parkhill,  Zheng Pei,  T. M. Perrine,  F. Plasser,  P. Pokhilko,  
 S. Prager,  A. Prociuk,  E. Ramos,  D. R. Rehn,  F. Rob,  M. Scheurer,  
 M. Schneider,  N. Sergueev,  S. M. Sharada,  S. Sharma,  D. W. Small,  
 T. Stauch,  T. Stein,  Yu-Chuan Su,  A. J. W. Thom,  A. Tkatchenko,  
 T. Tsuchimochi,  N. M. Tubman,  L. Vogt,  M. L. Vidal,  O. Vydrov,  
 M. A. Watson,  J. Wenzel,  M. de Wergifosse,  T. A. Wesolowski,  A. White,  
 J. Witte,  A. Yamada,  Jun Yang,  K. Yao,  S. Yeganeh,  S. R. Yost,  
 Zhi-Qiang You,  A. Zech,  Igor Ying Zhang,  Xing Zhang,  Yan Zhao,  
 Ying Zhu,  B. R. Brooks,  G. K. L. Chan,  C. J. Cramer,  M. S. Gordon,  
 W. J. Hehre,  A. Klamt,  M. W. Schmidt,  C. D. Sherrill,  D. G. Truhlar,  
 A. Aspuru-Guzik,  R. Baer,  A. T. Bell,  N. A. Besley,  Jeng-Da Chai,  
 A. E. DePrince, III,  R. A. DiStasio Jr.,  A. Dreuw,  B. D. Dunietz,  
 T. R. Furlani,  Chao-Ping Hsu,  Yousung Jung,  Jing Kong,  D. S. Lambrecht,  
 WanZhen Liang,  C. Ochsenfeld,  V. A. Rassolov,  L. V. Slipchenko,  
 J. E. Subotnik,  T. Van Voorhis,  J. M. Herbert,  A. I. Krylov,  
 P. M. W. Gill,  M. Head-Gordon

 Contributors to earlier versions of Q-Chem not listed above: 
 R. D. Adamson,  B. Austin,  J. Baker,  G. J. O. Beran,  K. Brandhorst,  
 S. T. Brown,  E. F. C. Byrd,  A. K. Chakraborty,  C.-L. Cheng,  
 Siu Hung Chien,  D. M. Chipman,  D. L. Crittenden,  H. Dachsel,  
 R. J. Doerksen,  A. D. Dutoi,  L. Fusti-Molnar,  W. A. Goddard III,  
 A. Golubeva-Zadorozhnaya,  S. R. Gwaltney,  G. Hawkins,  A. Heyden,  
 S. Hirata,  G. Kedziora,  F. J. Keil,  C. Kelley,  Jihan Kim,  R. A. King,  
 R. Z. Khaliullin,  P. P. Korambath,  W. Kurlancheek,  A. M. Lee,  M. S. Lee,  
 S. V. Levchenko,  Ching Yeh Lin,  D. Liotard,  R. C. Lochan,  I. Lotan,  
 P. E. Maslen,  N. Nair,  D. P. O'Neill,  D. Neuhauser,  E. Neuscamman,  
 C. M. Oana,  R. Olson,  B. Peters,  R. Peverati,  P. A. Pieniazek,  
 Y. M. Rhee,  J. Ritchie,  M. A. Rohrdanz,  E. Rosta,  N. J. Russ,  
 H. F. Schaefer III,  N. E. Schultz,  N. Shenvi,  A. C. Simmonett,  A. Sodt,  
 D. Stuck,  K. S. Thanthiriwatte,  V. Vanovschi,  Tao Wang,  A. Warshel,  
 C. F. Williams,  Q. Wu,  X. Xu,  W. Zhang

 Please cite Q-Chem as follows:
 Y. Shao et al., Mol. Phys. 113, 184-215 (2015)
 DOI: 10.1080/00268976.2014.952696

 Q-Chem 5.2.1 for Intel X86 EM64T Linux

 Parts of Q-Chem use Armadillo 8.300.2 (Tropical Shenanigans).
 http://arma.sourceforge.net/

 Q-Chem begins on Wed Sep 29 09:45:52 2021  

compute-0-6.local
Host: 0

     Scratch files written to /home/meili/scratch/qchem33853//Frg1//
NAlpha2: 58
NElect   58
Mult     1
Symmetry turned off for PCM/SM12/SMD calculation

Checking the input file for inconsistencies... 	...done.

--------------------------------------------------------------
User input:
--------------------------------------------------------------
$molecule
0 1
 6	2.5215972453	4.4678891570	0.7923999665
 6	0.9345972453	0.6428891570	-0.4976000335
 6	0.0705972453	1.6458891570	-0.0496000335
 6	2.3125972453	0.8708891570	-0.5156000335
 6	0.5885972453	2.8778891570	0.3763999665
 6	2.8235972453	2.1048891570	-0.0846000335
 6	1.9675972453	3.1218891570	0.3613999665
 8	0.4365972453	-0.5501108430	-0.9326000335
 1	-0.5204027547	-0.6351108430	-0.7286000335
 1	-0.9944027547	1.4678891570	-0.0366000335
 1	2.9735972453	0.0968891570	-0.8766000335
 1	-0.0884027547	3.6508891570	0.7183999665
 1	3.8935972453	2.2658891570	-0.0936000335
 1	3.5295972453	4.3128891570	1.1783999665
 1	1.9285972453	4.8458891570	1.6263999665
 1	2.5701372453	5.2166091570	-0.0120000335
$end
$rem
EDA2		1
METHOD		WB97X-V
BASIS		DEF2-TZVPD
XC_GRID		000099000590
NL_GRID		1
UNRESTRICTED		FALSE
MAX_SCF_CYCLES		200
SYMMETRY		FALSE
SYM_IGNORE		TRUE
BASIS_LIN_DEP_THRESH		6
THRESH		14
SCF_CONVERGENCE		8
SCF_PRINT_FRGM		TRUE
SOLVENT_METHOD		PCM
!required keywords
JOBTYPE		SP
SYM_IGNORE		TRUE
SUBSYSTEM		TRUE
GEN_SCFMAN		TRUE
CHILD_INSTRUCTION		2
SYM_IGNORE		TRUE
SCFMI		0
RI_K 0		
PARI_K 0		
MIN_PARI_K 0		
IARI_K 0		
OCC_RI_K 0		
PURECART		1111
MEM_STATIC		2000
MEM_TOTAL		2000
GUI		0
CHILD_MP		1
CHILD_MP_ORDERS		232
FRZ_RELAX		0
FRZ_RELAX_METHOD		0
EDA_CLS_ELEC		1
EDA_CLS_DISP		0
FRZ_ORTHO_DECOMP		1
EDA2		FALSE
FRGM_METHOD		FALSE
CIS_N_ROOTS  0
LOCAL_CIS    0
CIS_RLX_DNS  1
$end
$pcm
THEORY                  CPCM
METHOD                  SWIG
SOLVER                  INVERSION
RADII                   UFF
HPOINTS                 302
HEAVYPOINTS             302
PRINTLEVEL              0
$end
$solvent
DIELECTRIC              78.390000 ! water
$end
--------------------------------------------------------------
 ----------------------------------------------------------------
             Standard Nuclear Orientation (Angstroms)
    I     Atom           X                Y                Z
 ----------------------------------------------------------------
    1      C       2.5215972453     4.4678891570     0.7923999665
    2      C       0.9345972453     0.6428891570    -0.4976000335
    3      C       0.0705972453     1.6458891570    -0.0496000335
    4      C       2.3125972453     0.8708891570    -0.5156000335
    5      C       0.5885972453     2.8778891570     0.3763999665
    6      C       2.8235972453     2.1048891570    -0.0846000335
    7      C       1.9675972453     3.1218891570     0.3613999665
    8      O       0.4365972453    -0.5501108430    -0.9326000335
    9      H      -0.5204027547    -0.6351108430    -0.7286000335
   10      H      -0.9944027547     1.4678891570    -0.0366000335
   11      H       2.9735972453     0.0968891570    -0.8766000335
   12      H      -0.0884027547     3.6508891570     0.7183999665
   13      H       3.8935972453     2.2658891570    -0.0936000335
   14      H       3.5295972453     4.3128891570     1.1783999665
   15      H       1.9285972453     4.8458891570     1.6263999665
   16      H       2.5701372453     5.2166091570    -0.0120000335
 ----------------------------------------------------------------
 Nuclear Repulsion Energy =         341.45866401 hartrees
 There are       29 alpha and       29 beta electrons
 Requested basis set is def2-TZVPD
 There are 145 shells and 371 basis functions

 Total QAlloc Memory Limit   2000 MB
 Mega-Array Size      1956 MB
 MEM_STATIC part      2000 MB
 Discretize the solute cavity surface with Lebedev spheres
	Using 302 Lebedev grid points for each H atom
	Using 302 Lebedev grid points for other atoms
	Atomic van der Waals radii will be scaled by 1.20
 Remove points where switching function is < 1.0e-08
 Keep 1888 surface tesserae and discard 2944 interior tesserae
 Molecular Surface Area = 191.187 Angst**2
 A cutoff of  1.0D-14 yielded  10039 shell pairs
 There are     67055 function pairs (     85747 Cartesian)
 Smallest overlap matrix eigenvalue = 5.91E-07
 Linear dependence detected in AO basis
 Tighter screening thresholds may be required for diffuse basis sets
 Use S2THRESH > 14 and THRESH = 14 in case of SCF convergence issues
 Number of orthogonalized atomic orbitals = 370
 Maximum deviation from orthogonality = 1.155E-10

 Scale SEOQF with 1.000000e-01/1.000000e-02/1.000000e-01

 Standard Electronic Orientation quadrupole field applied
 Nucleus-field energy     =     0.0000000074 hartrees
 Guess from superposition of atomic densities
 Warning:  Energy on first SCF cycle will be non-variational
 SAD guess density has 58.000000 electrons

 -----------------------------------------------------------------------
  General SCF calculation program by
  Eric Jon Sundstrom, Paul Horn, Yuezhi Mao, Dmitri Zuev, Alec White,
  David Stuck, Shaama M.S., Shane Yost, Joonho Lee, David Small,
  Daniel Levine, Susi Lehtola, Hugh Burton, Evgeny Epifanovsky,
  Bang C. Huynh
 -----------------------------------------------------------------------
 Exchange:     0.1670 Hartree-Fock + 1.0000 wB97X-V + LR-HF
 Correlation:  1.0000 wB97X-V
 Using Euler-Maclaurin-Lebedev (99,590) quadrature formula
 Nonlocal Correlation:  VV10 with C = 0.0100 and b = 6.00 and scale = 1.00000
 Grid used for NLC:  SG-1 standard quadrature
Energy prior to optimization (guess energy) = -346.733419020078
Begin Timing: Total SCF Calculation
begin iterations for algorithm: DIIS         
the SCF tolerance is set to 1.00e-08
    1    -346.7334190201      2.16e-03     00000 
    2    -346.7788878616      1.69e-03     00000 
    3    -346.8148334499      2.85e-04     00000 
    4    -346.8159693896      1.28e-04     00000 
    5    -346.8162461381      2.44e-05     00000 
    6    -346.8162585345      8.73e-06     00000 
    7    -346.8162602310      3.77e-06     00000 
    8    -346.8162605585      8.98e-07     00000 
    9    -346.8162605902      4.34e-07     00000 
   10    -346.8162605968      1.49e-07     00000 
   11    -346.8162605982      5.16e-08     00000 
   12    -346.8162605983      2.04e-08     00000 
   13    -346.8162605984      6.08e-09     00000 Convergence criterion met
Timing for Total SCF: 1015.00s (wall), 6178.45s (cpu)

************** Final PCM Free Energy Summary **************
 G_electrostatic  =      -0.00571504 hartree =      -3.58624181 kcal/mol
 G_cavitation     =       0.00000000 hartree =       0.00000000 kcal/mol
 G_dispersion     =       0.00000000 hartree =       0.00000000 kcal/mol
 G_repulsion      =       0.00000000 hartree =       0.00000000 kcal/mol
 --------------------------------------------------
 Non-electrostatic Free Energy =       0.00000000 hartree =       0.00000000 kcal/mol
 Total                         =      -0.00571504 hartree =      -3.58624181 kcal/mol
 --------------------------------------------------
 SCF Energy (H0 + V/2)                       =    -346.81626060 
 Solute Internal Energy (H0)                 =    -346.81054556 
 Total Free Energy (H0 + V/2 + non-elec)     =    -346.81626060 hartree
                                             = -217630.48822228 kcal/mol
***********************************************************

E_pcm = -0.0057150401
Multipole orders to be included
        2
        3
computing dipole RHS
computing quadrupole RHS
total number of RHS in solve_reponses: 8
RHS batch sizes
        8
Beginning Block Conjugate Gradient Iterations. Batch Number: 0
computing hessian-vector products by finite difference
              1      6.17e-01     00000 Conjugate Gradient Iteration
computing hessian-vector products by finite difference
              2      1.97e-01     00000 Conjugate Gradient Iteration
computing hessian-vector products by finite difference
              3      5.13e-02     00000 Conjugate Gradient Iteration
computing hessian-vector products by finite difference
              4      1.48e-02     00000 Conjugate Gradient Iteration
computing hessian-vector products by finite difference
              5      4.42e-03     00000 Conjugate Gradient Iteration
computing hessian-vector products by finite difference
              6      1.67e-03     00000 Conjugate Gradient Iteration
computing hessian-vector products by finite difference
              7      4.30e-04     00000 Conjugate Gradient Iteration
computing hessian-vector products by finite difference
              8      8.18e-05     00000 Conjugate Gradient Iteration
computing hessian-vector products by finite difference
              9      1.47e-05     00000 Conjugate Gradient Iteration
computing hessian-vector products by finite difference
             10      1.83e-06     00000 Conjugate Gradient Iteration
computing hessian-vector products by finite difference
             11      3.12e-07     00000 Conjugate Gradient Iteration
computing hessian-vector products by finite difference
             12      6.46e-08     00000 Conjugate Gradient Iteration
computing hessian-vector products by finite difference
             13      1.32e-08     00000 Conjugate Gradient Iteration
computing hessian-vector products by finite difference
             14      3.39e-09     00000 CG Converged
batch 0 complete
Done Calculating Responses
TESTING ORTHOGONALIZATION OF MULTIPOLE BASIS
Multipole virts passed orthogonality test
Virts Per Order
           87
          145

 --------------------------------------------------------------

                    Orbital Energies (a.u.)
 --------------------------------------------------------------

 Alpha MOs
 -- Occupied --
-19.2476 -10.3375 -10.2795 -10.2776 -10.2773 -10.2746 -10.2739 -10.2629
 -1.1926  -0.9920  -0.8998  -0.8822  -0.8099  -0.7483  -0.7132  -0.6640
 -0.6020  -0.5809  -0.5516  -0.5391  -0.5330  -0.5237  -0.5093  -0.4765
 -0.4561  -0.4440  -0.4396  -0.3515  -0.3140
 -- Virtual --
  0.0565   0.0576   0.0680   0.0763   0.0831   0.0941   0.1088   0.1098
  0.1135   0.1311   0.1442   0.1513   0.1537   0.1697   0.1728   0.1922
  0.1967   0.2058   0.2146   0.2218   0.2350   0.2387   0.2501   0.2507
  0.2623   0.2655   0.2677   0.2742   0.2820   0.2936   0.2951   0.3022
  0.3042   0.3065   0.3093   0.3222   0.3324   0.3380   0.3419   0.3444
  0.3507   0.3553   0.3606   0.3728   0.3740   0.3772   0.3812   0.3910
  0.3923   0.3938   0.3984   0.4071   0.4102   0.4151   0.4226   0.4288
  0.4357   0.4477   0.4529   0.4574   0.4696   0.4704   0.4746   0.4815
  0.4827   0.4892   0.4962   0.5014   0.5101   0.5115   0.5216   0.5368
  0.5386   0.5427   0.5482   0.5533   0.5612   0.5675   0.5841   0.5935
  0.5989   0.6045   0.6195   0.6265   0.6424   0.6520   0.6572   0.6727
  0.6791   0.6827   0.6864   0.6888   0.6953   0.6982   0.7187   0.7262
  0.7281   0.7397   0.7455   0.7486   0.7569   0.7718   0.7773   0.7824
  0.7869   0.7898   0.7948   0.7969   0.8066   0.8111   0.8255   0.8319
  0.8381   0.8446   0.8515   0.8543   0.8641   0.8703   0.8792   0.8880
  0.8996   0.9074   0.9238   0.9468   0.9641   0.9675   0.9881   1.0050
  1.0184   1.0341   1.0365   1.0461   1.0520   1.0644   1.0724   1.0813
  1.0978   1.1189   1.1358   1.1714   1.1873   1.2347   1.2536   1.2884
  1.3004   1.3057   1.3254   1.3507   1.3558   1.3753   1.3906   1.4300
  1.4511   1.4622   1.4714   1.4801   1.5217   1.5554   1.5986   1.6147
  1.6227   1.6293   1.6835   1.6885   1.7008   1.7218   1.7819   1.7978
  1.8170   1.8238   1.8307   1.8497   1.8724   1.8865   1.9144   1.9227
  1.9399   1.9485   1.9640   1.9799   1.9997   2.0272   2.0307   2.0506
  2.0526   2.0742   2.0893   2.0988   2.1133   2.1479   2.1907   2.1961
  2.2195   2.2289   2.2610   2.2759   2.2960   2.3028   2.3377   2.3642
  2.3925   2.4039   2.4216   2.4548   2.4872   2.4986   2.5193   2.5473
  2.5772   2.5813   2.6064   2.6407   2.6512   2.6718   2.6801   2.7376
  2.7448   2.7511   2.7705   2.7897   2.8152   2.8247   2.8583   2.8688
  2.9023   2.9104   2.9318   2.9383   2.9528   2.9646   2.9748   3.0018
  3.0093   3.0315   3.0623   3.0767   3.0924   3.1126   3.1451   3.1504
  3.1725   3.2028   3.2113   3.2236   3.2477   3.2603   3.2632   3.2906
  3.3260   3.3335   3.3789   3.3813   3.3846   3.4044   3.4481   3.4526
  3.4604   3.4659   3.4873   3.5038   3.5149   3.5189   3.5285   3.5381
  3.5497   3.5649   3.5750   3.5879   3.5939   3.6123   3.6402   3.6491
  3.6725   3.7004   3.7339   3.7521   3.7981   3.8086   3.8242   3.8787
  3.9144   3.9496   3.9715   3.9810   4.0282   4.0698   4.1148   4.1330
  4.2376   4.2575   4.2758   4.2961   4.3049   4.3179   4.3252   4.3482
  4.3623   4.3657   4.4177   4.4312   4.4716   4.5163   4.5858   4.5964
  4.7140   4.7177   4.7692   4.7958   4.8633   4.9134   5.0149   5.0445
  5.0799   5.1179   5.1386   5.2788   5.2988   5.4044   5.4309   5.5193
  5.5879   5.6405   5.7067   5.7530   5.9457   6.1731   6.4680   6.5379
  6.6486   6.8721   6.9901   7.2955   7.4324  22.6441  22.6753  22.9182
 22.9609  22.9972  23.1495  23.4677  44.4133
 --------------------------------------------------------------

          Ground-State Mulliken Net Atomic Charges

     Atom                 Charge (a.u.)
  ----------------------------------------
      1 C                    -1.023753
      2 C                     0.796080
      3 C                    -0.419108
      4 C                    -0.725008
      5 C                    -0.621113
      6 C                    -0.404649
      7 C                     0.575735
      8 O                    -0.495109
      9 H                     0.308732
     10 H                     0.272352
     11 H                     0.333983
     12 H                     0.326443
     13 H                     0.315906
     14 H                     0.274383
     15 H                     0.273941
     16 H                     0.211185
  ----------------------------------------
  Sum of atomic charges =     0.000000

 -----------------------------------------------------------------
                    Cartesian Multipole Moments
 -----------------------------------------------------------------
    Charge (ESU x 10^10)
                -0.0000
    Dipole Moment (Debye)
         X      -1.3012      Y       0.9106      Z       0.7162
       Tot       1.7422
    Quadrupole Moments (Debye-Ang)
        XX     -41.9954     XY       2.4577     YY     -43.9025
        XZ       0.7282     YZ       1.8359     ZZ     -51.7677
    Octopole Moments (Debye-Ang^2)
       XXX    -191.7142    XXY     -84.5754    XYY     -64.4721
       YYY    -260.6766    XXZ      -0.3519    XYZ       1.1617
       YYZ      11.5543    XZZ     -75.8613    YZZ     -98.0506
       ZZZ       8.2603
    Hexadecapole Moments (Debye-Ang^3)
      XXXX    -946.1412   XXXY    -488.1318   XXYY    -456.7325
      XYYY    -494.3408   YYYY   -1807.6171   XXXZ     -24.1011
      XXYZ     -30.7887   XYYZ       0.3158   YYYZ     -87.4409
      XXZZ    -208.2753   XYZZ    -183.6062   YYZZ    -349.1614
      XZZZ     -16.5633   YZZZ    -116.1542   ZZZZ    -162.5281
 -----------------------------------------------------------------
Archival summary:
1\1\compute-0-6.local\SP\ProcedureUnspecified\BasisUnspecified\178\meili\WedSep2914:29:392021WedSep2914:29:392021\0\\#,ProcedureUnspecified,BasisUnspecified,\\0,1\C\O,1,1.36399\H,2,0.982186,1,111.42\C,1,1.39685,2,119.923,3,170.529,0\H,4,1.07996,1,119.415,2,0.0674493,0\C,1,1.39757,2,120.28,3,-10.3003,0\H,6,1.07985,1,119.688,2,0.814981,0\C,6,1.40272,1,119.959,2,-178.993,0\H,8,1.08297,6,119.47,1,179.765,0\C,8,1.4005,6,120.889,1,-0.0480563,0\C,10,1.40212,8,118.566,6,-0.242501,0\H,11,1.08208,10,119.895,8,-179.245,0\C,10,1.51802,8,120.716,6,178.552,0\H,13,1.09045,10,108.169,8,152.17,0\H,13,1.09091,10,109.021,8,36.9505,0\H,13,1.1,10,114.331,8,-87.0308,0\\\@

 Total job time:  17026.82s(wall), 104018.99s(cpu) 
 Wed Sep 29 14:29:39 2021

        *************************************************************
        *                                                           *
        *  Thank you very much for using Q-Chem.  Have a nice day.  *
        *                                                           *
        *************************************************************


Done Job For Fragment 0
calling putenv with: QCSCRATCH=/home/meili/scratch 
calling putenv with: QCTHREADS=8 
Creating input file /home/meili/scratch/qchem33853/Frg2.input
using default PutDataFrgm: nothing
calling putenv with: QCSCRATCH=/home/meili/scratch/qchem33853/ 
Spawning Job For Fragment 1
                  Welcome to Q-Chem
     A Quantum Leap Into The Future Of Chemistry


 Q-Chem 5.2 (devel), Q-Chem, Inc., Pleasanton, CA (2019)

 Yihan Shao,  Zhengting Gan,  E. Epifanovsky,  A. T. B. Gilbert,  M. Wormit,  
 J. Kussmann,  A. W. Lange,  A. Behn,  Jia Deng,  Xintian Feng,  D. Ghosh,  
 M. Goldey,  P. R. Horn,  L. D. Jacobson,  I. Kaliman,  T. Kus,  A. Landau,  
 Jie Liu,  E. I. Proynov,  R. M. Richard,  R. P. Steele,  E. J. Sundstrom,  
 H. L. Woodcock III,  P. M. Zimmerman,  D. Zuev,  B. Albrecht,  E. Alguire,  
 S. A. Baeppler,  D. Barton,  Z. Benda,  Y. A. Bernard,  E. J. Berquist,  
 K. B. Bravaya,  H. Burton,  D. Casanova,  Chun-Min Chang,  Yunqing Chen,  
 A. Chien,  K. D. Closser,  M. P. Coons,  S. Coriani,  S. Dasgupta,  
 A. L. Dempwolff,  M. Diedenhofen,  Hainam Do,  R. G. Edgar,  Po-Tung Fang,  
 S. Faraji,  S. Fatehi,  Qingguo Feng,  K. D. Fenk,  J. Fosso-Tande,  
 J. Gayvert,  Qinghui Ge,  A. Ghysels,  G. Gidofalvi,  J. Gomes,  
 J. Gonthier,  A. Gunina,  D. Hait,  M. W. D. Hanson-Heine,  
 P. H. P. Harbach,  A. W. Hauser,  M. F. Herbst,  J. E. Herr,  
 E. G. Hohenstein,  Z. C. Holden,  Kerwin Hui,  B. C. Huynh,  T.-C. Jagau,  
 Hyunjun Ji,  B. Kaduk,  K. Khistyaev,  Jaehoon Kim,  P. Klunzinger,  K. Koh,  
 D. Kosenkov,  L. Koulias,  T. Kowalczyk,  C. M. Krauter,  A. Kunitsa,  
 Ka Un Lao,  A. Laurent,  K. V. Lawler,  Joonho Lee,  D. Lefrancois,  
 S. Lehtola,  D. S. Levine,  Yi-Pei Li,  You-Sheng Lin,  Fenglai Liu,  
 E. Livshits,  A. Luenser,  P. Manohar,  E. Mansoor,  S. F. Manzer,  
 Shan-Ping Mao,  Yuezhi Mao,  N. Mardirossian,  A. V. Marenich,  
 T. Markovich,  L. A. Martinez-Martinez,  S. A. Maurer,  N. J. Mayhall,  
 S. C. McKenzie,  J.-M. Mewes,  P. Morgante,  A. F. Morrison,  
 J. W. Mullinax,  K. Nanda,  T. S. Nguyen-Beck,  R. Olivares-Amaya,  
 J. A. Parkhill,  Zheng Pei,  T. M. Perrine,  F. Plasser,  P. Pokhilko,  
 S. Prager,  A. Prociuk,  E. Ramos,  D. R. Rehn,  F. Rob,  M. Scheurer,  
 M. Schneider,  N. Sergueev,  S. M. Sharada,  S. Sharma,  D. W. Small,  
 T. Stauch,  T. Stein,  Yu-Chuan Su,  A. J. W. Thom,  A. Tkatchenko,  
 T. Tsuchimochi,  N. M. Tubman,  L. Vogt,  M. L. Vidal,  O. Vydrov,  
 M. A. Watson,  J. Wenzel,  M. de Wergifosse,  T. A. Wesolowski,  A. White,  
 J. Witte,  A. Yamada,  Jun Yang,  K. Yao,  S. Yeganeh,  S. R. Yost,  
 Zhi-Qiang You,  A. Zech,  Igor Ying Zhang,  Xing Zhang,  Yan Zhao,  
 Ying Zhu,  B. R. Brooks,  G. K. L. Chan,  C. J. Cramer,  M. S. Gordon,  
 W. J. Hehre,  A. Klamt,  M. W. Schmidt,  C. D. Sherrill,  D. G. Truhlar,  
 A. Aspuru-Guzik,  R. Baer,  A. T. Bell,  N. A. Besley,  Jeng-Da Chai,  
 A. E. DePrince, III,  R. A. DiStasio Jr.,  A. Dreuw,  B. D. Dunietz,  
 T. R. Furlani,  Chao-Ping Hsu,  Yousung Jung,  Jing Kong,  D. S. Lambrecht,  
 WanZhen Liang,  C. Ochsenfeld,  V. A. Rassolov,  L. V. Slipchenko,  
 J. E. Subotnik,  T. Van Voorhis,  J. M. Herbert,  A. I. Krylov,  
 P. M. W. Gill,  M. Head-Gordon

 Contributors to earlier versions of Q-Chem not listed above: 
 R. D. Adamson,  B. Austin,  J. Baker,  G. J. O. Beran,  K. Brandhorst,  
 S. T. Brown,  E. F. C. Byrd,  A. K. Chakraborty,  C.-L. Cheng,  
 Siu Hung Chien,  D. M. Chipman,  D. L. Crittenden,  H. Dachsel,  
 R. J. Doerksen,  A. D. Dutoi,  L. Fusti-Molnar,  W. A. Goddard III,  
 A. Golubeva-Zadorozhnaya,  S. R. Gwaltney,  G. Hawkins,  A. Heyden,  
 S. Hirata,  G. Kedziora,  F. J. Keil,  C. Kelley,  Jihan Kim,  R. A. King,  
 R. Z. Khaliullin,  P. P. Korambath,  W. Kurlancheek,  A. M. Lee,  M. S. Lee,  
 S. V. Levchenko,  Ching Yeh Lin,  D. Liotard,  R. C. Lochan,  I. Lotan,  
 P. E. Maslen,  N. Nair,  D. P. O'Neill,  D. Neuhauser,  E. Neuscamman,  
 C. M. Oana,  R. Olson,  B. Peters,  R. Peverati,  P. A. Pieniazek,  
 Y. M. Rhee,  J. Ritchie,  M. A. Rohrdanz,  E. Rosta,  N. J. Russ,  
 H. F. Schaefer III,  N. E. Schultz,  N. Shenvi,  A. C. Simmonett,  A. Sodt,  
 D. Stuck,  K. S. Thanthiriwatte,  V. Vanovschi,  Tao Wang,  A. Warshel,  
 C. F. Williams,  Q. Wu,  X. Xu,  W. Zhang

 Please cite Q-Chem as follows:
 Y. Shao et al., Mol. Phys. 113, 184-215 (2015)
 DOI: 10.1080/00268976.2014.952696

 Q-Chem 5.2.1 for Intel X86 EM64T Linux

 Parts of Q-Chem use Armadillo 8.300.2 (Tropical Shenanigans).
 http://arma.sourceforge.net/

 Q-Chem begins on Wed Sep 29 14:29:40 2021  

compute-0-6.local
Host: 0

     Scratch files written to /home/meili/scratch/qchem33853//Frg2//
NAlpha2: 40
NElect   40
Mult     1
Symmetry turned off for PCM/SM12/SMD calculation

Checking the input file for inconsistencies... 	...done.

--------------------------------------------------------------
User input:
--------------------------------------------------------------
$molecule
-1 1
 6	-1.1424027547	-3.1641108430	0.2953999665
 6	-1.6134027547	-4.5441108430	0.7553999665
 6	-2.3034027547	-2.2581108430	-0.0556000335
 8	-3.4494027547	-2.7421108430	-0.0476000335
 8	-2.0524027547	-1.0691108430	-0.3536000335
 1	-0.5204027547	-2.7011108430	1.0643999665
 1	-0.5314027547	-3.2731108430	-0.6016000335
 1	-2.5704027547	-4.7941108430	0.3013999665
 1	-1.6982527547	-4.5756508430	1.8516699665
 1	-0.9290627547	-5.3138208430	0.3690999665
$end
$rem
EDA2		1
METHOD		WB97X-V
BASIS		DEF2-TZVPD
XC_GRID		000099000590
NL_GRID		1
UNRESTRICTED		FALSE
MAX_SCF_CYCLES		200
SYMMETRY		FALSE
SYM_IGNORE		TRUE
BASIS_LIN_DEP_THRESH		6
THRESH		14
SCF_CONVERGENCE		8
SCF_PRINT_FRGM		TRUE
SOLVENT_METHOD		PCM
!required keywords
JOBTYPE		SP
SYM_IGNORE		TRUE
SUBSYSTEM		TRUE
GEN_SCFMAN		TRUE
CHILD_INSTRUCTION		2
SYM_IGNORE		TRUE
SCFMI		0
RI_K 0		
PARI_K 0		
MIN_PARI_K 0		
IARI_K 0		
OCC_RI_K 0		
PURECART		1111
MEM_STATIC		2000
MEM_TOTAL		2000
GUI		0
CHILD_MP		1
CHILD_MP_ORDERS		232
FRZ_RELAX		0
FRZ_RELAX_METHOD		0
EDA_CLS_ELEC		1
EDA_CLS_DISP		0
FRZ_ORTHO_DECOMP		1
EDA2		FALSE
FRGM_METHOD		FALSE
CIS_N_ROOTS  0
LOCAL_CIS    0
CIS_RLX_DNS  1
$end
$pcm
THEORY                  CPCM
METHOD                  SWIG
SOLVER                  INVERSION
RADII                   UFF
HPOINTS                 302
HEAVYPOINTS             302
PRINTLEVEL              0
$end
$solvent
DIELECTRIC              78.390000 ! water
$end
--------------------------------------------------------------
 ----------------------------------------------------------------
             Standard Nuclear Orientation (Angstroms)
    I     Atom           X                Y                Z
 ----------------------------------------------------------------
    1      C      -1.1424027547    -3.1641108430     0.2953999665
    2      C      -1.6134027547    -4.5441108430     0.7553999665
    3      C      -2.3034027547    -2.2581108430    -0.0556000335
    4      O      -3.4494027547    -2.7421108430    -0.0476000335
    5      O      -2.0524027547    -1.0691108430    -0.3536000335
    6      H      -0.5204027547    -2.7011108430     1.0643999665
    7      H      -0.5314027547    -3.2731108430    -0.6016000335
    8      H      -2.5704027547    -4.7941108430     0.3013999665
    9      H      -1.6982527547    -4.5756508430     1.8516699665
   10      H      -0.9290627547    -5.3138208430     0.3690999665
 ----------------------------------------------------------------
 Nuclear Repulsion Energy =         170.26018931 hartrees
 There are       20 alpha and       20 beta electrons
 Requested basis set is def2-TZVPD
 There are 92 shells and 236 basis functions

 Total QAlloc Memory Limit   2000 MB
 Mega-Array Size      1956 MB
 MEM_STATIC part      2000 MB
 Discretize the solute cavity surface with Lebedev spheres
	Using 302 Lebedev grid points for each H atom
	Using 302 Lebedev grid points for other atoms
	Atomic van der Waals radii will be scaled by 1.20
 Remove points where switching function is < 1.0e-08
 Keep 1298 surface tesserae and discard 1722 interior tesserae
 Molecular Surface Area = 141.989 Angst**2

                       Distance Matrix (Angstroms)
             C (  1)   C (  2)   C (  3)   O (  4)   O (  5)   H (  6)
   C (  2)  1.529000
   C (  3)  1.513921  2.521828
   O (  4)  2.370228  2.694978  1.244040
   O (  5)  2.374516  3.673993  1.251210  2.200948
   H (  6)  1.092069  2.164897  2.151683  3.133252  2.649749
   H (  7)  1.090785  2.151189  2.113841  3.017217  2.689342  1.761494
   H (  8)  2.167053  1.088331  2.574885  2.259457  3.817456  3.027428
   H (  9)  2.173336  1.100001  3.061842  3.167905  4.157458  2.349686
   H ( 10)  2.161527  1.100001  3.377358  3.624837  4.449916  2.734355
             H (  7)   H (  8)   H (  9)
   H (  8)  2.699328
   H (  9)  3.012753  1.792124
   H ( 10)  2.294535  1.722985  1.826078

 A cutoff of  1.0D-14 yielded   4190 shell pairs
 There are     28012 function pairs (     35695 Cartesian)
 Smallest overlap matrix eigenvalue = 8.52E-06

 Scale SEOQF with 1.000000e-01/1.000000e-02/1.000000e-01

 Standard Electronic Orientation quadrupole field applied
 Nucleus-field energy     =     0.0000000086 hartrees
 Guess from superposition of atomic densities
 Warning:  Energy on first SCF cycle will be non-variational
 SAD guess density has 39.000000 electrons

 -----------------------------------------------------------------------
  General SCF calculation program by
  Eric Jon Sundstrom, Paul Horn, Yuezhi Mao, Dmitri Zuev, Alec White,
  David Stuck, Shaama M.S., Shane Yost, Joonho Lee, David Small,
  Daniel Levine, Susi Lehtola, Hugh Burton, Evgeny Epifanovsky,
  Bang C. Huynh
 -----------------------------------------------------------------------
 Exchange:     0.1670 Hartree-Fock + 1.0000 wB97X-V + LR-HF
 Correlation:  1.0000 wB97X-V
 Using Euler-Maclaurin-Lebedev (99,590) quadrature formula
 Nonlocal Correlation:  VV10 with C = 0.0100 and b = 6.00 and scale = 1.00000
 Grid used for NLC:  SG-1 standard quadrature
Energy prior to optimization (guess energy) = -267.660173495542
Begin Timing: Total SCF Calculation
begin iterations for algorithm: DIIS         
the SCF tolerance is set to 1.00e-08
    1    -267.6601734955      5.83e-03     00000 
    2    -267.7177953686      7.06e-03     00000 
    3    -267.9507057498      5.00e-04     00000 
    4    -267.9531200273      2.13e-04     00000 
    5    -267.9536500162      5.79e-05     00000 
    6    -267.9537139717      2.10e-05     00000 
    7    -267.9537185346      1.54e-05     00000 
    8    -267.9537200705      3.45e-06     00000 
    9    -267.9537203070      8.04e-07     00000 
   10    -267.9537203244      3.30e-07     00000 
   11    -267.9537203264      6.47e-08     00000 
   12    -267.9537203266      1.52e-08     00000 
   13    -267.9537203266      3.41e-09     00000 Convergence criterion met
Timing for Total SCF: 212.00s (wall), 1224.23s (cpu)

************** Final PCM Free Energy Summary **************
 G_electrostatic  =      -0.09960033 hartree =     -62.50015310 kcal/mol
 G_cavitation     =       0.00000000 hartree =       0.00000000 kcal/mol
 G_dispersion     =       0.00000000 hartree =       0.00000000 kcal/mol
 G_repulsion      =       0.00000000 hartree =       0.00000000 kcal/mol
 --------------------------------------------------
 Non-electrostatic Free Energy =       0.00000000 hartree =       0.00000000 kcal/mol
 Total                         =      -0.09960033 hartree =     -62.50015310 kcal/mol
 --------------------------------------------------
 SCF Energy (H0 + V/2)                       =    -267.95372033 
 Solute Internal Energy (H0)                 =    -267.85411999 
 Total Free Energy (H0 + V/2 + non-elec)     =    -267.95372033 hartree
                                             = -168143.49729460 kcal/mol
***********************************************************

E_pcm = -0.0996003343
Multipole orders to be included
        2
        3
computing dipole RHS
computing quadrupole RHS
total number of RHS in solve_reponses: 8
RHS batch sizes
        8
Beginning Block Conjugate Gradient Iterations. Batch Number: 0
computing hessian-vector products by finite difference
              1      6.04e-01     00000 Conjugate Gradient Iteration
computing hessian-vector products by finite difference
              2      2.36e-01     00000 Conjugate Gradient Iteration
computing hessian-vector products by finite difference
              3      6.08e-02     00000 Conjugate Gradient Iteration
computing hessian-vector products by finite difference
              4      1.62e-02     00000 Conjugate Gradient Iteration
computing hessian-vector products by finite difference
              5      3.09e-03     00000 Conjugate Gradient Iteration
computing hessian-vector products by finite difference
              6      6.56e-04     00000 Conjugate Gradient Iteration
computing hessian-vector products by finite difference
              7      1.19e-04     00000 Conjugate Gradient Iteration
computing hessian-vector products by finite difference
              8      1.99e-05     00000 Conjugate Gradient Iteration
computing hessian-vector products by finite difference
              9      3.36e-06     00000 Conjugate Gradient Iteration
computing hessian-vector products by finite difference
             10      4.85e-07     00000 Conjugate Gradient Iteration
computing hessian-vector products by finite difference
             11      5.72e-08     00000 Conjugate Gradient Iteration
computing hessian-vector products by finite difference
             12      1.91e-08     00000 Conjugate Gradient Iteration
computing hessian-vector products by finite difference
             13      2.90e-09     00000 CG Converged
batch 0 complete
Done Calculating Responses
TESTING ORTHOGONALIZATION OF MULTIPOLE BASIS
Multipole virts passed orthogonality test
Virts Per Order
           60
          100

 --------------------------------------------------------------

                    Orbital Energies (a.u.)
 --------------------------------------------------------------

 Alpha MOs
 -- Occupied --
-19.1200 -19.1183 -10.3183 -10.2405 -10.2356  -1.1325  -1.0324  -0.8775
 -0.7401  -0.5916  -0.5575  -0.5349  -0.5016  -0.4793  -0.4535  -0.4352
 -0.4234  -0.3280  -0.3226  -0.3061
 -- Virtual --
  0.0644   0.0833   0.0929   0.1020   0.1185   0.1306   0.1384   0.1424
  0.1528   0.1723   0.1780   0.1994   0.2061   0.2167   0.2241   0.2401
  0.2544   0.2603   0.2735   0.2810   0.2973   0.3056   0.3165   0.3243
  0.3363   0.3401   0.3565   0.3650   0.3866   0.3874   0.3986   0.4033
  0.4120   0.4177   0.4215   0.4284   0.4440   0.4511   0.4544   0.4770
  0.4849   0.4961   0.5044   0.5080   0.5137   0.5206   0.5378   0.5470
  0.5539   0.5667   0.5807   0.5952   0.6033   0.6285   0.6404   0.6478
  0.6629   0.6803   0.6924   0.6987   0.7111   0.7218   0.7386   0.7604
  0.7764   0.7791   0.7922   0.7965   0.8097   0.8185   0.8328   0.8344
  0.8482   0.8661   0.8735   0.8828   0.9005   0.9623   0.9980   1.0356
  1.0433   1.0533   1.0630   1.0774   1.1448   1.1585   1.1806   1.2251
  1.2349   1.2936   1.2996   1.3202   1.3504   1.3835   1.3903   1.4302
  1.4383   1.4570   1.5075   1.6217   1.7118   1.8010   1.8474   1.8918
  1.9061   1.9172   1.9327   1.9548   1.9596   1.9814   2.0005   2.0028
  2.0133   2.0320   2.0767   2.1283   2.1881   2.1996   2.2392   2.2548
  2.2792   2.3333   2.3424   2.4026   2.4334   2.4593   2.5065   2.5156
  2.5427   2.5711   2.6150   2.6400   2.6876   2.7515   2.7927   2.8101
  2.8460   2.8647   2.9085   2.9692   2.9829   3.0295   3.0623   3.0812
  3.1499   3.1793   3.2382   3.2569   3.2640   3.3106   3.3446   3.3582
  3.3800   3.3923   3.4687   3.4773   3.5445   3.5590   3.5623   3.5789
  3.6167   3.6205   3.6409   3.6817   3.7027   3.7287   3.7547   3.7617
  3.8432   3.8593   3.9954   4.0616   4.1007   4.1240   4.1807   4.2464
  4.3605   4.4350   4.5021   4.6313   4.6834   4.7657   4.8057   4.8429
  4.9056   5.0429   5.1663   5.3401   5.3777   5.3796   5.3912   5.5213
  5.7501   5.7756   5.8359   6.0526   6.2656   6.3630   6.3760   6.6473
  6.6537   6.7383   6.7742   6.7928   6.9911   7.0138   7.0683   7.2808
  7.3966   7.4261   7.4356  22.6080  22.7863  23.8247  44.2501  44.4204
 --------------------------------------------------------------

          Ground-State Mulliken Net Atomic Charges

     Atom                 Charge (a.u.)
  ----------------------------------------
      1 C                     0.054525
      2 C                    -0.688435
      3 C                     0.149637
      4 O                    -0.662420
      5 O                    -0.702514
      6 H                     0.165651
      7 H                     0.123651
      8 H                     0.193759
      9 H                     0.171144
     10 H                     0.195002
  ----------------------------------------
  Sum of atomic charges =    -1.000000

 -----------------------------------------------------------------
                    Cartesian Multipole Moments
 -----------------------------------------------------------------
    Charge (ESU x 10^10)
                -4.8032
    Dipole Moment (Debye)
         X      14.1812      Y       8.1997      Z       1.2339
       Tot      16.4276
    Quadrupole Moments (Debye-Ang)
        XX     -78.8984     XY     -28.6806     YY     -53.8659
        XZ      -3.0057     YZ      -0.0262     ZZ     -32.7639
    Octopole Moments (Debye-Ang^2)
       XXX     359.8762    XXY     197.8624    XYY     142.5539
       YYY     352.1300    XXZ       2.3500    XYZ       1.9998
       YYZ     -12.1792    XZZ      68.2900    YZZ      93.0915
       ZZZ     -13.6090
    Hexadecapole Moments (Debye-Ang^3)
      XXXX   -1567.6089   XXXY    -928.0961   XXYY    -769.5727
      XYYY    -776.9756   YYYY   -2223.9121   XXXZ      -4.0868
      XXYZ      23.8738   XYYZ      10.5761   YYYZ     137.1440
      XXZZ    -187.4570   XYZZ    -183.7970   YYZZ    -340.0565
      XZZZ      13.1227   YZZZ      86.0660   ZZZZ     -83.6855
 -----------------------------------------------------------------
Archival summary:
1\1\compute-0-6.local\SP\ProcedureUnspecified\BasisUnspecified\235(1-,1)\meili\WedSep2915:36:262021WedSep2915:36:262021\0\\#,ProcedureUnspecified,BasisUnspecified,\\-1,1\C\O,1,1.24404\O,1,1.25121,2,123.782\C,1,1.51392,2,118.172,3,-179.059,0\H,4,1.09078,1,107.38,2,113.941,0\H,4,1.09207,1,110.263,2,-129.103,0\C,4,1.529,1,111.941,2,-5.96689,0\H,7,1.08833,4,110.652,1,28.1396,0\H,7,1.1,4,110.455,1,-93.8589,0\H,7,1.1,4,109.527,1,142.069,0\\\@

 Total job time:  4006.33s(wall), 23542.73s(cpu) 
 Wed Sep 29 15:36:26 2021

        *************************************************************
        *                                                           *
        *  Thank you very much for using Q-Chem.  Have a nice day.  *
        *                                                           *
        *************************************************************


Done Job For Fragment 1
calling putenv with: QCSCRATCH=/home/meili/scratch 
calling putenv with: QCTHREADS=8 
Doing General SCFMI
 Exchange:     0.1670 Hartree-Fock + 1.0000 wB97X-V + LR-HF
 Correlation:  1.0000 wB97X-V
 Using Euler-Maclaurin-Lebedev (99,590) quadrature formula
 Nonlocal Correlation:  VV10 with C = 0.0100 and b = 6.00 and scale = 1.00000
 Grid used for NLC:  SG-1 standard quadrature
performing fock build before subrot guess so that all methods have access
Printing subrot_rss_gen Method Specification:
Occupied Subspace Method is 0
Virtual Subspace Method is 0
Energy of the unrelaxed supersystem initial determinant -614.678728312813
performing fock build before subrot guess so that all methods have access
Printing subrot_rss_gen Method Specification:
Occupied Subspace Method is 0
Virtual Subspace Method is 0
Energy of the unrelaxed supersystem initial determinant w/ solvent -614.771391669661
write pseudocanon occs and virts to disk
write pseudocanon orbital energies to disk
Tolerance of ortho_decomp_scf: 1.00e-06
GDM subspace size: 20
Beginning the Orthogonal Decomposition of the Initial Supersystem Wavefunction
    1    -614.5557088116      8.57e-02     ortho_decomp Preconditoned Steepest Descent
    2    -614.5733772752      1.96e-03     ortho_decomp BFGS Step
    3    -614.5734311174      1.62e-04     ortho_decomp BFGS Step
    4    -614.5734312226      6.58e-06     ortho_decomp BFGS Step
    5    -614.5734312230      2.56e-07     ortho_decomp 00000 Convergence criterion met
 Hartree-Fock
 Hartree-Fock
 Hartree-Fock
Doing General SCFMI
 Exchange:     0.1670 Hartree-Fock + 1.0000 wB97X-V + LR-HF
 Correlation:  1.0000 wB97X-V
 Using Euler-Maclaurin-Lebedev (99,590) quadrature formula
 Nonlocal Correlation:  VV10 with C = 0.0100 and b = 6.00 and scale = 1.00000
 Grid used for NLC:  SG-1 standard quadrature
performing fock build at end of subrot_r(subrot) constructor so that all methods have access
<S^2> of initial wavefunction before polarization iterations 0.0000000000
Beginning iterations for the determination of the polarized wavefunction
Energy prior to optimization (guess energy) = -614.771391669663
Begin Timing: Total SCF Calculation
begin iterations for algorithm: DIIS         
the SCF tolerance is set to 1.00e-08
    1    -614.7713916697      2.67e-04     00000 
    2    -614.7782866703      1.04e-04     00000 
    3    -614.7789961162      7.35e-05     00000 
    4    -614.7792896591      1.86e-05     00000 
    5    -614.7793339664      8.12e-06     00000 
    6    -614.7793449672      3.95e-06     00000 
    7    -614.7793476905      2.02e-06     00000 
    8    -614.7793482798      1.27e-06     00000 
    9    -614.7793484078      3.26e-07     00000 
   10    -614.7793484186      1.80e-07     00000 
   11    -614.7793484218      5.82e-08     00000 
   12    -614.7793484224      3.14e-08     00000 
   13    -614.7793484224      1.32e-08     00000 
   14    -614.7793484225      5.53e-09     00000 Convergence criterion met
write pseudocanon occs and virts to disk
write pseudocanon orbital energies to disk
Timing for Total SCF: 3245.00s (wall), 20570.49s (cpu)
<S^2> of polarized wavefunction after polarization iterations 0.0000000000
relaxing scfmi constraint to allow all rotations in the entire AO span
Doing General SCFMI
 Exchange:     0.1670 Hartree-Fock + 1.0000 wB97X-V + LR-HF
 Correlation:  1.0000 wB97X-V
 Using Euler-Maclaurin-Lebedev (99,590) quadrature formula
 Nonlocal Correlation:  VV10 with C = 0.0100 and b = 6.00 and scale = 1.00000
 Grid used for NLC:  SG-1 standard quadrature
performing fock build at end of subrot_r(subrot) constructor so that all methods have access
<S^2> of polarized wavefunction before ct-allowed iterations 0.0000000000
Beginning iterations for the determination of the CT-Allowed wavefunction
Energy prior to optimization (guess energy) = -614.779348422462
Begin Timing: Total SCF Calculation
begin iterations for algorithm: DIIS         
the SCF tolerance is set to 1.00e-08
    1    -614.7793484225      2.34e-04     00000 
    2    -614.7903577897      4.03e-05     00000 
    3    -614.7907889436      2.59e-05     00000 
    4    -614.7908689979      8.59e-06     00000 
    5    -614.7908825391      2.86e-06     00000 
    6    -614.7908839106      9.40e-07     00000 
    7    -614.7908841277      3.82e-07     00000 
    8    -614.7908841678      8.38e-08     00000 
    9    -614.7908841712      3.16e-08     00000 
   10    -614.7908841719      1.53e-08     00000 
   11    -614.7908841720      5.24e-09     00000 Convergence criterion met
write pseudocanon occs and virts to disk
write pseudocanon orbital energies to disk
Timing for Total SCF: 2451.00s (wall), 15609.29s (cpu)
<S^2> of ct_allowed wavefunction after ct-allowed iterations 0.0000000000

================================
        Results of EDA2         
================================
Basic EDA Quantities
--------------------
Fragment Energies (Ha):
1 -346.8162605984
2 -267.9537203266
--------------------
  E_prp (kJ/mol) = 0.0000
  E_sol (kJ/mol) = 33.2183
  E_frz (kJ/mol) = -36.9222
  E_pol (kJ/mol) = -20.8907
  E_vct (kJ/mol) = -30.2875
  E_int (kJ/mol) = -54.8821
--------------------


Initial Wavefunction Decomposition
--------------------
  --------------------
  Orthogonal Fragment Subspace Decomposition:
  --------------------
     E_elec   (ELEC)   (kJ/mol) = -213.7730
     E_pauli  (PAULI)  (kJ/mol) = 200.2200
     E_disp   (DISP)   (kJ/mol) = -23.3692
     --------------------
     Terms summing to E_pauli:
     --------------------
        E_kep_pauli       (kJ/mol) = 239.5386
        E_disp_free_pauli (kJ/mol) = -39.3186
  --------------------
  Classical Frozen Decomposition:
  --------------------
     E_cls_elec  (CLS ELEC)  (kJ/mol) = -136.1104
     E_cls_pauli (CLS PAULI) (kJ/mol) = 99.1882
    [E_mod_pauli (MOD PAULI) (kJ/mol) = 122.5574 (CLS PAULI - DISP from orthogonal decomposition) ]
  --------------------
--------------------

Simplified EDA Summary (kJ/mol)
--------------------
 PREPARATION     0.0000
 SOLVATION       33.2183
 FROZEN          -13.5531      (does not include dispersion)
[PAULI           200.2200]     (if this is negligible, then frozen describes electrostatics)
 DISPERSION      -23.3692
 POLARIZATION    -20.8907
 CHARGE TRANSFER -30.2875
 TOTAL           -54.8821     (PRP + SOL + FRZ + DISP + POL + CT)
--------------------

 --------------------------------------------------------------

                    Orbital Energies (a.u.)
 --------------------------------------------------------------

 Alpha MOs
 -- Occupied --
-19.2037 -19.1389 -19.1305 -10.3322 -10.3222 -10.2707 -10.2697 -10.2689
-10.2625 -10.2613 -10.2590 -10.2451 -10.2382  -1.1603  -1.1465  -1.0504
 -0.9818  -0.8897  -0.8819  -0.8723  -0.7999  -0.7453  -0.7361  -0.7004
 -0.6485  -0.6013  -0.5896  -0.5719  -0.5626  -0.5533  -0.5369  -0.5298
 -0.5236  -0.5144  -0.5069  -0.4951  -0.4885  -0.4690  -0.4561  -0.4461
 -0.4397  -0.4296  -0.4285  -0.4218  -0.3451  -0.3427  -0.3367  -0.3224
 -0.2988
 -- Virtual --
  0.0576   0.0641   0.0677   0.0767   0.0823   0.0840   0.0928   0.0952
  0.1052   0.1088   0.1149   0.1197   0.1254   0.1371   0.1433   0.1446
  0.1533   0.1574   0.1606   0.1624   0.1696   0.1768   0.1825   0.1879
  0.1956   0.2041   0.2062   0.2167   0.2191   0.2255   0.2266   0.2295
  0.2375   0.2381   0.2451   0.2511   0.2529   0.2619   0.2633   0.2698
  0.2716   0.2729   0.2765   0.2831   0.2850   0.2904   0.2934   0.2990
  0.3020   0.3063   0.3117   0.3149   0.3185   0.3215   0.3251   0.3307
  0.3345   0.3359   0.3380   0.3455   0.3480   0.3524   0.3558   0.3688
  0.3704   0.3742   0.3773   0.3810   0.3824   0.3844   0.3884   0.3904
  0.3944   0.3959   0.3985   0.4006   0.4057   0.4077   0.4185   0.4195
  0.4222   0.4243   0.4286   0.4310   0.4323   0.4410   0.4475   0.4485
  0.4520   0.4540   0.4571   0.4610   0.4648   0.4672   0.4723   0.4783
  0.4784   0.4896   0.4909   0.4912   0.4960   0.4988   0.5040   0.5095
  0.5124   0.5155   0.5178   0.5204   0.5219   0.5295   0.5381   0.5418
  0.5453   0.5479   0.5519   0.5585   0.5619   0.5681   0.5738   0.5766
  0.5816   0.5845   0.5944   0.5992   0.6013   0.6051   0.6087   0.6162
  0.6197   0.6301   0.6357   0.6395   0.6427   0.6539   0.6563   0.6687
  0.6706   0.6744   0.6765   0.6835   0.6887   0.6922   0.6982   0.7033
  0.7091   0.7135   0.7210   0.7253   0.7303   0.7326   0.7414   0.7459
  0.7507   0.7519   0.7610   0.7644   0.7695   0.7710   0.7756   0.7769
  0.7810   0.7907   0.7915   0.7941   0.7960   0.8057   0.8068   0.8151
  0.8177   0.8208   0.8266   0.8280   0.8294   0.8353   0.8390   0.8408
  0.8497   0.8541   0.8602   0.8614   0.8628   0.8762   0.8790   0.8829
  0.8883   0.8934   0.8965   0.9018   0.9070   0.9174   0.9247   0.9288
  0.9367   0.9380   0.9500   0.9530   0.9677   0.9809   0.9945   0.9960
  1.0113   1.0178   1.0213   1.0362   1.0457   1.0513   1.0604   1.0630
  1.0684   1.0702   1.0806   1.0877   1.0929   1.0975   1.1076   1.1187
  1.1258   1.1462   1.1577   1.1672   1.1716   1.1762   1.1862   1.2047
  1.2160   1.2236   1.2474   1.2621   1.2706   1.2922   1.3102   1.3157
  1.3318   1.3447   1.3519   1.3607   1.3670   1.3712   1.3830   1.3918
  1.4040   1.4148   1.4215   1.4279   1.4427   1.4520   1.4670   1.4721
  1.4769   1.4832   1.5010   1.5083   1.5257   1.5340   1.5504   1.5700
  1.5849   1.6355   1.6452   1.6563   1.6658   1.6843   1.7110   1.7321
  1.7465   1.7564   1.7837   1.8090   1.8135   1.8261   1.8413   1.8485
  1.8586   1.8880   1.8922   1.9004   1.9165   1.9309   1.9383   1.9441
  1.9468   1.9562   1.9595   1.9646   1.9720   1.9730   1.9794   1.9929
  1.9964   2.0221   2.0261   2.0306   2.0429   2.0488   2.0602   2.0686
  2.0837   2.0946   2.1035   2.1052   2.1139   2.1307   2.1450   2.1622
  2.1839   2.1972   2.2118   2.2223   2.2355   2.2385   2.2467   2.2517
  2.2756   2.2827   2.2980   2.3125   2.3224   2.3531   2.3603   2.3615
  2.3825   2.4107   2.4196   2.4278   2.4317   2.4353   2.4537   2.4829
  2.4994   2.5133   2.5223   2.5302   2.5433   2.5660   2.5793   2.5901
  2.6009   2.6038   2.6123   2.6223   2.6374   2.6528   2.6642   2.6671
  2.6913   2.7066   2.7166   2.7441   2.7587   2.7691   2.7861   2.8001
  2.8159   2.8222   2.8336   2.8372   2.8533   2.8672   2.8702   2.8806
  2.9082   2.9221   2.9330   2.9346   2.9487   2.9492   2.9629   2.9744
  2.9862   2.9986   3.0055   3.0264   3.0285   3.0392   3.0504   3.0742
  3.0871   3.0944   3.0960   3.1219   3.1293   3.1389   3.1734   3.1897
  3.1934   3.2070   3.2175   3.2214   3.2391   3.2572   3.2713   3.2773
  3.2828   3.2927   3.2981   3.3148   3.3200   3.3432   3.3483   3.3549
  3.3818   3.3961   3.4049   3.4092   3.4130   3.4205   3.4373   3.4579
  3.4640   3.4774   3.4799   3.4856   3.5008   3.5090   3.5188   3.5240
  3.5383   3.5453   3.5490   3.5563   3.5668   3.5747   3.5766   3.5878
  3.5962   3.6015   3.6095   3.6132   3.6286   3.6370   3.6406   3.6649
  3.6725   3.6776   3.6970   3.7068   3.7190   3.7271   3.7299   3.7587
  3.7695   3.7738   3.7842   3.8163   3.8245   3.8369   3.8498   3.8544
  3.8701   3.8898   3.9456   3.9723   3.9906   3.9995   4.0113   4.0481
  4.0771   4.1011   4.1112   4.1366   4.1412   4.2077   4.2479   4.2616
  4.2793   4.2877   4.3015   4.3146   4.3212   4.3382   4.3408   4.3667
  4.3710   4.3804   4.3977   4.4375   4.4556   4.4610   4.5058   4.5333
  4.5535   4.6039   4.6093   4.6366   4.6964   4.7298   4.7399   4.7772
  4.8043   4.8119   4.8403   4.8803   4.9009   4.9272   4.9410   5.0481
  5.0603   5.0735   5.1074   5.1415   5.1724   5.2042   5.2926   5.3160
  5.3363   5.3623   5.3977   5.4011   5.4448   5.4549   5.5100   5.5370
  5.6517   5.6751   5.7325   5.7462   5.7656   5.8022   5.8513   6.0214
  6.0522   6.2753   6.2994   6.3727   6.4261   6.5196   6.5900   6.6705
  6.6923   6.7385   6.7835   6.8042   6.8963   6.9740   7.0098   7.0334
  7.0699   7.1202   7.3172   7.4111   7.4281   7.4588   7.4725   7.6642
 22.6224  22.6555  22.7233  22.8619  22.9406  22.9933  23.0193  23.1752
 23.4993  23.8535  44.4382  44.4642  44.5686
 --------------------------------------------------------------

          Ground-State Mulliken Net Atomic Charges

     Atom                 Charge (a.u.)
  ----------------------------------------
      1 C                    -1.026476
      2 C                     0.471684
      3 C                    -0.102672
      4 C                    -0.851556
      5 C                    -0.554977
      6 C                    -0.422720
      7 C                     0.512515
      8 O                    -0.438835
      9 H                     0.298542
     10 H                     0.400835
     11 H                     0.327501
     12 H                     0.326567
     13 H                     0.316416
     14 H                     0.273454
     15 H                     0.276195
     16 H                     0.209794
     17 C                     0.075085
     18 C                    -0.857770
     19 C                     0.212250
     20 O                    -0.671204
     21 O                    -0.728782
     22 H                     0.192841
     23 H                     0.148151
     24 H                     0.204351
     25 H                     0.193285
     26 H                     0.215526
  ----------------------------------------
  Sum of atomic charges =    -1.000000

 -----------------------------------------------------------------
                    Cartesian Multipole Moments
 -----------------------------------------------------------------
    Charge (ESU x 10^10)
                -4.8032
    Dipole Moment (Debye)
         X      11.2079      Y       7.6684      Z       2.0688
       Tot      13.7369
    Quadrupole Moments (Debye-Ang)
        XX    -120.3330     XY     -25.7574     YY     -98.1485
        XZ      -1.9294     YZ       1.3012     ZZ     -84.8565
    Octopole Moments (Debye-Ang^2)
       XXX     149.9983    XXY     102.4959    XYY      66.8245
       YYY      69.2754    XXZ       2.0554    XYZ       2.5516
       YYZ      -1.1956    XZZ      -9.8858    YZZ      -6.9541
       ZZZ      -4.8333
    Hexadecapole Moments (Debye-Ang^3)
      XXXX   -2496.6230   XXXY   -1406.5725   XXYY   -1223.5877
      XYYY   -1272.8519   YYYY   -4039.4041   XXXZ     -26.2308
      XXYZ      -8.5066   XYYZ       8.0852   YYYZ      39.7233
      XXZZ    -395.8508   XYZZ    -367.0500   YYZZ    -690.2230
      XZZZ      -2.4304   YZZZ     -32.1141   ZZZZ    -248.0166
 -----------------------------------------------------------------
Archival summary:
1\1\compute-0-6.local\SP\ProcedureUnspecified\BasisUnspecified\31013(1-,1)\meili\WedSep2918:09:052021WedSep2918:09:052021\0\\#,ProcedureUnspecified,BasisUnspecified,\\-1,1\O\H,1,0.982186\C,1,1.36399,2,111.42\C,3,1.39685,1,119.923,2,170.529,0\H,4,1.07996,3,119.415,1,0.0674493,0\C,3,1.39757,1,120.28,2,-10.3003,0\H,6,1.07985,3,119.688,1,0.814981,0\C,6,1.40272,3,119.959,1,-178.993,0\H,8,1.08297,6,119.47,3,179.765,0\C,8,1.4005,6,120.889,3,-0.0480563,0\C,10,1.40212,8,118.566,6,-0.242501,0\H,11,1.08208,10,119.895,8,-179.245,0\C,10,1.51802,8,120.716,6,178.552,0\H,13,1.09045,10,108.169,8,152.17,0\H,13,1.09091,10,109.021,8,36.9505,0\H,13,1.1,10,114.331,8,-87.0308,0\O,2,1.63585,1,169.443,3,-146.273,0\C,17,1.25121,2,119.642,1,2.79987,0\O,18,1.24404,17,123.782,2,-163.433,0\C,18,1.51392,17,118.039,2,15.6263,0\H,20,1.09078,18,107.38,17,-65.1728,0\H,20,1.09207,18,110.263,17,51.7839,0\C,20,1.529,18,111.941,17,174.92,0\H,23,1.08833,20,110.652,18,28.1396,0\H,23,1.1,20,110.455,18,-93.8589,0\H,23,1.1,20,109.527,18,142.069,0\\\@

 Total job time:  30198.85s(wall), 60570.28s(cpu) 
 Wed Sep 29 18:09:05 2021

        *************************************************************
        *                                                           *
        *  Thank you very much for using Q-Chem.  Have a nice day.  *
        *                                                           *
        *************************************************************


