                  Welcome to Q-Chem
     A Quantum Leap Into The Future Of Chemistry


 Q-Chem 5.2 (devel), Q-Chem, Inc., Pleasanton, CA (2019)

 Yihan Shao,  Zhengting Gan,  E. Epifanovsky,  A. T. B. Gilbert,  M. Wormit,  
 J. Kussmann,  A. W. Lange,  A. Behn,  Jia Deng,  Xintian Feng,  D. Ghosh,  
 M. Goldey,  P. R. Horn,  L. D. Jacobson,  I. Kaliman,  T. Kus,  A. Landau,  
 Jie Liu,  E. I. Proynov,  R. M. Richard,  R. P. Steele,  E. J. Sundstrom,  
 H. L. Woodcock III,  P. M. Zimmerman,  D. Zuev,  B. Albrecht,  E. Alguire,  
 S. A. Baeppler,  D. Barton,  Z. Benda,  Y. A. Bernard,  E. J. Berquist,  
 K. B. Bravaya,  H. Burton,  D. Casanova,  Chun-Min Chang,  Yunqing Chen,  
 A. Chien,  K. D. Closser,  M. P. Coons,  S. Coriani,  S. Dasgupta,  
 A. L. Dempwolff,  M. Diedenhofen,  Hainam Do,  R. G. Edgar,  Po-Tung Fang,  
 S. Faraji,  S. Fatehi,  Qingguo Feng,  K. D. Fenk,  J. Fosso-Tande,  
 J. Gayvert,  Qinghui Ge,  A. Ghysels,  G. Gidofalvi,  J. Gomes,  
 J. Gonthier,  A. Gunina,  D. Hait,  M. W. D. Hanson-Heine,  
 P. H. P. Harbach,  A. W. Hauser,  M. F. Herbst,  J. E. Herr,  
 E. G. Hohenstein,  Z. C. Holden,  Kerwin Hui,  B. C. Huynh,  T.-C. Jagau,  
 Hyunjun Ji,  B. Kaduk,  K. Khistyaev,  Jaehoon Kim,  P. Klunzinger,  K. Koh,  
 D. Kosenkov,  L. Koulias,  T. Kowalczyk,  C. M. Krauter,  A. Kunitsa,  
 Ka Un Lao,  A. Laurent,  K. V. Lawler,  Joonho Lee,  D. Lefrancois,  
 S. Lehtola,  D. S. Levine,  Yi-Pei Li,  You-Sheng Lin,  Fenglai Liu,  
 E. Livshits,  A. Luenser,  P. Manohar,  E. Mansoor,  S. F. Manzer,  
 Shan-Ping Mao,  Yuezhi Mao,  N. Mardirossian,  A. V. Marenich,  
 T. Markovich,  L. A. Martinez-Martinez,  S. A. Maurer,  N. J. Mayhall,  
 S. C. McKenzie,  J.-M. Mewes,  P. Morgante,  A. F. Morrison,  
 J. W. Mullinax,  K. Nanda,  T. S. Nguyen-Beck,  R. Olivares-Amaya,  
 J. A. Parkhill,  Zheng Pei,  T. M. Perrine,  F. Plasser,  P. Pokhilko,  
 S. Prager,  A. Prociuk,  E. Ramos,  D. R. Rehn,  F. Rob,  M. Scheurer,  
 M. Schneider,  N. Sergueev,  S. M. Sharada,  S. Sharma,  D. W. Small,  
 T. Stauch,  T. Stein,  Yu-Chuan Su,  A. J. W. Thom,  A. Tkatchenko,  
 T. Tsuchimochi,  N. M. Tubman,  L. Vogt,  M. L. Vidal,  O. Vydrov,  
 M. A. Watson,  J. Wenzel,  M. de Wergifosse,  T. A. Wesolowski,  A. White,  
 J. Witte,  A. Yamada,  Jun Yang,  K. Yao,  S. Yeganeh,  S. R. Yost,  
 Zhi-Qiang You,  A. Zech,  Igor Ying Zhang,  Xing Zhang,  Yan Zhao,  
 Ying Zhu,  B. R. Brooks,  G. K. L. Chan,  C. J. Cramer,  M. S. Gordon,  
 W. J. Hehre,  A. Klamt,  M. W. Schmidt,  C. D. Sherrill,  D. G. Truhlar,  
 A. Aspuru-Guzik,  R. Baer,  A. T. Bell,  N. A. Besley,  Jeng-Da Chai,  
 A. E. DePrince, III,  R. A. DiStasio Jr.,  A. Dreuw,  B. D. Dunietz,  
 T. R. Furlani,  Chao-Ping Hsu,  Yousung Jung,  Jing Kong,  D. S. Lambrecht,  
 WanZhen Liang,  C. Ochsenfeld,  V. A. Rassolov,  L. V. Slipchenko,  
 J. E. Subotnik,  T. Van Voorhis,  J. M. Herbert,  A. I. Krylov,  
 P. M. W. Gill,  M. Head-Gordon

 Contributors to earlier versions of Q-Chem not listed above: 
 R. D. Adamson,  B. Austin,  J. Baker,  G. J. O. Beran,  K. Brandhorst,  
 S. T. Brown,  E. F. C. Byrd,  A. K. Chakraborty,  C.-L. Cheng,  
 Siu Hung Chien,  D. M. Chipman,  D. L. Crittenden,  H. Dachsel,  
 R. J. Doerksen,  A. D. Dutoi,  L. Fusti-Molnar,  W. A. Goddard III,  
 A. Golubeva-Zadorozhnaya,  S. R. Gwaltney,  G. Hawkins,  A. Heyden,  
 S. Hirata,  G. Kedziora,  F. J. Keil,  C. Kelley,  Jihan Kim,  R. A. King,  
 R. Z. Khaliullin,  P. P. Korambath,  W. Kurlancheek,  A. M. Lee,  M. S. Lee,  
 S. V. Levchenko,  Ching Yeh Lin,  D. Liotard,  R. C. Lochan,  I. Lotan,  
 P. E. Maslen,  N. Nair,  D. P. O'Neill,  D. Neuhauser,  E. Neuscamman,  
 C. M. Oana,  R. Olson,  B. Peters,  R. Peverati,  P. A. Pieniazek,  
 Y. M. Rhee,  J. Ritchie,  M. A. Rohrdanz,  E. Rosta,  N. J. Russ,  
 H. F. Schaefer III,  N. E. Schultz,  N. Shenvi,  A. C. Simmonett,  A. Sodt,  
 D. Stuck,  K. S. Thanthiriwatte,  V. Vanovschi,  Tao Wang,  A. Warshel,  
 C. F. Williams,  Q. Wu,  X. Xu,  W. Zhang

 Please cite Q-Chem as follows:
 Y. Shao et al., Mol. Phys. 113, 184-215 (2015)
 DOI: 10.1080/00268976.2014.952696

 Q-Chem 5.2.1 for Intel X86 EM64T Linux

 Parts of Q-Chem use Armadillo 8.300.2 (Tropical Shenanigans).
 http://arma.sourceforge.net/

 Q-Chem begins on Wed Sep 29 09:43:15 2021  

compute-0-0.local
Host: 0

     Scratch files written to /home/meili/scratch/qchem55048//
NAlpha2: 108
NElect   108
Mult     1
Symmetry turned off for PCM/SM12/SMD calculation

 Q-Chem warning in module libgen/rem_setup.C, line 2813:

 Neither GIA nor STOLL is specified by user. Use STOLL as the default


Checking the input file for inconsistencies... 	...done.

--------------------------------------------------------------
User input:
--------------------------------------------------------------
$comment
SSI-052PHE-071PHE-1.pdb
$end

$molecule
0 1
--
0 1
C   -0.080691239123    0.675301649350   -2.062928664415
C    0.314308760877    1.849301649350   -2.965928664415
C   -1.549691239123    0.669301649350   -1.707928664415
C   -1.988691239123    1.334301649350   -0.570928664415
C   -2.484691239123    0.047301649350   -2.543928664415
C   -3.346691239123    1.383301649350   -0.266928664415
C   -3.856691239123    0.131301649350   -2.248928664415
C   -4.276691239123    0.785301649350   -1.098928664415
H    0.174308760877   -0.266698350650   -2.551928664415
H    0.504308760877    0.750301649350   -1.149928664415
H    0.089308760877    2.771301649350   -2.429928664415
H   -1.278691239123    1.812301649350    0.088071335585
H   -2.160691239123   -0.471698350650   -3.433928664415
H   -3.678691239123    1.900301649350    0.623071335585
H   -4.579691239123   -0.317698350650   -2.914928664415
H   -5.330691239123    0.838301649350   -0.858928664415
H   -0.250401239123    1.795233649350   -3.908358664415
H    1.388698760877    1.831091649350   -3.201198664415
--
0 1
C    3.351308760877    0.965301649350    3.010071335585
C    1.346308760877   -1.293698350650    0.719071335585
C    1.903308760877   -0.131698350650    1.302071335585
C    1.708308760877   -2.541698350650    1.196071335585
C    2.763308760877   -0.235698350650    2.378071335585
C    2.612308760877   -2.624698350650    2.231071335585
C    3.117308760877   -1.475698350650    2.828071335585
H    0.640308760877   -1.221698350650   -0.094928664415
H    1.626308760877    0.842301649350    0.925071335585
H    1.298308760877   -3.436698350650    0.751071335585
H    2.902308760877   -3.597698350650    2.601071335585
H    3.243308760877    0.894301649350    4.093071335585
H    2.774308760877    1.831301649350    2.686071335585
H    3.792308760877   -1.565698350650    3.665071335585
H    4.409948760877    1.117763649350    2.753101335585
$end

$rem
JOBTYPE			EDA
EDA2			1
method			wB97X-V
BASIS			def2-TZVPD
XC_GRID			000099000590
NL_GRID			1
UNRESTRICTED		FALSE
MAX_SCF_CYCLES		200
SYMMETRY		FALSE
SYM_IGNORE		TRUE
MEM_STATIC		2000
BASIS_LIN_DEP_THRESH 	6
THRESH 			14
SCF_CONVERGENCE 	8
SCF_PRINT_FRGM 		TRUE
SOLVENT_METHOD          SMD
$end

$SMX
SOLVENT			WATER
$END
--------------------------------------------------------------
 ----------------------------------------------------------------
             Standard Nuclear Orientation (Angstroms)
    I     Atom           X                Y                Z
 ----------------------------------------------------------------
    1      C      -0.0806912391     0.6753016494    -2.0629286644
    2      C       0.3143087609     1.8493016494    -2.9659286644
    3      C      -1.5496912391     0.6693016494    -1.7079286644
    4      C      -1.9886912391     1.3343016493    -0.5709286644
    5      C      -2.4846912391     0.0473016494    -2.5439286644
    6      C      -3.3466912391     1.3833016494    -0.2669286644
    7      C      -3.8566912391     0.1313016493    -2.2489286644
    8      C      -4.2766912391     0.7853016494    -1.0989286644
    9      H       0.1743087609    -0.2666983507    -2.5519286644
   10      H       0.5043087609     0.7503016493    -1.1499286644
   11      H       0.0893087609     2.7713016493    -2.4299286644
   12      H      -1.2786912391     1.8123016494     0.0880713356
   13      H      -2.1606912391    -0.4716983506    -3.4339286644
   14      H      -3.6786912391     1.9003016494     0.6230713356
   15      H      -4.5796912391    -0.3176983507    -2.9149286644
   16      H      -5.3306912391     0.8383016493    -0.8589286644
   17      H      -0.2504012391     1.7952336494    -3.9083586644
   18      H       1.3886987609     1.8310916494    -3.2011986644
   19      C       3.3513087609     0.9653016493     3.0100713356
   20      C       1.3463087609    -1.2936983506     0.7190713356
   21      C       1.9033087609    -0.1316983506     1.3020713356
   22      C       1.7083087609    -2.5416983506     1.1960713356
   23      C       2.7633087609    -0.2356983506     2.3780713356
   24      C       2.6123087609    -2.6246983507     2.2310713356
   25      C       3.1173087609    -1.4756983507     2.8280713356
   26      H       0.6403087609    -1.2216983507    -0.0949286644
   27      H       1.6263087609     0.8423016493     0.9250713356
   28      H       1.2983087609    -3.4366983507     0.7510713356
   29      H       2.9023087609    -3.5976983506     2.6010713356
   30      H       3.2433087609     0.8943016494     4.0930713356
   31      H       2.7743087609     1.8313016494     2.6860713356
   32      H       3.7923087609    -1.5656983506     3.6650713356
   33      H       4.4099487609     1.1177636494     2.7531013356
 ----------------------------------------------------------------
 Nuclear Repulsion Energy =         858.79550057 hartrees
 There are       54 alpha and       54 beta electrons
 Requested basis set is def2-TZVPD
 There are 285 shells and 717 basis functions

 Total QAlloc Memory Limit   2000 MB
 Mega-Array Size      1956 MB
 MEM_STATIC part      2000 MB

 Citation of the SMD model:
 Marenich, A.V.; Cramer, C.J.; Truhlar, D.G.
 J. Phys. Chem. B 2009, 113, 6378-6396.
 iSolventCode=           1
 Solvent: water                                                           

 vradii
            1           2           3           4           5           6
    1   1.8500000   1.8500000   1.8500000   1.8500000   1.8500000   1.8500000
            7           8           9          10          11          12
    1   1.8500000   1.8500000   1.2000000   1.2000000   1.2000000   1.2000000
           13          14          15          16          17          18
    1   1.2000000   1.2000000   1.2000000   1.2000000   1.2000000   1.2000000
           19          20          21          22          23          24
    1   1.8500000   1.8500000   1.8500000   1.8500000   1.8500000   1.8500000
           25          26          27          28          29          30
    1   1.8500000   1.2000000   1.2000000   1.2000000   1.2000000   1.2000000
           31          32          33
    1   1.2000000   1.2000000   1.2000000
 Changing PCM_VDW_RADII to SMD_RADIUS
 Discretize the solute cavity surface with Lebedev spheres
	Using 110 Lebedev grid points for each H atom
	Using 194 Lebedev grid points for other atoms
	Atomic van der Waals radii will be scaled by 1.20
 Remove points where switching function is < 1.0e-08
 Keep 2358 surface tesserae and discard 2532 interior tesserae
 Molecular Surface Area = 279.737 Angst**2
 A cutoff of  1.0D-14 yielded  33425 shell pairs
 There are    210513 function pairs (    263866 Cartesian)
 Smallest overlap matrix eigenvalue = 4.10E-07
 Linear dependence detected in AO basis
 Tighter screening thresholds may be required for diffuse basis sets
 Use S2THRESH > 14 and THRESH = 14 in case of SCF convergence issues
 Number of orthogonalized atomic orbitals = 713
 Maximum deviation from orthogonality = 1.189E-10

 Scale SEOQF with 1.000000e-02/1.000000e-01/1.000000e-01

 Standard Electronic Orientation quadrupole field applied
 Nucleus-field energy     =    -0.0000000328 hartrees

 -----------------------------------------------------------------------
  General SCF calculation program by
  Eric Jon Sundstrom, Paul Horn, Yuezhi Mao, Dmitri Zuev, Alec White,
  David Stuck, Shaama M.S., Shane Yost, Joonho Lee, David Small,
  Daniel Levine, Susi Lehtola, Hugh Burton, Evgeny Epifanovsky,
  Bang C. Huynh
 -----------------------------------------------------------------------
================================================================
                 ALMO-EDA with the EDA2 driver                  
================================================================
 The second-generation ALMO-EDA (for DFT):                      
 P. R. Horn, Y. Mao and M. Head-Gordon, PCCP, 18, 23067 (2016)  
 Decomposition of the frozen energy:                            
 P. R. Horn, Y. Mao and M. Head-Gordon, JCP, 144, 114107 (2016) 
 FERF model for polarization:                                   
 P. R. Horn and M. Head-Gordon, JCP, 143, 114111 (2015)         
Using eda2 option set 1
Option set summary: Frozen orbital wavefunction, initial wavefunction decomposition, and nDQ polarization.
--------------------------------
Printing EDA Options
--------------------------------
eda_child_super_basis      0
fragmo_guess_mode          0
child_mp                   1
child_mp_orders            232
cls_elec                   1
cls_disp                   0
scfmi_mode                 1
scfmi_occs                 0
scfmi_virts                0
frz_relax                  0
frz_relax_method           0
dc_pen_start               0
dc_pen_conv                0
dc_pen_increment           0
dc_pen_steps               0
dc_pen_thresh_factor       0
dc_pen_pre_newton_thresh   0
frz_ortho_decomp           1
frz_ortho_decomp_conv      6
frgm_method                2
scfmi_freeze_ss            0
separate_rehyb             0
plot_diff_den              0
eda_nocv                   0
eda_vct_relax              1
disp_free_x                0
disp_free_c                0
eda_bsse                   0
eda_pct_a                  0
eda_covp                   0
--------------------------------
Attempting to make child job directory: /home/meili/scratch/qchem55048//Frg1/
Attempting to make child job directory: /home/meili/scratch/qchem55048//Frg2/
Creating input file /home/meili/scratch/qchem55048/Frg1.input
using default PutDataFrgm: nothing
calling putenv with: QCSCRATCH=/home/meili/scratch/qchem55048/ 
Spawning Job For Fragment 0
                  Welcome to Q-Chem
     A Quantum Leap Into The Future Of Chemistry


 Q-Chem 5.2 (devel), Q-Chem, Inc., Pleasanton, CA (2019)

 Yihan Shao,  Zhengting Gan,  E. Epifanovsky,  A. T. B. Gilbert,  M. Wormit,  
 J. Kussmann,  A. W. Lange,  A. Behn,  Jia Deng,  Xintian Feng,  D. Ghosh,  
 M. Goldey,  P. R. Horn,  L. D. Jacobson,  I. Kaliman,  T. Kus,  A. Landau,  
 Jie Liu,  E. I. Proynov,  R. M. Richard,  R. P. Steele,  E. J. Sundstrom,  
 H. L. Woodcock III,  P. M. Zimmerman,  D. Zuev,  B. Albrecht,  E. Alguire,  
 S. A. Baeppler,  D. Barton,  Z. Benda,  Y. A. Bernard,  E. J. Berquist,  
 K. B. Bravaya,  H. Burton,  D. Casanova,  Chun-Min Chang,  Yunqing Chen,  
 A. Chien,  K. D. Closser,  M. P. Coons,  S. Coriani,  S. Dasgupta,  
 A. L. Dempwolff,  M. Diedenhofen,  Hainam Do,  R. G. Edgar,  Po-Tung Fang,  
 S. Faraji,  S. Fatehi,  Qingguo Feng,  K. D. Fenk,  J. Fosso-Tande,  
 J. Gayvert,  Qinghui Ge,  A. Ghysels,  G. Gidofalvi,  J. Gomes,  
 J. Gonthier,  A. Gunina,  D. Hait,  M. W. D. Hanson-Heine,  
 P. H. P. Harbach,  A. W. Hauser,  M. F. Herbst,  J. E. Herr,  
 E. G. Hohenstein,  Z. C. Holden,  Kerwin Hui,  B. C. Huynh,  T.-C. Jagau,  
 Hyunjun Ji,  B. Kaduk,  K. Khistyaev,  Jaehoon Kim,  P. Klunzinger,  K. Koh,  
 D. Kosenkov,  L. Koulias,  T. Kowalczyk,  C. M. Krauter,  A. Kunitsa,  
 Ka Un Lao,  A. Laurent,  K. V. Lawler,  Joonho Lee,  D. Lefrancois,  
 S. Lehtola,  D. S. Levine,  Yi-Pei Li,  You-Sheng Lin,  Fenglai Liu,  
 E. Livshits,  A. Luenser,  P. Manohar,  E. Mansoor,  S. F. Manzer,  
 Shan-Ping Mao,  Yuezhi Mao,  N. Mardirossian,  A. V. Marenich,  
 T. Markovich,  L. A. Martinez-Martinez,  S. A. Maurer,  N. J. Mayhall,  
 S. C. McKenzie,  J.-M. Mewes,  P. Morgante,  A. F. Morrison,  
 J. W. Mullinax,  K. Nanda,  T. S. Nguyen-Beck,  R. Olivares-Amaya,  
 J. A. Parkhill,  Zheng Pei,  T. M. Perrine,  F. Plasser,  P. Pokhilko,  
 S. Prager,  A. Prociuk,  E. Ramos,  D. R. Rehn,  F. Rob,  M. Scheurer,  
 M. Schneider,  N. Sergueev,  S. M. Sharada,  S. Sharma,  D. W. Small,  
 T. Stauch,  T. Stein,  Yu-Chuan Su,  A. J. W. Thom,  A. Tkatchenko,  
 T. Tsuchimochi,  N. M. Tubman,  L. Vogt,  M. L. Vidal,  O. Vydrov,  
 M. A. Watson,  J. Wenzel,  M. de Wergifosse,  T. A. Wesolowski,  A. White,  
 J. Witte,  A. Yamada,  Jun Yang,  K. Yao,  S. Yeganeh,  S. R. Yost,  
 Zhi-Qiang You,  A. Zech,  Igor Ying Zhang,  Xing Zhang,  Yan Zhao,  
 Ying Zhu,  B. R. Brooks,  G. K. L. Chan,  C. J. Cramer,  M. S. Gordon,  
 W. J. Hehre,  A. Klamt,  M. W. Schmidt,  C. D. Sherrill,  D. G. Truhlar,  
 A. Aspuru-Guzik,  R. Baer,  A. T. Bell,  N. A. Besley,  Jeng-Da Chai,  
 A. E. DePrince, III,  R. A. DiStasio Jr.,  A. Dreuw,  B. D. Dunietz,  
 T. R. Furlani,  Chao-Ping Hsu,  Yousung Jung,  Jing Kong,  D. S. Lambrecht,  
 WanZhen Liang,  C. Ochsenfeld,  V. A. Rassolov,  L. V. Slipchenko,  
 J. E. Subotnik,  T. Van Voorhis,  J. M. Herbert,  A. I. Krylov,  
 P. M. W. Gill,  M. Head-Gordon

 Contributors to earlier versions of Q-Chem not listed above: 
 R. D. Adamson,  B. Austin,  J. Baker,  G. J. O. Beran,  K. Brandhorst,  
 S. T. Brown,  E. F. C. Byrd,  A. K. Chakraborty,  C.-L. Cheng,  
 Siu Hung Chien,  D. M. Chipman,  D. L. Crittenden,  H. Dachsel,  
 R. J. Doerksen,  A. D. Dutoi,  L. Fusti-Molnar,  W. A. Goddard III,  
 A. Golubeva-Zadorozhnaya,  S. R. Gwaltney,  G. Hawkins,  A. Heyden,  
 S. Hirata,  G. Kedziora,  F. J. Keil,  C. Kelley,  Jihan Kim,  R. A. King,  
 R. Z. Khaliullin,  P. P. Korambath,  W. Kurlancheek,  A. M. Lee,  M. S. Lee,  
 S. V. Levchenko,  Ching Yeh Lin,  D. Liotard,  R. C. Lochan,  I. Lotan,  
 P. E. Maslen,  N. Nair,  D. P. O'Neill,  D. Neuhauser,  E. Neuscamman,  
 C. M. Oana,  R. Olson,  B. Peters,  R. Peverati,  P. A. Pieniazek,  
 Y. M. Rhee,  J. Ritchie,  M. A. Rohrdanz,  E. Rosta,  N. J. Russ,  
 H. F. Schaefer III,  N. E. Schultz,  N. Shenvi,  A. C. Simmonett,  A. Sodt,  
 D. Stuck,  K. S. Thanthiriwatte,  V. Vanovschi,  Tao Wang,  A. Warshel,  
 C. F. Williams,  Q. Wu,  X. Xu,  W. Zhang

 Please cite Q-Chem as follows:
 Y. Shao et al., Mol. Phys. 113, 184-215 (2015)
 DOI: 10.1080/00268976.2014.952696

 Q-Chem 5.2.1 for Intel X86 EM64T Linux

 Parts of Q-Chem use Armadillo 8.300.2 (Tropical Shenanigans).
 http://arma.sourceforge.net/

 Q-Chem begins on Wed Sep 29 09:43:22 2021  

compute-0-0.local
Host: 0

     Scratch files written to /home/meili/scratch/qchem55048//Frg1//
NAlpha2: 58
NElect   58
Mult     1
Symmetry turned off for PCM/SM12/SMD calculation

Checking the input file for inconsistencies... 	...done.

--------------------------------------------------------------
User input:
--------------------------------------------------------------
$molecule
0 1
 6	-0.0806912391	0.6753016494	-2.0629286644
 6	0.3143087609	1.8493016494	-2.9659286644
 6	-1.5496912391	0.6693016494	-1.7079286644
 6	-1.9886912391	1.3343016493	-0.5709286644
 6	-2.4846912391	0.0473016494	-2.5439286644
 6	-3.3466912391	1.3833016494	-0.2669286644
 6	-3.8566912391	0.1313016493	-2.2489286644
 6	-4.2766912391	0.7853016494	-1.0989286644
 1	0.1743087609	-0.2666983507	-2.5519286644
 1	0.5043087609	0.7503016493	-1.1499286644
 1	0.0893087609	2.7713016493	-2.4299286644
 1	-1.2786912391	1.8123016494	0.0880713356
 1	-2.1606912391	-0.4716983506	-3.4339286644
 1	-3.6786912391	1.9003016494	0.6230713356
 1	-4.5796912391	-0.3176983507	-2.9149286644
 1	-5.3306912391	0.8383016493	-0.8589286644
 1	-0.2504012391	1.7952336494	-3.9083586644
 1	1.3886987609	1.8310916494	-3.2011986644
$end
$rem
EDA2		1
METHOD		WB97X-V
BASIS		DEF2-TZVPD
XC_GRID		000099000590
NL_GRID		1
UNRESTRICTED		FALSE
MAX_SCF_CYCLES		200
SYMMETRY		FALSE
SYM_IGNORE		TRUE
BASIS_LIN_DEP_THRESH		6
THRESH		14
SCF_CONVERGENCE		8
SCF_PRINT_FRGM		TRUE
SOLVENT_METHOD		SMD
!required keywords
JOBTYPE		SP
SYM_IGNORE		TRUE
SUBSYSTEM		TRUE
GEN_SCFMAN		TRUE
CHILD_INSTRUCTION		2
SYM_IGNORE		TRUE
SCFMI		0
RI_K 0		
PARI_K 0		
MIN_PARI_K 0		
IARI_K 0		
OCC_RI_K 0		
PURECART		1111
MEM_STATIC		2000
MEM_TOTAL		2000
GUI		0
CHILD_MP		1
CHILD_MP_ORDERS		232
FRZ_RELAX		0
FRZ_RELAX_METHOD		0
EDA_CLS_ELEC		1
EDA_CLS_DISP		0
FRZ_ORTHO_DECOMP		1
EDA2		FALSE
FRGM_METHOD		FALSE
CIS_N_ROOTS  0
LOCAL_CIS    0
CIS_RLX_DNS  1
$end
$smx
SOLVENT			WATER
$end
--------------------------------------------------------------
 ----------------------------------------------------------------
             Standard Nuclear Orientation (Angstroms)
    I     Atom           X                Y                Z
 ----------------------------------------------------------------
    1      C      -0.0806912391     0.6753016494    -2.0629286644
    2      C       0.3143087609     1.8493016494    -2.9659286644
    3      C      -1.5496912391     0.6693016494    -1.7079286644
    4      C      -1.9886912391     1.3343016493    -0.5709286644
    5      C      -2.4846912391     0.0473016494    -2.5439286644
    6      C      -3.3466912391     1.3833016494    -0.2669286644
    7      C      -3.8566912391     0.1313016493    -2.2489286644
    8      C      -4.2766912391     0.7853016494    -1.0989286644
    9      H       0.1743087609    -0.2666983507    -2.5519286644
   10      H       0.5043087609     0.7503016493    -1.1499286644
   11      H       0.0893087609     2.7713016493    -2.4299286644
   12      H      -1.2786912391     1.8123016494     0.0880713356
   13      H      -2.1606912391    -0.4716983506    -3.4339286644
   14      H      -3.6786912391     1.9003016494     0.6230713356
   15      H      -4.5796912391    -0.3176983507    -2.9149286644
   16      H      -5.3306912391     0.8383016493    -0.8589286644
   17      H      -0.2504012391     1.7952336494    -3.9083586644
   18      H       1.3886987609     1.8310916494    -3.2011986644
 ----------------------------------------------------------------
 Nuclear Repulsion Energy =         340.74056071 hartrees
 There are       29 alpha and       29 beta electrons
 Requested basis set is def2-TZVPD
 There are 154 shells and 386 basis functions

 Total QAlloc Memory Limit   2000 MB
 Mega-Array Size      1956 MB
 MEM_STATIC part      2000 MB

 Citation of the SMD model:
 Marenich, A.V.; Cramer, C.J.; Truhlar, D.G.
 J. Phys. Chem. B 2009, 113, 6378-6396.
 iSolventCode=           1
 Solvent: water                                                           

 vradii
            1           2           3           4           5           6
    1   1.8500000   1.8500000   1.8500000   1.8500000   1.8500000   1.8500000
            7           8           9          10          11          12
    1   1.8500000   1.8500000   1.2000000   1.2000000   1.2000000   1.2000000
           13          14          15          16          17          18
    1   1.2000000   1.2000000   1.2000000   1.2000000   1.2000000   1.2000000
 Changing PCM_VDW_RADII to SMD_RADIUS
 Discretize the solute cavity surface with Lebedev spheres
	Using 110 Lebedev grid points for each H atom
	Using 194 Lebedev grid points for other atoms
	Atomic van der Waals radii will be scaled by 1.20
 Remove points where switching function is < 1.0e-08
 Keep 1271 surface tesserae and discard 1381 interior tesserae
 Molecular Surface Area = 152.585 Angst**2
 A cutoff of  1.0D-14 yielded  11363 shell pairs
 There are     72777 function pairs (     92213 Cartesian)
 Smallest overlap matrix eigenvalue = 5.23E-07
 Linear dependence detected in AO basis
 Tighter screening thresholds may be required for diffuse basis sets
 Use S2THRESH > 14 and THRESH = 14 in case of SCF convergence issues
 Number of orthogonalized atomic orbitals = 385
 Maximum deviation from orthogonality = 2.379E-10

 Scale SEOQF with 1.000000e-02/1.000000e-01/1.000000e-01

 Standard Electronic Orientation quadrupole field applied
 Nucleus-field energy     =    -0.0000000184 hartrees
 Guess from superposition of atomic densities
 Warning:  Energy on first SCF cycle will be non-variational
 SAD guess density has 58.000000 electrons

 -----------------------------------------------------------------------
  General SCF calculation program by
  Eric Jon Sundstrom, Paul Horn, Yuezhi Mao, Dmitri Zuev, Alec White,
  David Stuck, Shaama M.S., Shane Yost, Joonho Lee, David Small,
  Daniel Levine, Susi Lehtola, Hugh Burton, Evgeny Epifanovsky,
  Bang C. Huynh
 -----------------------------------------------------------------------
 Exchange:     0.1670 Hartree-Fock + 1.0000 wB97X-V + LR-HF
 Correlation:  1.0000 wB97X-V
 Using Euler-Maclaurin-Lebedev (99,590) quadrature formula
 Nonlocal Correlation:  VV10 with C = 0.0100 and b = 6.00 and scale = 1.00000
 Grid used for NLC:  SG-1 standard quadrature
Energy prior to optimization (guess energy) = -310.837944852141
Begin Timing: Total SCF Calculation
begin iterations for algorithm: DIIS         
the SCF tolerance is set to 1.00e-08
    1    -310.8379448521      1.67e-03     00000 
    2    -310.8801125101      1.06e-03     00000 
    3    -310.9021917581      1.38e-04     00000 
    4    -310.9029129336      3.70e-05     00000 
    5    -310.9029574259      1.91e-05     00000 
    6    -310.9029653359      4.86e-06     00000 
    7    -310.9029661236      1.57e-06     00000 
    8    -310.9029661849      3.77e-07     00000 
    9    -310.9029661909      9.96e-08     00000 
   10    -310.9029661913      3.74e-08     00000 
   11    -310.9029661914      1.77e-08     00000 
   12    -310.9029661914      4.57e-09     00000 Convergence criterion met
Timing for Total SCF: 753.00s (wall), 5375.53s (cpu)
(3)  G-ENP(liq) elect-nuc-pol free energy of system     -310.902966191 a.u.
(4)  G-CDS(liq) cavity-dispersion-solvent structure 
     free energy                                                3.4888 kcal/mol
(6)  G-S(liq) free energy of system                     -310.897406423 a.u.
E_pcm = -0.0078429045
E_cds = 0.0055597686
Multipole orders to be included
        2
        3
computing dipole RHS
computing quadrupole RHS
total number of RHS in solve_reponses: 8
RHS batch sizes
        8
Beginning Block Conjugate Gradient Iterations. Batch Number: 0
computing hessian-vector products by finite difference
              1      5.96e-01     00000 Conjugate Gradient Iteration
computing hessian-vector products by finite difference
              2      1.81e-01     00000 Conjugate Gradient Iteration
computing hessian-vector products by finite difference
              3      4.70e-02     00000 Conjugate Gradient Iteration
computing hessian-vector products by finite difference
              4      1.19e-02     00000 Conjugate Gradient Iteration
computing hessian-vector products by finite difference
              5      2.11e-03     00000 Conjugate Gradient Iteration
computing hessian-vector products by finite difference
              6      5.34e-04     00000 Conjugate Gradient Iteration
computing hessian-vector products by finite difference
              7      1.53e-04     00000 Conjugate Gradient Iteration
computing hessian-vector products by finite difference
              8      2.81e-05     00000 Conjugate Gradient Iteration
computing hessian-vector products by finite difference
              9      4.48e-06     00000 Conjugate Gradient Iteration
computing hessian-vector products by finite difference
             10      7.02e-07     00000 Conjugate Gradient Iteration
computing hessian-vector products by finite difference
             11      1.05e-07     00000 Conjugate Gradient Iteration
computing hessian-vector products by finite difference
             12      1.68e-08     00000 Conjugate Gradient Iteration
computing hessian-vector products by finite difference
             13      3.66e-09     00000 CG Converged
batch 0 complete
Done Calculating Responses
TESTING ORTHOGONALIZATION OF MULTIPOLE BASIS
Multipole virts passed orthogonality test
Virts Per Order
           87
          145

 --------------------------------------------------------------

                    Orbital Energies (a.u.)
 --------------------------------------------------------------

 Alpha MOs
 -- Occupied --
-10.2751 -10.2692 -10.2670 -10.2668 -10.2643 -10.2638 -10.2583 -10.2508
 -0.9939  -0.9167  -0.8733  -0.8487  -0.7503  -0.7262  -0.6911  -0.6235
 -0.5770  -0.5649  -0.5349  -0.5291  -0.5187  -0.5002  -0.4746  -0.4540
 -0.4499  -0.4294  -0.4220  -0.3450  -0.3359
 -- Virtual --
  0.0657   0.0672   0.0724   0.0868   0.0891   0.0955   0.1099   0.1144
  0.1184   0.1372   0.1635   0.1683   0.1696   0.1754   0.1924   0.1946
  0.1987   0.2052   0.2204   0.2240   0.2267   0.2376   0.2450   0.2565
  0.2718   0.2719   0.2740   0.2799   0.2831   0.2896   0.2919   0.2950
  0.3000   0.3041   0.3083   0.3136   0.3244   0.3338   0.3375   0.3430
  0.3519   0.3539   0.3574   0.3639   0.3659   0.3747   0.3779   0.3792
  0.3871   0.3918   0.3933   0.4001   0.4019   0.4075   0.4156   0.4252
  0.4279   0.4394   0.4400   0.4450   0.4526   0.4577   0.4615   0.4676
  0.4684   0.4714   0.4805   0.4891   0.4900   0.4966   0.5020   0.5049
  0.5194   0.5259   0.5291   0.5316   0.5334   0.5403   0.5446   0.5523
  0.5548   0.5600   0.5780   0.5786   0.5900   0.5922   0.5984   0.6179
  0.6203   0.6269   0.6411   0.6442   0.6531   0.6672   0.6711   0.6751
  0.6786   0.6960   0.7101   0.7158   0.7214   0.7245   0.7294   0.7334
  0.7380   0.7562   0.7579   0.7634   0.7732   0.7768   0.7850   0.7931
  0.7948   0.8014   0.8022   0.8065   0.8098   0.8151   0.8163   0.8285
  0.8316   0.8403   0.8476   0.8521   0.8551   0.8586   0.8740   0.8801
  0.8856   0.8978   0.9128   0.9227   0.9367   0.9499   0.9590   0.9755
  1.0153   1.0237   1.0388   1.0442   1.0541   1.0670   1.0805   1.0867
  1.1023   1.1085   1.1107   1.1143   1.1762   1.1823   1.1989   1.2223
  1.2282   1.2991   1.3041   1.3362   1.3545   1.3675   1.3919   1.4001
  1.4111   1.4245   1.4488   1.4736   1.4830   1.4994   1.5223   1.5342
  1.5648   1.5688   1.6251   1.6307   1.6442   1.6546   1.6896   1.7426
  1.7621   1.7911   1.8070   1.8146   1.8253   1.8394   1.8461   1.8881
  1.9022   1.9113   1.9264   1.9360   1.9373   1.9566   1.9896   1.9968
  2.0043   2.0118   2.0157   2.0358   2.0424   2.0550   2.0754   2.0812
  2.0994   2.1070   2.1498   2.1653   2.1813   2.2076   2.2125   2.2172
  2.2470   2.2721   2.2959   2.3173   2.3247   2.3928   2.4077   2.4146
  2.4378   2.4864   2.5210   2.5314   2.5567   2.5583   2.5843   2.6069
  2.6082   2.6360   2.6470   2.6505   2.6944   2.7051   2.7412   2.7447
  2.7576   2.7757   2.7994   2.8067   2.8331   2.8337   2.8520   2.8726
  2.9024   2.9142   2.9217   2.9273   2.9432   2.9536   2.9672   2.9821
  3.0021   3.0145   3.0268   3.0318   3.0371   3.0598   3.0795   3.0826
  3.1174   3.1550   3.1780   3.1937   3.2192   3.2439   3.2545   3.2586
  3.3040   3.3200   3.3392   3.3540   3.3834   3.3928   3.4062   3.4228
  3.4356   3.4501   3.4521   3.4780   3.4922   3.4960   3.5053   3.5107
  3.5188   3.5333   3.5422   3.5612   3.5663   3.5737   3.5843   3.6193
  3.6263   3.6385   3.6628   3.6717   3.6911   3.6980   3.7142   3.7217
  3.7494   3.8014   3.8026   3.8392   3.8645   3.8745   3.9291   3.9771
  3.9853   4.0061   4.0500   4.0710   4.1057   4.1312   4.1798   4.1926
  4.2274   4.2772   4.2936   4.3186   4.3343   4.3409   4.3525   4.3704
  4.3927   4.3977   4.4459   4.4605   4.4726   4.5129   4.5485   4.5875
  4.6350   4.6892   4.7599   4.7808   4.8260   4.8670   4.9290   4.9318
  4.9747   5.0126   5.0323   5.1136   5.1799   5.3205   5.3769   5.3939
  5.5107   5.5422   5.7055   5.8628  22.6285  22.6648  22.7936  22.9056
 22.9447  23.0229  23.0955  23.4429
 --------------------------------------------------------------

          Ground-State Mulliken Net Atomic Charges

     Atom                 Charge (a.u.)
  ----------------------------------------
      1 C                    -0.549015
      2 C                    -0.894264
      3 C                     0.738620
      4 C                    -0.372076
      5 C                    -0.374753
      6 C                    -0.632302
      7 C                    -0.637989
      8 C                    -0.552959
      9 H                     0.283755
     10 H                     0.270846
     11 H                     0.270725
     12 H                     0.390662
     13 H                     0.398840
     14 H                     0.371816
     15 H                     0.378993
     16 H                     0.402661
     17 H                     0.266422
     18 H                     0.240018
  ----------------------------------------
  Sum of atomic charges =     0.000000

 -----------------------------------------------------------------
                    Cartesian Multipole Moments
 -----------------------------------------------------------------
    Charge (ESU x 10^10)
                -0.0000
    Dipole Moment (Debye)
         X       0.5588      Y       0.0743      Z      -0.1428
       Tot       0.5815
    Quadrupole Moments (Debye-Ang)
        XX     -46.2271     XY       0.9053     YY     -51.0410
        XZ      -0.9079     YZ       4.2740     ZZ     -46.2300
    Octopole Moments (Debye-Ang^2)
       XXX     270.5234    XXY     -44.9043    XYY     108.4240
       YYY    -136.4940    XXZ      82.0216    XYZ     -13.2921
       YYZ      94.8576    XZZ      96.0551    YZZ     -55.1481
       ZZZ     242.8240
    Hexadecapole Moments (Debye-Ang^3)
      XXXX   -1907.3367   XXXY     198.0557   XXYY    -456.5662
      XYYY     216.4022   YYYY    -449.6542   XXXZ    -372.9340
      XXYZ     113.2971   XYYZ    -162.5393   YYYZ     224.7682
      XXZZ    -536.8531   XYZZ      98.0214   YYZZ    -297.8333
      XZZZ    -382.1540   YZZZ     243.1653   ZZZZ   -1192.1895
 -----------------------------------------------------------------
Archival summary:
1\1\compute-0-0.local\SP\ProcedureUnspecified\BasisUnspecified\810\meili\WedSep2914:05:172021WedSep2914:05:172021\0\\#,ProcedureUnspecified,BasisUnspecified,\\0,1\C\C,1,1.38842\H,2,1.08022,1,120.246\C,2,1.39247,1,120.265,3,-179.608,0\H,4,1.08149,2,119.727,1,179.756,0\C,4,1.38374,2,120.596,1,-0.752469,0\H,6,1.08228,4,120.002,2,-179.349,0\C,6,1.38803,4,119.895,2,-0.0932246,0\H,8,1.08069,6,120.259,4,-178.56,0\C,1,1.4,2,119.382,3,179.51,0\H,10,1.08002,1,120.346,2,179.812,0\C,1,1.5113,2,119.854,3,-3.1755,0\H,12,1.08693,1,109.033,2,29.5712,0\H,12,1.09156,1,109.201,2,147.444,0\C,12,1.53288,1,113.072,2,-90.1423,0\H,15,1.08996,12,107.757,1,60.4345,0\H,15,1.1,12,109.559,1,-60.3291,0\H,15,1.1,12,111.408,1,179.602,0\\\@

 Total job time:  15715.65s(wall), 113569.62s(cpu) 
 Wed Sep 29 14:05:17 2021

        *************************************************************
        *                                                           *
        *  Thank you very much for using Q-Chem.  Have a nice day.  *
        *                                                           *
        *************************************************************


Done Job For Fragment 0
calling putenv with: QCSCRATCH=/home/meili/scratch 
calling putenv with: QCTHREADS=8 
Creating input file /home/meili/scratch/qchem55048/Frg2.input
using default PutDataFrgm: nothing
calling putenv with: QCSCRATCH=/home/meili/scratch/qchem55048/ 
Spawning Job For Fragment 1
                  Welcome to Q-Chem
     A Quantum Leap Into The Future Of Chemistry


 Q-Chem 5.2 (devel), Q-Chem, Inc., Pleasanton, CA (2019)

 Yihan Shao,  Zhengting Gan,  E. Epifanovsky,  A. T. B. Gilbert,  M. Wormit,  
 J. Kussmann,  A. W. Lange,  A. Behn,  Jia Deng,  Xintian Feng,  D. Ghosh,  
 M. Goldey,  P. R. Horn,  L. D. Jacobson,  I. Kaliman,  T. Kus,  A. Landau,  
 Jie Liu,  E. I. Proynov,  R. M. Richard,  R. P. Steele,  E. J. Sundstrom,  
 H. L. Woodcock III,  P. M. Zimmerman,  D. Zuev,  B. Albrecht,  E. Alguire,  
 S. A. Baeppler,  D. Barton,  Z. Benda,  Y. A. Bernard,  E. J. Berquist,  
 K. B. Bravaya,  H. Burton,  D. Casanova,  Chun-Min Chang,  Yunqing Chen,  
 A. Chien,  K. D. Closser,  M. P. Coons,  S. Coriani,  S. Dasgupta,  
 A. L. Dempwolff,  M. Diedenhofen,  Hainam Do,  R. G. Edgar,  Po-Tung Fang,  
 S. Faraji,  S. Fatehi,  Qingguo Feng,  K. D. Fenk,  J. Fosso-Tande,  
 J. Gayvert,  Qinghui Ge,  A. Ghysels,  G. Gidofalvi,  J. Gomes,  
 J. Gonthier,  A. Gunina,  D. Hait,  M. W. D. Hanson-Heine,  
 P. H. P. Harbach,  A. W. Hauser,  M. F. Herbst,  J. E. Herr,  
 E. G. Hohenstein,  Z. C. Holden,  Kerwin Hui,  B. C. Huynh,  T.-C. Jagau,  
 Hyunjun Ji,  B. Kaduk,  K. Khistyaev,  Jaehoon Kim,  P. Klunzinger,  K. Koh,  
 D. Kosenkov,  L. Koulias,  T. Kowalczyk,  C. M. Krauter,  A. Kunitsa,  
 Ka Un Lao,  A. Laurent,  K. V. Lawler,  Joonho Lee,  D. Lefrancois,  
 S. Lehtola,  D. S. Levine,  Yi-Pei Li,  You-Sheng Lin,  Fenglai Liu,  
 E. Livshits,  A. Luenser,  P. Manohar,  E. Mansoor,  S. F. Manzer,  
 Shan-Ping Mao,  Yuezhi Mao,  N. Mardirossian,  A. V. Marenich,  
 T. Markovich,  L. A. Martinez-Martinez,  S. A. Maurer,  N. J. Mayhall,  
 S. C. McKenzie,  J.-M. Mewes,  P. Morgante,  A. F. Morrison,  
 J. W. Mullinax,  K. Nanda,  T. S. Nguyen-Beck,  R. Olivares-Amaya,  
 J. A. Parkhill,  Zheng Pei,  T. M. Perrine,  F. Plasser,  P. Pokhilko,  
 S. Prager,  A. Prociuk,  E. Ramos,  D. R. Rehn,  F. Rob,  M. Scheurer,  
 M. Schneider,  N. Sergueev,  S. M. Sharada,  S. Sharma,  D. W. Small,  
 T. Stauch,  T. Stein,  Yu-Chuan Su,  A. J. W. Thom,  A. Tkatchenko,  
 T. Tsuchimochi,  N. M. Tubman,  L. Vogt,  M. L. Vidal,  O. Vydrov,  
 M. A. Watson,  J. Wenzel,  M. de Wergifosse,  T. A. Wesolowski,  A. White,  
 J. Witte,  A. Yamada,  Jun Yang,  K. Yao,  S. Yeganeh,  S. R. Yost,  
 Zhi-Qiang You,  A. Zech,  Igor Ying Zhang,  Xing Zhang,  Yan Zhao,  
 Ying Zhu,  B. R. Brooks,  G. K. L. Chan,  C. J. Cramer,  M. S. Gordon,  
 W. J. Hehre,  A. Klamt,  M. W. Schmidt,  C. D. Sherrill,  D. G. Truhlar,  
 A. Aspuru-Guzik,  R. Baer,  A. T. Bell,  N. A. Besley,  Jeng-Da Chai,  
 A. E. DePrince, III,  R. A. DiStasio Jr.,  A. Dreuw,  B. D. Dunietz,  
 T. R. Furlani,  Chao-Ping Hsu,  Yousung Jung,  Jing Kong,  D. S. Lambrecht,  
 WanZhen Liang,  C. Ochsenfeld,  V. A. Rassolov,  L. V. Slipchenko,  
 J. E. Subotnik,  T. Van Voorhis,  J. M. Herbert,  A. I. Krylov,  
 P. M. W. Gill,  M. Head-Gordon

 Contributors to earlier versions of Q-Chem not listed above: 
 R. D. Adamson,  B. Austin,  J. Baker,  G. J. O. Beran,  K. Brandhorst,  
 S. T. Brown,  E. F. C. Byrd,  A. K. Chakraborty,  C.-L. Cheng,  
 Siu Hung Chien,  D. M. Chipman,  D. L. Crittenden,  H. Dachsel,  
 R. J. Doerksen,  A. D. Dutoi,  L. Fusti-Molnar,  W. A. Goddard III,  
 A. Golubeva-Zadorozhnaya,  S. R. Gwaltney,  G. Hawkins,  A. Heyden,  
 S. Hirata,  G. Kedziora,  F. J. Keil,  C. Kelley,  Jihan Kim,  R. A. King,  
 R. Z. Khaliullin,  P. P. Korambath,  W. Kurlancheek,  A. M. Lee,  M. S. Lee,  
 S. V. Levchenko,  Ching Yeh Lin,  D. Liotard,  R. C. Lochan,  I. Lotan,  
 P. E. Maslen,  N. Nair,  D. P. O'Neill,  D. Neuhauser,  E. Neuscamman,  
 C. M. Oana,  R. Olson,  B. Peters,  R. Peverati,  P. A. Pieniazek,  
 Y. M. Rhee,  J. Ritchie,  M. A. Rohrdanz,  E. Rosta,  N. J. Russ,  
 H. F. Schaefer III,  N. E. Schultz,  N. Shenvi,  A. C. Simmonett,  A. Sodt,  
 D. Stuck,  K. S. Thanthiriwatte,  V. Vanovschi,  Tao Wang,  A. Warshel,  
 C. F. Williams,  Q. Wu,  X. Xu,  W. Zhang

 Please cite Q-Chem as follows:
 Y. Shao et al., Mol. Phys. 113, 184-215 (2015)
 DOI: 10.1080/00268976.2014.952696

 Q-Chem 5.2.1 for Intel X86 EM64T Linux

 Parts of Q-Chem use Armadillo 8.300.2 (Tropical Shenanigans).
 http://arma.sourceforge.net/

 Q-Chem begins on Wed Sep 29 14:05:18 2021  

compute-0-0.local
Host: 0

     Scratch files written to /home/meili/scratch/qchem55048//Frg2//
NAlpha2: 50
NElect   50
Mult     1
Symmetry turned off for PCM/SM12/SMD calculation

Checking the input file for inconsistencies... 	...done.

--------------------------------------------------------------
User input:
--------------------------------------------------------------
$molecule
0 1
 6	3.3513087609	0.9653016493	3.0100713356
 6	1.3463087609	-1.2936983506	0.7190713356
 6	1.9033087609	-0.1316983506	1.3020713356
 6	1.7083087609	-2.5416983506	1.1960713356
 6	2.7633087609	-0.2356983506	2.3780713356
 6	2.6123087609	-2.6246983507	2.2310713356
 6	3.1173087609	-1.4756983507	2.8280713356
 1	0.6403087609	-1.2216983507	-0.0949286644
 1	1.6263087609	0.8423016493	0.9250713356
 1	1.2983087609	-3.4366983507	0.7510713356
 1	2.9023087609	-3.5976983506	2.6010713356
 1	3.2433087609	0.8943016494	4.0930713356
 1	2.7743087609	1.8313016494	2.6860713356
 1	3.7923087609	-1.5656983506	3.6650713356
 1	4.4099487609	1.1177636494	2.7531013356
$end
$rem
EDA2		1
METHOD		WB97X-V
BASIS		DEF2-TZVPD
XC_GRID		000099000590
NL_GRID		1
UNRESTRICTED		FALSE
MAX_SCF_CYCLES		200
SYMMETRY		FALSE
SYM_IGNORE		TRUE
BASIS_LIN_DEP_THRESH		6
THRESH		14
SCF_CONVERGENCE		8
SCF_PRINT_FRGM		TRUE
SOLVENT_METHOD		SMD
!required keywords
JOBTYPE		SP
SYM_IGNORE		TRUE
SUBSYSTEM		TRUE
GEN_SCFMAN		TRUE
CHILD_INSTRUCTION		2
SYM_IGNORE		TRUE
SCFMI		0
RI_K 0		
PARI_K 0		
MIN_PARI_K 0		
IARI_K 0		
OCC_RI_K 0		
PURECART		1111
MEM_STATIC		2000
MEM_TOTAL		2000
GUI		0
CHILD_MP		1
CHILD_MP_ORDERS		232
FRZ_RELAX		0
FRZ_RELAX_METHOD		0
EDA_CLS_ELEC		1
EDA_CLS_DISP		0
FRZ_ORTHO_DECOMP		1
EDA2		FALSE
FRGM_METHOD		FALSE
CIS_N_ROOTS  0
LOCAL_CIS    0
CIS_RLX_DNS  1
$end
$smx
SOLVENT			WATER
$end
--------------------------------------------------------------
 ----------------------------------------------------------------
             Standard Nuclear Orientation (Angstroms)
    I     Atom           X                Y                Z
 ----------------------------------------------------------------
    1      C       3.3513087609     0.9653016493     3.0100713356
    2      C       1.3463087609    -1.2936983506     0.7190713356
    3      C       1.9033087609    -0.1316983506     1.3020713356
    4      C       1.7083087609    -2.5416983506     1.1960713356
    5      C       2.7633087609    -0.2356983506     2.3780713356
    6      C       2.6123087609    -2.6246983507     2.2310713356
    7      C       3.1173087609    -1.4756983507     2.8280713356
    8      H       0.6403087609    -1.2216983507    -0.0949286644
    9      H       1.6263087609     0.8423016493     0.9250713356
   10      H       1.2983087609    -3.4366983507     0.7510713356
   11      H       2.9023087609    -3.5976983506     2.6010713356
   12      H       3.2433087609     0.8943016494     4.0930713356
   13      H       2.7743087609     1.8313016494     2.6860713356
   14      H       3.7923087609    -1.5656983506     3.6650713356
   15      H       4.4099487609     1.1177636494     2.7531013356
 ----------------------------------------------------------------
 Nuclear Repulsion Energy =         271.59126327 hartrees
 There are       25 alpha and       25 beta electrons
 Requested basis set is def2-TZVPD
 There are 131 shells and 331 basis functions

 Total QAlloc Memory Limit   2000 MB
 Mega-Array Size      1956 MB
 MEM_STATIC part      2000 MB

 Citation of the SMD model:
 Marenich, A.V.; Cramer, C.J.; Truhlar, D.G.
 J. Phys. Chem. B 2009, 113, 6378-6396.
 iSolventCode=           1
 Solvent: water                                                           

 vradii
            1           2           3           4           5           6
    1   1.8500000   1.8500000   1.8500000   1.8500000   1.8500000   1.8500000
            7           8           9          10          11          12
    1   1.8500000   1.2000000   1.2000000   1.2000000   1.2000000   1.2000000
           13          14          15
    1   1.2000000   1.2000000   1.2000000
 Changing PCM_VDW_RADII to SMD_RADIUS
 Discretize the solute cavity surface with Lebedev spheres
	Using 110 Lebedev grid points for each H atom
	Using 194 Lebedev grid points for other atoms
	Atomic van der Waals radii will be scaled by 1.20
 Remove points where switching function is < 1.0e-08
 Keep 1087 surface tesserae and discard 1151 interior tesserae
 Molecular Surface Area = 131.258 Angst**2

                       Distance Matrix (Angstroms)
             C (  1)   C (  2)   C (  3)   C (  4)   C (  5)   C (  6)
   C (  2)  3.791014
   C (  3)  2.493467  1.414349
   C (  4)  4.276575  1.384224  2.420199
   C (  5)  1.479043  2.424775  1.381373  2.797818
   C (  6)  3.747141  2.379172  2.753320  1.376710  2.398277
   C (  7)  2.458935  2.759972  2.368292  2.405215  1.365802  1.389833
   H (  8)  4.666210  1.079915  2.175977  2.133004  3.405151  3.356705
   H (  9)  2.708870  2.164101  1.080525  3.395824  2.136835  3.833787
   H ( 10)  5.356818  2.143776  3.404798  1.080347  3.878112  2.139238
   H ( 11)  4.603244  3.357302  3.833870  2.124805  3.372254  1.080615
   H ( 12)  1.090685  4.446328  3.261588  4.749203  2.109153  4.030951
   H ( 13)  1.089890  3.959027  2.554891  4.741264  2.089850  4.482098
   H ( 14)  2.651314  3.838726  3.347902  3.375143  2.117572  2.137811
   H ( 15)  1.099999  4.397535  3.154344  4.807792  2.164239  4.184501
             C (  7)   H (  8)   H (  9)   H ( 10)   H ( 11)   H ( 12)
   H (  8)  3.839788
   H (  9)  3.349271  2.504534
   H ( 10)  3.386475  2.460672  4.295079
   H ( 11)  2.144910  4.246226  4.914341  2.453821
   H ( 12)  2.689424  5.365856  3.557192  5.805993  4.745567
   H ( 13)  3.327771  4.648519  2.323176  5.802984  5.431174  1.754303
   H ( 14)  1.079025  4.918439  4.242360  4.267561  2.460329  2.556596
   H ( 15)  2.898721  5.272053  3.341590  5.868011  4.952946  1.790671
             H ( 13)   H ( 14)
   H ( 14)  3.678909
   H ( 15)  1.785763  2.900713

 A cutoff of  1.0D-14 yielded   8368 shell pairs
 There are     54524 function pairs (     69478 Cartesian)
 Smallest overlap matrix eigenvalue = 5.21E-07
 Linear dependence detected in AO basis
 Tighter screening thresholds may be required for diffuse basis sets
 Use S2THRESH > 14 and THRESH = 14 in case of SCF convergence issues
 Number of orthogonalized atomic orbitals = 330
 Maximum deviation from orthogonality = 2.117E-10

 Scale SEOQF with 1.000000e-01/1.000000e-01/1.000000e-01

 Standard Electronic Orientation quadrupole field applied
 Nucleus-field energy     =    -0.0000000038 hartrees
 Guess from superposition of atomic densities
 Warning:  Energy on first SCF cycle will be non-variational
 SAD guess density has 50.000000 electrons

 -----------------------------------------------------------------------
  General SCF calculation program by
  Eric Jon Sundstrom, Paul Horn, Yuezhi Mao, Dmitri Zuev, Alec White,
  David Stuck, Shaama M.S., Shane Yost, Joonho Lee, David Small,
  Daniel Levine, Susi Lehtola, Hugh Burton, Evgeny Epifanovsky,
  Bang C. Huynh
 -----------------------------------------------------------------------
 Exchange:     0.1670 Hartree-Fock + 1.0000 wB97X-V + LR-HF
 Correlation:  1.0000 wB97X-V
 Using Euler-Maclaurin-Lebedev (99,590) quadrature formula
 Nonlocal Correlation:  VV10 with C = 0.0100 and b = 6.00 and scale = 1.00000
 Grid used for NLC:  SG-1 standard quadrature
Energy prior to optimization (guess energy) = -271.522808410234
Begin Timing: Total SCF Calculation
begin iterations for algorithm: DIIS         
the SCF tolerance is set to 1.00e-08
    1    -271.5228084102      1.88e-03     00000 
    2    -271.5613054866      1.20e-03     00000 
    3    -271.5824732998      1.56e-04     00000 
    4    -271.5831401221      4.98e-05     00000 
    5    -271.5831891651      2.53e-05     00000 
    6    -271.5831993767      5.91e-06     00000 
    7    -271.5832001844      2.11e-06     00000 
    8    -271.5832002660      3.89e-07     00000 
    9    -271.5832002714      9.80e-08     00000 
   10    -271.5832002718      5.19e-08     00000 
   11    -271.5832002719      1.94e-08     00000 
   12    -271.5832002719      6.47e-09     00000 Convergence criterion met
Timing for Total SCF: 474.00s (wall), 3321.66s (cpu)
(3)  G-ENP(liq) elect-nuc-pol free energy of system     -271.583200272 a.u.
(4)  G-CDS(liq) cavity-dispersion-solvent structure 
     free energy                                                3.1194 kcal/mol
(6)  G-S(liq) free energy of system                     -271.578229138 a.u.
E_pcm = -0.0072789440
E_cds = 0.0049711337
Multipole orders to be included
        2
        3
computing dipole RHS
computing quadrupole RHS
total number of RHS in solve_reponses: 8
RHS batch sizes
        8
Beginning Block Conjugate Gradient Iterations. Batch Number: 0
computing hessian-vector products by finite difference
              1      6.23e-01     00000 Conjugate Gradient Iteration
computing hessian-vector products by finite difference
              2      1.91e-01     00000 Conjugate Gradient Iteration
computing hessian-vector products by finite difference
              3      4.58e-02     00000 Conjugate Gradient Iteration
computing hessian-vector products by finite difference
              4      1.15e-02     00000 Conjugate Gradient Iteration
computing hessian-vector products by finite difference
              5      2.02e-03     00000 Conjugate Gradient Iteration
computing hessian-vector products by finite difference
              6      5.77e-04     00000 Conjugate Gradient Iteration
computing hessian-vector products by finite difference
              7      1.68e-04     00000 Conjugate Gradient Iteration
computing hessian-vector products by finite difference
              8      2.68e-05     00000 Conjugate Gradient Iteration
computing hessian-vector products by finite difference
              9      3.39e-06     00000 Conjugate Gradient Iteration
computing hessian-vector products by finite difference
             10      5.04e-07     00000 Conjugate Gradient Iteration
computing hessian-vector products by finite difference
             11      7.81e-08     00000 Conjugate Gradient Iteration
computing hessian-vector products by finite difference
             12      1.25e-08     00000 Conjugate Gradient Iteration
computing hessian-vector products by finite difference
             13      3.21e-09     00000 CG Converged
batch 0 complete
Done Calculating Responses
TESTING ORTHOGONALIZATION OF MULTIPOLE BASIS
Multipole virts passed orthogonality test
Virts Per Order
           75
          125

 --------------------------------------------------------------

                    Orbital Energies (a.u.)
 --------------------------------------------------------------

 Alpha MOs
 -- Occupied --
-10.2697 -10.2686 -10.2646 -10.2646 -10.2620 -10.2588 -10.2508  -0.9976
 -0.9082  -0.8719  -0.8088  -0.7290  -0.6980  -0.6253  -0.5709  -0.5597
 -0.5329  -0.5203  -0.5130  -0.4778  -0.4704  -0.4356  -0.4343  -0.3434
 -0.3383
 -- Virtual --
  0.0658   0.0680   0.0762   0.0847   0.0899   0.1096   0.1159   0.1182
  0.1411   0.1586   0.1709   0.1751   0.1904   0.1946   0.2006   0.2079
  0.2279   0.2333   0.2396   0.2478   0.2537   0.2630   0.2655   0.2775
  0.2842   0.2880   0.2924   0.2978   0.3002   0.3058   0.3069   0.3188
  0.3249   0.3292   0.3365   0.3436   0.3568   0.3588   0.3723   0.3791
  0.3832   0.3879   0.3937   0.3959   0.3991   0.4043   0.4077   0.4116
  0.4211   0.4321   0.4375   0.4416   0.4448   0.4539   0.4601   0.4620
  0.4755   0.4785   0.4823   0.4912   0.4993   0.5042   0.5183   0.5221
  0.5245   0.5319   0.5396   0.5456   0.5509   0.5556   0.5608   0.5721
  0.5813   0.5893   0.5983   0.6000   0.6072   0.6289   0.6401   0.6499
  0.6705   0.6791   0.6883   0.6930   0.6960   0.7100   0.7229   0.7301
  0.7322   0.7377   0.7470   0.7635   0.7689   0.7736   0.7799   0.7889
  0.7973   0.8027   0.8067   0.8087   0.8160   0.8283   0.8328   0.8358
  0.8393   0.8430   0.8558   0.8595   0.8674   0.8764   0.8893   0.9028
  0.9219   0.9272   0.9419   0.9514   0.9571   1.0136   1.0401   1.0458
  1.0560   1.0641   1.0759   1.0794   1.0934   1.1050   1.1119   1.1537
  1.1713   1.1839   1.2704   1.2859   1.3051   1.3347   1.3577   1.3671
  1.3903   1.4501   1.4557   1.4639   1.4780   1.4893   1.5379   1.5516
  1.6064   1.6181   1.6279   1.6345   1.6747   1.6869   1.7436   1.7820
  1.7899   1.8057   1.8118   1.8180   1.8434   1.8683   1.8847   1.9181
  1.9272   1.9374   1.9482   1.9781   1.9924   2.0037   2.0170   2.0338
  2.0429   2.0514   2.0792   2.1033   2.1207   2.1278   2.1782   2.1966
  2.2084   2.2446   2.2635   2.2890   2.2980   2.3208   2.3972   2.4074
  2.4234   2.4310   2.4705   2.5277   2.5551   2.5628   2.5705   2.6112
  2.6254   2.6630   2.6743   2.6817   2.7127   2.7210   2.7650   2.7900
  2.7929   2.8204   2.8236   2.8645   2.8763   2.9028   2.9206   2.9281
  2.9497   2.9533   2.9887   2.9933   3.0141   3.0180   3.0332   3.0601
  3.0727   3.0973   3.1150   3.1481   3.1861   3.1922   3.2112   3.2173
  3.2412   3.2576   3.2943   3.2972   3.3632   3.3688   3.3766   3.3884
  3.4045   3.4428   3.4448   3.4609   3.4734   3.4819   3.4985   3.5088
  3.5149   3.5475   3.5517   3.5577   3.5699   3.5909   3.6027   3.6143
  3.6293   3.6417   3.6821   3.7101   3.7361   3.7655   3.7787   3.8204
  3.8754   3.9158   3.9411   3.9699   3.9942   4.0226   4.0538   4.0627
  4.1421   4.2174   4.2865   4.2942   4.3076   4.3145   4.3457   4.3582
  4.3746   4.3888   4.4147   4.4294   4.4488   4.4734   4.5100   4.5702
  4.6191   4.6366   4.7877   4.8124   4.8573   4.8915   4.9236   4.9623
  5.0430   5.0651   5.1995   5.2689   5.4028   5.4159   5.5276   5.5534
  5.6826   5.8711  22.5830  22.7242  22.8960  22.9254  23.0480  23.1305
 23.5124
 --------------------------------------------------------------

          Ground-State Mulliken Net Atomic Charges

     Atom                 Charge (a.u.)
  ----------------------------------------
      1 C                    -1.078992
      2 C                    -0.579871
      3 C                    -0.458214
      4 C                    -0.561989
      5 C                     0.825778
      6 C                    -0.528870
      7 C                    -0.345117
      8 H                     0.370809
      9 H                     0.370354
     10 H                     0.399467
     11 H                     0.366566
     12 H                     0.275661
     13 H                     0.297662
     14 H                     0.401119
     15 H                     0.245637
  ----------------------------------------
  Sum of atomic charges =     0.000000

 -----------------------------------------------------------------
                    Cartesian Multipole Moments
 -----------------------------------------------------------------
    Charge (ESU x 10^10)
                 0.0000
    Dipole Moment (Debye)
         X       0.2116      Y       0.3915      Z       0.2741
       Tot       0.5227
    Quadrupole Moments (Debye-Ang)
        XX     -41.5716     XY       1.1210     YY     -38.4369
        XZ       5.3903     YZ       0.5732     ZZ     -40.1492
    Octopole Moments (Debye-Ang^2)
       XXX    -303.8288    XXY      46.5998    XYY     -95.3073
       YYY     107.8500    XXZ     -61.9026    XYZ      -4.8262
       YYZ     -77.5405    XZZ     -81.8749    YZZ      41.8600
       ZZZ    -240.1326
    Hexadecapole Moments (Debye-Ang^3)
      XXXX   -1677.7791   XXXY     274.9037   XXYY    -400.0809
      XYYY     213.5492   YYYY    -685.4889   XXXZ    -617.9078
      XXYZ      44.1124   XYYZ    -204.2656   YYYZ     161.5069
      XXZZ    -405.2329   XYZZ      61.3496   YYZZ    -325.4242
      XZZZ    -618.9696   YZZZ     191.2657   ZZZZ   -1206.2197
 -----------------------------------------------------------------
Archival summary:
1\1\compute-0-0.local\SP\ProcedureUnspecified\BasisUnspecified\78\meili\WedSep2916:52:002021WedSep2916:52:002021\0\\#,ProcedureUnspecified,BasisUnspecified,\\0,1\C\C,1,1.3658\H,2,1.07902,1,119.567\C,1,1.38137,2,119.101,3,179.711,0\H,4,1.08052,1,119.95,2,-179.05,0\C,2,1.38983,1,120.989,3,179.458,0\H,6,1.08062,2,119.987,1,-179.922,0\C,6,1.37671,2,120.776,1,-2.04981,0\H,8,1.08035,6,120.592,2,-178.416,0\C,8,1.38422,6,119.022,2,2.54192,0\H,10,1.07991,8,119.395,6,179.786,0\C,1,1.47904,2,119.564,3,2.38631,0\H,12,1.08989,1,107.921,2,-166.498,0\H,12,1.09069,1,109.394,2,-50.2681,0\H,12,1.1,1,113.287,2,72.3916,0\\\@

 Total job time:  10001.40s(wall), 70742.41s(cpu) 
 Wed Sep 29 16:52:00 2021

        *************************************************************
        *                                                           *
        *  Thank you very much for using Q-Chem.  Have a nice day.  *
        *                                                           *
        *************************************************************


Done Job For Fragment 1
calling putenv with: QCSCRATCH=/home/meili/scratch 
calling putenv with: QCTHREADS=8 
Doing General SCFMI
 Exchange:     0.1670 Hartree-Fock + 1.0000 wB97X-V + LR-HF
 Correlation:  1.0000 wB97X-V
 Using Euler-Maclaurin-Lebedev (99,590) quadrature formula
 Nonlocal Correlation:  VV10 with C = 0.0100 and b = 6.00 and scale = 1.00000
 Grid used for NLC:  SG-1 standard quadrature
performing fock build before subrot guess so that all methods have access
Printing subrot_rss_gen Method Specification:
Occupied Subspace Method is 0
Virtual Subspace Method is 0
Energy of the unrelaxed supersystem initial determinant -582.471988187430
performing fock build before subrot guess so that all methods have access
Printing subrot_rss_gen Method Specification:
Occupied Subspace Method is 0
Virtual Subspace Method is 0
Energy of the unrelaxed supersystem initial determinant w/ solvent -582.487514284996
write pseudocanon occs and virts to disk
write pseudocanon orbital energies to disk
Tolerance of ortho_decomp_scf: 1.00e-06
GDM subspace size: 20
Beginning the Orthogonal Decomposition of the Initial Supersystem Wavefunction
    1    -582.4602825112      1.45e-02     ortho_decomp Preconditoned Steepest Descent
    2    -582.4613672436      3.71e-04     ortho_decomp BFGS Step
    3    -582.4613707047      2.83e-05     ortho_decomp BFGS Step
    4    -582.4613707121      1.28e-06     ortho_decomp BFGS Step
    5    -582.4613707121      5.37e-08     ortho_decomp 00000 Convergence criterion met
 Hartree-Fock
 Hartree-Fock
 Hartree-Fock
Doing General SCFMI
 Exchange:     0.1670 Hartree-Fock + 1.0000 wB97X-V + LR-HF
 Correlation:  1.0000 wB97X-V
 Using Euler-Maclaurin-Lebedev (99,590) quadrature formula
 Nonlocal Correlation:  VV10 with C = 0.0100 and b = 6.00 and scale = 1.00000
 Grid used for NLC:  SG-1 standard quadrature
performing fock build at end of subrot_r(subrot) constructor so that all methods have access
<S^2> of initial wavefunction before polarization iterations 0.0000000000
Beginning iterations for the determination of the polarized wavefunction
Energy prior to optimization (guess energy) = -582.487514284996
Begin Timing: Total SCF Calculation
begin iterations for algorithm: DIIS         
the SCF tolerance is set to 1.00e-08
    1    -582.4875142850      3.19e-05     00000 
    2    -582.4876279707      1.22e-05     00000 
    3    -582.4876390275      7.00e-06     00000 
    4    -582.4876427339      1.89e-06     00000 
    5    -582.4876430450      1.11e-06     00000 
    6    -582.4876431265      4.59e-07     00000 
    7    -582.4876431365      1.92e-07     00000 
    8    -582.4876431382      8.83e-08     00000 
    9    -582.4876431387      3.85e-08     00000 
   10    -582.4876431388      1.73e-08     00000 
   11    -582.4876431389      7.00e-09     00000 Convergence criterion met
write pseudocanon occs and virts to disk
write pseudocanon orbital energies to disk
Timing for Total SCF: 3834.00s (wall), 27942.11s (cpu)
<S^2> of polarized wavefunction after polarization iterations 0.0000000000
relaxing scfmi constraint to allow all rotations in the entire AO span
Doing General SCFMI
 Exchange:     0.1670 Hartree-Fock + 1.0000 wB97X-V + LR-HF
 Correlation:  1.0000 wB97X-V
 Using Euler-Maclaurin-Lebedev (99,590) quadrature formula
 Nonlocal Correlation:  VV10 with C = 0.0100 and b = 6.00 and scale = 1.00000
 Grid used for NLC:  SG-1 standard quadrature
performing fock build at end of subrot_r(subrot) constructor so that all methods have access
<S^2> of polarized wavefunction before ct-allowed iterations 0.0000000000
Beginning iterations for the determination of the CT-Allowed wavefunction
Energy prior to optimization (guess energy) = -582.487643138852
Begin Timing: Total SCF Calculation
begin iterations for algorithm: DIIS         
the SCF tolerance is set to 1.00e-08
    1    -582.4876431389      5.32e-05     00000 
    2    -582.4882450640      4.96e-06     00000 
    3    -582.4882588853      7.14e-07     00000 
    4    -582.4882592397      2.25e-07     00000 
    5    -582.4882592559      8.94e-08     00000 
    6    -582.4882592592      1.83e-08     00000 
    7    -582.4882592594      7.74e-09     00000 Convergence criterion met
write pseudocanon occs and virts to disk
write pseudocanon orbital energies to disk
Timing for Total SCF: 2356.00s (wall), 17026.33s (cpu)
<S^2> of ct_allowed wavefunction after ct-allowed iterations 0.0000000000

================================
        Results of EDA2         
================================
Basic EDA Quantities
--------------------
Fragment Energies (Ha):
1 -310.8974064228
2 -271.5782291382
--------------------
  E_prp (kJ/mol) = 0.0000
  E_sol (kJ/mol) = -1.9878
  E_frz (kJ/mol) = -2.4774
  E_pol (kJ/mol) = -0.3383
  E_vct (kJ/mol) = -1.6176
  E_int (kJ/mol) = -6.4211
--------------------


Initial Wavefunction Decomposition
--------------------
  --------------------
  Orthogonal Fragment Subspace Decomposition:
  --------------------
     E_elec   (ELEC)   (kJ/mol) = -10.3318
     E_pauli  (PAULI)  (kJ/mol) = 19.4699
     E_disp   (DISP)   (kJ/mol) = -11.6155
     --------------------
     Terms summing to E_pauli:
     --------------------
        E_kep_pauli       (kJ/mol) = 25.3991
        E_disp_free_pauli (kJ/mol) = -5.9292
  --------------------
  Classical Frozen Decomposition:
  --------------------
     E_cls_elec  (CLS ELEC)  (kJ/mol) = -2.9909
     E_cls_pauli (CLS PAULI) (kJ/mol) = 0.5135
    [E_mod_pauli (MOD PAULI) (kJ/mol) = 12.1290 (CLS PAULI - DISP from orthogonal decomposition) ]
  --------------------
--------------------

Simplified EDA Summary (kJ/mol)
--------------------
 PREPARATION     0.0000
 SOLVATION       -1.9878
 FROZEN          9.1381      (does not include dispersion)
[PAULI           19.4699]     (if this is negligible, then frozen describes electrostatics)
 DISPERSION      -11.6155
 POLARIZATION    -0.3383
 CHARGE TRANSFER -1.6176
 TOTAL           -6.4211     (PRP + SOL + FRZ + DISP + POL + CT)
--------------------

 --------------------------------------------------------------

                    Orbital Energies (a.u.)
 --------------------------------------------------------------

 Alpha MOs
 -- Occupied --
-10.2752 -10.2698 -10.2693 -10.2683 -10.2671 -10.2669 -10.2647 -10.2646
-10.2644 -10.2641 -10.2620 -10.2588 -10.2579 -10.2508 -10.2507  -0.9976
 -0.9940  -0.9168  -0.9081  -0.8735  -0.8719  -0.8487  -0.8088  -0.7506
 -0.7290  -0.7263  -0.6990  -0.6905  -0.6261  -0.6231  -0.5773  -0.5709
 -0.5652  -0.5599  -0.5353  -0.5330  -0.5298  -0.5202  -0.5185  -0.5130
 -0.4999  -0.4778  -0.4746  -0.4704  -0.4540  -0.4497  -0.4349  -0.4346
 -0.4287  -0.4217  -0.3455  -0.3433  -0.3383  -0.3356
 -- Virtual --
  0.0596   0.0642   0.0664   0.0708   0.0728   0.0761   0.0792   0.0864
  0.0909   0.0960   0.1079   0.1101   0.1107   0.1135   0.1234   0.1347
  0.1354   0.1447   0.1532   0.1597   0.1666   0.1681   0.1745   0.1788
  0.1870   0.1903   0.1933   0.1940   0.2013   0.2068   0.2099   0.2120
  0.2191   0.2240   0.2280   0.2351   0.2394   0.2419   0.2450   0.2482
  0.2512   0.2536   0.2568   0.2626   0.2714   0.2728   0.2748   0.2776
  0.2795   0.2822   0.2838   0.2848   0.2874   0.2896   0.2957   0.2999
  0.3021   0.3060   0.3067   0.3110   0.3155   0.3161   0.3210   0.3252
  0.3300   0.3313   0.3357   0.3397   0.3403   0.3438   0.3464   0.3536
  0.3552   0.3586   0.3617   0.3639   0.3674   0.3696   0.3706   0.3734
  0.3758   0.3786   0.3820   0.3836   0.3870   0.3937   0.3969   0.3974
  0.4008   0.4026   0.4054   0.4075   0.4096   0.4152   0.4173   0.4183
  0.4208   0.4245   0.4276   0.4312   0.4353   0.4391   0.4407   0.4425
  0.4466   0.4511   0.4516   0.4547   0.4566   0.4624   0.4654   0.4672
  0.4713   0.4742   0.4771   0.4814   0.4843   0.4856   0.4910   0.4939
  0.4970   0.5003   0.5020   0.5030   0.5078   0.5163   0.5197   0.5216
  0.5232   0.5259   0.5299   0.5343   0.5377   0.5418   0.5455   0.5474
  0.5493   0.5572   0.5597   0.5616   0.5638   0.5660   0.5726   0.5764
  0.5815   0.5834   0.5873   0.5946   0.5977   0.6031   0.6073   0.6085
  0.6122   0.6181   0.6202   0.6238   0.6289   0.6315   0.6335   0.6398
  0.6425   0.6505   0.6540   0.6603   0.6644   0.6761   0.6801   0.6835
  0.6869   0.6904   0.6939   0.6969   0.7021   0.7066   0.7100   0.7147
  0.7187   0.7242   0.7289   0.7316   0.7334   0.7366   0.7424   0.7429
  0.7456   0.7463   0.7532   0.7562   0.7616   0.7642   0.7662   0.7728
  0.7742   0.7781   0.7840   0.7874   0.7896   0.7940   0.7971   0.8009
  0.8021   0.8085   0.8117   0.8137   0.8193   0.8215   0.8233   0.8271
  0.8282   0.8297   0.8322   0.8348   0.8389   0.8441   0.8472   0.8507
  0.8540   0.8558   0.8591   0.8640   0.8706   0.8725   0.8733   0.8763
  0.8800   0.8856   0.8912   0.8950   0.8984   0.9057   0.9115   0.9178
  0.9199   0.9236   0.9313   0.9402   0.9442   0.9524   0.9587   0.9621
  0.9661   0.9784   0.9859   0.9905   0.9967   0.9999   1.0110   1.0200
  1.0249   1.0344   1.0396   1.0525   1.0606   1.0653   1.0681   1.0781
  1.0817   1.0841   1.0942   1.0977   1.1013   1.1111   1.1140   1.1205
  1.1238   1.1287   1.1390   1.1437   1.1489   1.1652   1.1724   1.1849
  1.1911   1.1997   1.2133   1.2177   1.2315   1.2466   1.2647   1.2759
  1.2939   1.3088   1.3180   1.3300   1.3411   1.3471   1.3570   1.3673
  1.3699   1.3935   1.3939   1.4064   1.4074   1.4210   1.4297   1.4427
  1.4513   1.4710   1.4746   1.4826   1.4880   1.4982   1.5039   1.5127
  1.5215   1.5360   1.5438   1.5553   1.5689   1.5770   1.5910   1.6134
  1.6264   1.6283   1.6447   1.6505   1.6522   1.6608   1.6707   1.6854
  1.6939   1.7053   1.7118   1.7315   1.7490   1.7600   1.7889   1.7973
  1.8018   1.8131   1.8180   1.8272   1.8356   1.8455   1.8536   1.8665
  1.8757   1.8827   1.8945   1.9034   1.9173   1.9271   1.9359   1.9406
  1.9476   1.9507   1.9565   1.9600   1.9701   1.9760   1.9913   1.9984
  2.0100   2.0155   2.0206   2.0282   2.0343   2.0391   2.0407   2.0502
  2.0632   2.0714   2.0735   2.0820   2.0996   2.1013   2.1124   2.1136
  2.1198   2.1351   2.1479   2.1567   2.1687   2.1751   2.1899   2.1973
  2.2052   2.2147   2.2275   2.2364   2.2417   2.2571   2.2588   2.2915
  2.3024   2.3076   2.3118   2.3199   2.3333   2.3418   2.3525   2.3640
  2.3692   2.4068   2.4205   2.4227   2.4283   2.4444   2.4501   2.4545
  2.4784   2.4980   2.5030   2.5455   2.5561   2.5675   2.5705   2.5758
  2.5782   2.5886   2.6034   2.6076   2.6232   2.6307   2.6391   2.6530
  2.6681   2.6711   2.6726   2.6909   2.7094   2.7126   2.7166   2.7262
  2.7466   2.7518   2.7679   2.7710   2.7818   2.7883   2.7966   2.8016
  2.8080   2.8153   2.8287   2.8317   2.8465   2.8529   2.8582   2.8814
  2.8910   2.9003   2.9081   2.9109   2.9195   2.9276   2.9362   2.9386
  2.9469   2.9488   2.9617   2.9627   2.9663   2.9754   2.9971   3.0010
  3.0071   3.0216   3.0245   3.0297   3.0356   3.0409   3.0447   3.0547
  3.0574   3.0697   3.0808   3.0893   3.0939   3.1037   3.1194   3.1223
  3.1377   3.1428   3.1626   3.1906   3.1961   3.1992   3.2046   3.2140
  3.2248   3.2306   3.2467   3.2505   3.2615   3.2707   3.2752   3.2805
  3.3085   3.3177   3.3302   3.3559   3.3592   3.3680   3.3786   3.3888
  3.3920   3.3954   3.4075   3.4101   3.4161   3.4194   3.4396   3.4427
  3.4529   3.4572   3.4641   3.4687   3.4728   3.4857   3.4923   3.4962
  3.4981   3.5088   3.5143   3.5244   3.5270   3.5338   3.5411   3.5492
  3.5506   3.5554   3.5600   3.5674   3.5735   3.5759   3.5881   3.5928
  3.5989   3.6036   3.6103   3.6204   3.6343   3.6404   3.6476   3.6502
  3.6576   3.6684   3.6745   3.6904   3.7025   3.7057   3.7188   3.7206
  3.7288   3.7345   3.7505   3.7607   3.7621   3.7864   3.7983   3.8163
  3.8407   3.8485   3.8782   3.8822   3.8887   3.9265   3.9408   3.9532
  3.9805   3.9894   3.9994   4.0074   4.0183   4.0299   4.0600   4.0619
  4.0814   4.0990   4.1215   4.1619   4.1725   4.2049   4.2106   4.2330
  4.2383   4.2819   4.3003   4.3037   4.3130   4.3242   4.3281   4.3385
  4.3503   4.3531   4.3536   4.3577   4.3688   4.3755   4.3886   4.3914
  4.4019   4.4099   4.4232   4.4392   4.4576   4.4630   4.4668   4.4855
  4.5176   4.5233   4.5272   4.5690   4.5813   4.6075   4.6332   4.6408
  4.6543   4.6989   4.7684   4.7850   4.7948   4.8228   4.8357   4.8623
  4.8865   4.8992   4.9403   4.9483   4.9644   4.9837   5.0041   5.0284
  5.0385   5.0673   5.0844   5.1427   5.1883   5.2195   5.2913   5.3351
  5.3827   5.3923   5.4078   5.4287   5.5163   5.5327   5.5435   5.5627
  5.7033   5.7249   5.8291   5.8671  22.6609  22.6787  22.6941  22.7348
 22.8917  22.9084  22.9169  22.9631  23.0065  23.0615  23.0759  23.1166
 23.1539  23.4594  23.5271
 --------------------------------------------------------------

          Ground-State Mulliken Net Atomic Charges

     Atom                 Charge (a.u.)
  ----------------------------------------
      1 C                     0.023473
      2 C                    -1.178878
      3 C                     0.261491
      4 C                    -0.239128
      5 C                    -0.358896
      6 C                    -0.571649
      7 C                    -0.538589
      8 C                    -0.433755
      9 H                     0.382125
     10 H                    -0.255443
     11 H                     0.306915
     12 H                     0.408400
     13 H                     0.419497
     14 H                     0.380495
     15 H                     0.384082
     16 H                     0.419158
     17 H                     0.298371
     18 H                     0.270059
     19 C                    -1.123644
     20 C                    -0.099377
     21 C                    -0.311754
     22 C                    -0.744972
     23 C                     0.224408
     24 C                    -0.432584
     25 C                    -0.379976
     26 H                     0.383429
     27 H                     0.426651
     28 H                     0.418919
     29 H                     0.384702
     30 H                     0.289060
     31 H                     0.305943
     32 H                     0.427616
     33 H                     0.253850
  ----------------------------------------
  Sum of atomic charges =     0.000000

 -----------------------------------------------------------------
                    Cartesian Multipole Moments
 -----------------------------------------------------------------
    Charge (ESU x 10^10)
                 0.0000
    Dipole Moment (Debye)
         X       0.7683      Y       0.4623      Z       0.1318
       Tot       0.9063
    Quadrupole Moments (Debye-Ang)
        XX     -87.7130     XY       1.9952     YY     -89.5079
        XZ       4.5284     YZ       4.8599     ZZ     -86.4035
    Octopole Moments (Debye-Ang^2)
       XXX     -33.5906    XXY       1.7502    XYY      13.0808
       YYY     -28.6665    XXZ      20.0697    XYZ     -18.1099
       YYZ      17.3780    XZZ      14.1580    YZZ     -13.3727
       ZZZ       2.8538
    Hexadecapole Moments (Debye-Ang^3)
      XXXX   -3583.2693   XXXY     472.6327   XXYY    -856.4875
      XYYY     429.8610   YYYY   -1135.3785   XXXZ    -990.1303
      XXYZ     157.3628   XYYZ    -366.7047   YYYZ     386.3758
      XXZZ    -941.7080   XYZZ     159.3029   YYZZ    -623.4004
      XZZZ   -1000.7228   YZZZ     434.6404   ZZZZ   -2398.7366
 -----------------------------------------------------------------
Archival summary:
1\1\compute-0-0.local\SP\ProcedureUnspecified\BasisUnspecified\1518\meili\WedSep2920:10:332021WedSep2920:10:332021\0\\#,ProcedureUnspecified,BasisUnspecified,\\0,1\C\C,1,1.38842\H,2,1.08022,1,120.246\C,2,1.39247,1,120.265,3,-179.608,0\H,4,1.08149,2,119.727,1,179.756,0\C,4,1.38374,2,120.596,1,-0.752469,0\H,6,1.08228,4,120.002,2,-179.349,0\C,6,1.38803,4,119.895,2,-0.0932246,0\H,8,1.08069,6,120.259,4,-178.56,0\C,1,1.4,2,119.382,3,179.51,0\H,10,1.08002,1,120.346,2,179.812,0\C,1,1.5113,2,119.854,3,-3.1755,0\H,12,1.08693,1,109.033,2,29.5712,0\H,12,1.09156,1,109.201,2,147.444,0\C,12,1.53288,1,113.072,2,-90.1423,0\H,15,1.08996,12,107.757,1,60.4345,0\H,15,1.1,12,109.559,1,-60.3291,0\H,15,1.1,12,111.408,1,179.602,0\H,13,2.2406,12,111.558,1,78.5237,0\C,19,1.07991,13,116.954,12,169.024,0\C,20,1.38422,19,119.395,13,-164.719,0\H,21,1.08035,20,120.379,19,0.742661,0\C,21,1.37671,20,119.022,19,179.786,0\H,23,1.08062,21,119.204,20,-179.57,0\C,23,1.38983,21,120.776,20,2.54192,0\H,25,1.07902,23,119.442,21,177.409,0\C,25,1.3658,23,120.989,21,-2.04981,0\C,27,1.38137,25,119.101,23,-0.831147,0\H,28,1.08052,27,119.95,25,-179.05,0\C,27,1.47904,25,119.564,23,-178.156,0\H,30,1.08989,27,107.921,25,-166.498,0\H,30,1.09069,27,109.394,25,-50.2681,0\H,30,1.1,27,113.287,25,72.3916,0\\\@

 Total job time:  37637.50s(wall), 89082.31s(cpu) 
 Wed Sep 29 20:10:33 2021

        *************************************************************
        *                                                           *
        *  Thank you very much for using Q-Chem.  Have a nice day.  *
        *                                                           *
        *************************************************************


