
Running Job 1 of 1 SSI-021PHE-072PHE-1_PCM_TZVPD.in
qchem SSI-021PHE-072PHE-1_PCM_TZVPD.in_58356.0 /tmp/qchem58356/ 0
/global/common/cori/software/qchem/5.2/exe/qcprog.exe_s SSI-021PHE-072PHE-1_PCM_TZVPD.in_58356.0 /tmp/qchem58356/
                  Welcome to Q-Chem
     A Quantum Leap Into The Future Of Chemistry


 Q-Chem 5.2, Q-Chem, Inc., Pleasanton, CA (2019)

 License issued to: National Energy Research Scientific Computing Center

 Yihan Shao,  Zhengting Gan,  E. Epifanovsky,  A. T. B. Gilbert,  M. Wormit,  
 J. Kussmann,  A. W. Lange,  A. Behn,  Jia Deng,  Xintian Feng,  D. Ghosh,  
 M. Goldey,  P. R. Horn,  L. D. Jacobson,  I. Kaliman,  T. Kus,  A. Landau,  
 Jie Liu,  E. I. Proynov,  R. M. Richard,  R. P. Steele,  E. J. Sundstrom,  
 H. L. Woodcock III,  P. M. Zimmerman,  D. Zuev,  B. Albrecht,  E. Alguire,  
 S. A. Baeppler,  D. Barton,  Z. Benda,  Y. A. Bernard,  E. J. Berquist,  
 K. B. Bravaya,  H. Burton,  D. Casanova,  Chun-Min Chang,  Yunqing Chen,  
 A. Chien,  K. D. Closser,  M. P. Coons,  S. Coriani,  S. Dasgupta,  
 A. L. Dempwolff,  M. Diedenhofen,  Hainam Do,  R. G. Edgar,  Po-Tung Fang,  
 S. Faraji,  S. Fatehi,  Qingguo Feng,  K. D. Fenk,  J. Fosso-Tande,  
 J. Gayvert,  Qinghui Ge,  A. Ghysels,  G. Gidofalvi,  J. Gomes,  
 J. Gonthier,  A. Gunina,  D. Hait,  M. W. D. Hanson-Heine,  
 P. H. P. Harbach,  A. W. Hauser,  M. F. Herbst,  J. E. Herr,  
 E. G. Hohenstein,  Z. C. Holden,  Kerwin Hui,  B. C. Huynh,  T.-C. Jagau,  
 Hyunjun Ji,  B. Kaduk,  K. Khistyaev,  Jaehoon Kim,  P. Klunzinger,  K. Koh,  
 D. Kosenkov,  L. Koulias,  T. Kowalczyk,  C. M. Krauter,  A. Kunitsa,  
 Ka Un Lao,  A. Laurent,  K. V. Lawler,  Joonho Lee,  D. Lefrancois,  
 S. Lehtola,  D. S. Levine,  Yi-Pei Li,  You-Sheng Lin,  Fenglai Liu,  
 E. Livshits,  A. Luenser,  P. Manohar,  E. Mansoor,  S. F. Manzer,  
 Shan-Ping Mao,  Yuezhi Mao,  N. Mardirossian,  A. V. Marenich,  
 T. Markovich,  L. A. Martinez-Martinez,  S. A. Maurer,  N. J. Mayhall,  
 S. C. McKenzie,  J.-M. Mewes,  P. Morgante,  A. F. Morrison,  
 J. W. Mullinax,  K. Nanda,  T. S. Nguyen-Beck,  R. Olivares-Amaya,  
 J. A. Parkhill,  Zheng Pei,  T. M. Perrine,  F. Plasser,  P. Pokhilko,  
 S. Prager,  A. Prociuk,  E. Ramos,  D. R. Rehn,  F. Rob,  M. Scheurer,  
 M. Schneider,  N. Sergueev,  S. M. Sharada,  S. Sharma,  D. W. Small,  
 T. Stauch,  T. Stein,  Yu-Chuan Su,  A. J. W. Thom,  A. Tkatchenko,  
 T. Tsuchimochi,  N. M. Tubman,  L. Vogt,  M. L. Vidal,  O. Vydrov,  
 M. A. Watson,  J. Wenzel,  M. de Wergifosse,  T. A. Wesolowski,  A. White,  
 J. Witte,  A. Yamada,  Jun Yang,  K. Yao,  S. Yeganeh,  S. R. Yost,  
 Zhi-Qiang You,  A. Zech,  Igor Ying Zhang,  Xing Zhang,  Yan Zhao,  
 Ying Zhu,  B. R. Brooks,  G. K. L. Chan,  C. J. Cramer,  M. S. Gordon,  
 W. J. Hehre,  A. Klamt,  M. W. Schmidt,  C. D. Sherrill,  D. G. Truhlar,  
 A. Aspuru-Guzik,  R. Baer,  A. T. Bell,  N. A. Besley,  Jeng-Da Chai,  
 A. E. DePrince, III,  R. A. DiStasio Jr.,  A. Dreuw,  B. D. Dunietz,  
 T. R. Furlani,  Chao-Ping Hsu,  Yousung Jung,  Jing Kong,  D. S. Lambrecht,  
 WanZhen Liang,  C. Ochsenfeld,  V. A. Rassolov,  L. V. Slipchenko,  
 J. E. Subotnik,  T. Van Voorhis,  J. M. Herbert,  A. I. Krylov,  
 P. M. W. Gill,  M. Head-Gordon

 Contributors to earlier versions of Q-Chem not listed above: 
 R. D. Adamson,  B. Austin,  J. Baker,  G. J. O. Beran,  K. Brandhorst,  
 S. T. Brown,  E. F. C. Byrd,  A. K. Chakraborty,  C.-L. Cheng,  
 Siu Hung Chien,  D. M. Chipman,  D. L. Crittenden,  H. Dachsel,  
 R. J. Doerksen,  A. D. Dutoi,  L. Fusti-Molnar,  W. A. Goddard III,  
 A. Golubeva-Zadorozhnaya,  S. R. Gwaltney,  G. Hawkins,  A. Heyden,  
 S. Hirata,  G. Kedziora,  F. J. Keil,  C. Kelley,  Jihan Kim,  R. A. King,  
 R. Z. Khaliullin,  P. P. Korambath,  W. Kurlancheek,  A. M. Lee,  M. S. Lee,  
 S. V. Levchenko,  Ching Yeh Lin,  D. Liotard,  R. C. Lochan,  I. Lotan,  
 P. E. Maslen,  N. Nair,  D. P. O'Neill,  D. Neuhauser,  E. Neuscamman,  
 C. M. Oana,  R. Olson,  B. Peters,  R. Peverati,  P. A. Pieniazek,  
 Y. M. Rhee,  J. Ritchie,  M. A. Rohrdanz,  E. Rosta,  N. J. Russ,  
 H. F. Schaefer III,  N. E. Schultz,  N. Shenvi,  A. C. Simmonett,  A. Sodt,  
 D. Stuck,  K. S. Thanthiriwatte,  V. Vanovschi,  Tao Wang,  A. Warshel,  
 C. F. Williams,  Q. Wu,  X. Xu,  W. Zhang

 Please cite Q-Chem as follows:
 Y. Shao et al., Mol. Phys. 113, 184-215 (2015)
 DOI: 10.1080/00268976.2014.952696

 Q-Chem 5.2.0 for Intel X86 EM64T Linux

 Parts of Q-Chem use Armadillo 8.300.2 (Tropical Shenanigans).
 http://arma.sourceforge.net/

 Q-Chem begins on Sun Sep 26 03:48:08 2021  

Host: cori01
0

     Scratch files written to /tmp/qchem58356//
 May1019 |scratch|qcdevops|jenkins|workspace|build_RNUM -1
Processing $rem in /global/common/cori/software/qchem/5.2/config/preferences:
	 MEM_TOTAL  96000 
NAlpha2: 100
NElect   100
Mult     1
Symmetry turned off for PCM/SM12/SMD calculation

 Q-Chem warning in module libgen/rem_setup.C, line 2803:

 Neither GIA nor STOLL is specified by user. Use STOLL as the default


Checking the input file for inconsistencies... 	...done.

--------------------------------------------------------------
User input:
--------------------------------------------------------------
$comment
SSI-021PHE-072PHE-1.pdb
$end

$molecule
0 1
--
0 1
C    2.457266965497    2.090373528862   -2.571825124478
C   -1.050733034503    2.387373528862   -1.161825124478
C   -0.821733034503    2.745373528862    0.160174875522
C    0.013266965497    2.186373528862   -2.028825124478
C    1.328266965497    2.306373528862   -1.584825124478
C    0.484266965497    2.909373528862    0.613174875522
C    1.557266965497    2.708373528862   -0.261825124478
H   -2.062733034503    2.289373528862   -1.526825124478
H   -1.650733034503    2.889373528862    0.835174875522
H   -0.188733034503    1.927373528862   -3.056825124478
H    0.658266965497    3.205373528862    1.635174875522
H    2.714266965497    3.058373528862   -3.002825124478
H    2.092266965497    1.456373528862   -3.380825124478
H    2.559266965497    2.867373528862    0.098174875522
H    3.365136965497    1.627465528862   -2.157725124478
--
0 1
C   -0.770733034503   -4.634626471138   -0.124825124478
C   -0.082733034503   -0.948626471138    0.531174875522
C   -0.486733034503   -0.821626471138    1.866174875522
C   -0.172733034503   -2.184626471138   -0.108825124478
C   -0.647733034503   -3.309626471138    0.575174875522
C   -0.959733034503   -1.943626471138    2.551174875522
C   -1.039733034503   -3.181626471138    1.904174875522
H    0.285266965497   -0.085626471138   -0.005825124478
H   -0.427733034503    0.138373528862    2.361174875522
H    0.132266965497   -2.264626471138   -1.142825124478
H   -1.276733034503   -1.849626471138    3.581174875522
H   -0.924733034503   -4.459626471138   -1.186825124478
H   -1.663733034503   -5.142626471138    0.239174875522
H   -1.418733034503   -4.039626471138    2.441174875522
H    0.096361965497   -5.299636471138    0.001294875522
$end

$rem
JOBTYPE			EDA
EDA2			1
method			wB97X-V
BASIS			def2-TZVPD
XC_GRID			000099000590
NL_GRID			1
UNRESTRICTED		FALSE
MAX_SCF_CYCLES		200
SYMMETRY		FALSE
SYM_IGNORE		TRUE
MEM_STATIC		2000
BASIS_LIN_DEP_THRESH 	6
THRESH 			14
SCF_CONVERGENCE 	8
SCF_PRINT_FRGM 		TRUE
SOLVENT_METHOD          PCM
$end

$PCM
THEORY                  CPCM
METHOD                  SWIG
SOLVER                  INVERSION
RADII                   UFF
HPOINTS                 302
HEAVYPOINTS             302
PRINTLEVEL              0
$END

$SOLVENT
DIELECTRIC              78.390000 ! water
$END
--------------------------------------------------------------
 ----------------------------------------------------------------
             Standard Nuclear Orientation (Angstroms)
    I     Atom           X                Y                Z
 ----------------------------------------------------------------
    1      C       2.4572669655     2.0903735289    -2.5718251245
    2      C      -1.0507330345     2.3873735289    -1.1618251245
    3      C      -0.8217330345     2.7453735289     0.1601748755
    4      C       0.0132669655     2.1863735289    -2.0288251245
    5      C       1.3282669655     2.3063735289    -1.5848251245
    6      C       0.4842669655     2.9093735289     0.6131748755
    7      C       1.5572669655     2.7083735289    -0.2618251245
    8      H      -2.0627330345     2.2893735289    -1.5268251245
    9      H      -1.6507330345     2.8893735289     0.8351748755
   10      H      -0.1887330345     1.9273735289    -3.0568251245
   11      H       0.6582669655     3.2053735289     1.6351748755
   12      H       2.7142669655     3.0583735289    -3.0028251245
   13      H       2.0922669655     1.4563735289    -3.3808251245
   14      H       2.5592669655     2.8673735289     0.0981748755
   15      H       3.3651369655     1.6274655289    -2.1577251245
   16      C      -0.7707330345    -4.6346264711    -0.1248251245
   17      C      -0.0827330345    -0.9486264711     0.5311748755
   18      C      -0.4867330345    -0.8216264711     1.8661748755
   19      C      -0.1727330345    -2.1846264711    -0.1088251245
   20      C      -0.6477330345    -3.3096264711     0.5751748755
   21      C      -0.9597330345    -1.9436264711     2.5511748755
   22      C      -1.0397330345    -3.1816264711     1.9041748755
   23      H       0.2852669655    -0.0856264711    -0.0058251245
   24      H      -0.4277330345     0.1383735289     2.3611748755
   25      H       0.1322669655    -2.2646264711    -1.1428251245
   26      H      -1.2767330345    -1.8496264711     3.5811748755
   27      H      -0.9247330345    -4.4596264711    -1.1868251245
   28      H      -1.6637330345    -5.1426264711     0.2391748755
   29      H      -1.4187330345    -4.0396264711     2.4411748755
   30      H       0.0963619655    -5.2996364711     0.0012948755
 ----------------------------------------------------------------
 Nuclear Repulsion Energy =         773.89895872 hartrees
 There are       50 alpha and       50 beta electrons
 Requested basis set is def2-TZVPD
 There are 262 shells and 662 basis functions

 Total QAlloc Memory Limit  96000 MB
 Mega-Array Size      1956 MB
 MEM_STATIC part      2000 MB
 Discretize the solute cavity surface with Lebedev spheres
	Using 302 Lebedev grid points for each H atom
	Using 302 Lebedev grid points for other atoms
	Atomic van der Waals radii will be scaled by 1.20
 Remove points where switching function is < 1.0e-08
 Keep 3365 surface tesserae and discard 5695 interior tesserae
 Molecular Surface Area = 325.775 Angst**2
 A cutoff of  1.0D-14 yielded  29168 shell pairs
 There are    186738 function pairs (    235373 Cartesian)
 Smallest overlap matrix eigenvalue = 4.84E-07
 Linear dependence detected in AO basis
 Tighter screening thresholds may be required for diffuse basis sets
 Use S2THRESH > 14 and THRESH = 14 in case of SCF convergence issues
 Number of orthogonalized atomic orbitals = 659
 Maximum deviation from orthogonality = 1.699E-10

 Scale SEOQF with 1.000000e-01/1.000000e-02/1.000000e-01

 Standard Electronic Orientation quadrupole field applied
 Nucleus-field energy     =    -0.0000000159 hartrees

 -----------------------------------------------------------------------
  General SCF calculation program by
  Eric Jon Sundstrom, Paul Horn, Yuezhi Mao, Dmitri Zuev, Alec White,
  David Stuck, Shaama M.S., Shane Yost, Joonho Lee, David Small,
  Daniel Levine, Susi Lehtola, Hugh Burton, Evgeny Epifanovsky
 -----------------------------------------------------------------------
================================================================
                 ALMO-EDA with the EDA2 driver                  
================================================================
 The second-generation ALMO-EDA (for DFT):                      
 P. R. Horn, Y. Mao and M. Head-Gordon, PCCP, 18, 23067 (2016)  
 Decomposition of the frozen energy:                            
 P. R. Horn, Y. Mao and M. Head-Gordon, JCP, 144, 114107 (2016) 
 FERF model for polarization:                                   
 P. R. Horn and M. Head-Gordon, JCP, 143, 114111 (2015)         
Using eda2 option set 1
Option set summary: Frozen orbital wavefunction, initial wavefunction decomposition, and nDQ polarization.
--------------------------------
Printing EDA Options
--------------------------------
eda_child_super_basis      0
fragmo_guess_mode          0
child_mp                   1
child_mp_orders            232
cls_elec                   1
cls_disp                   0
scfmi_mode                 1
scfmi_occs                 0
scfmi_virts                0
frz_relax                  0
frz_relax_method           0
dc_pen_start               0
dc_pen_conv                0
dc_pen_increment           0
dc_pen_steps               0
dc_pen_thresh_factor       0
dc_pen_pre_newton_thresh   0
frz_ortho_decomp           1
frz_ortho_decomp_conv      6
frgm_method                2
scfmi_freeze_ss            0
separate_rehyb             0
plot_diff_den              0
eda_nocv                   0
eda_vct_relax              1
disp_free_x                0
disp_free_c                0
eda_bsse                   0
eda_pct_a                  0
eda_covp                   0
--------------------------------
Attempting to make child job directory: /tmp/qchem58356//Frg1/
Attempting to make child job directory: /tmp/qchem58356//Frg2/
Creating input file /tmp/qchem58356/Frg1.input
using default PutDataFrgm: nothing
calling putenv with: QCSCRATCH=/tmp/qchem58356/ 
calling putenv with: QCLOCALSCR=/tmp/qchem58356/ 
Spawning Job For Fragment 0
                  Welcome to Q-Chem
     A Quantum Leap Into The Future Of Chemistry


 Q-Chem 5.2, Q-Chem, Inc., Pleasanton, CA (2019)

 License issued to: National Energy Research Scientific Computing Center

 Yihan Shao,  Zhengting Gan,  E. Epifanovsky,  A. T. B. Gilbert,  M. Wormit,  
 J. Kussmann,  A. W. Lange,  A. Behn,  Jia Deng,  Xintian Feng,  D. Ghosh,  
 M. Goldey,  P. R. Horn,  L. D. Jacobson,  I. Kaliman,  T. Kus,  A. Landau,  
 Jie Liu,  E. I. Proynov,  R. M. Richard,  R. P. Steele,  E. J. Sundstrom,  
 H. L. Woodcock III,  P. M. Zimmerman,  D. Zuev,  B. Albrecht,  E. Alguire,  
 S. A. Baeppler,  D. Barton,  Z. Benda,  Y. A. Bernard,  E. J. Berquist,  
 K. B. Bravaya,  H. Burton,  D. Casanova,  Chun-Min Chang,  Yunqing Chen,  
 A. Chien,  K. D. Closser,  M. P. Coons,  S. Coriani,  S. Dasgupta,  
 A. L. Dempwolff,  M. Diedenhofen,  Hainam Do,  R. G. Edgar,  Po-Tung Fang,  
 S. Faraji,  S. Fatehi,  Qingguo Feng,  K. D. Fenk,  J. Fosso-Tande,  
 J. Gayvert,  Qinghui Ge,  A. Ghysels,  G. Gidofalvi,  J. Gomes,  
 J. Gonthier,  A. Gunina,  D. Hait,  M. W. D. Hanson-Heine,  
 P. H. P. Harbach,  A. W. Hauser,  M. F. Herbst,  J. E. Herr,  
 E. G. Hohenstein,  Z. C. Holden,  Kerwin Hui,  B. C. Huynh,  T.-C. Jagau,  
 Hyunjun Ji,  B. Kaduk,  K. Khistyaev,  Jaehoon Kim,  P. Klunzinger,  K. Koh,  
 D. Kosenkov,  L. Koulias,  T. Kowalczyk,  C. M. Krauter,  A. Kunitsa,  
 Ka Un Lao,  A. Laurent,  K. V. Lawler,  Joonho Lee,  D. Lefrancois,  
 S. Lehtola,  D. S. Levine,  Yi-Pei Li,  You-Sheng Lin,  Fenglai Liu,  
 E. Livshits,  A. Luenser,  P. Manohar,  E. Mansoor,  S. F. Manzer,  
 Shan-Ping Mao,  Yuezhi Mao,  N. Mardirossian,  A. V. Marenich,  
 T. Markovich,  L. A. Martinez-Martinez,  S. A. Maurer,  N. J. Mayhall,  
 S. C. McKenzie,  J.-M. Mewes,  P. Morgante,  A. F. Morrison,  
 J. W. Mullinax,  K. Nanda,  T. S. Nguyen-Beck,  R. Olivares-Amaya,  
 J. A. Parkhill,  Zheng Pei,  T. M. Perrine,  F. Plasser,  P. Pokhilko,  
 S. Prager,  A. Prociuk,  E. Ramos,  D. R. Rehn,  F. Rob,  M. Scheurer,  
 M. Schneider,  N. Sergueev,  S. M. Sharada,  S. Sharma,  D. W. Small,  
 T. Stauch,  T. Stein,  Yu-Chuan Su,  A. J. W. Thom,  A. Tkatchenko,  
 T. Tsuchimochi,  N. M. Tubman,  L. Vogt,  M. L. Vidal,  O. Vydrov,  
 M. A. Watson,  J. Wenzel,  M. de Wergifosse,  T. A. Wesolowski,  A. White,  
 J. Witte,  A. Yamada,  Jun Yang,  K. Yao,  S. Yeganeh,  S. R. Yost,  
 Zhi-Qiang You,  A. Zech,  Igor Ying Zhang,  Xing Zhang,  Yan Zhao,  
 Ying Zhu,  B. R. Brooks,  G. K. L. Chan,  C. J. Cramer,  M. S. Gordon,  
 W. J. Hehre,  A. Klamt,  M. W. Schmidt,  C. D. Sherrill,  D. G. Truhlar,  
 A. Aspuru-Guzik,  R. Baer,  A. T. Bell,  N. A. Besley,  Jeng-Da Chai,  
 A. E. DePrince, III,  R. A. DiStasio Jr.,  A. Dreuw,  B. D. Dunietz,  
 T. R. Furlani,  Chao-Ping Hsu,  Yousung Jung,  Jing Kong,  D. S. Lambrecht,  
 WanZhen Liang,  C. Ochsenfeld,  V. A. Rassolov,  L. V. Slipchenko,  
 J. E. Subotnik,  T. Van Voorhis,  J. M. Herbert,  A. I. Krylov,  
 P. M. W. Gill,  M. Head-Gordon

 Contributors to earlier versions of Q-Chem not listed above: 
 R. D. Adamson,  B. Austin,  J. Baker,  G. J. O. Beran,  K. Brandhorst,  
 S. T. Brown,  E. F. C. Byrd,  A. K. Chakraborty,  C.-L. Cheng,  
 Siu Hung Chien,  D. M. Chipman,  D. L. Crittenden,  H. Dachsel,  
 R. J. Doerksen,  A. D. Dutoi,  L. Fusti-Molnar,  W. A. Goddard III,  
 A. Golubeva-Zadorozhnaya,  S. R. Gwaltney,  G. Hawkins,  A. Heyden,  
 S. Hirata,  G. Kedziora,  F. J. Keil,  C. Kelley,  Jihan Kim,  R. A. King,  
 R. Z. Khaliullin,  P. P. Korambath,  W. Kurlancheek,  A. M. Lee,  M. S. Lee,  
 S. V. Levchenko,  Ching Yeh Lin,  D. Liotard,  R. C. Lochan,  I. Lotan,  
 P. E. Maslen,  N. Nair,  D. P. O'Neill,  D. Neuhauser,  E. Neuscamman,  
 C. M. Oana,  R. Olson,  B. Peters,  R. Peverati,  P. A. Pieniazek,  
 Y. M. Rhee,  J. Ritchie,  M. A. Rohrdanz,  E. Rosta,  N. J. Russ,  
 H. F. Schaefer III,  N. E. Schultz,  N. Shenvi,  A. C. Simmonett,  A. Sodt,  
 D. Stuck,  K. S. Thanthiriwatte,  V. Vanovschi,  Tao Wang,  A. Warshel,  
 C. F. Williams,  Q. Wu,  X. Xu,  W. Zhang

 Please cite Q-Chem as follows:
 Y. Shao et al., Mol. Phys. 113, 184-215 (2015)
 DOI: 10.1080/00268976.2014.952696

 Q-Chem 5.2.0 for Intel X86 EM64T Linux

 Parts of Q-Chem use Armadillo 8.300.2 (Tropical Shenanigans).
 http://arma.sourceforge.net/

 Q-Chem begins on Sun Sep 26 03:48:15 2021  

Host: cori01
0

     Scratch files written to /tmp/qchem58356//Frg1//
 May1019 |scratch|qcdevops|jenkins|workspace|build_RNUM -1
Processing $rem in /global/common/cori/software/qchem/5.2/config/preferences:
	 MEM_TOTAL  96000 
NAlpha2: 50
NElect   50
Mult     1
Symmetry turned off for PCM/SM12/SMD calculation

Checking the input file for inconsistencies... 	...done.

--------------------------------------------------------------
User input:
--------------------------------------------------------------
$molecule
0 1
 6	2.4572669655	2.0903735289	-2.5718251245
 6	-1.0507330345	2.3873735289	-1.1618251245
 6	-0.8217330345	2.7453735289	0.1601748755
 6	0.0132669655	2.1863735289	-2.0288251245
 6	1.3282669655	2.3063735289	-1.5848251245
 6	0.4842669655	2.9093735289	0.6131748755
 6	1.5572669655	2.7083735289	-0.2618251245
 1	-2.0627330345	2.2893735289	-1.5268251245
 1	-1.6507330345	2.8893735289	0.8351748755
 1	-0.1887330345	1.9273735289	-3.0568251245
 1	0.6582669655	3.2053735289	1.6351748755
 1	2.7142669655	3.0583735289	-3.0028251245
 1	2.0922669655	1.4563735289	-3.3808251245
 1	2.5592669655	2.8673735289	0.0981748755
 1	3.3651369655	1.6274655289	-2.1577251245
$end
$rem
EDA2		1
METHOD		WB97X-V
BASIS		DEF2-TZVPD
XC_GRID		000099000590
NL_GRID		1
UNRESTRICTED		FALSE
MAX_SCF_CYCLES		200
SYMMETRY		FALSE
SYM_IGNORE		TRUE
BASIS_LIN_DEP_THRESH		6
THRESH		14
SCF_CONVERGENCE		8
SCF_PRINT_FRGM		TRUE
SOLVENT_METHOD		PCM
!required keywords
JOBTYPE		SP
SYM_IGNORE		TRUE
SUBSYSTEM		TRUE
GEN_SCFMAN		TRUE
CHILD_INSTRUCTION		2
SYM_IGNORE		TRUE
SCFMI		0
RI_K 0		
PARI_K 0		
MIN_PARI_K 0		
IARI_K 0		
OCC_RI_K 0		
PURECART		1111
MEM_STATIC		2000
MEM_TOTAL		96000
GUI		0
CHILD_MP		1
CHILD_MP_ORDERS		232
FRZ_RELAX		0
FRZ_RELAX_METHOD		0
EDA_CLS_ELEC		1
EDA_CLS_DISP		0
FRZ_ORTHO_DECOMP		1
EDA2		FALSE
FRGM_METHOD		FALSE
CIS_N_ROOTS  0
LOCAL_CIS    0
CIS_RLX_DNS  1
$end
$pcm
THEORY                  CPCM
METHOD                  SWIG
SOLVER                  INVERSION
RADII                   UFF
HPOINTS                 302
HEAVYPOINTS             302
PRINTLEVEL              0
$end
$solvent
DIELECTRIC              78.390000 ! water
$end
--------------------------------------------------------------
 ----------------------------------------------------------------
             Standard Nuclear Orientation (Angstroms)
    I     Atom           X                Y                Z
 ----------------------------------------------------------------
    1      C       2.4572669655     2.0903735289    -2.5718251245
    2      C      -1.0507330345     2.3873735289    -1.1618251245
    3      C      -0.8217330345     2.7453735289     0.1601748755
    4      C       0.0132669655     2.1863735289    -2.0288251245
    5      C       1.3282669655     2.3063735289    -1.5848251245
    6      C       0.4842669655     2.9093735289     0.6131748755
    7      C       1.5572669655     2.7083735289    -0.2618251245
    8      H      -2.0627330345     2.2893735289    -1.5268251245
    9      H      -1.6507330345     2.8893735289     0.8351748755
   10      H      -0.1887330345     1.9273735289    -3.0568251245
   11      H       0.6582669655     3.2053735289     1.6351748755
   12      H       2.7142669655     3.0583735289    -3.0028251245
   13      H       2.0922669655     1.4563735289    -3.3808251245
   14      H       2.5592669655     2.8673735289     0.0981748755
   15      H       3.3651369655     1.6274655289    -2.1577251245
 ----------------------------------------------------------------
 Nuclear Repulsion Energy =         269.48408575 hartrees
 There are       25 alpha and       25 beta electrons
 Requested basis set is def2-TZVPD
 There are 131 shells and 331 basis functions

 Total QAlloc Memory Limit  96000 MB
 Mega-Array Size      1956 MB
 MEM_STATIC part      2000 MB
 Discretize the solute cavity surface with Lebedev spheres
	Using 302 Lebedev grid points for each H atom
	Using 302 Lebedev grid points for other atoms
	Atomic van der Waals radii will be scaled by 1.20
 Remove points where switching function is < 1.0e-08
 Keep 1805 surface tesserae and discard 2725 interior tesserae
 Molecular Surface Area = 178.826 Angst**2

                       Distance Matrix (Angstroms)
             C (  1)   C (  2)   C (  3)   C (  4)   C (  5)   C (  6)
   C (  2)  3.792410
   C (  3)  4.317950  1.388628
   C (  4)  2.505434  1.387150  2.408615
   C (  5)  1.515080  2.417671  2.803613  1.393112
   C (  6)  3.835064  2.404025  1.392028  2.779341  2.430463
   C (  7)  2.555000  2.777536  2.416422  2.403895  1.401561  1.399055
   H (  8)  4.643493  1.080265  2.143359  2.138315  3.391539  3.383964
   H (  9)  5.396454  2.144764  1.078704  3.386089  3.882104  2.146604
   H ( 10)  2.695016  2.132057  3.379187  1.079198  2.147490  3.858258
   H ( 11)  4.709403  3.378315  2.139539  3.857367  3.409619  1.078135
   H ( 12)  1.090337  4.244378  4.754559  3.000743  2.120666  4.250948
   H ( 13)  1.090716  3.958430  4.763570  2.585159  2.128805  4.544107
   H ( 14)  2.782631  3.853583  3.383768  3.386740  2.159299  2.138367
   H ( 15)  1.099996  4.590118  4.914495  3.400592  2.222154  4.197688
             C (  7)   H (  8)   H (  9)   H ( 10)   H ( 11)   H ( 12)
   H (  8)  3.857484
   H (  9)  3.395208  2.471596
   H ( 10)  3.386813  2.446185  4.267382
   H ( 11)  2.157271  4.270965  2.464008  4.936148
   H ( 12)  2.995702  5.058623  5.814811  3.116005  5.075410
   H ( 13)  3.403218  4.625498  5.817061  2.351548  5.502328  1.759594
   H ( 14)  1.076515  4.933315  4.274079  4.288255  2.467876  3.110741
   H ( 15)  2.833936  5.504356  5.975685  3.678086  4.919657  1.784747
             H ( 13)   H ( 14)
   H ( 14)  3.783180
   H ( 15)  1.773540  2.697384
 
 A cutoff of  1.0D-14 yielded   8360 shell pairs
 There are     54498 function pairs (     69452 Cartesian)
 Smallest overlap matrix eigenvalue = 5.93E-07
 Linear dependence detected in AO basis
 Tighter screening thresholds may be required for diffuse basis sets
 Use S2THRESH > 14 and THRESH = 14 in case of SCF convergence issues
 Number of orthogonalized atomic orbitals = 330
 Maximum deviation from orthogonality = 1.510E-10

 Scale SEOQF with 1.000000e-01/1.000000e-01/1.000000e-01

 Standard Electronic Orientation quadrupole field applied
 Nucleus-field energy     =     0.0000000122 hartrees
 Guess from superposition of atomic densities
 Warning:  Energy on first SCF cycle will be non-variational
 SAD guess density has 49.913408 electrons

 -----------------------------------------------------------------------
  General SCF calculation program by
  Eric Jon Sundstrom, Paul Horn, Yuezhi Mao, Dmitri Zuev, Alec White,
  David Stuck, Shaama M.S., Shane Yost, Joonho Lee, David Small,
  Daniel Levine, Susi Lehtola, Hugh Burton, Evgeny Epifanovsky
 -----------------------------------------------------------------------
 Exchange:     0.1670 Hartree-Fock + 1.0000 wB97X-V + LR-HF
 Correlation:  1.0000 wB97X-V
 Using Euler-Maclaurin-Lebedev (99,590) quadrature formula
 Nonlocal Correlation:  VV10 with C = 0.0100 and b = 6.00 and scale = 1.00000
 Grid used for NLC:  SG-1 standard quadrature
Energy prior to optimization (guess energy) = -271.519863673431
Begin Timing: Total SCF Calculation
begin iterations for algorithm: DIIS         
the SCF tolerance is set to 1.00e-08
    1    -271.5198636734      1.95e-03     00000 
    2    -271.5588509067      1.25e-03     00000 
    3    -271.5805421048      1.38e-04     00000 
    4    -271.5809589490      4.72e-05     00000 
    5    -271.5809927054      1.60e-05     00000 
    6    -271.5809973139      3.82e-06     00000 
    7    -271.5809976270      1.66e-06     00000 
    8    -271.5809976741      3.48e-07     00000 
    9    -271.5809976772      5.76e-08     00000 
   10    -271.5809976773      1.87e-08     00000 
   11    -271.5809976773      7.29e-09     00000 Convergence criterion met
Timing for Total SCF: 1311.00s (wall), 2604.79s (cpu)

************** Final PCM Free Energy Summary **************
 G_electrostatic  =      -0.00250996 hartree =      -1.57502424 kcal/mol
 G_cavitation     =       0.00000000 hartree =       0.00000000 kcal/mol
 G_dispersion     =       0.00000000 hartree =       0.00000000 kcal/mol
 G_repulsion      =       0.00000000 hartree =       0.00000000 kcal/mol
 --------------------------------------------------
 Non-electrostatic Free Energy =       0.00000000 hartree =       0.00000000 kcal/mol
 Total                         =      -0.00250996 hartree =      -1.57502424 kcal/mol
 --------------------------------------------------
 SCF Energy (H0 + V/2)                       =    -271.58099768 
 Solute Internal Energy (H0)                 =    -271.57848772 
 Total Free Energy (H0 + V/2 + non-elec)     =    -271.58099768 hartree
                                             = -170419.64818615 kcal/mol
***********************************************************

E_pcm = -0.0025099609
Multipole orders to be included
        2
        3
computing dipole RHS
computing quadrupole RHS
total number of RHS in solve_reponses: 8
RHS batch sizes
        8
Beginning Block Conjugate Gradient Iterations. Batch Number: 0
computing hessian-vector products by finite difference
              1      5.86e-01     00000 Conjugate Gradient Iteration
computing hessian-vector products by finite difference
              2      1.92e-01     00000 Conjugate Gradient Iteration
computing hessian-vector products by finite difference
              3      4.51e-02     00000 Conjugate Gradient Iteration
computing hessian-vector products by finite difference
              4      1.04e-02     00000 Conjugate Gradient Iteration
computing hessian-vector products by finite difference
              5      2.07e-03     00000 Conjugate Gradient Iteration
computing hessian-vector products by finite difference
              6      5.87e-04     00000 Conjugate Gradient Iteration
computing hessian-vector products by finite difference
              7      1.61e-04     00000 Conjugate Gradient Iteration
computing hessian-vector products by finite difference
              8      2.63e-05     00000 Conjugate Gradient Iteration
computing hessian-vector products by finite difference
              9      3.50e-06     00000 Conjugate Gradient Iteration
computing hessian-vector products by finite difference
             10      6.98e-07     00000 Conjugate Gradient Iteration
computing hessian-vector products by finite difference
             11      1.65e-07     00000 Conjugate Gradient Iteration
computing hessian-vector products by finite difference
             12      3.75e-08     00000 Conjugate Gradient Iteration
computing hessian-vector products by finite difference
             13      6.03e-09     00000 CG Converged
batch 0 complete
Done Calculating Responses
TESTING ORTHOGONALIZATION OF MULTIPOLE BASIS
Multipole virts passed orthogonality test
Virts Per Order
           75
          125
 
 --------------------------------------------------------------
 
                    Orbital Energies (a.u.)
 --------------------------------------------------------------
 
 Alpha MOs
 -- Occupied --
-10.2847 -10.2740 -10.2720 -10.2716 -10.2697 -10.2688 -10.2640  -0.9969
 -0.9065  -0.8792  -0.8141  -0.7303  -0.7069  -0.6309  -0.5734  -0.5681
 -0.5353  -0.5302  -0.5150  -0.4888  -0.4737  -0.4426  -0.4409  -0.3492
 -0.3380
 -- Virtual --
  0.0625   0.0634   0.0684   0.0790   0.0844   0.1043   0.1102   0.1137
  0.1347   0.1500   0.1649   0.1668   0.1864   0.1896   0.1948   0.2011
  0.2208   0.2272   0.2354   0.2365   0.2426   0.2570   0.2598   0.2700
  0.2717   0.2790   0.2819   0.2919   0.2953   0.3024   0.3067   0.3118
  0.3222   0.3251   0.3297   0.3334   0.3472   0.3530   0.3654   0.3698
  0.3749   0.3810   0.3831   0.3876   0.3903   0.4011   0.4031   0.4064
  0.4105   0.4253   0.4285   0.4344   0.4432   0.4472   0.4514   0.4549
  0.4601   0.4668   0.4738   0.4788   0.4895   0.4959   0.5097   0.5144
  0.5159   0.5239   0.5289   0.5376   0.5420   0.5464   0.5487   0.5655
  0.5801   0.5850   0.5895   0.5990   0.6095   0.6196   0.6382   0.6476
  0.6602   0.6690   0.6773   0.6813   0.6865   0.6959   0.7175   0.7224
  0.7245   0.7289   0.7430   0.7620   0.7637   0.7687   0.7793   0.7858
  0.7902   0.7927   0.7989   0.8010   0.8050   0.8216   0.8231   0.8321
  0.8350   0.8369   0.8472   0.8542   0.8584   0.8734   0.8795   0.8863
  0.9100   0.9227   0.9303   0.9453   0.9469   0.9987   1.0137   1.0402
  1.0456   1.0601   1.0662   1.0721   1.0809   1.0947   1.1045   1.1407
  1.1651   1.1726   1.2380   1.2807   1.2981   1.3161   1.3419   1.3488
  1.3807   1.4337   1.4442   1.4591   1.4689   1.4754   1.5215   1.5347
  1.5945   1.5983   1.6171   1.6192   1.6710   1.6715   1.7362   1.7761
  1.7902   1.7905   1.8041   1.8155   1.8289   1.8598   1.8735   1.9040
  1.9188   1.9311   1.9531   1.9667   1.9797   1.9954   2.0196   2.0219
  2.0364   2.0451   2.0665   2.0923   2.1082   2.1228   2.1622   2.1784
  2.1963   2.2183   2.2504   2.2569   2.2889   2.3125   2.3894   2.3954
  2.4033   2.4083   2.4756   2.4966   2.5305   2.5403   2.5751   2.5978
  2.6299   2.6432   2.6462   2.6765   2.6924   2.7087   2.7592   2.7669
  2.7785   2.8108   2.8283   2.8401   2.8538   2.8970   2.9050   2.9092
  2.9221   2.9404   2.9571   2.9835   2.9855   3.0133   3.0201   3.0491
  3.0666   3.0765   3.0971   3.1459   3.1672   3.1884   3.1898   3.2139
  3.2302   3.2422   3.2891   3.3025   3.3325   3.3493   3.3583   3.3746
  3.4043   3.4361   3.4381   3.4524   3.4542   3.4702   3.4878   3.4956
  3.5067   3.5206   3.5367   3.5487   3.5592   3.5706   3.5744   3.6048
  3.6084   3.6282   3.6554   3.6895   3.7052   3.7456   3.7741   3.8203
  3.8295   3.8843   3.9005   3.9385   3.9578   3.9672   4.0282   4.0638
  4.1148   4.1985   4.2659   4.2728   4.2825   4.3024   4.3212   4.3250
  4.3520   4.3694   4.3750   4.4047   4.4364   4.4404   4.4807   4.5339
  4.5982   4.6428   4.7362   4.7606   4.8192   4.8656   4.9087   4.9468
  5.0253   5.0352   5.1568   5.2709   5.3692   5.3792   5.4778   5.5236
  5.6717   5.8333  22.5789  22.6532  22.8884  22.9033  23.0087  23.0711
 23.4082
 --------------------------------------------------------------
 
          Ground-State Mulliken Net Atomic Charges

     Atom                 Charge (a.u.)
  ----------------------------------------
      1 C                    -1.033642
      2 C                    -0.511531
      3 C                    -0.464770
      4 C                    -0.364821
      5 C                     0.844729
      6 C                    -0.447211
      7 C                    -0.378280
      8 H                     0.309075
      9 H                     0.332362
     10 H                     0.303031
     11 H                     0.313532
     12 H                     0.211398
     13 H                     0.270402
     14 H                     0.341394
     15 H                     0.274333
  ----------------------------------------
  Sum of atomic charges =     0.000000

 -----------------------------------------------------------------
                    Cartesian Multipole Moments
 -----------------------------------------------------------------
    Charge (ESU x 10^10)
                 0.0000
    Dipole Moment (Debye)
         X       0.3643      Y       0.0386      Z      -0.3689
       Tot       0.5199
    Quadrupole Moments (Debye-Ang)
        XX     -37.6426     XY       1.0828     YY     -45.6222
        XZ      -0.8285     YZ       1.0974     ZZ     -37.8886
    Octopole Moments (Debye-Ang^2)
       XXX     -73.2738    XXY     -92.9293    XYY     -22.4899
       YYY    -339.1732    XXZ      39.2899    XYZ      -1.8558
       YYZ      52.6655    XZZ     -24.0269    YZZ     -95.7567
       ZZZ     120.1792
    Hexadecapole Moments (Debye-Ang^3)
      XXXX    -554.6233   XXXY    -167.4129   XXYY    -344.6319
      XYYY    -165.0299   YYYY   -1768.7205   XXXZ     155.5544
      XXYZ      83.9970   XYYZ      46.3848   YYYZ     313.1959
      XXZZ    -204.3049   XYZZ     -52.4209   YYZZ    -371.9475
      XZZZ     155.7560   YZZZ     262.3405   ZZZZ    -655.0675
 -----------------------------------------------------------------
Archival summary:
1\1\nid00555\SP\ProcedureUnspecified\BasisUnspecified\78\meili\SunSep2612:11:362021SunSep2612:11:362021\0\\#,ProcedureUnspecified,BasisUnspecified,\\0,1\C\C,1,1.39311\H,2,1.0792,1,120.063\C,2,1.38715,1,120.82,3,179.568,0\H,4,1.08027,2,119.62,1,179.999,0\C,4,1.38863,2,120.391,1,1.60499,0\H,6,1.0787,4,120.226,2,-179.259,0\C,6,1.39203,4,119.663,2,0.328108,0\H,8,1.07814,6,119.488,4,178.859,0\C,8,1.39906,6,119.94,4,-0.240878,0\H,10,1.07652,8,118.914,6,178.25,0\C,1,1.51508,2,118.913,3,1.00172,0\H,12,1.09034,1,107.854,2,91.7022,0\H,12,1.09072,1,108.463,2,-24.513,0\H,12,1.1,1,115.453,2,-145.967,0\\\@

 Total job time:  30202.60s(wall), 59928.36s(cpu) 
 Sun Sep 26 12:11:38 2021

        *************************************************************
        *                                                           *
        *  Thank you very much for using Q-Chem.  Have a nice day.  *
        *                                                           *
        *************************************************************


Done Job For Fragment 0
calling putenv with: QCSCRATCH=/global/cscratch1/sd/meili 
calling putenv with: QCLOCALSCR=/tmp 
calling putenv with: QCTHREADS=32 
Creating input file /tmp/qchem58356/Frg2.input
using default PutDataFrgm: nothing
calling putenv with: QCSCRATCH=/tmp/qchem58356/ 
calling putenv with: QCLOCALSCR=/tmp/qchem58356/ 
Spawning Job For Fragment 1
                  Welcome to Q-Chem
     A Quantum Leap Into The Future Of Chemistry


 Q-Chem 5.2, Q-Chem, Inc., Pleasanton, CA (2019)

 License issued to: National Energy Research Scientific Computing Center

 Yihan Shao,  Zhengting Gan,  E. Epifanovsky,  A. T. B. Gilbert,  M. Wormit,  
 J. Kussmann,  A. W. Lange,  A. Behn,  Jia Deng,  Xintian Feng,  D. Ghosh,  
 M. Goldey,  P. R. Horn,  L. D. Jacobson,  I. Kaliman,  T. Kus,  A. Landau,  
 Jie Liu,  E. I. Proynov,  R. M. Richard,  R. P. Steele,  E. J. Sundstrom,  
 H. L. Woodcock III,  P. M. Zimmerman,  D. Zuev,  B. Albrecht,  E. Alguire,  
 S. A. Baeppler,  D. Barton,  Z. Benda,  Y. A. Bernard,  E. J. Berquist,  
 K. B. Bravaya,  H. Burton,  D. Casanova,  Chun-Min Chang,  Yunqing Chen,  
 A. Chien,  K. D. Closser,  M. P. Coons,  S. Coriani,  S. Dasgupta,  
 A. L. Dempwolff,  M. Diedenhofen,  Hainam Do,  R. G. Edgar,  Po-Tung Fang,  
 S. Faraji,  S. Fatehi,  Qingguo Feng,  K. D. Fenk,  J. Fosso-Tande,  
 J. Gayvert,  Qinghui Ge,  A. Ghysels,  G. Gidofalvi,  J. Gomes,  
 J. Gonthier,  A. Gunina,  D. Hait,  M. W. D. Hanson-Heine,  
 P. H. P. Harbach,  A. W. Hauser,  M. F. Herbst,  J. E. Herr,  
 E. G. Hohenstein,  Z. C. Holden,  Kerwin Hui,  B. C. Huynh,  T.-C. Jagau,  
 Hyunjun Ji,  B. Kaduk,  K. Khistyaev,  Jaehoon Kim,  P. Klunzinger,  K. Koh,  
 D. Kosenkov,  L. Koulias,  T. Kowalczyk,  C. M. Krauter,  A. Kunitsa,  
 Ka Un Lao,  A. Laurent,  K. V. Lawler,  Joonho Lee,  D. Lefrancois,  
 S. Lehtola,  D. S. Levine,  Yi-Pei Li,  You-Sheng Lin,  Fenglai Liu,  
 E. Livshits,  A. Luenser,  P. Manohar,  E. Mansoor,  S. F. Manzer,  
 Shan-Ping Mao,  Yuezhi Mao,  N. Mardirossian,  A. V. Marenich,  
 T. Markovich,  L. A. Martinez-Martinez,  S. A. Maurer,  N. J. Mayhall,  
 S. C. McKenzie,  J.-M. Mewes,  P. Morgante,  A. F. Morrison,  
 J. W. Mullinax,  K. Nanda,  T. S. Nguyen-Beck,  R. Olivares-Amaya,  
 J. A. Parkhill,  Zheng Pei,  T. M. Perrine,  F. Plasser,  P. Pokhilko,  
 S. Prager,  A. Prociuk,  E. Ramos,  D. R. Rehn,  F. Rob,  M. Scheurer,  
 M. Schneider,  N. Sergueev,  S. M. Sharada,  S. Sharma,  D. W. Small,  
 T. Stauch,  T. Stein,  Yu-Chuan Su,  A. J. W. Thom,  A. Tkatchenko,  
 T. Tsuchimochi,  N. M. Tubman,  L. Vogt,  M. L. Vidal,  O. Vydrov,  
 M. A. Watson,  J. Wenzel,  M. de Wergifosse,  T. A. Wesolowski,  A. White,  
 J. Witte,  A. Yamada,  Jun Yang,  K. Yao,  S. Yeganeh,  S. R. Yost,  
 Zhi-Qiang You,  A. Zech,  Igor Ying Zhang,  Xing Zhang,  Yan Zhao,  
 Ying Zhu,  B. R. Brooks,  G. K. L. Chan,  C. J. Cramer,  M. S. Gordon,  
 W. J. Hehre,  A. Klamt,  M. W. Schmidt,  C. D. Sherrill,  D. G. Truhlar,  
 A. Aspuru-Guzik,  R. Baer,  A. T. Bell,  N. A. Besley,  Jeng-Da Chai,  
 A. E. DePrince, III,  R. A. DiStasio Jr.,  A. Dreuw,  B. D. Dunietz,  
 T. R. Furlani,  Chao-Ping Hsu,  Yousung Jung,  Jing Kong,  D. S. Lambrecht,  
 WanZhen Liang,  C. Ochsenfeld,  V. A. Rassolov,  L. V. Slipchenko,  
 J. E. Subotnik,  T. Van Voorhis,  J. M. Herbert,  A. I. Krylov,  
 P. M. W. Gill,  M. Head-Gordon

 Contributors to earlier versions of Q-Chem not listed above: 
 R. D. Adamson,  B. Austin,  J. Baker,  G. J. O. Beran,  K. Brandhorst,  
 S. T. Brown,  E. F. C. Byrd,  A. K. Chakraborty,  C.-L. Cheng,  
 Siu Hung Chien,  D. M. Chipman,  D. L. Crittenden,  H. Dachsel,  
 R. J. Doerksen,  A. D. Dutoi,  L. Fusti-Molnar,  W. A. Goddard III,  
 A. Golubeva-Zadorozhnaya,  S. R. Gwaltney,  G. Hawkins,  A. Heyden,  
 S. Hirata,  G. Kedziora,  F. J. Keil,  C. Kelley,  Jihan Kim,  R. A. King,  
 R. Z. Khaliullin,  P. P. Korambath,  W. Kurlancheek,  A. M. Lee,  M. S. Lee,  
 S. V. Levchenko,  Ching Yeh Lin,  D. Liotard,  R. C. Lochan,  I. Lotan,  
 P. E. Maslen,  N. Nair,  D. P. O'Neill,  D. Neuhauser,  E. Neuscamman,  
 C. M. Oana,  R. Olson,  B. Peters,  R. Peverati,  P. A. Pieniazek,  
 Y. M. Rhee,  J. Ritchie,  M. A. Rohrdanz,  E. Rosta,  N. J. Russ,  
 H. F. Schaefer III,  N. E. Schultz,  N. Shenvi,  A. C. Simmonett,  A. Sodt,  
 D. Stuck,  K. S. Thanthiriwatte,  V. Vanovschi,  Tao Wang,  A. Warshel,  
 C. F. Williams,  Q. Wu,  X. Xu,  W. Zhang

 Please cite Q-Chem as follows:
 Y. Shao et al., Mol. Phys. 113, 184-215 (2015)
 DOI: 10.1080/00268976.2014.952696

 Q-Chem 5.2.0 for Intel X86 EM64T Linux

 Parts of Q-Chem use Armadillo 8.300.2 (Tropical Shenanigans).
 http://arma.sourceforge.net/

 Q-Chem begins on Sun Sep 26 12:11:40 2021  

Host: cori01
0

     Scratch files written to /tmp/qchem58356//Frg2//
 May1019 |scratch|qcdevops|jenkins|workspace|build_RNUM -1
Processing $rem in /global/common/cori/software/qchem/5.2/config/preferences:
	 MEM_TOTAL  96000 
NAlpha2: 50
NElect   50
Mult     1
Symmetry turned off for PCM/SM12/SMD calculation

Checking the input file for inconsistencies... 	...done.

--------------------------------------------------------------
User input:
--------------------------------------------------------------
$molecule
0 1
 6	-0.7707330345	-4.6346264711	-0.1248251245
 6	-0.0827330345	-0.9486264711	0.5311748755
 6	-0.4867330345	-0.8216264711	1.8661748755
 6	-0.1727330345	-2.1846264711	-0.1088251245
 6	-0.6477330345	-3.3096264711	0.5751748755
 6	-0.9597330345	-1.9436264711	2.5511748755
 6	-1.0397330345	-3.1816264711	1.9041748755
 1	0.2852669655	-0.0856264711	-0.0058251245
 1	-0.4277330345	0.1383735289	2.3611748755
 1	0.1322669655	-2.2646264711	-1.1428251245
 1	-1.2767330345	-1.8496264711	3.5811748755
 1	-0.9247330345	-4.4596264711	-1.1868251245
 1	-1.6637330345	-5.1426264711	0.2391748755
 1	-1.4187330345	-4.0396264711	2.4411748755
 1	0.0963619655	-5.2996364711	0.0012948755
$end
$rem
EDA2		1
METHOD		WB97X-V
BASIS		DEF2-TZVPD
XC_GRID		000099000590
NL_GRID		1
UNRESTRICTED		FALSE
MAX_SCF_CYCLES		200
SYMMETRY		FALSE
SYM_IGNORE		TRUE
BASIS_LIN_DEP_THRESH		6
THRESH		14
SCF_CONVERGENCE		8
SCF_PRINT_FRGM		TRUE
SOLVENT_METHOD		PCM
!required keywords
JOBTYPE		SP
SYM_IGNORE		TRUE
SUBSYSTEM		TRUE
GEN_SCFMAN		TRUE
CHILD_INSTRUCTION		2
SYM_IGNORE		TRUE
SCFMI		0
RI_K 0		
PARI_K 0		
MIN_PARI_K 0		
IARI_K 0		
OCC_RI_K 0		
PURECART		1111
MEM_STATIC		2000
MEM_TOTAL		96000
GUI		0
CHILD_MP		1
CHILD_MP_ORDERS		232
FRZ_RELAX		0
FRZ_RELAX_METHOD		0
EDA_CLS_ELEC		1
EDA_CLS_DISP		0
FRZ_ORTHO_DECOMP		1
EDA2		FALSE
FRGM_METHOD		FALSE
CIS_N_ROOTS  0
LOCAL_CIS    0
CIS_RLX_DNS  1
$end
$pcm
THEORY                  CPCM
METHOD                  SWIG
SOLVER                  INVERSION
RADII                   UFF
HPOINTS                 302
HEAVYPOINTS             302
PRINTLEVEL              0
$end
$solvent
DIELECTRIC              78.390000 ! water
$end
--------------------------------------------------------------
 ----------------------------------------------------------------
             Standard Nuclear Orientation (Angstroms)
    I     Atom           X                Y                Z
 ----------------------------------------------------------------
    1      C      -0.7707330345    -4.6346264711    -0.1248251245
    2      C      -0.0827330345    -0.9486264711     0.5311748755
    3      C      -0.4867330345    -0.8216264711     1.8661748755
    4      C      -0.1727330345    -2.1846264711    -0.1088251245
    5      C      -0.6477330345    -3.3096264711     0.5751748755
    6      C      -0.9597330345    -1.9436264711     2.5511748755
    7      C      -1.0397330345    -3.1816264711     1.9041748755
    8      H       0.2852669655    -0.0856264711    -0.0058251245
    9      H      -0.4277330345     0.1383735289     2.3611748755
   10      H       0.1322669655    -2.2646264711    -1.1428251245
   11      H      -1.2767330345    -1.8496264711     3.5811748755
   12      H      -0.9247330345    -4.4596264711    -1.1868251245
   13      H      -1.6637330345    -5.1426264711     0.2391748755
   14      H      -1.4187330345    -4.0396264711     2.4411748755
   15      H       0.0963619655    -5.2996364711     0.0012948755
 ----------------------------------------------------------------
 Nuclear Repulsion Energy =         269.26982969 hartrees
 There are       25 alpha and       25 beta electrons
 Requested basis set is def2-TZVPD
 There are 131 shells and 331 basis functions

 Total QAlloc Memory Limit  96000 MB
 Mega-Array Size      1956 MB
 MEM_STATIC part      2000 MB
 Discretize the solute cavity surface with Lebedev spheres
	Using 302 Lebedev grid points for each H atom
	Using 302 Lebedev grid points for other atoms
	Atomic van der Waals radii will be scaled by 1.20
 Remove points where switching function is < 1.0e-08
 Keep 1791 surface tesserae and discard 2739 interior tesserae
 Molecular Surface Area = 178.464 Angst**2

                       Distance Matrix (Angstroms)
             C (  1)   C (  2)   C (  3)   C (  4)   C (  5)   C (  6)
   C (  2)  3.806610
   C (  3)  4.310882  1.400561
   C (  4)  2.521975  1.394775  2.420122
   C (  5)  1.503580  2.428061  2.807623  1.399681
   C (  6)  3.799760  2.416517  1.397082  2.784430  2.422370
   C (  7)  2.510062  2.790568  2.424222  2.407876  1.391506  1.399162
   H (  8)  4.671477  1.081000  2.154545  2.150854  3.406204  3.397122
   H (  9)  5.392529  2.156269  1.081714  3.400331  3.889332  2.157278
   H ( 10)  2.732880  2.140177  3.394038  1.081009  2.156838  3.865377
   H ( 11)  4.663335  3.397048  2.149909  3.866153  3.400482  1.081769
   H ( 12)  1.087283  3.998451  4.769455  2.627397  2.122233  4.506010
   H ( 13)  1.089958  4.491599  4.764819  3.330758  2.122508  4.009309
   H ( 14)  2.712616  3.871340  3.399231  3.390581  2.146927  2.148487
   H ( 15)  1.099999  4.386814  4.885729  3.128550  2.200717  4.345115
             C (  7)   H (  8)   H (  9)   H ( 10)   H ( 11)   H ( 12)
   H (  8)  3.871555
   H (  9)  3.406728  2.482183
   H ( 10)  3.390971  2.462564  4.285560
   H ( 11)  2.154698  4.291632  2.482206  4.947088
   H ( 12)  3.346758  4.689428  5.828972  2.436639  5.447002
   H ( 13)  2.647097  5.425115  5.824049  3.663117  4.707715  1.745304
   H ( 14)  1.080821  4.952327  4.294667  4.289672  2.473027  3.685488
   H ( 15)  3.065555  5.217436  5.951106  3.243699  5.157858  1.777605
             H ( 13)   H ( 14)
   H ( 14)  2.474962
   H ( 15)  1.783024  3.136264
 
 A cutoff of  1.0D-14 yielded   8359 shell pairs
 There are     54499 function pairs (     69451 Cartesian)
 Smallest overlap matrix eigenvalue = 5.85E-07
 Linear dependence detected in AO basis
 Tighter screening thresholds may be required for diffuse basis sets
 Use S2THRESH > 14 and THRESH = 14 in case of SCF convergence issues
 Number of orthogonalized atomic orbitals = 330
 Maximum deviation from orthogonality = 1.295E-10

 Scale SEOQF with 1.000000e-01/1.000000e-02/1.000000e-01

 Standard Electronic Orientation quadrupole field applied
 Nucleus-field energy     =    -0.0000000081 hartrees
 Guess from superposition of atomic densities
 Warning:  Energy on first SCF cycle will be non-variational
 SAD guess density has 49.913408 electrons

 -----------------------------------------------------------------------
  General SCF calculation program by
  Eric Jon Sundstrom, Paul Horn, Yuezhi Mao, Dmitri Zuev, Alec White,
  David Stuck, Shaama M.S., Shane Yost, Joonho Lee, David Small,
  Daniel Levine, Susi Lehtola, Hugh Burton, Evgeny Epifanovsky
 -----------------------------------------------------------------------
 Exchange:     0.1670 Hartree-Fock + 1.0000 wB97X-V + LR-HF
 Correlation:  1.0000 wB97X-V
 Using Euler-Maclaurin-Lebedev (99,590) quadrature formula
 Nonlocal Correlation:  VV10 with C = 0.0100 and b = 6.00 and scale = 1.00000
 Grid used for NLC:  SG-1 standard quadrature
Energy prior to optimization (guess energy) = -271.521019925123
Begin Timing: Total SCF Calculation
begin iterations for algorithm: DIIS         
the SCF tolerance is set to 1.00e-08
    1    -271.5210199251      1.94e-03     00000 
    2    -271.5596997215      1.24e-03     00000 
    3    -271.5810766552      1.38e-04     00000 
    4    -271.5814931302      4.93e-05     00000 
    5    -271.5815281061      1.77e-05     00000 
    6    -271.5815332847      4.83e-06     00000 
    7    -271.5815337062      2.04e-06     00000 
    8    -271.5815337800      3.17e-07     00000 
    9    -271.5815337831      6.46e-08     00000 
   10    -271.5815337833      3.31e-08     00000 
   11    -271.5815337833      8.76e-09     00000 Convergence criterion met
Timing for Total SCF: 1326.00s (wall), 2633.75s (cpu)

************** Final PCM Free Energy Summary **************
 G_electrostatic  =      -0.00253604 hartree =      -1.59138757 kcal/mol
 G_cavitation     =       0.00000000 hartree =       0.00000000 kcal/mol
 G_dispersion     =       0.00000000 hartree =       0.00000000 kcal/mol
 G_repulsion      =       0.00000000 hartree =       0.00000000 kcal/mol
 --------------------------------------------------
 Non-electrostatic Free Energy =       0.00000000 hartree =       0.00000000 kcal/mol
 Total                         =      -0.00253604 hartree =      -1.59138757 kcal/mol
 --------------------------------------------------
 SCF Energy (H0 + V/2)                       =    -271.58153378 
 Solute Internal Energy (H0)                 =    -271.57899775 
 Total Free Energy (H0 + V/2 + non-elec)     =    -271.58153378 hartree
                                             = -170419.98459774 kcal/mol
***********************************************************

E_pcm = -0.0025360375
Multipole orders to be included
        2
        3
computing dipole RHS
computing quadrupole RHS
total number of RHS in solve_reponses: 8
RHS batch sizes
        8
Beginning Block Conjugate Gradient Iterations. Batch Number: 0
computing hessian-vector products by finite difference
              1      5.83e-01     00000 Conjugate Gradient Iteration
computing hessian-vector products by finite difference
              2      1.89e-01     00000 Conjugate Gradient Iteration
computing hessian-vector products by finite difference
              3      4.41e-02     00000 Conjugate Gradient Iteration
computing hessian-vector products by finite difference
              4      1.07e-02     00000 Conjugate Gradient Iteration
computing hessian-vector products by finite difference
              5      2.21e-03     00000 Conjugate Gradient Iteration
computing hessian-vector products by finite difference
              6      5.30e-04     00000 Conjugate Gradient Iteration
computing hessian-vector products by finite difference
              7      1.69e-04     00000 Conjugate Gradient Iteration
computing hessian-vector products by finite difference
              8      2.70e-05     00000 Conjugate Gradient Iteration
computing hessian-vector products by finite difference
              9      3.37e-06     00000 Conjugate Gradient Iteration
computing hessian-vector products by finite difference
             10      6.95e-07     00000 Conjugate Gradient Iteration
computing hessian-vector products by finite difference
             11      1.65e-07     00000 Conjugate Gradient Iteration
computing hessian-vector products by finite difference
             12      3.98e-08     00000 Conjugate Gradient Iteration
computing hessian-vector products by finite difference
             13      6.89e-09     00000 CG Converged
batch 0 complete
Done Calculating Responses
TESTING ORTHOGONALIZATION OF MULTIPOLE BASIS
Multipole virts passed orthogonality test
Virts Per Order
           75
          125
 
 --------------------------------------------------------------
 
                    Orbital Energies (a.u.)
 --------------------------------------------------------------
 
 Alpha MOs
 -- Occupied --
-10.2831 -10.2753 -10.2751 -10.2728 -10.2714 -10.2708 -10.2621  -0.9959
 -0.9069  -0.8785  -0.8136  -0.7305  -0.7063  -0.6297  -0.5733  -0.5688
 -0.5360  -0.5301  -0.5151  -0.4872  -0.4725  -0.4424  -0.4419  -0.3490
 -0.3382
 -- Virtual --
  0.0621   0.0634   0.0661   0.0789   0.0845   0.1042   0.1103   0.1137
  0.1354   0.1533   0.1661   0.1675   0.1863   0.1887   0.1945   0.2007
  0.2216   0.2228   0.2331   0.2378   0.2505   0.2583   0.2600   0.2678
  0.2793   0.2813   0.2858   0.2898   0.2926   0.3001   0.3031   0.3091
  0.3176   0.3241   0.3326   0.3359   0.3487   0.3518   0.3644   0.3728
  0.3776   0.3804   0.3831   0.3876   0.3888   0.4007   0.4031   0.4071
  0.4097   0.4276   0.4285   0.4352   0.4405   0.4467   0.4501   0.4502
  0.4613   0.4676   0.4720   0.4805   0.4926   0.4943   0.5103   0.5149
  0.5166   0.5237   0.5308   0.5384   0.5420   0.5462   0.5495   0.5646
  0.5843   0.5875   0.5946   0.5985   0.6011   0.6199   0.6402   0.6423
  0.6566   0.6745   0.6816   0.6860   0.6885   0.6892   0.7201   0.7229
  0.7293   0.7325   0.7437   0.7570   0.7632   0.7639   0.7785   0.7861
  0.7885   0.7915   0.7941   0.8039   0.8067   0.8207   0.8253   0.8304
  0.8317   0.8348   0.8393   0.8526   0.8555   0.8750   0.8846   0.8944
  0.9062   0.9101   0.9336   0.9415   0.9511   1.0097   1.0196   1.0364
  1.0433   1.0582   1.0714   1.0798   1.0870   1.0927   1.1004   1.1376
  1.1611   1.1796   1.2462   1.2758   1.2929   1.3200   1.3466   1.3493
  1.3766   1.4330   1.4481   1.4563   1.4611   1.4818   1.5189   1.5331
  1.5983   1.6001   1.6134   1.6219   1.6672   1.6744   1.7346   1.7789
  1.7896   1.7951   1.7988   1.8141   1.8258   1.8676   1.8868   1.9102
  1.9170   1.9201   1.9479   1.9568   1.9796   1.9923   2.0129   2.0220
  2.0278   2.0451   2.0667   2.0922   2.1145   2.1209   2.1694   2.1729
  2.1933   2.2300   2.2365   2.2689   2.2878   2.3086   2.3932   2.3942
  2.4003   2.4022   2.4806   2.5036   2.5294   2.5502   2.5609   2.6115
  2.6137   2.6213   2.6699   2.6772   2.6911   2.7044   2.7497   2.7654
  2.7794   2.8011   2.8160   2.8424   2.8537   2.8971   2.9040   2.9131
  2.9346   2.9371   2.9526   2.9705   2.9870   3.0168   3.0199   3.0445
  3.0603   3.0862   3.0945   3.1195   3.1806   3.1931   3.2025   3.2194
  3.2287   3.2371   3.2855   3.3004   3.3240   3.3528   3.3602   3.3749
  3.4002   3.4370   3.4481   3.4503   3.4567   3.4657   3.4860   3.4903
  3.5033   3.5266   3.5370   3.5389   3.5545   3.5592   3.5860   3.6034
  3.6133   3.6323   3.6436   3.6847   3.6979   3.7465   3.7777   3.8073
  3.8339   3.8843   3.9091   3.9433   3.9458   3.9932   4.0280   4.0461
  4.1108   4.1935   4.2623   4.2674   4.2828   4.3115   4.3190   4.3262
  4.3379   4.3619   4.3798   4.3899   4.4209   4.4374   4.4672   4.5191
  4.5875   4.6267   4.7384   4.7500   4.8261   4.8793   4.9017   4.9392
  5.0116   5.0423   5.1588   5.2564   5.3502   5.3651   5.4952   5.5246
  5.6607   5.8463  22.5753  22.6689  22.8709  22.8811  22.9946  23.0521
 23.3997
 --------------------------------------------------------------
 
          Ground-State Mulliken Net Atomic Charges

     Atom                 Charge (a.u.)
  ----------------------------------------
      1 C                    -1.051646
      2 C                    -0.503347
      3 C                    -0.483053
      4 C                    -0.370904
      5 C                     0.896446
      6 C                    -0.494600
      7 C                    -0.356335
      8 H                     0.313130
      9 H                     0.330801
     10 H                     0.316942
     11 H                     0.313341
     12 H                     0.276674
     13 H                     0.268181
     14 H                     0.328910
     15 H                     0.215460
  ----------------------------------------
  Sum of atomic charges =     0.000000

 -----------------------------------------------------------------
                    Cartesian Multipole Moments
 -----------------------------------------------------------------
    Charge (ESU x 10^10)
                 0.0000
    Dipole Moment (Debye)
         X      -0.0756      Y      -0.4204      Z      -0.2367
       Tot       0.4883
    Quadrupole Moments (Debye-Ang)
        XX     -45.1868     XY       2.0931     YY     -36.2689
        XZ      -2.1834     YZ       0.7800     ZZ     -39.4486
    Octopole Moments (Debye-Ang^2)
       XXX      81.0433    XXY     107.5307    XYY      15.4091
       YYY     283.0378    XXZ     -43.4563    XYZ       6.2906
       YYZ     -39.2061    XZZ      17.6651    YZZ     100.8671
       ZZZ    -115.9007
    Hexadecapole Moments (Debye-Ang^3)
      XXXX    -198.3979   XXXY    -232.2220   XXYY    -379.0210
      XYYY    -183.5499   YYYY   -1968.0430   XXXZ     112.1354
      XXYZ      77.0993   XYYZ      11.6623   YYYZ     215.0038
      XXZZ    -131.7292   XYZZ     -55.0964   YYZZ    -438.4604
      XZZZ      76.8047   YZZZ     226.3801   ZZZZ    -562.7890
 -----------------------------------------------------------------
Archival summary:
1\1\nid00555\SP\ProcedureUnspecified\BasisUnspecified\78\meili\SunSep2620:46:272021SunSep2620:46:272021\0\\#,ProcedureUnspecified,BasisUnspecified,\\0,1\C\C,1,1.39151\H,2,1.08082,1,120.019\C,2,1.39916,1,120.46,3,-179.371,0\H,4,1.08177,2,120.028,1,179.317,0\C,4,1.39708,2,120.214,1,0.119999,0\H,6,1.08171,4,120.453,2,179.705,0\C,1,1.39968,2,119.235,3,179.323,0\H,8,1.08101,1,120.245,2,-179.744,0\C,8,1.39477,1,120.659,2,0.414253,0\H,10,1.081,8,120.098,1,-179.989,0\C,1,1.50358,2,120.176,3,1.00301,0\H,12,1.08728,1,108.934,2,150.982,0\H,12,1.08996,1,108.8,2,35.1813,0\H,12,1.1,1,114.512,2,-87.0574,0\\\@

 Total job time:  30890.94s(wall), 61325.93s(cpu) 
 Sun Sep 26 20:46:31 2021

        *************************************************************
        *                                                           *
        *  Thank you very much for using Q-Chem.  Have a nice day.  *
        *                                                           *
        *************************************************************


Done Job For Fragment 1
calling putenv with: QCSCRATCH=/global/cscratch1/sd/meili 
calling putenv with: QCLOCALSCR=/tmp 
calling putenv with: QCTHREADS=32 
Doing General SCFMI
 Exchange:     0.1670 Hartree-Fock + 1.0000 wB97X-V + LR-HF
 Correlation:  1.0000 wB97X-V
 Using Euler-Maclaurin-Lebedev (99,590) quadrature formula
 Nonlocal Correlation:  VV10 with C = 0.0100 and b = 6.00 and scale = 1.00000
 Grid used for NLC:  SG-1 standard quadrature
performing fock build before subrot guess so that all methods have access
Printing subrot_rss_gen Method Specification:
Occupied Subspace Method is 0
Virtual Subspace Method is 0
Energy of the unrelaxed supersystem initial determinant -543.161303822103
performing fock build before subrot guess so that all methods have access
Printing subrot_rss_gen Method Specification:
Occupied Subspace Method is 0
Virtual Subspace Method is 0
Energy of the unrelaxed supersystem initial determinant w/ solvent -543.166016853458
write pseudocanon occs and virts to disk
write pseudocanon orbital energies to disk
Tolerance of ortho_decomp_scf: 1.00e-06
GDM subspace size: 20
Beginning the Orthogonal Decomposition of the Initial Supersystem Wavefunction
    1    -543.1469216224      1.49e-02     ortho_decomp Preconditoned Steepest Descent
    2    -543.1478335541      3.31e-04     ortho_decomp BFGS Step
    3    -543.1478358770      2.50e-05     ortho_decomp BFGS Step
    4    -543.1478358821      9.96e-07     ortho_decomp 00000 Convergence criterion met
 Hartree-Fock
 Hartree-Fock
 Hartree-Fock
Doing General SCFMI
 Exchange:     0.1670 Hartree-Fock + 1.0000 wB97X-V + LR-HF
 Correlation:  1.0000 wB97X-V
 Using Euler-Maclaurin-Lebedev (99,590) quadrature formula
 Nonlocal Correlation:  VV10 with C = 0.0100 and b = 6.00 and scale = 1.00000
 Grid used for NLC:  SG-1 standard quadrature
performing fock build at end of subrot_r(subrot) constructor so that all methods have access
<S^2> of initial wavefunction before polarization iterations 0.0000000000
Beginning iterations for the determination of the polarized wavefunction
Energy prior to optimization (guess energy) = -543.166016853457
Begin Timing: Total SCF Calculation
begin iterations for algorithm: DIIS         
the SCF tolerance is set to 1.00e-08
    1    -543.1660168535      3.99e-05     00000 
    2    -543.1661829176      1.79e-05     00000 
    3    -543.1662014886      1.03e-05     00000 
    4    -543.1662090864      2.44e-06     00000 
    5    -543.1662097718      1.13e-06     00000 
    6    -543.1662099010      5.31e-07     00000 
    7    -543.1662099270      2.17e-07     00000 
    8    -543.1662099306      1.06e-07     00000 
    9    -543.1662099311      4.26e-08     00000 
   10    -543.1662099312      1.87e-08     00000 
   11    -543.1662099312      8.63e-09     00000 Convergence criterion met
write pseudocanon occs and virts to disk
write pseudocanon orbital energies to disk
Timing for Total SCF: 10082.00s (wall), 20057.92s (cpu)
<S^2> of polarized wavefunction after polarization iterations 0.0000000000
relaxing scfmi constraint to allow all rotations in the entire AO span
Doing General SCFMI
 Exchange:     0.1670 Hartree-Fock + 1.0000 wB97X-V + LR-HF
 Correlation:  1.0000 wB97X-V
 Using Euler-Maclaurin-Lebedev (99,590) quadrature formula
 Nonlocal Correlation:  VV10 with C = 0.0100 and b = 6.00 and scale = 1.00000
 Grid used for NLC:  SG-1 standard quadrature
performing fock build at end of subrot_r(subrot) constructor so that all methods have access
<S^2> of polarized wavefunction before ct-allowed iterations 0.0000000000
Beginning iterations for the determination of the CT-Allowed wavefunction
Energy prior to optimization (guess energy) = -543.166209931224
Begin Timing: Total SCF Calculation
begin iterations for algorithm: DIIS         
the SCF tolerance is set to 1.00e-08
    1    -543.1662099312      5.42e-05     00000 
    2    -543.1667628819      4.90e-06     00000 
    3    -543.1667771694      8.81e-07     00000 
    4    -543.1667776283      4.86e-07     00000 
    5    -543.1667776840      9.09e-08     00000 
    6    -543.1667776875      4.09e-08     00000 
    7    -543.1667776880      8.64e-09     00000 Convergence criterion met
write pseudocanon occs and virts to disk
write pseudocanon orbital energies to disk
Timing for Total SCF: 6019.00s (wall), 11961.76s (cpu)
<S^2> of ct_allowed wavefunction after ct-allowed iterations 0.0000000000

================================
        Results of EDA2         
================================
Basic EDA Quantities
--------------------
Fragment Energies (Ha):
1 -271.5809976773
2 -271.5815337833
--------------------
  E_prp (kJ/mol) = 0.0000
  E_sol (kJ/mol) = 0.8742
  E_frz (kJ/mol) = -10.0252
  E_pol (kJ/mol) = -0.5069
  E_vct (kJ/mol) = -1.4907
  E_int (kJ/mol) = -11.1486
--------------------


Initial Wavefunction Decomposition
--------------------
  --------------------
  Orthogonal Fragment Subspace Decomposition:
  --------------------
     E_elec   (ELEC)   (kJ/mol) = -14.1529
     E_pauli  (PAULI)  (kJ/mol) = 18.9359
     E_disp   (DISP)   (kJ/mol) = -14.8082
     --------------------
     Terms summing to E_pauli:
     --------------------
        E_kep_pauli       (kJ/mol) = 25.3353
        E_disp_free_pauli (kJ/mol) = -6.3994
  --------------------
  Classical Frozen Decomposition:
  --------------------
     E_cls_elec  (CLS ELEC)  (kJ/mol) = -5.3528
     E_cls_pauli (CLS PAULI) (kJ/mol) = -4.6724
    [E_mod_pauli (MOD PAULI) (kJ/mol) = 10.1358 (CLS PAULI - DISP from orthogonal decomposition) ]
  --------------------
--------------------

Simplified EDA Summary (kJ/mol)
--------------------
 PREPARATION     0.0000
 SOLVATION       0.8742
 FROZEN          4.7830      (does not include dispersion)
[PAULI           18.9359]     (if this is negligible, then frozen describes electrostatics)
 DISPERSION      -14.8082
 POLARIZATION    -0.5069
 CHARGE TRANSFER -1.4907
 TOTAL           -11.1486     (PRP + SOL + FRZ + DISP + POL + CT)
--------------------
 
 --------------------------------------------------------------
 
                    Orbital Energies (a.u.)
 --------------------------------------------------------------
 
 Alpha MOs
 -- Occupied --
-10.2858 -10.2819 -10.2749 -10.2741 -10.2728 -10.2727 -10.2720 -10.2708
-10.2705 -10.2698 -10.2697 -10.2695 -10.2645 -10.2616  -0.9981  -0.9942
 -0.9074  -0.9054  -0.8801  -0.8768  -0.8148  -0.8124  -0.7311  -0.7287
 -0.7076  -0.7047  -0.6317  -0.6283  -0.5742  -0.5718  -0.5688  -0.5674
 -0.5373  -0.5353  -0.5311  -0.5274  -0.5159  -0.5138  -0.4893  -0.4864
 -0.4745  -0.4706  -0.4433  -0.4418  -0.4406  -0.4388  -0.3522  -0.3463
 -0.3403  -0.3350
 -- Virtual --
  0.0555   0.0599   0.0607   0.0639   0.0695   0.0712   0.0731   0.0814
  0.0886   0.0959   0.1010   0.1047   0.1121   0.1186   0.1196   0.1280
  0.1346   0.1445   0.1531   0.1573   0.1642   0.1672   0.1712   0.1765
  0.1819   0.1884   0.1901   0.1988   0.2033   0.2077   0.2160   0.2175
  0.2243   0.2279   0.2311   0.2319   0.2351   0.2417   0.2520   0.2556
  0.2569   0.2609   0.2636   0.2674   0.2681   0.2723   0.2737   0.2784
  0.2821   0.2859   0.2871   0.2922   0.2935   0.2973   0.2998   0.3049
  0.3069   0.3119   0.3166   0.3184   0.3223   0.3250   0.3273   0.3318
  0.3392   0.3400   0.3446   0.3464   0.3470   0.3509   0.3530   0.3601
  0.3620   0.3669   0.3680   0.3696   0.3751   0.3757   0.3817   0.3833
  0.3841   0.3878   0.3922   0.3957   0.3970   0.4016   0.4048   0.4085
  0.4089   0.4119   0.4165   0.4204   0.4231   0.4314   0.4343   0.4387
  0.4393   0.4421   0.4447   0.4483   0.4517   0.4527   0.4564   0.4604
  0.4622   0.4640   0.4699   0.4730   0.4748   0.4790   0.4830   0.4876
  0.4893   0.4957   0.4969   0.5001   0.5027   0.5061   0.5115   0.5132
  0.5186   0.5238   0.5261   0.5264   0.5325   0.5363   0.5370   0.5409
  0.5514   0.5525   0.5573   0.5614   0.5671   0.5688   0.5726   0.5778
  0.5840   0.5866   0.5887   0.5954   0.6013   0.6047   0.6105   0.6141
  0.6183   0.6242   0.6263   0.6293   0.6307   0.6395   0.6415   0.6577
  0.6595   0.6622   0.6644   0.6708   0.6782   0.6807   0.6884   0.6898
  0.6959   0.6997   0.7024   0.7084   0.7118   0.7173   0.7211   0.7285
  0.7330   0.7394   0.7430   0.7438   0.7495   0.7522   0.7552   0.7623
  0.7629   0.7651   0.7715   0.7727   0.7735   0.7811   0.7858   0.7899
  0.7915   0.7965   0.8016   0.8024   0.8032   0.8057   0.8104   0.8124
  0.8155   0.8196   0.8243   0.8301   0.8343   0.8360   0.8377   0.8430
  0.8463   0.8497   0.8525   0.8574   0.8622   0.8657   0.8675   0.8738
  0.8804   0.8831   0.8855   0.8890   0.8972   0.8993   0.9056   0.9182
  0.9208   0.9264   0.9296   0.9340   0.9420   0.9455   0.9502   0.9570
  0.9656   0.9698   0.9775   0.9934   0.9976   1.0090   1.0171   1.0226
  1.0258   1.0404   1.0446   1.0602   1.0703   1.0772   1.0791   1.0814
  1.0884   1.0942   1.0979   1.1031   1.1076   1.1164   1.1255   1.1302
  1.1365   1.1494   1.1620   1.1653   1.1802   1.1951   1.2088   1.2286
  1.2412   1.2575   1.2723   1.2864   1.3012   1.3191   1.3237   1.3372
  1.3439   1.3580   1.3621   1.3702   1.3828   1.4078   1.4167   1.4180
  1.4465   1.4544   1.4638   1.4722   1.4756   1.4779   1.4922   1.4984
  1.5086   1.5108   1.5302   1.5415   1.5469   1.5540   1.5683   1.6040
  1.6070   1.6234   1.6302   1.6338   1.6386   1.6492   1.6686   1.6769
  1.6805   1.6938   1.7037   1.7497   1.7816   1.7880   1.7966   1.8031
  1.8091   1.8143   1.8179   1.8234   1.8252   1.8436   1.8650   1.8911
  1.8973   1.9075   1.9088   1.9153   1.9358   1.9402   1.9478   1.9638
  1.9653   1.9696   1.9728   1.9853   1.9862   1.9943   2.0003   2.0153
  2.0255   2.0289   2.0350   2.0445   2.0494   2.0561   2.0635   2.0730
  2.0737   2.0855   2.1002   2.1123   2.1272   2.1404   2.1493   2.1567
  2.1657   2.1822   2.1940   2.1981   2.2148   2.2221   2.2266   2.2390
  2.2488   2.2559   2.2654   2.2671   2.2819   2.2960   2.2994   2.3142
  2.3352   2.3400   2.3572   2.3930   2.4072   2.4099   2.4176   2.4207
  2.4293   2.4449   2.4613   2.4999   2.5091   2.5150   2.5264   2.5474
  2.5614   2.5754   2.5838   2.5989   2.6058   2.6126   2.6225   2.6331
  2.6438   2.6450   2.6542   2.6764   2.6886   2.6910   2.6987   2.7067
  2.7109   2.7191   2.7341   2.7567   2.7654   2.7740   2.7847   2.7968
  2.8106   2.8174   2.8279   2.8366   2.8413   2.8521   2.8627   2.8682
  2.8704   2.9082   2.9130   2.9219   2.9287   2.9356   2.9454   2.9485
  2.9514   2.9537   2.9681   2.9726   2.9899   2.9955   3.0058   3.0138
  3.0211   3.0257   3.0319   3.0412   3.0593   3.0624   3.0798   3.0857
  3.0959   3.1009   3.1057   3.1114   3.1294   3.1408   3.1690   3.1858
  3.1982   3.2053   3.2087   3.2214   3.2392   3.2432   3.2447   3.2499
  3.2758   3.2827   3.2970   3.3102   3.3186   3.3312   3.3327   3.3493
  3.3631   3.3663   3.3686   3.3803   3.3929   3.4004   3.4180   3.4210
  3.4348   3.4491   3.4537   3.4559   3.4633   3.4669   3.4729   3.4749
  3.4818   3.4851   3.4977   3.5042   3.5120   3.5170   3.5334   3.5350
  3.5384   3.5452   3.5498   3.5531   3.5565   3.5592   3.5627   3.5746
  3.5813   3.5850   3.5897   3.5963   3.6164   3.6184   3.6225   3.6270
  3.6402   3.6416   3.6569   3.6680   3.6847   3.6969   3.7019   3.7074
  3.7125   3.7499   3.7569   3.7827   3.8025   3.8195   3.8239   3.8406
  3.8494   3.8905   3.8936   3.9097   3.9299   3.9472   3.9570   3.9614
  3.9727   3.9792   4.0039   4.0401   4.0447   4.0628   4.0840   4.1230
  4.1368   4.2086   4.2406   4.2695   4.2763   4.2889   4.2929   4.2995
  4.3094   4.3170   4.3194   4.3289   4.3326   4.3365   4.3468   4.3510
  4.3612   4.3705   4.3762   4.3809   4.3920   4.4178   4.4240   4.4347
  4.4425   4.4495   4.4732   4.4856   4.4915   4.5411   4.5481   4.6041
  4.6159   4.6323   4.6536   4.7418   4.7449   4.7606   4.7730   4.8224
  4.8315   4.8700   4.8856   4.9212   4.9285   4.9619   4.9654   5.0325
  5.0417   5.0522   5.0658   5.1649   5.1830   5.2757   5.2847   5.3655
  5.3693   5.3730   5.3833   5.4804   5.5041   5.5248   5.5298   5.6804
  5.6868   5.8238   5.8386  22.6369  22.6676  22.6777  22.7306  22.8987
 22.9204  22.9431  22.9517  23.0171  23.0347  23.0772  23.1055  23.4132
 23.4207
 --------------------------------------------------------------
 
          Ground-State Mulliken Net Atomic Charges

     Atom                 Charge (a.u.)
  ----------------------------------------
      1 C                    -1.314546
      2 C                    -0.451083
      3 C                    -0.605050
      4 C                    -0.373287
      5 C                     1.058625
      6 C                    -0.420633
      7 C                    -0.301494
      8 H                     0.306244
      9 H                     0.344052
     10 H                     0.309240
     11 H                     0.322249
     12 H                     0.263779
     13 H                     0.286798
     14 H                     0.330354
     15 H                     0.278178
     16 C                    -1.091527
     17 C                    -0.113481
     18 C                    -0.411651
     19 C                    -0.569762
     20 C                     0.590499
     21 C                    -0.526646
     22 C                    -0.411169
     23 H                     0.322646
     24 H                     0.376428
     25 H                     0.339804
     26 H                     0.331277
     27 H                     0.281966
     28 H                     0.274326
     29 H                     0.356073
     30 H                     0.217790
  ----------------------------------------
  Sum of atomic charges =     0.000000

 -----------------------------------------------------------------
                    Cartesian Multipole Moments
 -----------------------------------------------------------------
    Charge (ESU x 10^10)
                -0.0000
    Dipole Moment (Debye)
         X       0.3034      Y      -0.1481      Z      -0.6871
       Tot       0.7656
    Quadrupole Moments (Debye-Ang)
        XX     -82.8342     XY       3.0986     YY     -82.1900
        XZ      -2.9712     YZ       1.9577     ZZ     -77.5085
    Octopole Moments (Debye-Ang^2)
       XXX       8.0738    XXY      15.2493    XYY      -6.4850
       YYY     -53.1390    XXZ      -4.5073    XYZ       4.1796
       YYZ      12.8115    XZZ      -6.0397    YZZ       6.0219
       ZZZ       3.1823
    Hexadecapole Moments (Debye-Ang^3)
      XXXX    -752.6901   XXXY    -399.6147   XXYY    -723.7585
      XYYY    -349.5548   YYYY   -3745.1032   XXXZ     267.6040
      XXYZ     161.1066   XYYZ      58.3959   YYYZ     529.5564
      XXZZ    -336.0941   XYZZ    -107.7770   YYZZ    -811.5751
      XZZZ     232.8525   YZZZ     489.3972   ZZZZ   -1219.6848
 -----------------------------------------------------------------
Archival summary:
1\1\nid00555\SP\ProcedureUnspecified\BasisUnspecified\1416\meili\MonSep2704:48:222021MonSep2704:48:222021\0\\#,ProcedureUnspecified,BasisUnspecified,\\0,1\C\H,1,1.081\C,1,1.39477,2,120.098\H,3,1.08101,1,119.096,2,0.167482,0\C,3,1.39968,1,120.659,2,-179.989,0\C,5,1.39151,3,119.235,1,0.414253,0\H,6,1.08082,5,120.019,3,179.323,0\C,6,1.39916,5,120.46,3,-0.0475962,0\H,8,1.08177,6,120.028,5,179.317,0\C,8,1.39708,6,120.214,5,0.119999,0\H,10,1.08171,8,120.453,6,179.705,0\C,5,1.50358,3,120.567,1,178.728,0\H,12,1.08728,5,108.934,3,-27.3153,0\H,12,1.08996,5,108.8,3,-143.116,0\H,12,1.1,5,114.512,3,94.645,0\C,2,3.03924,1,133.543,3,105.985,0\H,16,1.08027,2,117.808,1,-31.8073,0\C,16,1.38715,2,77.4465,1,-148.873,0\H,18,1.0792,16,119.116,2,114.606,0\C,16,1.38863,2,77.0075,1,85.4453,0\H,20,1.0787,16,120.226,2,-112.458,0\C,20,1.39203,16,119.663,2,67.1299,0\H,22,1.07814,20,119.488,16,178.859,0\C,18,1.39311,16,120.82,2,-64.9658,0\C,22,1.39906,20,119.94,16,-0.240878,0\H,25,1.07652,22,118.914,20,178.25,0\C,24,1.51508,18,118.913,16,-179.43,0\H,27,1.09034,24,107.854,18,91.7022,0\H,27,1.09072,24,108.463,18,-24.513,0\H,27,1.1,24,115.453,18,-145.967,0\\\@

 Total job time:  90017.95s(wall), 57576.16s(cpu) 
 Mon Sep 27 04:48:26 2021

        *************************************************************
        *                                                           *
        *  Thank you very much for using Q-Chem.  Have a nice day.  *
        *                                                           *
        *************************************************************


