
Running Job 1 of 1 SSI-099ARG-216GLU-1_SMD_TZVPD.in
qchem SSI-099ARG-216GLU-1_SMD_TZVPD.in_37832.0 /tmp/qchem37832/ 0
/global/common/cori/software/qchem/5.2/exe/qcprog.exe_s SSI-099ARG-216GLU-1_SMD_TZVPD.in_37832.0 /tmp/qchem37832/
                  Welcome to Q-Chem
     A Quantum Leap Into The Future Of Chemistry


 Q-Chem 5.2, Q-Chem, Inc., Pleasanton, CA (2019)

 License issued to: National Energy Research Scientific Computing Center

 Yihan Shao,  Zhengting Gan,  E. Epifanovsky,  A. T. B. Gilbert,  M. Wormit,  
 J. Kussmann,  A. W. Lange,  A. Behn,  Jia Deng,  Xintian Feng,  D. Ghosh,  
 M. Goldey,  P. R. Horn,  L. D. Jacobson,  I. Kaliman,  T. Kus,  A. Landau,  
 Jie Liu,  E. I. Proynov,  R. M. Richard,  R. P. Steele,  E. J. Sundstrom,  
 H. L. Woodcock III,  P. M. Zimmerman,  D. Zuev,  B. Albrecht,  E. Alguire,  
 S. A. Baeppler,  D. Barton,  Z. Benda,  Y. A. Bernard,  E. J. Berquist,  
 K. B. Bravaya,  H. Burton,  D. Casanova,  Chun-Min Chang,  Yunqing Chen,  
 A. Chien,  K. D. Closser,  M. P. Coons,  S. Coriani,  S. Dasgupta,  
 A. L. Dempwolff,  M. Diedenhofen,  Hainam Do,  R. G. Edgar,  Po-Tung Fang,  
 S. Faraji,  S. Fatehi,  Qingguo Feng,  K. D. Fenk,  J. Fosso-Tande,  
 J. Gayvert,  Qinghui Ge,  A. Ghysels,  G. Gidofalvi,  J. Gomes,  
 J. Gonthier,  A. Gunina,  D. Hait,  M. W. D. Hanson-Heine,  
 P. H. P. Harbach,  A. W. Hauser,  M. F. Herbst,  J. E. Herr,  
 E. G. Hohenstein,  Z. C. Holden,  Kerwin Hui,  B. C. Huynh,  T.-C. Jagau,  
 Hyunjun Ji,  B. Kaduk,  K. Khistyaev,  Jaehoon Kim,  P. Klunzinger,  K. Koh,  
 D. Kosenkov,  L. Koulias,  T. Kowalczyk,  C. M. Krauter,  A. Kunitsa,  
 Ka Un Lao,  A. Laurent,  K. V. Lawler,  Joonho Lee,  D. Lefrancois,  
 S. Lehtola,  D. S. Levine,  Yi-Pei Li,  You-Sheng Lin,  Fenglai Liu,  
 E. Livshits,  A. Luenser,  P. Manohar,  E. Mansoor,  S. F. Manzer,  
 Shan-Ping Mao,  Yuezhi Mao,  N. Mardirossian,  A. V. Marenich,  
 T. Markovich,  L. A. Martinez-Martinez,  S. A. Maurer,  N. J. Mayhall,  
 S. C. McKenzie,  J.-M. Mewes,  P. Morgante,  A. F. Morrison,  
 J. W. Mullinax,  K. Nanda,  T. S. Nguyen-Beck,  R. Olivares-Amaya,  
 J. A. Parkhill,  Zheng Pei,  T. M. Perrine,  F. Plasser,  P. Pokhilko,  
 S. Prager,  A. Prociuk,  E. Ramos,  D. R. Rehn,  F. Rob,  M. Scheurer,  
 M. Schneider,  N. Sergueev,  S. M. Sharada,  S. Sharma,  D. W. Small,  
 T. Stauch,  T. Stein,  Yu-Chuan Su,  A. J. W. Thom,  A. Tkatchenko,  
 T. Tsuchimochi,  N. M. Tubman,  L. Vogt,  M. L. Vidal,  O. Vydrov,  
 M. A. Watson,  J. Wenzel,  M. de Wergifosse,  T. A. Wesolowski,  A. White,  
 J. Witte,  A. Yamada,  Jun Yang,  K. Yao,  S. Yeganeh,  S. R. Yost,  
 Zhi-Qiang You,  A. Zech,  Igor Ying Zhang,  Xing Zhang,  Yan Zhao,  
 Ying Zhu,  B. R. Brooks,  G. K. L. Chan,  C. J. Cramer,  M. S. Gordon,  
 W. J. Hehre,  A. Klamt,  M. W. Schmidt,  C. D. Sherrill,  D. G. Truhlar,  
 A. Aspuru-Guzik,  R. Baer,  A. T. Bell,  N. A. Besley,  Jeng-Da Chai,  
 A. E. DePrince, III,  R. A. DiStasio Jr.,  A. Dreuw,  B. D. Dunietz,  
 T. R. Furlani,  Chao-Ping Hsu,  Yousung Jung,  Jing Kong,  D. S. Lambrecht,  
 WanZhen Liang,  C. Ochsenfeld,  V. A. Rassolov,  L. V. Slipchenko,  
 J. E. Subotnik,  T. Van Voorhis,  J. M. Herbert,  A. I. Krylov,  
 P. M. W. Gill,  M. Head-Gordon

 Contributors to earlier versions of Q-Chem not listed above: 
 R. D. Adamson,  B. Austin,  J. Baker,  G. J. O. Beran,  K. Brandhorst,  
 S. T. Brown,  E. F. C. Byrd,  A. K. Chakraborty,  C.-L. Cheng,  
 Siu Hung Chien,  D. M. Chipman,  D. L. Crittenden,  H. Dachsel,  
 R. J. Doerksen,  A. D. Dutoi,  L. Fusti-Molnar,  W. A. Goddard III,  
 A. Golubeva-Zadorozhnaya,  S. R. Gwaltney,  G. Hawkins,  A. Heyden,  
 S. Hirata,  G. Kedziora,  F. J. Keil,  C. Kelley,  Jihan Kim,  R. A. King,  
 R. Z. Khaliullin,  P. P. Korambath,  W. Kurlancheek,  A. M. Lee,  M. S. Lee,  
 S. V. Levchenko,  Ching Yeh Lin,  D. Liotard,  R. C. Lochan,  I. Lotan,  
 P. E. Maslen,  N. Nair,  D. P. O'Neill,  D. Neuhauser,  E. Neuscamman,  
 C. M. Oana,  R. Olson,  B. Peters,  R. Peverati,  P. A. Pieniazek,  
 Y. M. Rhee,  J. Ritchie,  M. A. Rohrdanz,  E. Rosta,  N. J. Russ,  
 H. F. Schaefer III,  N. E. Schultz,  N. Shenvi,  A. C. Simmonett,  A. Sodt,  
 D. Stuck,  K. S. Thanthiriwatte,  V. Vanovschi,  Tao Wang,  A. Warshel,  
 C. F. Williams,  Q. Wu,  X. Xu,  W. Zhang

 Please cite Q-Chem as follows:
 Y. Shao et al., Mol. Phys. 113, 184-215 (2015)
 DOI: 10.1080/00268976.2014.952696

 Q-Chem 5.2.0 for Intel X86 EM64T Linux

 Parts of Q-Chem use Armadillo 8.300.2 (Tropical Shenanigans).
 http://arma.sourceforge.net/

 Q-Chem begins on Sun Sep 26 12:54:43 2021  

Host: cori01
0

     Scratch files written to /tmp/qchem37832//
 May1019 |scratch|qcdevops|jenkins|workspace|build_RNUM -1
Processing $rem in /global/common/cori/software/qchem/5.2/config/preferences:
	 MEM_TOTAL  96000 
NAlpha2: 72
NElect   72
Mult     1
Symmetry turned off for PCM/SM12/SMD calculation

 Q-Chem warning in module libgen/rem_setup.C, line 2803:

 Neither GIA nor STOLL is specified by user. Use STOLL as the default


Checking the input file for inconsistencies... 	...done.

--------------------------------------------------------------
User input:
--------------------------------------------------------------
$comment
SSI-099ARG-216GLU-1.pdb
$end

$molecule
0 1
--
1 1
C   -2.326853141377    1.840139732658   -3.042057262109
C   -1.138853141377    0.467139732658   -1.333057262109
N   -1.192853141377   -0.198860267342   -0.213057262109
N   -2.240853141377    1.033139732658   -1.820057262109
N    0.007146858623    0.567139732658   -1.971057262109
H   -2.060853141377   -0.630860267342    0.015942737891
H   -0.328853141377   -0.608860267342    0.164942737891
H   -3.085853141377    0.922139732658   -1.269057262109
H    0.113146858623    1.125139732658   -2.789057262109
H    0.855146858623    0.148139732658   -1.559057262109
H   -1.382853141377    1.837139732658   -3.587057262109
H   -2.531853141377    2.881139732658   -2.776057262109
H   -3.102223141377    1.461819732658   -3.724467262109
--
-1 1
C    1.982146858623    0.496139732658    2.194942737891
C    1.718146858623   -0.996860267342    2.090942737891
O    0.608146858623   -1.369860267342    1.622942737891
O    2.558146858623   -1.825860267342    2.507942737891
H    1.485146858623    0.888139732658    3.085942737891
H    1.549146858623    0.982139732658    1.317942737891
H    3.055146858623    0.730129732658    2.257632737891
$end

$rem
JOBTYPE			EDA
EDA2			1
method			wB97X-V
BASIS			def2-TZVPD
XC_GRID			000099000590
NL_GRID			1
UNRESTRICTED		FALSE
MAX_SCF_CYCLES		200
SYMMETRY		FALSE
SYM_IGNORE		TRUE
MEM_STATIC		2000
BASIS_LIN_DEP_THRESH 	6
THRESH 			14
SCF_CONVERGENCE 	8
SCF_PRINT_FRGM 		TRUE
SOLVENT_METHOD          SMD
$end

$SMX
SOLVENT			WATER
$END
--------------------------------------------------------------
 ----------------------------------------------------------------
             Standard Nuclear Orientation (Angstroms)
    I     Atom           X                Y                Z
 ----------------------------------------------------------------
    1      C      -2.3268531414     1.8401397327    -3.0420572621
    2      C      -1.1388531414     0.4671397327    -1.3330572621
    3      N      -1.1928531414    -0.1988602673    -0.2130572621
    4      N      -2.2408531414     1.0331397327    -1.8200572621
    5      N       0.0071468586     0.5671397327    -1.9710572621
    6      H      -2.0608531414    -0.6308602673     0.0159427379
    7      H      -0.3288531414    -0.6088602673     0.1649427379
    8      H      -3.0858531414     0.9221397327    -1.2690572621
    9      H       0.1131468586     1.1251397327    -2.7890572621
   10      H       0.8551468586     0.1481397327    -1.5590572621
   11      H      -1.3828531414     1.8371397327    -3.5870572621
   12      H      -2.5318531414     2.8811397327    -2.7760572621
   13      H      -3.1022231414     1.4618197327    -3.7244672621
   14      C       1.9821468586     0.4961397327     2.1949427379
   15      C       1.7181468586    -0.9968602673     2.0909427379
   16      O       0.6081468586    -1.3698602673     1.6229427379
   17      O       2.5581468586    -1.8258602673     2.5079427379
   18      H       1.4851468586     0.8881397327     3.0859427379
   19      H       1.5491468586     0.9821397327     1.3179427379
   20      H       3.0551468586     0.7301297327     2.2576327379
 ----------------------------------------------------------------
 Nuclear Repulsion Energy =         442.12901296 hartrees
 There are       36 alpha and       36 beta electrons
 Requested basis set is def2-TZVPD
 There are 174 shells and 438 basis functions

 Total QAlloc Memory Limit  96000 MB
 Mega-Array Size      1956 MB
 MEM_STATIC part      2000 MB
 
 Citation of the SMD model:
 Marenich, A.V.; Cramer, C.J.; Truhlar, D.G.
 J. Phys. Chem. B 2009, 113, 6378-6396.
 iSolventCode=           1
 Solvent: water                                                           
 
 vradii
            1           2           3           4           5           6
    1   1.8500000   1.8500000   1.8900000   1.8900000   1.8900000   1.2000000
            7           8           9          10          11          12
    1   1.2000000   1.2000000   1.2000000   1.2000000   1.2000000   1.2000000
           13          14          15          16          17          18
    1   1.2000000   1.8500000   1.8500000   1.5200000   1.5200000   1.2000000
           19          20
    1   1.2000000   1.2000000
 Changing PCM_VDW_RADII to SMD_RADIUS
 Discretize the solute cavity surface with Lebedev spheres
	Using 110 Lebedev grid points for each H atom
	Using 194 Lebedev grid points for other atoms
	Atomic van der Waals radii will be scaled by 1.20
 Remove points where switching function is < 1.0e-08
 Keep 1529 surface tesserae and discard 1427 interior tesserae
 Molecular Surface Area = 185.787 Angst**2
 A cutoff of  1.0D-14 yielded  13232 shell pairs
 There are     83640 function pairs (    104723 Cartesian)
 Smallest overlap matrix eigenvalue = 1.08E-05

 Scale SEOQF with 1.000000e-01/1.000000e-01/1.000000e-01

 Standard Electronic Orientation quadrupole field applied
 Nucleus-field energy     =    -0.0000000175 hartrees

 -----------------------------------------------------------------------
  General SCF calculation program by
  Eric Jon Sundstrom, Paul Horn, Yuezhi Mao, Dmitri Zuev, Alec White,
  David Stuck, Shaama M.S., Shane Yost, Joonho Lee, David Small,
  Daniel Levine, Susi Lehtola, Hugh Burton, Evgeny Epifanovsky
 -----------------------------------------------------------------------
================================================================
                 ALMO-EDA with the EDA2 driver                  
================================================================
 The second-generation ALMO-EDA (for DFT):                      
 P. R. Horn, Y. Mao and M. Head-Gordon, PCCP, 18, 23067 (2016)  
 Decomposition of the frozen energy:                            
 P. R. Horn, Y. Mao and M. Head-Gordon, JCP, 144, 114107 (2016) 
 FERF model for polarization:                                   
 P. R. Horn and M. Head-Gordon, JCP, 143, 114111 (2015)         
Using eda2 option set 1
Option set summary: Frozen orbital wavefunction, initial wavefunction decomposition, and nDQ polarization.
--------------------------------
Printing EDA Options
--------------------------------
eda_child_super_basis      0
fragmo_guess_mode          0
child_mp                   1
child_mp_orders            232
cls_elec                   1
cls_disp                   0
scfmi_mode                 1
scfmi_occs                 0
scfmi_virts                0
frz_relax                  0
frz_relax_method           0
dc_pen_start               0
dc_pen_conv                0
dc_pen_increment           0
dc_pen_steps               0
dc_pen_thresh_factor       0
dc_pen_pre_newton_thresh   0
frz_ortho_decomp           1
frz_ortho_decomp_conv      6
frgm_method                2
scfmi_freeze_ss            0
separate_rehyb             0
plot_diff_den              0
eda_nocv                   0
eda_vct_relax              1
disp_free_x                0
disp_free_c                0
eda_bsse                   0
eda_pct_a                  0
eda_covp                   0
--------------------------------
Attempting to make child job directory: /tmp/qchem37832//Frg1/
Attempting to make child job directory: /tmp/qchem37832//Frg2/
Creating input file /tmp/qchem37832/Frg1.input
using default PutDataFrgm: nothing
calling putenv with: QCSCRATCH=/tmp/qchem37832/ 
calling putenv with: QCLOCALSCR=/tmp/qchem37832/ 
Spawning Job For Fragment 0
                  Welcome to Q-Chem
     A Quantum Leap Into The Future Of Chemistry


 Q-Chem 5.2, Q-Chem, Inc., Pleasanton, CA (2019)

 License issued to: National Energy Research Scientific Computing Center

 Yihan Shao,  Zhengting Gan,  E. Epifanovsky,  A. T. B. Gilbert,  M. Wormit,  
 J. Kussmann,  A. W. Lange,  A. Behn,  Jia Deng,  Xintian Feng,  D. Ghosh,  
 M. Goldey,  P. R. Horn,  L. D. Jacobson,  I. Kaliman,  T. Kus,  A. Landau,  
 Jie Liu,  E. I. Proynov,  R. M. Richard,  R. P. Steele,  E. J. Sundstrom,  
 H. L. Woodcock III,  P. M. Zimmerman,  D. Zuev,  B. Albrecht,  E. Alguire,  
 S. A. Baeppler,  D. Barton,  Z. Benda,  Y. A. Bernard,  E. J. Berquist,  
 K. B. Bravaya,  H. Burton,  D. Casanova,  Chun-Min Chang,  Yunqing Chen,  
 A. Chien,  K. D. Closser,  M. P. Coons,  S. Coriani,  S. Dasgupta,  
 A. L. Dempwolff,  M. Diedenhofen,  Hainam Do,  R. G. Edgar,  Po-Tung Fang,  
 S. Faraji,  S. Fatehi,  Qingguo Feng,  K. D. Fenk,  J. Fosso-Tande,  
 J. Gayvert,  Qinghui Ge,  A. Ghysels,  G. Gidofalvi,  J. Gomes,  
 J. Gonthier,  A. Gunina,  D. Hait,  M. W. D. Hanson-Heine,  
 P. H. P. Harbach,  A. W. Hauser,  M. F. Herbst,  J. E. Herr,  
 E. G. Hohenstein,  Z. C. Holden,  Kerwin Hui,  B. C. Huynh,  T.-C. Jagau,  
 Hyunjun Ji,  B. Kaduk,  K. Khistyaev,  Jaehoon Kim,  P. Klunzinger,  K. Koh,  
 D. Kosenkov,  L. Koulias,  T. Kowalczyk,  C. M. Krauter,  A. Kunitsa,  
 Ka Un Lao,  A. Laurent,  K. V. Lawler,  Joonho Lee,  D. Lefrancois,  
 S. Lehtola,  D. S. Levine,  Yi-Pei Li,  You-Sheng Lin,  Fenglai Liu,  
 E. Livshits,  A. Luenser,  P. Manohar,  E. Mansoor,  S. F. Manzer,  
 Shan-Ping Mao,  Yuezhi Mao,  N. Mardirossian,  A. V. Marenich,  
 T. Markovich,  L. A. Martinez-Martinez,  S. A. Maurer,  N. J. Mayhall,  
 S. C. McKenzie,  J.-M. Mewes,  P. Morgante,  A. F. Morrison,  
 J. W. Mullinax,  K. Nanda,  T. S. Nguyen-Beck,  R. Olivares-Amaya,  
 J. A. Parkhill,  Zheng Pei,  T. M. Perrine,  F. Plasser,  P. Pokhilko,  
 S. Prager,  A. Prociuk,  E. Ramos,  D. R. Rehn,  F. Rob,  M. Scheurer,  
 M. Schneider,  N. Sergueev,  S. M. Sharada,  S. Sharma,  D. W. Small,  
 T. Stauch,  T. Stein,  Yu-Chuan Su,  A. J. W. Thom,  A. Tkatchenko,  
 T. Tsuchimochi,  N. M. Tubman,  L. Vogt,  M. L. Vidal,  O. Vydrov,  
 M. A. Watson,  J. Wenzel,  M. de Wergifosse,  T. A. Wesolowski,  A. White,  
 J. Witte,  A. Yamada,  Jun Yang,  K. Yao,  S. Yeganeh,  S. R. Yost,  
 Zhi-Qiang You,  A. Zech,  Igor Ying Zhang,  Xing Zhang,  Yan Zhao,  
 Ying Zhu,  B. R. Brooks,  G. K. L. Chan,  C. J. Cramer,  M. S. Gordon,  
 W. J. Hehre,  A. Klamt,  M. W. Schmidt,  C. D. Sherrill,  D. G. Truhlar,  
 A. Aspuru-Guzik,  R. Baer,  A. T. Bell,  N. A. Besley,  Jeng-Da Chai,  
 A. E. DePrince, III,  R. A. DiStasio Jr.,  A. Dreuw,  B. D. Dunietz,  
 T. R. Furlani,  Chao-Ping Hsu,  Yousung Jung,  Jing Kong,  D. S. Lambrecht,  
 WanZhen Liang,  C. Ochsenfeld,  V. A. Rassolov,  L. V. Slipchenko,  
 J. E. Subotnik,  T. Van Voorhis,  J. M. Herbert,  A. I. Krylov,  
 P. M. W. Gill,  M. Head-Gordon

 Contributors to earlier versions of Q-Chem not listed above: 
 R. D. Adamson,  B. Austin,  J. Baker,  G. J. O. Beran,  K. Brandhorst,  
 S. T. Brown,  E. F. C. Byrd,  A. K. Chakraborty,  C.-L. Cheng,  
 Siu Hung Chien,  D. M. Chipman,  D. L. Crittenden,  H. Dachsel,  
 R. J. Doerksen,  A. D. Dutoi,  L. Fusti-Molnar,  W. A. Goddard III,  
 A. Golubeva-Zadorozhnaya,  S. R. Gwaltney,  G. Hawkins,  A. Heyden,  
 S. Hirata,  G. Kedziora,  F. J. Keil,  C. Kelley,  Jihan Kim,  R. A. King,  
 R. Z. Khaliullin,  P. P. Korambath,  W. Kurlancheek,  A. M. Lee,  M. S. Lee,  
 S. V. Levchenko,  Ching Yeh Lin,  D. Liotard,  R. C. Lochan,  I. Lotan,  
 P. E. Maslen,  N. Nair,  D. P. O'Neill,  D. Neuhauser,  E. Neuscamman,  
 C. M. Oana,  R. Olson,  B. Peters,  R. Peverati,  P. A. Pieniazek,  
 Y. M. Rhee,  J. Ritchie,  M. A. Rohrdanz,  E. Rosta,  N. J. Russ,  
 H. F. Schaefer III,  N. E. Schultz,  N. Shenvi,  A. C. Simmonett,  A. Sodt,  
 D. Stuck,  K. S. Thanthiriwatte,  V. Vanovschi,  Tao Wang,  A. Warshel,  
 C. F. Williams,  Q. Wu,  X. Xu,  W. Zhang

 Please cite Q-Chem as follows:
 Y. Shao et al., Mol. Phys. 113, 184-215 (2015)
 DOI: 10.1080/00268976.2014.952696

 Q-Chem 5.2.0 for Intel X86 EM64T Linux

 Parts of Q-Chem use Armadillo 8.300.2 (Tropical Shenanigans).
 http://arma.sourceforge.net/

 Q-Chem begins on Sun Sep 26 12:54:48 2021  

Host: cori01
0

     Scratch files written to /tmp/qchem37832//Frg1//
 May1019 |scratch|qcdevops|jenkins|workspace|build_RNUM -1
Processing $rem in /global/common/cori/software/qchem/5.2/config/preferences:
	 MEM_TOTAL  96000 
NAlpha2: 40
NElect   40
Mult     1
Symmetry turned off for PCM/SM12/SMD calculation

Checking the input file for inconsistencies... 	...done.

--------------------------------------------------------------
User input:
--------------------------------------------------------------
$molecule
1 1
 6	-2.3268531414	1.8401397327	-3.0420572621
 6	-1.1388531414	0.4671397327	-1.3330572621
 7	-1.1928531414	-0.1988602673	-0.2130572621
 7	-2.2408531414	1.0331397327	-1.8200572621
 7	0.0071468586	0.5671397327	-1.9710572621
 1	-2.0608531414	-0.6308602673	0.0159427379
 1	-0.3288531414	-0.6088602673	0.1649427379
 1	-3.0858531414	0.9221397327	-1.2690572621
 1	0.1131468586	1.1251397327	-2.7890572621
 1	0.8551468586	0.1481397327	-1.5590572621
 1	-1.3828531414	1.8371397327	-3.5870572621
 1	-2.5318531414	2.8811397327	-2.7760572621
 1	-3.1022231414	1.4618197327	-3.7244672621
$end
$rem
EDA2		1
METHOD		WB97X-V
BASIS		DEF2-TZVPD
XC_GRID		000099000590
NL_GRID		1
UNRESTRICTED		FALSE
MAX_SCF_CYCLES		200
SYMMETRY		FALSE
SYM_IGNORE		TRUE
BASIS_LIN_DEP_THRESH		6
THRESH		14
SCF_CONVERGENCE		8
SCF_PRINT_FRGM		TRUE
SOLVENT_METHOD		SMD
!required keywords
JOBTYPE		SP
SYM_IGNORE		TRUE
SUBSYSTEM		TRUE
GEN_SCFMAN		TRUE
CHILD_INSTRUCTION		2
SYM_IGNORE		TRUE
SCFMI		0
RI_K 0		
PARI_K 0		
MIN_PARI_K 0		
IARI_K 0		
OCC_RI_K 0		
PURECART		1111
MEM_STATIC		2000
MEM_TOTAL		96000
GUI		0
CHILD_MP		1
CHILD_MP_ORDERS		232
FRZ_RELAX		0
FRZ_RELAX_METHOD		0
EDA_CLS_ELEC		1
EDA_CLS_DISP		0
FRZ_ORTHO_DECOMP		1
EDA2		FALSE
FRGM_METHOD		FALSE
CIS_N_ROOTS  0
LOCAL_CIS    0
CIS_RLX_DNS  1
$end
$smx
SOLVENT			WATER
$end
--------------------------------------------------------------
 ----------------------------------------------------------------
             Standard Nuclear Orientation (Angstroms)
    I     Atom           X                Y                Z
 ----------------------------------------------------------------
    1      C      -2.3268531414     1.8401397327    -3.0420572621
    2      C      -1.1388531414     0.4671397327    -1.3330572621
    3      N      -1.1928531414    -0.1988602673    -0.2130572621
    4      N      -2.2408531414     1.0331397327    -1.8200572621
    5      N       0.0071468586     0.5671397327    -1.9710572621
    6      H      -2.0608531414    -0.6308602673     0.0159427379
    7      H      -0.3288531414    -0.6088602673     0.1649427379
    8      H      -3.0858531414     0.9221397327    -1.2690572621
    9      H       0.1131468586     1.1251397327    -2.7890572621
   10      H       0.8551468586     0.1481397327    -1.5590572621
   11      H      -1.3828531414     1.8371397327    -3.5870572621
   12      H      -2.5318531414     2.8811397327    -2.7760572621
   13      H      -3.1022231414     1.4618197327    -3.7244672621
 ----------------------------------------------------------------
 Nuclear Repulsion Energy =         194.34203360 hartrees
 There are       20 alpha and       20 beta electrons
 Requested basis set is def2-TZVPD
 There are 105 shells and 257 basis functions

 Total QAlloc Memory Limit  96000 MB
 Mega-Array Size      1956 MB
 MEM_STATIC part      2000 MB
 
 Citation of the SMD model:
 Marenich, A.V.; Cramer, C.J.; Truhlar, D.G.
 J. Phys. Chem. B 2009, 113, 6378-6396.
 iSolventCode=           1
 Solvent: water                                                           
 
 vradii
            1           2           3           4           5           6
    1   1.8500000   1.8500000   1.8900000   1.8900000   1.8900000   1.2000000
            7           8           9          10          11          12
    1   1.2000000   1.2000000   1.2000000   1.2000000   1.2000000   1.2000000
           13
    1   1.2000000
 Changing PCM_VDW_RADII to SMD_RADIUS
 Discretize the solute cavity surface with Lebedev spheres
	Using 110 Lebedev grid points for each H atom
	Using 194 Lebedev grid points for other atoms
	Atomic van der Waals radii will be scaled by 1.20
 Remove points where switching function is < 1.0e-08
 Keep 914 surface tesserae and discard 936 interior tesserae
 Molecular Surface Area = 113.307 Angst**2

                       Distance Matrix (Angstroms)
             C (  1)   C (  2)   N (  3)   N (  4)   N (  5)   H (  6)
   C (  2)  2.493422
   N (  3)  3.666977  1.304175
   N (  4)  1.466945  1.331138  2.280039
   N (  5)  2.866204  1.315431  2.262149  2.300752
   H (  6)  3.940553  1.968626  0.996237  2.484390  3.108054
   H (  7)  4.502716  2.014418  1.028338  3.208135  2.461375  1.738536
   H (  8)  2.135962  2.000482  2.440333  1.014863  3.191470  2.261340
   H (  9)  2.555158  2.029878  3.177167  2.547301  0.995853  3.959525
   H ( 10)  3.897086  2.031963  2.475162  3.230567  1.031702  3.404486
   H ( 11)  1.090032  2.648953  3.945285  2.122468  2.481221  4.419538
   H ( 12)  1.093829  3.138486  4.224724  2.100886  3.528334  4.511236
   H ( 13)  1.100004  3.250085  4.328227  2.133659  3.680092  4.410717
             H (  7)   H (  8)   H (  9)   H ( 10)   H ( 11)   H ( 12)
   H (  8)  3.464299
   H (  9)  3.453728  3.547564
   H ( 10)  2.224203  4.026743  1.737237
   H ( 11)  4.601232  3.018370  1.838957  3.460368
   H ( 12)  5.067819  2.532913  3.174859  4.519087  1.751530
   H ( 13)  5.206420  2.514073  3.365553  4.698461  1.765214  1.799798

 
 A cutoff of  1.0D-14 yielded   5441 shell pairs
 There are     33171 function pairs (     41505 Cartesian)
 Smallest overlap matrix eigenvalue = 1.50E-05

 Scale SEOQF with 1.000000e-01/1.000000e-01/1.000000e-01

 Standard Electronic Orientation quadrupole field applied
 Nucleus-field energy     =    -0.0000000098 hartrees
 Guess from superposition of atomic densities
 Warning:  Energy on first SCF cycle will be non-variational
 SAD guess density has 40.388232 electrons

 -----------------------------------------------------------------------
  General SCF calculation program by
  Eric Jon Sundstrom, Paul Horn, Yuezhi Mao, Dmitri Zuev, Alec White,
  David Stuck, Shaama M.S., Shane Yost, Joonho Lee, David Small,
  Daniel Levine, Susi Lehtola, Hugh Burton, Evgeny Epifanovsky
 -----------------------------------------------------------------------
 Exchange:     0.1670 Hartree-Fock + 1.0000 wB97X-V + LR-HF
 Correlation:  1.0000 wB97X-V
 Using Euler-Maclaurin-Lebedev (99,590) quadrature formula
 Nonlocal Correlation:  VV10 with C = 0.0100 and b = 6.00 and scale = 1.00000
 Grid used for NLC:  SG-1 standard quadrature
Energy prior to optimization (guess energy) = -244.718797205471
Begin Timing: Total SCF Calculation
begin iterations for algorithm: DIIS         
the SCF tolerance is set to 1.00e-08
    1    -244.7187972055      7.94e-03     00000 
    2    -244.9587401582      6.24e-03     00000 
    3    -245.2000241851      3.35e-04     00000 
    4    -245.2010190179      1.78e-04     00000 
    5    -245.2012693161      4.95e-05     00000 
    6    -245.2012917836      1.95e-05     00000 
    7    -245.2012952029      3.89e-06     00000 
    8    -245.2012954762      1.09e-06     00000 
    9    -245.2012954980      5.17e-07     00000 
   10    -245.2012955017      1.49e-07     00000 
   11    -245.2012955022      6.31e-08     00000 
   12    -245.2012955022      1.69e-08     00000 
   13    -245.2012955023      2.77e-09     00000 Convergence criterion met
Timing for Total SCF: 741.00s (wall), 1469.46s (cpu)
(3)  G-ENP(liq) elect-nuc-pol free energy of system     -245.201295502 a.u.
(4)  G-CDS(liq) cavity-dispersion-solvent structure 
     free energy                                                2.8486 kcal/mol
(6)  G-S(liq) free energy of system                     -245.196755937 a.u.
E_pcm = -0.1088732831
E_cds = 0.0045395648
Multipole orders to be included
        2
        3
computing dipole RHS
computing quadrupole RHS
total number of RHS in solve_reponses: 8
RHS batch sizes
        8
Beginning Block Conjugate Gradient Iterations. Batch Number: 0
computing hessian-vector products by finite difference
              1      4.91e-01     00000 Conjugate Gradient Iteration
computing hessian-vector products by finite difference
              2      1.91e-01     00000 Conjugate Gradient Iteration
computing hessian-vector products by finite difference
              3      5.18e-02     00000 Conjugate Gradient Iteration
computing hessian-vector products by finite difference
              4      1.34e-02     00000 Conjugate Gradient Iteration
computing hessian-vector products by finite difference
              5      1.89e-03     00000 Conjugate Gradient Iteration
computing hessian-vector products by finite difference
              6      3.00e-04     00000 Conjugate Gradient Iteration
computing hessian-vector products by finite difference
              7      4.51e-05     00000 Conjugate Gradient Iteration
computing hessian-vector products by finite difference
              8      6.53e-06     00000 Conjugate Gradient Iteration
computing hessian-vector products by finite difference
              9      9.67e-07     00000 Conjugate Gradient Iteration
computing hessian-vector products by finite difference
             10      1.19e-07     00000 Conjugate Gradient Iteration
computing hessian-vector products by finite difference
             11      1.57e-08     00000 Conjugate Gradient Iteration
computing hessian-vector products by finite difference
             12      1.78e-09     00000 CG Converged
batch 0 complete
Done Calculating Responses
TESTING ORTHOGONALIZATION OF MULTIPOLE BASIS
Multipole virts passed orthogonality test
Virts Per Order
           60
          100
 
 --------------------------------------------------------------
 
                    Orbital Energies (a.u.)
 --------------------------------------------------------------
 
 Alpha MOs
 -- Occupied --
-14.4555 -14.4481 -14.4443 -10.4211 -10.3063  -1.1758  -1.0552  -1.0443
 -0.8522  -0.7654  -0.7223  -0.6873  -0.6237  -0.6084  -0.5861  -0.5710
 -0.5272  -0.5053  -0.4021  -0.3760
 -- Virtual --
  0.0586   0.0853   0.0991   0.1009   0.1242   0.1291   0.1394   0.1508
  0.1732   0.1832   0.1909   0.1979   0.2021   0.2128   0.2223   0.2339
  0.2428   0.2462   0.2480   0.2693   0.2814   0.2917   0.3049   0.3091
  0.3130   0.3141   0.3165   0.3260   0.3350   0.3496   0.3527   0.3631
  0.3685   0.3707   0.3789   0.3880   0.4108   0.4175   0.4223   0.4305
  0.4386   0.4467   0.4570   0.4710   0.4764   0.4842   0.4926   0.5060
  0.5126   0.5176   0.5251   0.5283   0.5361   0.5439   0.5514   0.5566
  0.5620   0.5734   0.5865   0.5966   0.6001   0.6343   0.6382   0.6539
  0.6619   0.6793   0.6980   0.7056   0.7191   0.7240   0.7462   0.7686
  0.7994   0.8088   0.8117   0.8189   0.8338   0.8417   0.8574   0.8633
  0.8801   0.8834   0.8972   0.9312   0.9409   0.9588   0.9823   0.9978
  1.0184   1.0559   1.0664   1.0874   1.1064   1.1138   1.1226   1.1557
  1.1712   1.2011   1.2296   1.2438   1.2810   1.3413   1.3815   1.4338
  1.4400   1.4417   1.4877   1.5045   1.5704   1.6077   1.6444   1.6580
  1.6948   1.7169   1.7485   1.7603   1.8119   1.8396   1.8744   1.8863
  1.9018   1.9161   1.9536   1.9758   2.0014   2.0223   2.0349   2.0672
  2.0868   2.1021   2.1139   2.1995   2.2302   2.2319   2.2490   2.2764
  2.3307   2.3742   2.3795   2.4138   2.4508   2.4947   2.5105   2.5464
  2.5883   2.6010   2.6058   2.6402   2.6440   2.6768   2.7148   2.7319
  2.7413   2.8342   2.8401   2.8668   2.8946   2.9215   2.9339   2.9668
  3.0583   3.1050   3.1345   3.1522   3.1616   3.2192   3.2305   3.2469
  3.2818   3.2925   3.3005   3.3289   3.3632   3.3757   3.4431   3.4625
  3.4798   3.5022   3.5242   3.5729   3.6439   3.6895   3.7212   3.7357
  3.7718   3.8923   3.9045   3.9358   3.9723   4.0891   4.1364   4.2156
  4.2720   4.2939   4.3549   4.4218   4.5248   4.5603   4.5835   4.6321
  4.6673   4.8233   4.8592   4.8946   4.9183   4.9877   5.0011   5.0489
  5.0973   5.1219   5.1475   5.1867   5.2019   5.2381   5.2828   5.3214
  5.3799   5.3979   5.4698   5.4763   5.4916   5.5566   5.5981   5.6474
  5.6953   5.7426   5.8094   5.9257   6.1462   6.1970   6.3450   6.5027
 22.6429  23.6847  32.3412  32.4512  32.8265
 --------------------------------------------------------------
 
          Ground-State Mulliken Net Atomic Charges

     Atom                 Charge (a.u.)
  ----------------------------------------
      1 C                    -0.745843
      2 C                     0.444742
      3 N                    -0.316099
      4 N                    -0.124456
      5 N                    -0.269360
      6 H                     0.270163
      7 H                     0.277853
      8 H                     0.250390
      9 H                     0.153320
     10 H                     0.259187
     11 H                     0.293349
     12 H                     0.251443
     13 H                     0.255311
  ----------------------------------------
  Sum of atomic charges =     1.000000

 -----------------------------------------------------------------
                    Cartesian Multipole Moments
 -----------------------------------------------------------------
    Charge (ESU x 10^10)
                 4.8032
    Dipole Moment (Debye)
         X      -5.5116      Y       2.1182      Z      -7.1601
       Tot       9.2807
    Quadrupole Moments (Debye-Ang)
        XX      -9.6936     XY      -4.8250     YY     -24.6343
        XZ       7.9983     YZ     -11.3409     ZZ     -11.1075
    Octopole Moments (Debye-Ang^2)
       XXX      70.3415    XXY      -8.8448    XYY      30.7823
       YYY     -61.6329    XXZ      22.8549    XYZ      16.7018
       YYZ      36.7990    XZZ      20.4799    YZZ       9.0298
       ZZZ      99.2659
    Hexadecapole Moments (Debye-Ang^3)
      XXXX    -370.7089   XXXY      90.3265   XXYY    -102.9669
      XYYY     114.2816   YYYY    -225.0440   XXXZ    -167.9327
      XXYZ      18.8108   XYYZ     -54.6003   YYYZ     157.5345
      XXZZ    -145.8528   XYZZ       0.6584   YYZZ    -118.8235
      XZZZ    -175.5076   YZZZ      85.3476   ZZZZ    -580.6727
 -----------------------------------------------------------------
Archival summary:
1\1\nid00506\SP\ProcedureUnspecified\BasisUnspecified\328(1+,1)\meili\SunSep2616:27:502021SunSep2616:27:502021\0\\#,ProcedureUnspecified,BasisUnspecified,\\1,1\C\N,1,1.30417\H,2,0.996237,1,117.06\H,2,1.02834,1,118.979,3,153.152,0\N,1,1.31543,2,119.433,3,-151.246,0\H,5,0.995853,1,122.257,2,-174.974,0\H,5,1.0317,1,119.44,2,-2.31455,0\N,1,1.33114,2,119.805,3,28.5242,0\H,8,1.01486,1,116.37,2,0.825098,0\C,8,1.46695,1,125.959,2,178.193,0\H,10,1.09003,8,111.359,1,6.44617,0\H,10,1.09383,8,109.388,1,-111.184,0\H,10,1.1,8,111.648,1,126.513,0\\\@

 Total job time:  12782.07s(wall), 25345.72s(cpu) 
 Sun Sep 26 16:27:50 2021

        *************************************************************
        *                                                           *
        *  Thank you very much for using Q-Chem.  Have a nice day.  *
        *                                                           *
        *************************************************************


Done Job For Fragment 0
calling putenv with: QCSCRATCH=/global/cscratch1/sd/meili 
calling putenv with: QCLOCALSCR=/tmp 
calling putenv with: QCTHREADS=32 
Creating input file /tmp/qchem37832/Frg2.input
using default PutDataFrgm: nothing
calling putenv with: QCSCRATCH=/tmp/qchem37832/ 
calling putenv with: QCLOCALSCR=/tmp/qchem37832/ 
Spawning Job For Fragment 1
                  Welcome to Q-Chem
     A Quantum Leap Into The Future Of Chemistry


 Q-Chem 5.2, Q-Chem, Inc., Pleasanton, CA (2019)

 License issued to: National Energy Research Scientific Computing Center

 Yihan Shao,  Zhengting Gan,  E. Epifanovsky,  A. T. B. Gilbert,  M. Wormit,  
 J. Kussmann,  A. W. Lange,  A. Behn,  Jia Deng,  Xintian Feng,  D. Ghosh,  
 M. Goldey,  P. R. Horn,  L. D. Jacobson,  I. Kaliman,  T. Kus,  A. Landau,  
 Jie Liu,  E. I. Proynov,  R. M. Richard,  R. P. Steele,  E. J. Sundstrom,  
 H. L. Woodcock III,  P. M. Zimmerman,  D. Zuev,  B. Albrecht,  E. Alguire,  
 S. A. Baeppler,  D. Barton,  Z. Benda,  Y. A. Bernard,  E. J. Berquist,  
 K. B. Bravaya,  H. Burton,  D. Casanova,  Chun-Min Chang,  Yunqing Chen,  
 A. Chien,  K. D. Closser,  M. P. Coons,  S. Coriani,  S. Dasgupta,  
 A. L. Dempwolff,  M. Diedenhofen,  Hainam Do,  R. G. Edgar,  Po-Tung Fang,  
 S. Faraji,  S. Fatehi,  Qingguo Feng,  K. D. Fenk,  J. Fosso-Tande,  
 J. Gayvert,  Qinghui Ge,  A. Ghysels,  G. Gidofalvi,  J. Gomes,  
 J. Gonthier,  A. Gunina,  D. Hait,  M. W. D. Hanson-Heine,  
 P. H. P. Harbach,  A. W. Hauser,  M. F. Herbst,  J. E. Herr,  
 E. G. Hohenstein,  Z. C. Holden,  Kerwin Hui,  B. C. Huynh,  T.-C. Jagau,  
 Hyunjun Ji,  B. Kaduk,  K. Khistyaev,  Jaehoon Kim,  P. Klunzinger,  K. Koh,  
 D. Kosenkov,  L. Koulias,  T. Kowalczyk,  C. M. Krauter,  A. Kunitsa,  
 Ka Un Lao,  A. Laurent,  K. V. Lawler,  Joonho Lee,  D. Lefrancois,  
 S. Lehtola,  D. S. Levine,  Yi-Pei Li,  You-Sheng Lin,  Fenglai Liu,  
 E. Livshits,  A. Luenser,  P. Manohar,  E. Mansoor,  S. F. Manzer,  
 Shan-Ping Mao,  Yuezhi Mao,  N. Mardirossian,  A. V. Marenich,  
 T. Markovich,  L. A. Martinez-Martinez,  S. A. Maurer,  N. J. Mayhall,  
 S. C. McKenzie,  J.-M. Mewes,  P. Morgante,  A. F. Morrison,  
 J. W. Mullinax,  K. Nanda,  T. S. Nguyen-Beck,  R. Olivares-Amaya,  
 J. A. Parkhill,  Zheng Pei,  T. M. Perrine,  F. Plasser,  P. Pokhilko,  
 S. Prager,  A. Prociuk,  E. Ramos,  D. R. Rehn,  F. Rob,  M. Scheurer,  
 M. Schneider,  N. Sergueev,  S. M. Sharada,  S. Sharma,  D. W. Small,  
 T. Stauch,  T. Stein,  Yu-Chuan Su,  A. J. W. Thom,  A. Tkatchenko,  
 T. Tsuchimochi,  N. M. Tubman,  L. Vogt,  M. L. Vidal,  O. Vydrov,  
 M. A. Watson,  J. Wenzel,  M. de Wergifosse,  T. A. Wesolowski,  A. White,  
 J. Witte,  A. Yamada,  Jun Yang,  K. Yao,  S. Yeganeh,  S. R. Yost,  
 Zhi-Qiang You,  A. Zech,  Igor Ying Zhang,  Xing Zhang,  Yan Zhao,  
 Ying Zhu,  B. R. Brooks,  G. K. L. Chan,  C. J. Cramer,  M. S. Gordon,  
 W. J. Hehre,  A. Klamt,  M. W. Schmidt,  C. D. Sherrill,  D. G. Truhlar,  
 A. Aspuru-Guzik,  R. Baer,  A. T. Bell,  N. A. Besley,  Jeng-Da Chai,  
 A. E. DePrince, III,  R. A. DiStasio Jr.,  A. Dreuw,  B. D. Dunietz,  
 T. R. Furlani,  Chao-Ping Hsu,  Yousung Jung,  Jing Kong,  D. S. Lambrecht,  
 WanZhen Liang,  C. Ochsenfeld,  V. A. Rassolov,  L. V. Slipchenko,  
 J. E. Subotnik,  T. Van Voorhis,  J. M. Herbert,  A. I. Krylov,  
 P. M. W. Gill,  M. Head-Gordon

 Contributors to earlier versions of Q-Chem not listed above: 
 R. D. Adamson,  B. Austin,  J. Baker,  G. J. O. Beran,  K. Brandhorst,  
 S. T. Brown,  E. F. C. Byrd,  A. K. Chakraborty,  C.-L. Cheng,  
 Siu Hung Chien,  D. M. Chipman,  D. L. Crittenden,  H. Dachsel,  
 R. J. Doerksen,  A. D. Dutoi,  L. Fusti-Molnar,  W. A. Goddard III,  
 A. Golubeva-Zadorozhnaya,  S. R. Gwaltney,  G. Hawkins,  A. Heyden,  
 S. Hirata,  G. Kedziora,  F. J. Keil,  C. Kelley,  Jihan Kim,  R. A. King,  
 R. Z. Khaliullin,  P. P. Korambath,  W. Kurlancheek,  A. M. Lee,  M. S. Lee,  
 S. V. Levchenko,  Ching Yeh Lin,  D. Liotard,  R. C. Lochan,  I. Lotan,  
 P. E. Maslen,  N. Nair,  D. P. O'Neill,  D. Neuhauser,  E. Neuscamman,  
 C. M. Oana,  R. Olson,  B. Peters,  R. Peverati,  P. A. Pieniazek,  
 Y. M. Rhee,  J. Ritchie,  M. A. Rohrdanz,  E. Rosta,  N. J. Russ,  
 H. F. Schaefer III,  N. E. Schultz,  N. Shenvi,  A. C. Simmonett,  A. Sodt,  
 D. Stuck,  K. S. Thanthiriwatte,  V. Vanovschi,  Tao Wang,  A. Warshel,  
 C. F. Williams,  Q. Wu,  X. Xu,  W. Zhang

 Please cite Q-Chem as follows:
 Y. Shao et al., Mol. Phys. 113, 184-215 (2015)
 DOI: 10.1080/00268976.2014.952696

 Q-Chem 5.2.0 for Intel X86 EM64T Linux

 Parts of Q-Chem use Armadillo 8.300.2 (Tropical Shenanigans).
 http://arma.sourceforge.net/

 Q-Chem begins on Sun Sep 26 16:27:51 2021  

Host: cori01
0

     Scratch files written to /tmp/qchem37832//Frg2//
 May1019 |scratch|qcdevops|jenkins|workspace|build_RNUM -1
Processing $rem in /global/common/cori/software/qchem/5.2/config/preferences:
	 MEM_TOTAL  96000 
NAlpha2: 32
NElect   32
Mult     1
Symmetry turned off for PCM/SM12/SMD calculation

Checking the input file for inconsistencies... 	...done.

--------------------------------------------------------------
User input:
--------------------------------------------------------------
$molecule
-1 1
 6	1.9821468586	0.4961397327	2.1949427379
 6	1.7181468586	-0.9968602673	2.0909427379
 8	0.6081468586	-1.3698602673	1.6229427379
 8	2.5581468586	-1.8258602673	2.5079427379
 1	1.4851468586	0.8881397327	3.0859427379
 1	1.5491468586	0.9821397327	1.3179427379
 1	3.0551468586	0.7301297327	2.2576327379
$end
$rem
EDA2		1
METHOD		WB97X-V
BASIS		DEF2-TZVPD
XC_GRID		000099000590
NL_GRID		1
UNRESTRICTED		FALSE
MAX_SCF_CYCLES		200
SYMMETRY		FALSE
SYM_IGNORE		TRUE
BASIS_LIN_DEP_THRESH		6
THRESH		14
SCF_CONVERGENCE		8
SCF_PRINT_FRGM		TRUE
SOLVENT_METHOD		SMD
!required keywords
JOBTYPE		SP
SYM_IGNORE		TRUE
SUBSYSTEM		TRUE
GEN_SCFMAN		TRUE
CHILD_INSTRUCTION		2
SYM_IGNORE		TRUE
SCFMI		0
RI_K 0		
PARI_K 0		
MIN_PARI_K 0		
IARI_K 0		
OCC_RI_K 0		
PURECART		1111
MEM_STATIC		2000
MEM_TOTAL		96000
GUI		0
CHILD_MP		1
CHILD_MP_ORDERS		232
FRZ_RELAX		0
FRZ_RELAX_METHOD		0
EDA_CLS_ELEC		1
EDA_CLS_DISP		0
FRZ_ORTHO_DECOMP		1
EDA2		FALSE
FRGM_METHOD		FALSE
CIS_N_ROOTS  0
LOCAL_CIS    0
CIS_RLX_DNS  1
$end
$smx
SOLVENT			WATER
$end
--------------------------------------------------------------
 ----------------------------------------------------------------
             Standard Nuclear Orientation (Angstroms)
    I     Atom           X                Y                Z
 ----------------------------------------------------------------
    1      C       1.9821468586     0.4961397327     2.1949427379
    2      C       1.7181468586    -0.9968602673     2.0909427379
    3      O       0.6081468586    -1.3698602673     1.6229427379
    4      O       2.5581468586    -1.8258602673     2.5079427379
    5      H       1.4851468586     0.8881397327     3.0859427379
    6      H       1.5491468586     0.9821397327     1.3179427379
    7      H       3.0551468586     0.7301297327     2.2576327379
 ----------------------------------------------------------------
 Nuclear Repulsion Energy =         112.42045026 hartrees
 There are       16 alpha and       16 beta electrons
 Requested basis set is def2-TZVPD
 There are 69 shells and 181 basis functions

 Total QAlloc Memory Limit  96000 MB
 Mega-Array Size      1956 MB
 MEM_STATIC part      2000 MB
 
 Citation of the SMD model:
 Marenich, A.V.; Cramer, C.J.; Truhlar, D.G.
 J. Phys. Chem. B 2009, 113, 6378-6396.
 iSolventCode=           1
 Solvent: water                                                           
 
 vradii
            1           2           3           4           5           6
    1   1.8500000   1.8500000   1.5200000   1.5200000   1.2000000   1.2000000
            7
    1   1.2000000
 Changing PCM_VDW_RADII to SMD_RADIUS
 Discretize the solute cavity surface with Lebedev spheres
	Using 110 Lebedev grid points for each H atom
	Using 194 Lebedev grid points for other atoms
	Atomic van der Waals radii will be scaled by 1.20
 Remove points where switching function is < 1.0e-08
 Keep 650 surface tesserae and discard 456 interior tesserae
 Molecular Surface Area = 80.140 Angst**2

                       Distance Matrix (Angstroms)
             C (  1)   C (  2)   O (  3)   O (  4)   H (  5)   H (  6)
   C (  2)  1.519724
   O (  3)  2.386842  1.261052
   O (  4)  2.412764  1.251691  2.189443
   H (  5)  1.092957  2.144187  2.829852  2.975098
   H (  6)  1.092160  2.131321  2.551551  3.212327  1.771653
   H (  7)  1.100005  2.190399  3.286426  2.615865  1.782124  1.792920

 
 A cutoff of  1.0D-14 yielded   2391 shell pairs
 There are     16695 function pairs (     21491 Cartesian)
 Smallest overlap matrix eigenvalue = 1.66E-05

 Scale SEOQF with 1.000000e-01/1.000000e-01/1.000000e-01

 Standard Electronic Orientation quadrupole field applied
 Nucleus-field energy     =    -0.0000000077 hartrees
 Guess from superposition of atomic densities
 Warning:  Energy on first SCF cycle will be non-variational
 SAD guess density has 30.625312 electrons

 -----------------------------------------------------------------------
  General SCF calculation program by
  Eric Jon Sundstrom, Paul Horn, Yuezhi Mao, Dmitri Zuev, Alec White,
  David Stuck, Shaama M.S., Shane Yost, Joonho Lee, David Small,
  Daniel Levine, Susi Lehtola, Hugh Burton, Evgeny Epifanovsky
 -----------------------------------------------------------------------
 Exchange:     0.1670 Hartree-Fock + 1.0000 wB97X-V + LR-HF
 Correlation:  1.0000 wB97X-V
 Using Euler-Maclaurin-Lebedev (99,590) quadrature formula
 Nonlocal Correlation:  VV10 with C = 0.0100 and b = 6.00 and scale = 1.00000
 Grid used for NLC:  SG-1 standard quadrature
Energy prior to optimization (guess energy) = -227.752434716036
Begin Timing: Total SCF Calculation
begin iterations for algorithm: DIIS         
the SCF tolerance is set to 1.00e-08
    1    -227.7524347160      1.67e-02     00000 
    2    -225.5631516333      2.52e-02     00000 
    3    -228.6060792353      4.08e-03     00000 
    4    -228.6590510224      1.40e-03     00000 
    5    -228.6650742185      2.89e-04     00000 
    6    -228.6653439471      2.05e-04     00000 
    7    -228.6654553138      5.08e-05     00000 
    8    -228.6654654741      1.37e-05     00000 
    9    -228.6654666441      3.88e-06     00000 
   10    -228.6654667574      1.13e-06     00000 
   11    -228.6654667676      2.21e-07     00000 
   12    -228.6654667680      4.74e-08     00000 
   13    -228.6654667680      1.11e-08     00000 
   14    -228.6654667680      2.84e-09     00000 Convergence criterion met
Timing for Total SCF: 278.00s (wall), 543.66s (cpu)
(3)  G-ENP(liq) elect-nuc-pol free energy of system     -228.665466768 a.u.
(4)  G-CDS(liq) cavity-dispersion-solvent structure 
     free energy                                                3.8804 kcal/mol
(6)  G-S(liq) free energy of system                     -228.659282949 a.u.
E_pcm = -0.1322886651
E_cds = 0.0061838187
Multipole orders to be included
        2
        3
computing dipole RHS
computing quadrupole RHS
total number of RHS in solve_reponses: 8
RHS batch sizes
        8
Beginning Block Conjugate Gradient Iterations. Batch Number: 0
computing hessian-vector products by finite difference
              1      7.33e-01     00000 Conjugate Gradient Iteration
computing hessian-vector products by finite difference
              2      2.28e-01     00000 Conjugate Gradient Iteration
computing hessian-vector products by finite difference
              3      6.35e-02     00000 Conjugate Gradient Iteration
computing hessian-vector products by finite difference
              4      1.71e-02     00000 Conjugate Gradient Iteration
computing hessian-vector products by finite difference
              5      2.50e-03     00000 Conjugate Gradient Iteration
computing hessian-vector products by finite difference
              6      6.58e-04     00000 Conjugate Gradient Iteration
computing hessian-vector products by finite difference
              7      9.43e-05     00000 Conjugate Gradient Iteration
computing hessian-vector products by finite difference
              8      1.15e-05     00000 Conjugate Gradient Iteration
computing hessian-vector products by finite difference
              9      1.78e-06     00000 Conjugate Gradient Iteration
computing hessian-vector products by finite difference
             10      1.78e-07     00000 Conjugate Gradient Iteration
computing hessian-vector products by finite difference
             11      2.23e-08     00000 Conjugate Gradient Iteration
computing hessian-vector products by finite difference
             12      2.95e-09     00000 CG Converged
batch 0 complete
Done Calculating Responses
TESTING ORTHOGONALIZATION OF MULTIPOLE BASIS
Multipole virts passed orthogonality test
Virts Per Order
        48
        80
 
 --------------------------------------------------------------
 
                    Orbital Energies (a.u.)
 --------------------------------------------------------------
 
 Alpha MOs
 -- Occupied --
-19.1542 -19.1512 -10.3555 -10.2489  -1.1639  -1.0614  -0.8421  -0.6179
 -0.5476  -0.5452  -0.5414  -0.4819  -0.4628  -0.3642  -0.3603  -0.3427
 -- Virtual --
  0.0670   0.1000   0.1006   0.1069   0.1352   0.1422   0.1459   0.1510
  0.1558   0.1896   0.2050   0.2209   0.2355   0.2384   0.2587   0.2659
  0.2993   0.3128   0.3331   0.3482   0.3548   0.3637   0.3713   0.3783
  0.3826   0.4031   0.4177   0.4219   0.4293   0.4531   0.4664   0.4731
  0.4837   0.4901   0.5013   0.5095   0.5502   0.5590   0.5757   0.5969
  0.6218   0.6257   0.6318   0.6423   0.6501   0.6660   0.6874   0.6899
  0.7052   0.7214   0.7788   0.7915   0.8012   0.8100   0.8333   0.8427
  0.8582   0.9610   0.9762   0.9873   0.9912   1.0217   1.0475   1.0878
  1.1317   1.2053   1.2358   1.2568   1.2654   1.2993   1.3381   1.3681
  1.4252   1.5294   1.5797   1.7337   1.8005   1.8510   1.8617   1.9019
  1.9128   1.9323   1.9463   1.9542   2.0017   2.0849   2.1128   2.1617
  2.1919   2.2075   2.2930   2.3271   2.4091   2.4212   2.4546   2.4668
  2.5532   2.5782   2.6166   2.6350   2.7831   2.8143   2.8453   2.9037
  2.9318   3.0057   3.0423   3.1279   3.2057   3.2328   3.2538   3.2734
  3.3337   3.3386   3.3637   3.3921   3.4032   3.5076   3.5555   3.5719
  3.5799   3.6594   3.6859   3.7150   3.7258   3.8305   3.9468   4.0362
  4.0745   4.1778   4.3123   4.5698   4.5945   4.6618   4.7887   4.7900
  4.9747   5.2974   5.3245   5.3308   5.3413   5.4535   5.6680   5.7495
  5.7775   5.9937   6.1828   6.3034   6.3274   6.5639   6.5972   6.6978
  6.7119   6.7270   6.9073   6.9504   7.0048   7.2144   7.2891   7.3512
  7.3748  22.5771  23.6736  44.1907  44.3308
 --------------------------------------------------------------
 
          Ground-State Mulliken Net Atomic Charges

     Atom                 Charge (a.u.)
  ----------------------------------------
      1 C                    -0.588149
      2 C                     0.503002
      3 O                    -0.784478
      4 O                    -0.768837
      5 H                     0.198510
      6 H                     0.213544
      7 H                     0.226409
  ----------------------------------------
  Sum of atomic charges =    -1.000000

 -----------------------------------------------------------------
                    Cartesian Multipole Moments
 -----------------------------------------------------------------
    Charge (ESU x 10^10)
                -4.8032
    Dipole Moment (Debye)
         X      -7.0811      Y      10.0484      Z      -9.7239
       Tot      15.6737
    Quadrupole Moments (Debye-Ang)
        XX     -44.1787     XY      17.2606     YY     -44.1546
        XZ     -18.3110     YZ      21.5436     ZZ     -46.4244
    Octopole Moments (Debye-Ang^2)
       XXX    -185.8272    XXY      64.4681    XYY     -78.6260
       YYY      99.8681    XXZ    -104.5732    XYZ      42.8933
       YYZ     -94.7290    XZZ     -91.9982    YZZ      70.9094
       ZZZ    -208.6538
    Hexadecapole Moments (Debye-Ang^3)
      XXXX    -724.2905   XXXY     225.3275   XXYY    -227.1984
      XYYY     174.7105   YYYY    -357.3593   XXXZ    -441.8437
      XXYZ     156.2483   XYYZ    -183.8304   YYYZ     214.4443
      XXZZ    -355.0807   XYZZ     144.4637   YYZZ    -262.9172
      XZZZ    -424.2838   YZZZ     255.2597   ZZZZ    -841.5323
 -----------------------------------------------------------------
Archival summary:
1\1\nid00506\SP\ProcedureUnspecified\BasisUnspecified\223(1-,1)\meili\SunSep2617:44:472021SunSep2617:44:472021\0\\#,ProcedureUnspecified,BasisUnspecified,\\-1,1\C\O,1,1.25169\O,1,1.26105,2,121.228\C,1,1.51972,2,120.749,3,177.108,0\H,4,1.09216,1,108.261,2,144.946,0\H,4,1.09296,1,109.217,2,-97.2797,0\H,4,1.1,1,112.478,2,23.511,0\\\@

 Total job time:  4616.76s(wall), 8965.15s(cpu) 
 Sun Sep 26 17:44:48 2021

        *************************************************************
        *                                                           *
        *  Thank you very much for using Q-Chem.  Have a nice day.  *
        *                                                           *
        *************************************************************


Done Job For Fragment 1
calling putenv with: QCSCRATCH=/global/cscratch1/sd/meili 
calling putenv with: QCLOCALSCR=/tmp 
calling putenv with: QCTHREADS=32 
Doing General SCFMI
 Exchange:     0.1670 Hartree-Fock + 1.0000 wB97X-V + LR-HF
 Correlation:  1.0000 wB97X-V
 Using Euler-Maclaurin-Lebedev (99,590) quadrature formula
 Nonlocal Correlation:  VV10 with C = 0.0100 and b = 6.00 and scale = 1.00000
 Grid used for NLC:  SG-1 standard quadrature
performing fock build before subrot guess so that all methods have access
Printing subrot_rss_gen Method Specification:
Occupied Subspace Method is 0
Virtual Subspace Method is 0
Energy of the unrelaxed supersystem initial determinant -473.747157306380
performing fock build before subrot guess so that all methods have access
Printing subrot_rss_gen Method Specification:
Occupied Subspace Method is 0
Virtual Subspace Method is 0
Energy of the unrelaxed supersystem initial determinant w/ solvent -473.867441686331
write pseudocanon occs and virts to disk
write pseudocanon orbital energies to disk
Tolerance of ortho_decomp_scf: 1.00e-06
GDM subspace size: 20
Beginning the Orthogonal Decomposition of the Initial Supersystem Wavefunction
    1    -473.5746404048      7.97e-02     ortho_decomp Preconditoned Steepest Descent
    2    -473.5840983074      2.06e-03     ortho_decomp BFGS Step
    3    -473.5841337462      1.85e-04     ortho_decomp BFGS Step
    4    -473.5841338337      8.26e-06     ortho_decomp BFGS Step
    5    -473.5841338340      2.70e-07     ortho_decomp 00000 Convergence criterion met
 Hartree-Fock
 Hartree-Fock
 Hartree-Fock
Doing General SCFMI
 Exchange:     0.1670 Hartree-Fock + 1.0000 wB97X-V + LR-HF
 Correlation:  1.0000 wB97X-V
 Using Euler-Maclaurin-Lebedev (99,590) quadrature formula
 Nonlocal Correlation:  VV10 with C = 0.0100 and b = 6.00 and scale = 1.00000
 Grid used for NLC:  SG-1 standard quadrature
performing fock build at end of subrot_r(subrot) constructor so that all methods have access
<S^2> of initial wavefunction before polarization iterations 0.0000000000
Beginning iterations for the determination of the polarized wavefunction
Energy prior to optimization (guess energy) = -473.867441686331
Begin Timing: Total SCF Calculation
begin iterations for algorithm: DIIS         
the SCF tolerance is set to 1.00e-08
    1    -473.8674416863      1.51e-04     00000 
    2    -473.8685600638      7.36e-05     00000 
    3    -473.8686944357      4.64e-05     00000 
    4    -473.8687515744      1.31e-05     00000 
    5    -473.8687577340      5.99e-06     00000 
    6    -473.8687595862      2.48e-06     00000 
    7    -473.8687599456      1.06e-06     00000 
    8    -473.8687600065      3.60e-07     00000 
    9    -473.8687600123      1.65e-07     00000 
   10    -473.8687600131      4.35e-08     00000 
   11    -473.8687600132      2.22e-08     00000 
   12    -473.8687600132      8.92e-09     00000 Convergence criterion met
write pseudocanon occs and virts to disk
write pseudocanon orbital energies to disk
Timing for Total SCF: 2537.00s (wall), 5043.88s (cpu)
<S^2> of polarized wavefunction after polarization iterations 0.0000000000
relaxing scfmi constraint to allow all rotations in the entire AO span
Doing General SCFMI
 Exchange:     0.1670 Hartree-Fock + 1.0000 wB97X-V + LR-HF
 Correlation:  1.0000 wB97X-V
 Using Euler-Maclaurin-Lebedev (99,590) quadrature formula
 Nonlocal Correlation:  VV10 with C = 0.0100 and b = 6.00 and scale = 1.00000
 Grid used for NLC:  SG-1 standard quadrature
performing fock build at end of subrot_r(subrot) constructor so that all methods have access
<S^2> of polarized wavefunction before ct-allowed iterations 0.0000000000
Beginning iterations for the determination of the CT-Allowed wavefunction
Energy prior to optimization (guess energy) = -473.868760013180
Begin Timing: Total SCF Calculation
begin iterations for algorithm: DIIS         
the SCF tolerance is set to 1.00e-08
    1    -473.8687600132      1.86e-04     00000 
    2    -473.8728021715      3.07e-05     00000 
    3    -473.8729844477      1.49e-05     00000 
    4    -473.8729997866      7.29e-06     00000 
    5    -473.8730047734      1.67e-06     00000 
    6    -473.8730050602      6.42e-07     00000 
    7    -473.8730051319      2.50e-07     00000 
    8    -473.8730051405      6.51e-08     00000 
    9    -473.8730051417      2.74e-08     00000 
   10    -473.8730051419      1.04e-08     00000 
   11    -473.8730051419      2.94e-09     00000 Convergence criterion met
write pseudocanon occs and virts to disk
write pseudocanon orbital energies to disk
Timing for Total SCF: 2342.00s (wall), 4612.99s (cpu)
<S^2> of ct_allowed wavefunction after ct-allowed iterations 0.0000000000

================================
        Results of EDA2         
================================
Basic EDA Quantities
--------------------
Fragment Energies (Ha):
1 -245.1967559375
2 -228.6592829493
--------------------
  E_prp (kJ/mol) = 0.0000
  E_sol (kJ/mol) = 314.0488
  E_frz (kJ/mol) = -319.1516
  E_pol (kJ/mol) = -3.4613
  E_vct (kJ/mol) = -11.1457
  E_int (kJ/mol) = -19.7099
--------------------


Initial Wavefunction Decomposition
--------------------
  --------------------
  Orthogonal Fragment Subspace Decomposition:
  --------------------
     E_elec   (ELEC)   (kJ/mol) = -395.1975
     E_pauli  (PAULI)  (kJ/mol) = 89.9986
     E_disp   (DISP)   (kJ/mol) = -13.9528
     --------------------
     Terms summing to E_pauli:
     --------------------
        E_kep_pauli       (kJ/mol) = 108.8716
        E_disp_free_pauli (kJ/mol) = -18.8729
  --------------------
  Classical Frozen Decomposition:
  --------------------
     E_cls_elec  (CLS ELEC)  (kJ/mol) = -360.9769
     E_cls_pauli (CLS PAULI) (kJ/mol) = 41.8253
    [E_mod_pauli (MOD PAULI) (kJ/mol) = 55.7781 (CLS PAULI - DISP from orthogonal decomposition) ]
  --------------------
--------------------

Simplified EDA Summary (kJ/mol)
--------------------
 PREPARATION     0.0000
 SOLVATION       314.0488
 FROZEN          -305.1988      (does not include dispersion)
[PAULI           89.9986]     (if this is negligible, then frozen describes electrostatics)
 DISPERSION      -13.9528
 POLARIZATION    -3.4613
 CHARGE TRANSFER -11.1457
 TOTAL           -19.7099     (PRP + SOL + FRZ + DISP + POL + CT)
--------------------
 
 --------------------------------------------------------------
 
                    Orbital Energies (a.u.)
 --------------------------------------------------------------
 
 Alpha MOs
 -- Occupied --
-19.1578 -19.1569 -14.4510 -14.4442 -14.4291 -10.4144 -10.3601 -10.3042
-10.2516  -1.1702  -1.1681  -1.0675  -1.0495  -1.0372  -0.8484  -0.8450
 -0.7607  -0.7171  -0.6825  -0.6257  -0.6137  -0.6045  -0.5816  -0.5704
 -0.5498  -0.5476  -0.5422  -0.5233  -0.5031  -0.4839  -0.4660  -0.3957
 -0.3726  -0.3687  -0.3636  -0.3471
 -- Virtual --
  0.0569   0.0727   0.0889   0.0931   0.0948   0.1068   0.1108   0.1225
  0.1236   0.1351   0.1403   0.1436   0.1467   0.1546   0.1623   0.1707
  0.1842   0.1863   0.1918   0.1965   0.2018   0.2131   0.2157   0.2191
  0.2276   0.2386   0.2405   0.2424   0.2506   0.2555   0.2674   0.2701
  0.2741   0.2869   0.2917   0.2983   0.2989   0.3124   0.3138   0.3185
  0.3263   0.3278   0.3312   0.3339   0.3420   0.3488   0.3501   0.3556
  0.3622   0.3628   0.3673   0.3745   0.3772   0.3869   0.3890   0.3922
  0.4020   0.4063   0.4111   0.4162   0.4207   0.4265   0.4299   0.4366
  0.4418   0.4485   0.4530   0.4624   0.4688   0.4726   0.4828   0.4836
  0.4867   0.4915   0.4988   0.5061   0.5087   0.5136   0.5148   0.5229
  0.5289   0.5380   0.5406   0.5435   0.5538   0.5598   0.5669   0.5742
  0.5783   0.5833   0.5895   0.5961   0.5993   0.6093   0.6144   0.6172
  0.6266   0.6362   0.6450   0.6476   0.6573   0.6600   0.6649   0.6723
  0.6773   0.6903   0.7016   0.7080   0.7168   0.7173   0.7206   0.7335
  0.7369   0.7419   0.7541   0.7604   0.7726   0.7793   0.7916   0.7946
  0.8014   0.8072   0.8109   0.8234   0.8267   0.8353   0.8476   0.8521
  0.8633   0.8693   0.8726   0.8781   0.8857   0.8977   0.9095   0.9219
  0.9295   0.9339   0.9493   0.9530   0.9754   0.9911   1.0052   1.0172
  1.0278   1.0368   1.0500   1.0641   1.0731   1.0754   1.0872   1.1080
  1.1086   1.1236   1.1400   1.1470   1.1659   1.1733   1.1817   1.2078
  1.2128   1.2264   1.2315   1.2432   1.2589   1.2661   1.2887   1.3068
  1.3277   1.3458   1.3657   1.3711   1.3862   1.3978   1.4319   1.4588
  1.4651   1.4840   1.5064   1.5373   1.5563   1.5803   1.6015   1.6066
  1.6393   1.6691   1.7102   1.7303   1.7429   1.7682   1.7965   1.8101
  1.8325   1.8645   1.8764   1.8796   1.8822   1.8950   1.9005   1.9317
  1.9372   1.9383   1.9532   1.9554   1.9727   1.9930   2.0004   2.0182
  2.0209   2.0402   2.0542   2.0723   2.0987   2.1103   2.1177   2.1306
  2.1562   2.1766   2.1901   2.2128   2.2162   2.2305   2.2586   2.2837
  2.2936   2.3091   2.3394   2.3579   2.3759   2.4014   2.4215   2.4383
  2.4422   2.4486   2.4781   2.5137   2.5288   2.5355   2.5532   2.5698
  2.5842   2.5921   2.6301   2.6374   2.6437   2.6497   2.6583   2.6841
  2.6903   2.7128   2.7316   2.7466   2.7917   2.8305   2.8514   2.8615
  2.8687   2.8787   2.8840   2.9340   2.9361   2.9383   2.9523   2.9774
  3.0038   3.0644   3.0893   3.0938   3.1414   3.1487   3.1518   3.1676
  3.1809   3.2239   3.2393   3.2493   3.2532   3.2797   3.2913   3.3000
  3.3049   3.3194   3.3319   3.3461   3.3668   3.3758   3.3888   3.3930
  3.4181   3.4223   3.4511   3.4536   3.4852   3.4933   3.5223   3.5315
  3.5518   3.5808   3.5904   3.6351   3.6409   3.6665   3.6841   3.7021
  3.7222   3.7297   3.7359   3.7467   3.7555   3.7818   3.8654   3.9064
  3.9230   3.9545   3.9655   4.0100   4.0628   4.0849   4.1029   4.1532
  4.1897   4.2320   4.2906   4.3059   4.3263   4.3648   4.4369   4.5376
  4.5769   4.5846   4.5968   4.6168   4.6459   4.6748   4.6830   4.7962
  4.8318   4.8455   4.8850   4.9287   4.9492   4.9935   5.0276   5.0379
  5.0676   5.1232   5.1395   5.1693   5.2010   5.2200   5.2622   5.2965
  5.3096   5.3237   5.3412   5.3477   5.3561   5.4047   5.4241   5.4574
  5.4858   5.5063   5.5095   5.5870   5.6156   5.6665   5.6909   5.7100
  5.7576   5.7725   5.7767   5.8278   5.9464   6.0083   6.1683   6.1972
  6.2090   6.3137   6.3516   6.3735   6.5205   6.5795   6.6262   6.7255
  6.7374   6.7485   6.9210   7.0014   7.0227   7.2236   7.3056   7.3646
  7.4110  22.5963  22.6535  23.6927  23.7118  32.3881  32.5462  32.8861
 44.3058  44.3844
 --------------------------------------------------------------
 
          Ground-State Mulliken Net Atomic Charges

     Atom                 Charge (a.u.)
  ----------------------------------------
      1 C                    -0.777223
      2 C                     0.523034
      3 N                    -0.206374
      4 N                    -0.138006
      5 N                    -0.262114
      6 H                     0.290498
      7 H                     0.154971
      8 H                     0.253706
      9 H                     0.144473
     10 H                     0.240569
     11 H                     0.308881
     12 H                     0.254771
     13 H                     0.259047
     14 C                    -0.566036
     15 C                     0.497266
     16 O                    -0.809959
     17 O                    -0.773536
     18 H                     0.207926
     19 H                     0.166304
     20 H                     0.231799
  ----------------------------------------
  Sum of atomic charges =     0.000000

 -----------------------------------------------------------------
                    Cartesian Multipole Moments
 -----------------------------------------------------------------
    Charge (ESU x 10^10)
                 0.0000
    Dipole Moment (Debye)
         X     -12.1846      Y      11.9235      Z     -16.3546
       Tot      23.6243
    Quadrupole Moments (Debye-Ang)
        XX     -54.0315     XY      12.4103     YY     -68.6946
        XZ     -10.2268     YZ      10.1517     ZZ     -57.4210
    Octopole Moments (Debye-Ang^2)
       XXX    -112.0883    XXY      54.5213    XYY     -46.6996
       YYY      36.9190    XXZ     -79.3147    XYZ      58.6009
       YYZ     -56.4328    XZZ     -69.2078    YZZ      78.3288
       ZZZ    -105.2341
    Hexadecapole Moments (Debye-Ang^3)
      XXXX   -1095.1762   XXXY     315.2968   XXYY    -329.8111
      XYYY     288.7924   YYYY    -581.8347   XXXZ    -608.7773
      XXYZ     175.0234   XYYZ    -238.0698   YYYZ     371.6745
      XXZZ    -500.2995   XYZZ     145.2992   YYZZ    -381.3544
      XZZZ    -599.1005   YZZZ     341.0547   ZZZZ   -1422.3409
 -----------------------------------------------------------------
Archival summary:
1\1\nid00506\SP\ProcedureUnspecified\BasisUnspecified\23411\meili\SunSep2620:02:412021SunSep2620:02:412021\0\\#,ProcedureUnspecified,BasisUnspecified,\\0,1\O\C,1,1.26105\O,2,1.25169,1,121.228\C,2,1.51972,1,117.962,3,-177.186,0\H,4,1.09216,2,108.261,1,-37.8539,0\H,4,1.09296,2,109.217,1,79.9208,0\H,4,1.1,2,112.478,1,-159.288,0\H,1,1.89284,2,127.061,3,-142.677,0\N,8,1.02834,1,149.243,2,-126.046,0\H,9,0.996237,8,118.337,1,-43.2248,0\C,9,1.30417,8,118.979,1,163.965,0\N,11,1.31543,9,119.433,8,1.90567,0\H,12,0.995853,11,122.257,9,-174.974,0\H,12,1.0317,11,119.44,9,-2.31455,0\N,11,1.33114,9,119.805,8,-178.324,0\H,15,1.01486,11,116.37,9,0.825098,0\C,15,1.46695,11,125.959,9,178.193,0\H,17,1.09003,15,111.359,11,6.44617,0\H,17,1.09383,15,109.388,11,-111.184,0\H,17,1.1,15,111.648,11,126.513,0\\\@

 Total job time:  25679.01s(wall), 16407.73s(cpu) 
 Sun Sep 26 20:02:42 2021

        *************************************************************
        *                                                           *
        *  Thank you very much for using Q-Chem.  Have a nice day.  *
        *                                                           *
        *************************************************************


